Membrane in water
40155
    1TCq1    O1    1   2.555   1.699  11.920  0.7639 -0.0801  0.4044
    1TCq1    C1    2   2.689   1.696  11.959 -0.4880 -0.5807  0.1755
    1TCq1    O2    3   2.753   1.794  11.995  0.8492 -0.6069  0.3468
    1TCq1    C2    4   2.738   1.559  11.944  0.6007  1.0088 -0.1033
    1TCq1    C3    5   2.862   1.541  11.894  0.0247  0.1885  0.2424
    1TCq1    C4    6   2.920   1.419  11.916 -0.0632  0.3573 -0.5471
    1TCq1    C5    7   2.854   1.312  11.970 -0.2155  0.2168 -1.4152
    1TCq1    C6    8   2.730   1.332  12.019 -0.4389 -0.8725  0.0108
    1TCq1    C7    9   2.671   1.459  12.008  0.0191  0.1776  0.1348
    1TCq1    C8   10   2.650   1.238  12.092 -0.6203 -0.2054 -0.3662
    1TCq1    O4   11   2.545   1.276  12.136 -0.3280 -0.6233 -0.2746
    1TCq1    C9   12   3.064   1.413  11.887  0.0482  0.6475 -0.1926
    1TCq1    O5   13   3.108   1.298  11.898  0.3101  0.0798  0.2623
    1TCq1    O6   14   3.122   1.512  11.836  0.0539 -0.4164  0.0080
    1TCq1    H1   15   2.519   1.625  11.867 -2.4592  2.1689 -0.5636
    1TCq1    H2   16   2.920   1.622  11.853  0.4928 -0.7609 -0.9501
    1TCq1    H3   17   2.911   1.222  11.993  1.3008  2.3665  3.2613
    1TCq1    H4   18   2.567   1.476  12.034  0.3133  2.4109 -0.1689
    2MPD2     C   19   2.534   0.746  12.235  0.3903  0.3517  0.6190
    2MPD2    C1   20   2.466   0.866  12.257 -0.0411 -0.3082 -0.7278
    2MPD2    C2   21   2.525   0.988  12.207  0.0460 -0.0953  0.3154
    2MPD2    C3   22   2.646   0.987  12.134 -0.1757  0.4287 -0.6409
    2MPD2    C4   23   2.709   0.866  12.116  0.4307  0.4122  0.1968
    2MPD2    C5   24   2.646   0.753  12.159  0.2296 -0.2502 -0.1593
    2MPD2     H   25   2.470   1.081  12.212  1.7825  0.7920  3.3749
    2MPD2    H1   26   2.796   0.863  12.051  0.4237  0.6298  0.1764
    2MPD2    H2   27   2.502   0.647  12.267 -0.6413  0.5016  0.0414
    2MPD2    H3   28   2.689   0.658  12.131  2.5347  0.7346  0.0247
    2MPD2     N   29   2.708   1.108  12.087 -0.3240  0.0327 -0.4784
    2MPD2    H5   30   2.781   1.105  12.017  0.1924  2.1531 -0.0281
    2MPD2    N1   31   2.332   0.877  12.304 -0.1086  0.4148  0.0584
    2MPD2    H7   32   2.289   0.969  12.299  0.5005  0.7321  0.6165
    3TCq1    O1   33   0.760   2.346  10.870  0.1619  0.4862  0.8001
    3TCq1    C1   34   0.848   2.454  10.876  0.2017  0.2999 -0.5366
    3TCq1    O2   35   0.964   2.455  10.914  0.8389 -0.1805  0.2224
    3TCq1    C2   36   0.793   2.567  10.801 -0.3904  0.3900 -0.1792
    3TCq1    C3   37   0.666   2.598  10.821  1.2308  0.3736  0.2994
    3TCq1    C4   38   0.618   2.712  10.761  0.4078  0.0376  0.2622
    3TCq1    C5   39   0.696   2.799  10.695  0.4477  0.5694 -0.1103
    3TCq1    C6   40   0.827   2.770  10.686 -0.1865 -0.2968 -0.4718
    3TCq1    C7   41   0.875   2.663  10.741  0.2907  0.1910 -0.2127
    3TCq1    C8   42   0.926   2.870  10.655 -0.1230  0.2447  0.5884
    3TCq1    O4   43   1.038   2.833  10.616  0.2227  0.3150 -0.0854
    3TCq1    C9   44   0.480   2.747  10.781  0.2962  0.1188 -0.4365
    3TCq1    O5   45   0.417   2.658  10.842  0.2706  0.3203 -0.1303
    3TCq1    O6   46   0.438   2.853  10.722  0.1906  0.3386 -0.0823
    3TCq1    H1   47   0.676   2.368  10.826  0.7551  0.0668 -0.5505
    3TCq1    H2   48   0.606   2.534  10.884  0.2277  1.5856  0.5613
    3TCq1    H3   49   0.658   2.881  10.636 -1.0568  0.0275  0.0966
    3TCq1    H4   50   0.982   2.651  10.744 -0.0730 -2.3839  2.9419
    4MPD2     C   51   1.125   3.338  10.617  0.3271 -0.4054 -0.5974
    4MPD2    C1   52   0.995   3.340  10.654  0.0631  0.4165 -0.4254
    4MPD2    C2   53   0.927   3.231  10.681 -0.0104  0.4754 -0.3980
    4MPD2    C3   54   0.980   3.104  10.674 -0.4193  0.7748 -0.2309
    4MPD2    C4   55   1.116   3.100  10.638 -0.2853 -1.0355  0.3233
    4MPD2    C5   56   1.187   3.216  10.608 -0.2369  0.4541 -0.4407
    4MPD2     H   57   0.821   3.233  10.706  0.4073  0.3383  1.4342
    4MPD2    H1   58   1.173   3.011  10.611 -0.0365 -1.5843  2.6594
    4MPD2    H2   59   1.181   3.426  10.584  0.9753 -0.9445 -0.9319
    4MPD2    H3   60   1.288   3.215  10.569 -0.3488  1.7741 -0.7436
    4MPD2     N   61   0.898   2.990  10.697 -0.4722 -0.0827 -0.2654
    4MPD2    H5   62   0.803   3.010  10.726  0.3297  3.2390  0.0812
    4MPD2    N1   63   0.935   3.461  10.690  0.1556  0.2831  0.0018
    4MPD2    H7   64   0.842   3.453  10.730  0.2422 -0.0156  0.1479
    5TCq1    O1   65   1.380   3.185  11.284  0.3333 -0.7291 -0.4315
    5TCq1    C1   66   1.315   3.241  11.391 -0.0833  0.4151 -0.3519
    5TCq1    O2   67   1.212   3.200  11.443  0.0054  0.1577  0.4734
    5TCq1    C2   68   1.357   3.379  11.386  0.4940  0.1827 -0.4817
    5TCq1    C3   69   1.263   3.478  11.387 -0.3936 -0.2638 -0.5170
    5TCq1    C4   70   1.300   3.608  11.376 -0.5805  1.3059  0.3226
    5TCq1    C5   71   1.436   3.637  11.364 -0.0293 -0.2264 -0.0734
    5TCq1    C6   72   1.527   3.539  11.352 -0.0906 -0.2465 -0.2076
    5TCq1    C7   73   1.489   3.412  11.375  0.1470  0.3050 -0.0096
    5TCq1    C8   74   1.661   3.562  11.305  0.4340 -0.6935 -0.1224
    5TCq1    O4   75   1.735   3.466  11.294  0.5104  0.1456  0.3364
    5TCq1    C9   76   1.199   3.709  11.380  0.2558  0.6204 -0.4626
    5TCq1    O5   77   1.241   3.827  11.363 -0.2492 -0.1323 -0.1032
    5TCq1    O6   78   1.086   3.673  11.375 -0.0024  1.0475 -0.2804
    5TCq1    H1   79   1.446   3.246  11.244  0.2266 -1.2866 -1.4622
    5TCq1    H2   80   1.159   3.448  11.388 -0.3799 -0.2438  1.2314
    5TCq1    H3   81   1.459   3.741  11.344 -1.0790 -0.2301 -1.2501
    5TCq1    H4   82   1.563   3.335  11.391  0.2495  0.2658 -0.6813
    6MPD2     C   83   1.819   3.891  11.258  1.0371  0.0866 -0.4592
    6MPD2    C1   84   1.798   3.754  11.237 -1.0918 -0.1209  0.5697
    6MPD2    C2   85   1.892   3.679  11.176  0.1191 -0.1221 -0.8600
    6MPD2    C3   86   2.009   3.740  11.134 -0.3194 -0.0036  0.4164
    6MPD2    C4   87   2.035   3.875  11.156  0.2569 -0.1040  0.4007
    6MPD2    C5   88   1.940   3.947  11.222 -0.6879  0.1447  0.2794
    6MPD2     H   89   1.893   3.571  11.169 -3.0778 -0.3746  3.1392
    6MPD2    H1   90   2.131   3.925  11.143 -0.4111  1.3836  1.2651
    6MPD2    H2   91   1.742   3.954  11.301 -0.5935 -1.2230 -1.4830
    6MPD2    H3   92   1.949   4.053  11.245  0.0182  0.3451 -0.9806
    6MPD2     N   93   2.105   3.652  11.074 -0.0632  0.2271 -0.2281
    6MPD2    H5   94   2.078   3.559  11.042 -1.0906  0.2674  0.5511
    6MPD2    N1   95   1.679   3.696  11.279 -0.0468 -0.2168 -0.2075
    6MPD2    H7   96   1.603   3.755  11.310 -0.8613 -1.8323  0.8535
    7TCq1    O1   97   0.004   4.002  13.954  0.4099  0.4469 -0.3515
    7TCq1    C1   98   0.115   3.921  13.968 -0.7483  0.2579  0.2744
    7TCq1    O2   99   0.161   3.886  14.077  0.1976 -0.1924 -0.1989
    7TCq1    C2  100   0.088   3.824  13.862 -0.0539 -0.2883  0.3032
    7TCq1    C3  101   0.020   3.861  13.754 -0.0118  0.2471 -0.2718
    7TCq1    C4  102   4.715   3.772  13.650 -0.2947  0.2776 -0.4395
    7TCq1    C5  103   0.021   3.641  13.676 -0.0256  0.2516 -0.9984
    7TCq1    C6  104   0.108   3.605  13.776 -0.9497  0.1507  0.8647
    7TCq1    C7  105   0.129   3.694  13.882  0.1891  0.3008 -1.0747
    7TCq1    C8  106   0.127   3.461  13.803  0.5520  0.3913  0.5049
    7TCq1    O4  107   0.082   3.386  13.721  0.2656  0.5935  0.4174
    7TCq1    C9  108   4.641   3.809  13.534 -0.5113 -0.2203  0.4451
    7TCq1    O5  109   4.678   3.752  13.431  0.0594  0.1944  0.5236
    7TCq1    O6  110   4.591   3.920  13.539 -0.2351  0.0688 -0.2149
    7TCq1    H1  111   4.668   3.986  13.876 -0.5913  0.4313  0.3803
    7TCq1    H2  112   0.002   3.964  13.725  2.4345  0.9670  0.7336
    7TCq1    H3  113   4.701   3.569  13.607 -1.8717 -0.3829  0.7738
    7TCq1    H4  114   0.200   3.674  13.962 -1.1983  0.8841  0.2995
    8MPD2     C  115   0.280   3.069  14.110  0.4285  0.3580 -0.3767
    8MPD2    C1  116   0.244   3.076  13.972  0.6905  0.0004  0.1583
    8MPD2    C2  117   0.198   3.197  13.919  0.2165  0.1127  0.5323
    8MPD2    C3  118   0.190   3.309  13.996  0.2961  0.0334 -0.1718
    8MPD2    C4  119   0.226   3.307  14.131 -0.3971 -0.7349 -0.2834
    8MPD2    C5  120   0.266   3.190  14.179  0.5423 -0.1190 -0.4249
    8MPD2     H  121   0.194   3.207  13.811  0.1230 -0.1797  0.5105
    8MPD2    H1  122   0.210   3.390  14.199 -3.6496 -1.4501 -0.1724
    8MPD2    H2  123   0.325   2.985  14.161 -0.5929  1.1937  1.9125
    8MPD2    H3  124   0.290   3.189  14.285 -1.4620  1.2582  0.0328
    8MPD2     N  125   0.160   3.439  13.936  0.2203 -0.2152  0.4149
    8MPD2    H5  126   0.169   3.512  14.005 -0.3773  1.4743 -1.2859
    8MPD2    N1  127   0.261   2.966  13.881 -0.2545  0.2315  0.5235
    8MPD2    H7  128   0.297   2.886  13.932  1.1366  0.6203  0.1335
    9TCq1    O1  129   1.506   1.758  10.877  0.0508 -0.0076 -0.4261
    9TCq1    C1  130   1.593   1.867  10.896  0.1355 -0.0658 -0.6574
    9TCq1    O2  131   1.563   1.959  10.969  0.4281  0.1913 -0.6952
    9TCq1    C2  132   1.732   1.819  10.882 -0.4272 -0.0824 -0.0936
    9TCq1    C3  133   1.763   1.750  10.767  0.2811  0.0026  0.0852
    9TCq1    C4  134   1.899   1.754  10.734 -0.2017 -0.6024  0.0132
    9TCq1    C5  135   2.000   1.812  10.807 -0.0129 -0.3905  0.3355
    9TCq1    C6  136   1.961   1.866  10.924  0.0136  0.2965 -0.3295
    9TCq1    C7  137   1.829   1.881  10.957 -0.7920 -0.2719 -0.7214
    9TCq1    C8  138   2.067   1.902  11.019 -0.0941 -0.0768  0.1714
    9TCq1    O4  139   2.184   1.903  10.980 -0.1845  0.1104 -0.3177
    9TCq1    C9  140   1.933   1.686  10.609 -0.1848 -0.2509  0.0526
    9TCq1    O5  141   2.045   1.709  10.563  0.0132 -0.5967 -0.1873
    9TCq1    O6  142   1.834   1.645  10.544 -0.6951 -0.3913 -0.1591
    9TCq1    H1  143   1.552   1.682  10.835 -0.5134  0.0512 -1.1528
    9TCq1    H2  144   1.697   1.690  10.706  0.1227  0.7794 -0.5026
    9TCq1    H3  145   2.102   1.808  10.772 -0.2920 -1.5788 -0.3546
    9TCq1    H4  146   1.802   1.943  11.042  3.0760  1.3886 -0.7337
   10MPD2     C  147   2.201   2.083  11.218  0.2556  0.4158 -0.4248
   10MPD2    C1  148   2.090   2.008  11.241 -0.6152 -0.1931  0.3280
   10MPD2    C2  149   2.045   1.993  11.371 -0.5618  0.0431 -0.7229
   10MPD2    C3  150   2.109   2.055  11.478 -0.0959 -0.3925  0.0600
   10MPD2    C4  151   2.225   2.124  11.459  0.1121  0.3658 -0.2376
   10MPD2    C5  152   2.268   2.132  11.329 -0.2578 -0.1054 -0.1553
   10MPD2     H  153   1.960   1.928  11.385 -1.5105  1.2597 -0.8231
   10MPD2    H1  154   2.286   2.177  11.531  1.1819  1.9125 -2.2873
   10MPD2    H2  155   2.245   2.082  11.119 -0.2009  1.8999 -0.6377
   10MPD2    H3  156   2.363   2.183  11.315 -0.1537 -0.2600 -0.0107
   10MPD2     N  157   2.076   2.024  11.612  0.2557 -0.3053  0.0109
   10MPD2    H5  158   2.134   2.055  11.689  0.6440  0.6126 -0.6517
   10MPD2    N1  159   2.023   1.928  11.145 -0.1790 -0.1155  0.4483
   10MPD2    H7  160   1.935   1.881  11.167 -1.0206  0.2139 -2.3100
   11TCq1    O1  161   2.628   2.346  14.154  0.2815  0.1761 -0.0028
   11TCq1    C1  162   2.579   2.267  14.248  0.3543 -0.7393  0.3599
   11TCq1    O2  163   2.523   2.311  14.350  0.0156 -0.1621 -0.3500
   11TCq1    C2  164   2.587   2.134  14.194  0.2859 -0.2094 -0.1486
   11TCq1    C3  165   2.716   2.093  14.163 -0.3004 -0.6450 -0.1142
   11TCq1    C4  166   2.730   1.959  14.154  0.3428  0.1543 -0.0191
   11TCq1    C5  167   2.625   1.873  14.161  0.8127 -0.2172  0.2264
   11TCq1    C6  168   2.501   1.920  14.201 -0.0779 -0.3537 -0.2196
   11TCq1    C7  169   2.482   2.053  14.226  0.7112 -0.2763 -0.3176
   11TCq1    C8  170   2.374   1.848  14.174  0.0752 -0.5993 -0.7865
   11TCq1    O4  171   2.270   1.885  14.232 -0.0238  0.1438  0.0489
   11TCq1    C9  172   2.859   1.904  14.124 -0.0068  0.3389  0.5615
   11TCq1    O5  173   2.954   1.976  14.164  0.1094  0.4113  0.0401
   11TCq1    O6  174   2.863   1.778  14.100  0.1497 -0.6954  0.5176
   11TCq1    H1  175   2.679   2.301  14.083  0.3845 -0.3363  0.3960
   11TCq1    H2  176   2.801   2.158  14.147 -0.4434 -0.1643  1.1023
   11TCq1    H3  177   2.634   1.765  14.150  0.0272 -0.3114  0.5037
   11TCq1    H4  178   2.381   2.091  14.229  0.7600 -0.1560 -0.2027
   12MPD2     C  179   2.175   1.631  14.101  0.2164  0.1741 -0.8497
   12MPD2    C1  180   2.305   1.644  14.048  0.4131 -0.0964 -0.0136
   12MPD2    C2  181   2.360   1.552  13.963  0.2478  0.0268  0.6703
   12MPD2    C3  182   2.273   1.441  13.930 -0.2948  0.0042  1.1010
   12MPD2    C4  183   2.150   1.433  13.986 -0.2108 -0.3537  0.1576
   12MPD2    C5  184   2.099   1.523  14.069  0.4573  0.3580  0.8318
   12MPD2     H  185   2.461   1.561  13.923  0.8246 -2.2293  1.6091
   12MPD2    H1  186   2.087   1.354  13.947 -0.4784  0.6784 -1.4889
   12MPD2    H2  187   2.141   1.702  14.176 -1.9203 -2.6587  0.8879
   12MPD2    H3  188   1.996   1.518  14.103  0.7363 -0.2484  1.5765
   12MPD2     N  189   2.311   1.338  13.841  0.1417 -0.3601 -0.1270
   12MPD2    H5  190   2.238   1.272  13.815 -0.9588  0.8923 -0.1626
   12MPD2    N1  191   2.400   1.747  14.084  0.0310 -0.0976  0.1503
   12MPD2    H7  192   2.495   1.753  14.048 -0.1597 -0.0225 -0.3312
   13TCq1    O1  193   2.378   1.871  11.667 -0.1813  0.4612  0.2505
   13TCq1    C1  194   2.438   1.906  11.557 -0.0759  0.1794  0.0858
   13TCq1    O2  195   2.539   1.976  11.542  0.7878  0.6311 -0.6919
   13TCq1    C2  196   2.398   1.808  11.455  0.0816 -0.0326 -0.5263
   13TCq1    C3  197   2.496   1.757  11.376 -0.0621  0.6500  0.2641
   13TCq1    C4  198   2.465   1.657  11.286 -0.4477 -0.2771  0.5938
   13TCq1    C5  199   2.338   1.617  11.275  0.5530  0.5286 -0.3360
   13TCq1    C6  200   2.239   1.668  11.349 -0.5078  0.2702 -0.1974
   13TCq1    C7  201   2.274   1.755  11.448  0.0506  0.0565 -0.1331
   13TCq1    C8  202   2.097   1.634  11.335 -0.9344 -0.4090  0.4933
   13TCq1    O4  203   2.016   1.672  11.422 -0.2903  0.1480 -0.2171
   13TCq1    C9  204   2.565   1.596  11.201 -0.0837 -0.4132  0.0362
   13TCq1    O5  205   2.526   1.513  11.116 -0.0952 -0.5856 -0.5297
   13TCq1    O6  206   2.680   1.639  11.213 -0.1289  0.5425 -0.3076
   13TCq1    H1  207   2.316   1.795  11.657 -0.0589  0.2282  1.3280
   13TCq1    H2  208   2.597   1.794  11.377  0.4199 -0.6686  0.1336
   13TCq1    H3  209   2.311   1.544  11.199  0.2161 -1.3012  1.5533
   13TCq1    H4  210   2.198   1.795  11.514 -0.0333  0.1054 -0.2586
   14MPD2     C  211   1.924   1.475  11.053 -0.4342 -0.2491 -0.2671
   14MPD2    C1  212   1.930   1.550  11.167  0.0850 -0.2124  0.0695
   14MPD2    C2  213   1.812   1.598  11.214  0.2679  0.2109 -0.0263
   14MPD2    C3  214   1.690   1.578  11.146  0.4270 -0.8175  0.0526
   14MPD2    C4  215   1.684   1.495  11.037 -0.2127 -0.9315  0.2094
   14MPD2    C5  216   1.801   1.445  10.991 -0.2511  0.1610  0.1035
   14MPD2     H  217   1.817   1.659  11.303 -1.8431 -0.4585  0.5482
   14MPD2    H1  218   1.591   1.469  10.987 -0.8793  2.8969 -0.5305
   14MPD2    H2  219   2.013   1.423  11.018 -0.7509 -2.4273  2.1791
   14MPD2    H3  220   1.807   1.379  10.906  1.2486  0.2468  0.1332
   14MPD2     N  221   1.584   1.656  11.197  0.1380  0.4687 -0.3676
   14MPD2    H5  222   1.613   1.733  11.256  2.4319 -1.0696  0.5264
   14MPD2    N1  223   2.057   1.565  11.220  0.1752  0.0060  0.3003
   14MPD2    H7  224   2.131   1.549  11.154 -0.6373  0.1822 -0.6529
   15TCq1    O1  225   4.085   1.078   1.736  0.2468  0.1660 -0.5325
   15TCq1    C1  226   4.100   1.063   1.871  0.4128  0.3311  0.5628
   15TCq1    O2  227   4.011   1.070   1.953 -1.0932  0.0114 -0.4757
   15TCq1    C2  228   4.231   1.105   1.908  0.2526 -0.4574  0.1883
   15TCq1    C3  229   4.240   1.174   2.020  0.0339 -0.0030  0.1026
   15TCq1    C4  230   4.359   1.188   2.085  0.3632  0.4252 -0.1789
   15TCq1    C5  231   4.470   1.136   2.025  0.1235 -0.5298 -0.0229
   15TCq1    C6  232   4.449   1.067   1.907 -0.4959  0.0756 -0.3040
   15TCq1    C7  233   4.334   1.041   1.851  0.1018 -0.1642  0.4283
   15TCq1    C8  234   4.568   1.034   1.829 -0.0738 -0.0546 -0.3427
   15TCq1    O4  235   4.674   1.016   1.888 -0.1720 -0.3259  0.1623
   15TCq1    C9  236   4.372   1.276   2.202  0.5273  0.4725  0.5150
   15TCq1    O5  237   4.266   1.332   2.243  0.8960  0.8355 -0.5190
   15TCq1    O6  238   4.489   1.308   2.237  0.2091 -0.0653  0.2112
   15TCq1    H1  239   4.161   1.093   1.677 -0.2868  0.2277 -1.2125
   15TCq1    H2  240   4.150   1.211   2.068 -0.2728 -1.0678  0.3605
   15TCq1    H3  241   4.563   1.172   2.068  0.2780  1.1428 -1.7245
   15TCq1    H4  242   4.326   0.967   1.772 -1.3436 -0.5722  0.9501
   16MPD2     C  243   4.575   0.968   1.462 -0.2591  0.3319 -0.2865
   16MPD2    C1  244   4.627   0.975   1.589  0.2689 -0.1793  0.4518
   16MPD2    C2  245   0.026   0.909   1.615  0.3256 -0.2938  0.9946
   16MPD2    C3  246   0.112   0.872   1.512 -0.2466 -0.2570  0.2720
   16MPD2    C4  247   0.060   0.862   1.385  0.0191  0.1889  0.4311
   16MPD2    C5  248   4.653   0.913   1.361  0.3432  0.8870  0.5778
   16MPD2     H  249   0.061   0.901   1.717  0.2814 -1.3174  0.9376
   16MPD2    H1  250   0.119   0.813   1.308 -0.5298  0.2290 -0.0173
   16MPD2    H2  251   4.474   1.005   1.454  0.0748  0.5592 -3.4107
   16MPD2    H3  252   4.616   0.905   1.259 -0.5335  1.7791  0.8312
   16MPD2     N  253   0.236   0.820   1.553 -0.7591  0.2757  0.5381
   16MPD2    H5  254   0.265   0.827   1.650 -0.4705  0.8660  0.4112
   16MPD2    N1  255   4.543   1.037   1.692 -0.4303 -0.1303  0.2925
   16MPD2    H7  256   4.454   1.071   1.657 -0.4875 -0.0694  0.4974
   17TCq1    O1  257   2.856   1.759  11.392  0.4335  0.2488 -0.4355
   17TCq1    C1  258   2.828   1.727  11.518  0.3275  0.2788  0.1946
   17TCq1    O2  259   2.895   1.766  11.611 -0.3589  0.0395 -0.1090
   17TCq1    C2  260   2.757   1.598  11.513  0.4489 -0.0066 -0.3675
   17TCq1    C3  261   2.652   1.570  11.606  0.7113  0.1788  0.0165
   17TCq1    C4  262   2.594   1.447  11.592  1.0397 -0.4633  0.1888
   17TCq1    C5  263   2.632   1.358  11.495 -0.4284 -0.0079 -0.5130
   17TCq1    C6  264   2.737   1.387  11.417 -0.3753  0.0874  0.8813
   17TCq1    C7  265   2.802   1.503  11.430 -0.1162  0.1194 -0.3777
   17TCq1    C8  266   2.796   1.299  11.317 -0.0471  0.1679  0.6046
   17TCq1    O4  267   2.863   1.349  11.229 -0.2511  0.0952  0.1029
   17TCq1    C9  268   2.493   1.409  11.681 -0.0652 -0.3141 -0.5282
   17TCq1    O5  269   2.467   1.485  11.782 -0.3889  1.0163  0.0320
   17TCq1    O6  270   2.428   1.307  11.659  0.3217 -0.2896 -0.5904
   17TCq1    H1  271   2.791   1.708  11.339 -1.5774 -0.0387  2.3315
   17TCq1    H2  272   2.647   1.639  11.689 -1.9974 -1.7332  1.4511
   17TCq1    H3  273   2.569   1.270  11.494  0.5272 -0.6844 -0.7802
   17TCq1    H4  274   2.900   1.508  11.382  0.6779 -1.1543  1.1082
   18MPD2     C  275   2.661   0.961  11.238  0.3758  0.3065  1.1573
   18MPD2    C1  276   2.746   1.065  11.228  0.2027  0.2496 -0.1142
   18MPD2    C2  277   2.841   1.064  11.126  0.4054 -0.0541  0.3528
   18MPD2    C3  278   2.866   0.957  11.047 -0.5120 -0.2654  0.0068
   18MPD2    C4  279   2.782   0.846  11.064 -0.2158  0.5352  0.3538
   18MPD2    C5  280   2.681   0.847  11.162  0.3584  0.5715  0.0143
   18MPD2     H  281   2.906   1.151  11.119 -1.6643  1.4494 -0.1212
   18MPD2    H1  282   2.788   0.761  10.996  1.2787  0.0987  1.0324
   18MPD2    H2  283   2.581   0.956  11.311 -0.3932  1.0934  0.3668
   18MPD2    H3  284   2.612   0.763  11.161  0.7181  0.2716  0.5877
   18MPD2     N  285   2.966   0.965  10.947 -0.5560 -0.3744 -0.3039
   18MPD2    H5  286   3.001   1.058  10.929  0.3457 -0.1275  2.7328
   18MPD2    N1  287   2.738   1.170  11.324  0.0271  0.0987  0.0997
   18MPD2    H7  288   2.668   1.168  11.397 -0.7402 -0.8397 -0.6622
   19TMC2    C1  289   3.636   1.931  14.115 -0.1702 -0.6091  0.1288
   19TMC2    C2  290   3.558   2.014  14.193 -1.0661 -0.2211 -0.0507
   19TMC2    C3  291   3.437   1.974  14.237 -0.5629  0.3844 -0.4347
   19TMC2    C4  292   3.595   1.800  14.095 -0.8574  0.2589  0.8938
   19TMC2    C5  293   3.473   1.762  14.141  0.6080  0.2612  0.5105
   19TMC2    C6  294   3.390   1.855  14.201 -0.7093 -0.3198 -0.3293
   19TMC2     C  295   3.784   1.952  14.106  0.1571 -0.4130  0.5074
   19TMC2     O  296   3.810   2.071  14.078 -0.2454  0.4680 -0.1895
   19TMC2     H  297   3.589   2.115  14.218 -0.0094 -0.7149  0.6478
   19TMC2    H1  298   3.657   1.728  14.042 -0.9982  0.6697  0.1726
   19TMC2    H2  299   3.298   1.830  14.252 -0.6486 -1.2909 -0.7049
   19TMC2    C7  300   3.428   1.628  14.087  0.0895  0.6305  0.0940
   19TMC2    C8  301   3.370   2.047  14.342  0.0495  0.2716  0.0556
   19TMC2    O1  302   3.512   1.550  14.049 -0.3808 -0.3783 -0.0299
   19TMC2    O2  303   3.287   1.995  14.417  0.7951  0.6744 -0.0225
   19TMC2    O5  304   3.380   2.183  14.311  0.4749 -0.1580 -0.2407
   19TMC2    H5  305   3.455   2.213  14.256  0.7656  0.9374  0.7711
   20MPD2     C  306   4.054   1.927  14.006  0.5505  0.5273 -0.3820
   20MPD2    C1  307   3.995   1.843  14.103  0.7144  0.0056 -0.8392
   20MPD2    C2  308   4.071   1.747  14.162  0.4077  0.3009 -0.2348
   20MPD2    C3  309   4.209   1.739  14.134 -0.2849 -0.1310  0.3373
   20MPD2    C4  310   4.269   1.823  14.041  0.0514 -0.7409  0.4396
   20MPD2    C5  311   4.189   1.917  13.979  0.5673 -0.1003  0.2364
   20MPD2     H  312   4.027   1.668  14.222 -0.0338 -1.2350 -2.5759
   20MPD2    H1  313   4.372   1.810  14.012  0.2878  0.7631  0.5993
   20MPD2    H2  314   3.992   1.998  13.953  1.1381  1.0828 -0.3256
   20MPD2    H3  315   4.233   1.978  13.901 -1.3538  3.3750  1.8480
   20MPD2     N  316   4.295   1.651  14.193  0.0516  0.5072  0.1712
   20MPD2    H5  317   4.394   1.663  14.175 -0.0717  0.5605 -0.4580
   20MPD2    N1  318   3.859   1.842  14.129  0.2333 -0.3300  0.1774
   20MPD2    H7  319   3.819   1.774  14.194 -0.3583  1.1564  1.3670
   21MPD2     C  320   1.440   2.363  14.650 -1.0313 -0.5087 -0.1319
   21MPD2    C1  321   1.496   2.239  14.669  0.1134  0.0388 -0.2375
   21MPD2    C2  322   1.411   2.140  14.718 -0.0244  0.7144 -0.3220
   21MPD2    C3  323   1.282   2.165  14.749 -0.4654 -0.1964  0.1975
   21MPD2    C4  324   1.226   2.285  14.713 -0.1474  0.1961  0.4199
   21MPD2    C5  325   1.307   2.385  14.668 -0.1359 -0.4780  0.3992
   21MPD2     H  326   1.465   2.051  14.749 -2.3984 -1.0264 -1.1720
   21MPD2    H1  327   1.124   2.305  14.742  0.0735 -0.8006  1.8660
   21MPD2    H2  328   1.493   2.451  14.616 -1.1409  0.5957  2.5348
   21MPD2    H3  329   1.268   2.484  14.652 -0.6231 -0.9339 -1.2161
   21MPD2     N  330   1.206   2.081  14.832 -0.1033  0.2546 -0.1414
   21MPD2    H5  331   1.110   2.106  14.851  0.1241  0.5086  0.6899
   21MPD2    N1  332   1.624   2.194  14.622  0.1034 -0.0558  0.5922
   21MPD2    H7  333   1.649   2.096  14.615 -0.5014  0.2179 -4.9934
   22TCq2    C1  334   1.248   1.953  14.873 -0.4780 -0.3454 -0.0468
   22TCq2    O2  335   1.353   1.893  14.853 -0.3030  0.6018 -0.5073
   22TCq2    C2  336   1.147   1.879  14.949  0.8147 -0.5062  0.8493
   22TCq2    C3  337   1.193   1.797  15.052 -0.0167  0.1819 -1.2876
   22TCq2    C4  338   1.109   1.719  15.131  0.3871  0.3267  0.7363
   22TCq2    C5  339   0.973   1.730  15.114  0.1863 -0.1881 -0.4754
   22TCq2    C6  340   0.925   1.808  15.014  0.0001  0.3071  0.2566
   22TCq2    C7  341   1.010   1.885  14.929  0.2890 -0.2438  0.3408
   22TCq2    C8  342   0.794   1.858  15.045 -0.0143 -0.2050  0.5274
   22TCq2    O4  343   0.743   1.811  15.148  0.2083 -0.4548  0.7603
   22TCq2    C9  344   1.165   1.628  15.225 -0.2750 -0.0117 -0.5412
   22TCq2    O5  345   1.285   1.599  15.215 -0.9450 -0.0842  0.5237
   22TCq2    O6  346   1.087   1.560  15.294  0.4026 -0.2924  0.3986
   22TCq2    H2  347   1.299   1.775  15.062  0.1235  1.5256  0.1642
   22TCq2    H3  348   0.908   1.669  15.175 -0.2110  0.6889 -0.0282
   22TCq2    H4  349   0.958   1.939  14.851 -0.5837 -0.3916  0.8215
   23MPD2     C  350   2.819   3.204  14.508  0.1957 -0.4688  0.0342
   23MPD2    C1  351   2.690   3.165  14.551 -0.3834  0.1826  0.1388
   23MPD2    C2  352   2.585   3.178  14.470  0.6795  0.5420  0.3244
   23MPD2    C3  353   2.594   3.217  14.341  0.2511 -0.0812  0.2877
   23MPD2    C4  354   2.716   3.265  14.294 -0.1601  0.1917  0.6361
   23MPD2    C5  355   2.819   3.252  14.376  0.0150  0.3483  0.4449
   23MPD2     H  356   2.487   3.164  14.515  0.7348 -2.0204 -0.3863
   23MPD2    H1  357   2.731   3.297  14.191 -0.2204 -0.0353  0.5565
   23MPD2    H2  358   2.911   3.202  14.565  0.9357  2.5328 -1.0854
   23MPD2    H3  359   2.916   3.281  14.337 -0.9385  3.5110  0.4027
   23MPD2     N  360   2.477   3.215  14.251 -0.2219 -0.0776  0.5458
   23MPD2    H5  361   2.491   3.259  14.160 -3.2385 -0.2421  0.0115
   23MPD2    N1  362   2.660   3.118  14.683  0.0954  0.2393 -0.4191
   23MPD2    H7  363   2.561   3.094  14.688  0.2336 -0.4925 -1.3182
   24TCq2    C1  364   2.379   3.115  14.262 -0.2605 -0.3002 -0.6338
   24TCq2    O2  365   2.360   3.028  14.343 -0.4020  0.1521  0.1851
   24TCq2    C2  366   2.280   3.133  14.155  0.1111  0.9989 -0.3396
   24TCq2    C3  367   2.263   3.258  14.102 -0.3788 -0.0221  0.1752
   24TCq2    C4  368   2.160   3.273  14.017 -0.5137  0.5285 -0.5340
   24TCq2    C5  369   2.070   3.175  13.985 -0.1459 -0.0792  0.0401
   24TCq2    C6  370   2.080   3.055  14.041 -0.5763 -1.0640  0.7743
   24TCq2    C7  371   2.189   3.032  14.128  0.5226 -0.3187 -0.6063
   24TCq2    C8  372   2.003   2.940  14.004 -0.5925  0.1057  1.3097
   24TCq2    O4  373   2.040   2.835  14.050 -0.5924 -0.0086  0.4024
   24TCq2    C9  374   2.156   3.399  13.946 -0.0699  0.5047 -0.2774
   24TCq2    O5  375   2.261   3.459  13.925 -0.1105 -0.1747  0.0702
   24TCq2    O6  376   2.058   3.423  13.869  0.5330 -0.3402 -0.1677
   24TCq2    H2  377   2.332   3.341  14.111  1.7003 -1.8181  0.6954
   24TCq2    H3  378   1.994   3.201  13.913 -0.5419  1.0504  0.8762
   24TCq2    H4  379   2.195   2.934  14.174 -3.8919 -0.8484 -1.1245
   25TMC2    C1  380   2.047   0.477  11.846  0.0176 -0.2880  0.2978
   25TMC2    C2  381   2.166   0.467  11.901 -0.0147 -0.2843 -0.9785
   25TMC2    C3  382   2.163   0.476  12.034  0.3884 -0.1624 -0.2054
   25TMC2    C4  383   1.932   0.495  11.923  0.1516  0.1763  0.3651
   25TMC2    C5  384   1.942   0.510  12.060  0.4334  0.0038  0.1768
   25TMC2    C6  385   2.058   0.502  12.120  0.1467 -0.5036  0.4428
   25TMC2     C  386   2.038   0.469  11.703  0.4447  0.3364  0.0522
   25TMC2     O  387   2.114   0.529  11.631  0.2757 -0.0924  0.0526
   25TMC2     H  388   2.254   0.449  11.840  0.9817  1.1941  0.0120
   25TMC2    H1  389   1.842   0.504  11.864 -0.4368 -0.9902  1.1011
   25TMC2    H2  390   2.071   0.527  12.225  0.1018  0.8378  0.1240
   25TMC2    C7  391   1.832   0.559  12.130  0.1951 -0.1925  0.2796
   25TMC2    C8  392   2.298   0.491  12.087  0.7780  0.4678 -1.0192
   25TMC2    O1  393   1.825   0.510  12.241 -0.4164 -0.2314  0.0487
   25TMC2    O2  394   2.394   0.511  12.013  0.0865 -0.0987 -0.0574
   25TMC2    O5  395   2.304   0.429  12.204 -0.1640 -0.0980  0.1240
   25TMC2    H5  396   2.215   0.397  12.232  0.8201 -2.4786  0.5104
   26MPD2     C  397   1.847   0.228  11.286 -0.5441 -0.7189 -0.1181
   26MPD2    C1  398   1.796   0.163  11.394  1.2550 -0.6024 -0.6793
   26MPD2    C2  399   1.833   0.202  11.520 -0.2908 -0.0855 -0.3387
   26MPD2    C3  400   1.914   0.316  11.536 -0.4801  0.4684  0.2613
   26MPD2    C4  401   1.955   0.382  11.421  0.4297 -0.1495 -0.7622
   26MPD2    C5  402   1.925   0.337  11.299  0.1690 -0.4184  0.0524
   26MPD2     H  403   1.797   0.144  11.605  3.3814 -0.4935  0.9611
   26MPD2    H1  404   2.019   0.467  11.438 -1.5895  1.2927 -0.4732
   26MPD2    H2  405   1.827   0.201  11.183 -1.6854  3.4065 -0.9624
   26MPD2    H3  406   1.958   0.381  11.205  3.5150 -1.1795  0.8929
   26MPD2     N  407   1.958   0.364  11.664  0.2292 -0.3700  0.1122
   26MPD2    H5  408   1.932   0.298  11.737 -0.2759  0.2982  0.5337
   26MPD2    N1  409   1.716   0.047  11.363  0.0330  0.1211 -0.3080
   26MPD2    H7  410   1.711   0.034  11.262  1.2776 -0.6477 -0.2652
   27TMC2    C1  411   0.432   2.507  11.956 -1.1370  0.1772  0.2773
   27TMC2    C2  412   0.352   2.505  11.844  0.1756  0.1516 -0.1250
   27TMC2    C3  413   0.295   2.623  11.807 -0.2430  0.8294 -0.5930
   27TMC2    C4  414   0.453   2.622  12.027  0.1637  0.2425  0.1587
   27TMC2    C5  415   0.390   2.742  11.980  0.1095  0.4103 -0.0514
   27TMC2    C6  416   0.315   2.740  11.868 -0.7617 -0.0728 -0.2623
   27TMC2     C  417   0.433   2.387  12.021  0.0645  0.1440 -0.1781
   27TMC2     O  418   0.448   2.287  11.955  0.0845 -0.5547 -0.1702
   27TMC2     H  419   0.324   2.410  11.802 -0.3242 -1.6426  4.2363
   27TMC2    H1  420   0.520   2.627  12.112  0.1313  0.6891  0.1625
   27TMC2    H2  421   0.237   2.814  11.853 -1.3162 -0.8539 -1.3082
   27TMC2    C7  422   0.393   2.852  12.069  0.0899  0.1840  0.3262
   27TMC2    C8  423   0.180   2.607  11.718 -0.5625  0.9099  0.2287
   27TMC2    O1  424   0.464   2.831  12.169 -0.3813  0.0406  0.3651
   27TMC2    O2  425   0.088   2.689  11.707  0.3382  0.2303  0.2845
   27TMC2    O5  426   0.208   2.511  11.629 -0.3981  0.5624  0.5556
   27TMC2    H5  427   0.298   2.476  11.644 -0.9081 -0.6867  0.7062
   28MPD2     C  428   0.270   2.115  12.440  0.3777  0.6236  0.2039
   28MPD2    C1  429   0.243   2.247  12.453 -0.3499 -0.3240 -0.5226
   28MPD2    C2  430   0.289   2.342  12.362  0.4181 -0.4038 -0.5596
   28MPD2    C3  431   0.350   2.308  12.247 -0.2590  0.6404  1.0117
   28MPD2    C4  432   0.397   2.177  12.243  0.0323 -0.7331 -0.2275
   28MPD2    C5  433   0.358   2.084  12.339  0.0408 -0.0685  1.2045
   28MPD2     H  434   0.279   2.449  12.379 -1.3240 -0.7621  0.7018
   28MPD2    H1  435   0.461   2.148  12.161  2.4654  2.4340  0.5890
   28MPD2    H2  436   0.224   2.052  12.514  0.8710 -0.6237 -0.5491
   28MPD2    H3  437   0.393   1.982  12.327 -1.9403 -0.5895 -0.2860
   28MPD2     N  438   0.382   2.407  12.152 -0.1568 -0.4818 -0.0265
   28MPD2    H5  439   0.355   2.504  12.166 -0.1367 -0.1267 -2.4482
   28MPD2    N1  440   0.151   2.284  12.552 -0.1109 -0.3663 -0.4013
   28MPD2    H7  441   0.129   2.207  12.614 -0.3027 -0.6965 -0.8729
   29MPD2     C  442   0.213   4.493  14.162 -0.0634 -0.2463  0.9169
   29MPD2    C1  443   0.323   4.473  14.246  0.0391  0.0701 -0.3448
   29MPD2    C2  444   0.382   4.582  14.293  0.7100 -0.2221 -0.9664
   29MPD2    C3  445   0.320   4.704  14.287 -0.0772 -0.0436 -0.2434
   29MPD2    C4  446   0.206   0.000  14.215  0.8112  0.5416  0.0132
   29MPD2    C5  447   0.151   4.611  14.149 -0.5510 -0.3889  0.3900
   29MPD2     H  448   0.476   4.573  14.346  0.0240 -3.0979 -0.2378
   29MPD2    H1  449   0.147   0.091  14.220 -1.4897 -1.0654  2.5637
   29MPD2    H2  450   0.161   4.407  14.121 -0.1553  0.5193 -0.5646
   29MPD2    H3  451   0.057   4.615  14.096  0.4463 -2.0505 -1.4845
   29MPD2     N  452   0.375   0.094  14.350 -0.0743  0.3846 -0.0772
   29MPD2    H5  453   0.311   0.172  14.361  0.9098  1.1704  0.1040
   29MPD2    N1  454   0.387   4.352  14.268  0.5236  0.1108 -0.2230
   29MPD2    H7  455   0.473   4.360  14.321 -0.1855  2.0678  0.6296
   30TCq2    C1  456   0.505   0.116  14.381  0.2824  0.4050 -0.3650
   30TCq2    O2  457   0.609   0.059  14.338 -0.2330  0.4417  0.0371
   30TCq2    C2  458   0.508   0.228  14.476 -0.2581 -0.1560  0.3488
   30TCq2    C3  459   0.407   0.239  14.567 -0.7277 -0.9002  0.2392
   30TCq2    C4  460   0.406   0.348  14.640 -0.6068  0.5730 -0.5873
   30TCq2    C5  461   0.491   0.454  14.614  0.0580  0.0449 -0.0228
   30TCq2    C6  462   0.573   0.442  14.509  0.3601  0.9980 -0.2518
   30TCq2    C7  463   0.596   0.324  14.450  0.2109  0.1925  0.0770
   30TCq2    C8  464   0.625   0.565  14.447  0.1241 -0.1558 -0.5592
   30TCq2    O4  465   0.689   0.554  14.344 -0.4815  0.2951  0.0869
   30TCq2    C9  466   0.292   0.392  14.712 -0.4533 -0.0142  0.6289
   30TCq2    O5  467   0.183   0.348  14.668  0.4889 -0.1221 -0.7634
   30TCq2    O6  468   0.302   0.489  14.784 -0.0131 -0.3584 -0.1950
   30TCq2    H2  469   0.330   0.165  14.586 -2.5185  0.9055  0.0430
   30TCq2    H3  470   0.468   0.550  14.659  0.7723  0.3629 -0.3246
   30TCq2    H4  471   0.663   0.307  14.367  0.2303  1.8039 -0.2396
   31MPD2     C  472   3.296   3.668  14.914 -0.2876  0.8766 -0.3761
   31MPD2    C1  473   3.182   3.743  14.907 -0.6490 -0.3205 -0.1340
   31MPD2    C2  474   3.099   3.748  15.019 -0.8294 -0.3946  0.4251
   31MPD2    C3  475   3.141   3.704  15.141 -0.5646 -0.1290 -0.0550
   31MPD2    C4  476   3.261   3.637  15.149  0.1106 -0.3336  0.3788
   31MPD2    C5  477   3.337   3.624  15.034 -0.3558  0.7840  0.0734
   31MPD2     H  478   3.004   3.797  15.000  1.1103  2.6612 -1.5121
   31MPD2    H1  479   3.303   3.594  15.239 -0.0574  0.4051  0.8084
   31MPD2    H2  480   3.370   3.640  14.839 -1.7574  0.4796 -1.6759
   31MPD2    H3  481   3.434   3.575  15.032 -0.2529  1.0262 -1.0288
   31MPD2     N  482   3.076   3.743  15.261 -0.1147  0.0660 -0.7306
   31MPD2    H5  483   3.118   3.701  15.344  0.6692  1.9685 -0.1686
   31MPD2    N1  484   3.158   3.800  14.781  0.4767  0.3332  0.1317
   31MPD2    H7  485   3.233   3.799  14.713  0.4885  0.2008  0.1478
   32TCq2    C1  486   2.987   3.848  15.272  0.2735 -0.1134 -0.2788
   32TCq2    O2  487   2.957   3.933  15.189  0.0126  0.3504 -0.5712
   32TCq2    C2  488   2.950   3.879  15.414  0.4532  0.0643 -0.1790
   32TCq2    C3  489   2.898   3.998  15.445  1.1729  0.0491  0.0668
   32TCq2    C4  490   2.899   4.042  15.570 -0.6490  0.0894  0.9126
   32TCq2    C5  491   2.954   3.971  15.665 -0.7073  0.1841 -0.3592
   32TCq2    C6  492   2.984   3.841  15.639 -1.0277  0.2163  0.0595
   32TCq2    C7  493   2.990   3.794  15.516 -0.2615  0.0606 -0.5364
   32TCq2    C8  494   3.022   3.754  15.747 -0.3003 -0.3117  0.2455
   32TCq2    O4  495   3.095   3.658  15.727  0.0040  0.1707 -0.5824
   32TCq2    C9  496   2.856   4.174  15.594  1.2089  0.0319  0.0398
   32TCq2    O5  497   2.880   4.217  15.708 -0.6504 -0.0264 -0.1756
   32TCq2    O6  498   2.801   4.235  15.505  0.1203 -0.1501  0.1488
   32TCq2    H2  499   2.857   4.062  15.368  1.7181 -1.9664 -1.9001
   32TCq2    H3  500   2.980   4.012  15.762  1.8479  1.0580 -1.4167
   32TCq2    H4  501   3.046   3.702  15.507  1.1413  0.9019 -0.3450
   33MPD2     C  502   3.180   1.495  10.503 -0.1878  0.8775  0.0637
   33MPD2    C1  503   3.076   1.415  10.522  0.1812 -0.6005 -0.3781
   33MPD2    C2  504   2.960   1.460  10.463 -0.1896  0.0334  0.3863
   33MPD2    C3  505   2.947   1.572  10.390 -0.2482  0.9228  0.1915
   33MPD2    C4  506   3.050   1.652  10.369  0.6468 -0.1011 -0.2393
   33MPD2    C5  507   3.171   1.611  10.421  0.4960 -0.8633  0.6028
   33MPD2     H  508   2.875   1.393  10.466 -0.2223  0.0753  0.4036
   33MPD2    H1  509   3.045   1.741  10.308  1.1164 -1.2923 -2.0149
   33MPD2    H2  510   3.277   1.460  10.533 -0.0463  0.4362 -0.8987
   33MPD2    H3  511   3.262   1.663  10.395  0.3712 -0.4950  0.9078
   33MPD2     N  512   2.840   1.597  10.315 -0.1108 -0.1810 -0.1101
   33MPD2    H5  513   2.847   1.656  10.232  1.9544  0.4272  0.4972
   33MPD2    N1  514   3.089   1.282  10.573  0.6232 -0.3521  0.1233
   33MPD2    H7  515   3.007   1.226  10.595 -0.0347  0.4416 -0.3348
   34TCq2    C1  516   2.711   1.566  10.342  0.1679 -0.8075  0.4322
   34TCq2    O2  517   2.669   1.507  10.439  0.6104  0.1158  1.0470
   34TCq2    C2  518   2.624   1.608  10.235 -0.3262 -0.4952  0.1538
   34TCq2    C3  519   2.487   1.620  10.271  0.4279 -1.2814 -0.2030
   34TCq2    C4  520   2.402   1.671  10.180 -0.4697 -0.3168  0.0500
   34TCq2    C5  521   2.452   1.714  10.056 -0.0545 -0.0078 -0.0740
   34TCq2    C6  522   2.584   1.699  10.025  0.1309  0.1973  0.4528
   34TCq2    C7  523   2.677   1.644  10.113  0.1063  0.2895  0.2420
   34TCq2    C8  524   2.638   1.806   9.940 -0.5676  0.8788  0.1747
   34TCq2    O4  525   2.757   1.819   9.961  0.4933 -0.5178  0.2312
   34TCq2    C9  526   2.263   1.673  10.206  0.0485  0.0137  0.6039
   34TCq2    O5  527   2.196   1.740  10.124  0.3622  0.0212 -0.1626
   34TCq2    O6  528   2.220   1.643  10.319 -0.0523 -0.0759 -0.2775
   34TCq2    H2  529   2.448   1.590  10.368  1.0055  0.9486  0.7062
   34TCq2    H3  530   2.383   1.767   9.991 -0.8591  0.9047  1.5339
   34TCq2    H4  531   2.783   1.654  10.091 -0.4389  2.0626 -1.5162
   35MPD2     C  532   4.646   2.963  12.056 -0.0009 -1.0848 -0.0307
   35MPD2    C1  533   4.666   2.827  12.064  0.0925 -0.3783  0.2382
   35MPD2    C2  534   4.578   2.741  11.999  0.3917 -0.4415 -0.2079
   35MPD2    C3  535   4.454   2.792  11.960  0.3799  0.2588 -0.2329
   35MPD2    C4  536   4.429   2.928  11.961  0.7557 -0.2442 -0.1325
   35MPD2    C5  537   4.536   3.011  11.994  0.1364  0.3699  0.2687
   35MPD2     H  538   4.597   2.636  11.983 -0.0125 -0.8012  1.7506
   35MPD2    H1  539   4.342   2.970  11.913  0.1815  0.5948  1.6580
   35MPD2    H2  540   4.697   3.040  12.111  1.1369 -1.0163 -1.1894
   35MPD2    H3  541   4.519   3.118  11.994  3.3085  0.9012  3.7724
   35MPD2     N  542   4.353   2.702  11.922  0.0777  0.0504 -0.1982
   35MPD2    H5  543   4.373   2.604  11.941 -2.3852 -0.6854 -1.3529
   35MPD2    N1  544   0.056   2.780  12.133  0.6111 -0.3069  0.5618
   35MPD2    H7  545   0.124   2.853  12.154 -0.8506  1.1702  0.1409
   36TCq2    C1  546   4.229   2.734  11.858 -0.2360  0.4107  0.4580
   36TCq2    O2  547   4.169   2.838  11.827 -0.3064 -1.0761 -0.1090
   36TCq2    C2  548   4.151   2.621  11.863 -0.3679  0.2220  0.5940
   36TCq2    C3  549   4.017   2.648  11.882 -0.1405  0.3659 -0.4129
   36TCq2    C4  550   3.932   2.549  11.845 -0.0952  0.5192 -0.3284
   36TCq2    C5  551   3.972   2.425  11.792  0.2506 -0.2709 -0.6775
   36TCq2    C6  552   4.109   2.402  11.788  0.5722  0.7888 -0.4050
   36TCq2    C7  553   4.200   2.497  11.825  0.4042  0.1035 -0.3735
   36TCq2    C8  554   4.156   2.285  11.715 -0.1891 -0.2749  0.1050
   36TCq2    O4  555   4.077   2.193  11.699 -0.0682  0.2493 -0.5392
   36TCq2    C9  556   3.794   2.580  11.848 -0.4139  0.8034  0.0166
   36TCq2    O5  557   3.764   2.697  11.875  0.1639  0.1693  0.6918
   36TCq2    O6  558   3.715   2.485  11.838  0.8002  0.3656  0.4373
   36TCq2    H2  559   3.983   2.744  11.918 -1.0306  0.1040 -0.5585
   36TCq2    H3  560   3.894   2.364  11.747 -1.8879  1.6169  0.4951
   36TCq2    H4  561   4.308   2.485  11.824  0.5642  1.1275  2.0593
   37TMC2    C1  562   1.895   3.501  11.651 -0.4615  0.0102 -0.0562
   37TMC2    C2  563   1.960   3.544  11.542 -0.5059 -0.7072  0.0855
   37TMC2    C3  564   2.088   3.507  11.520  0.2249  0.4711 -0.4998
   37TMC2    C4  565   1.955   3.417  11.744 -0.2904 -0.3199  0.5556
   37TMC2    C5  566   2.073   3.360  11.711 -0.4929  0.5085 -0.6583
   37TMC2    C6  567   2.138   3.403  11.594 -0.3827  0.4021  0.1242
   37TMC2     C  568   1.750   3.495  11.649  0.3619  0.2551  0.7105
   37TMC2     O  569   1.689   3.589  11.605  0.2907  0.2064  0.4302
   37TMC2     H  570   1.895   3.604  11.480  0.3631 -1.1880 -1.2861
   37TMC2    H1  571   1.913   3.390  11.840 -2.4587  2.0235  0.2610
   37TMC2    H2  572   2.232   3.358  11.562 -1.3924 -2.1578  0.8035
   37TMC2    C7  573   2.139   3.261  11.803 -0.3159 -0.0674  0.0034
   37TMC2    C8  574   2.170   3.559  11.411 -0.2978  1.0985 -0.5549
   37TMC2    O1  575   2.092   3.252  11.920 -0.4185 -0.0798  0.1168
   37TMC2    O2  576   2.244   3.486  11.346  0.2534  0.8923 -0.1689
   37TMC2    O5  577   2.201   3.679  11.459  0.0825 -0.0182 -0.0120
   37TMC2    H5  578   2.144   3.712  11.532  1.9543  2.6300  0.2468
   38MPD2     C  579   1.321   3.283  11.832 -0.0584  0.2626  0.0951
   38MPD2    C1  580   1.423   3.198  11.857  0.5539  0.6774  0.3326
   38MPD2    C2  581   1.545   3.230  11.810 -0.6961  0.3876  0.9344
   38MPD2    C3  582   1.575   3.340  11.734  0.0005  0.3666 -0.7018
   38MPD2    C4  583   1.474   3.418  11.695  0.0103  0.2750  0.3017
   38MPD2    C5  584   1.349   3.393  11.748  0.0791  0.2990 -0.3525
   38MPD2     H  585   1.626   3.160  11.829 -0.3312  0.0387 -1.9486
   38MPD2    H1  586   1.492   3.500  11.626 -0.5642 -0.0155 -0.1991
   38MPD2    H2  587   1.217   3.273  11.861 -0.8679  2.1075 -2.2035
   38MPD2    H3  588   1.264   3.448  11.711  1.0914  0.9603 -1.7232
   38MPD2     N  589   1.711   3.373  11.699  0.0264 -0.0152  0.1211
   38MPD2    H5  590   1.780   3.303  11.727 -0.0728  0.8623  2.5887
   38MPD2    N1  591   1.410   3.086  11.942 -0.2800 -0.7566 -0.1373
   38MPD2    H7  592   1.492   3.025  11.942  0.7315  0.5817 -1.8627
   39MPD2     C  593   0.641   0.356   1.877  0.2678  0.0735  0.2741
   39MPD2    C1  594   0.560   0.465   1.904  0.0069  0.9345  0.6828
   39MPD2    C2  595   0.440   0.487   1.839 -0.1022 -0.0328  0.7055
   39MPD2    C3  596   0.400   0.399   1.741 -0.2976 -0.2777 -0.4301
   39MPD2    C4  597   0.474   0.288   1.716 -0.2590 -0.6366 -0.1100
   39MPD2    C5  598   0.595   0.266   1.787 -0.0636  0.0385  0.0404
   39MPD2     H  599   0.385   0.580   1.847 -1.4020 -0.5898 -1.7356
   39MPD2    H1  600   0.436   0.198   1.669  0.9705 -1.2456  0.0458
   39MPD2    H2  601   0.742   0.343   1.916 -0.1317  0.2285  1.3786
   39MPD2    H3  602   0.659   0.178   1.788  2.7866  2.1192 -0.7783
   39MPD2     N  603   0.276   0.409   1.672  0.5046  0.2825  0.2300
   39MPD2    H5  604   0.246   0.338   1.607 -0.2438  0.6892  0.1280
   39MPD2    N1  605   0.613   0.563   1.991 -0.4208 -1.3664 -0.0976
   39MPD2    H7  606   0.711   0.556   2.015 -0.5003 -2.9910 -0.2307
   40TCq2    C1  607   0.551   0.680   2.032  0.2388 -0.1563 -0.1959
   40TCq2    O2  608   0.435   0.713   2.037 -0.1283  0.1817 -0.5633
   40TCq2    C2  609   0.633   0.768   2.116 -0.0743  0.1153 -1.3718
   40TCq2    C3  610   0.580   0.881   2.175 -0.3182 -0.2380 -0.0484
   40TCq2    C4  611   0.669   0.962   2.240  0.3976 -0.1241  0.3181
   40TCq2    C5  612   0.803   0.942   2.246  0.5472 -0.2361 -0.1034
   40TCq2    C6  613   0.851   0.847   2.168 -0.1520 -0.0093 -0.0018
   40TCq2    C7  614   0.768   0.753   2.110  0.4369  0.0218 -0.0753
   40TCq2    C8  615   0.993   0.844   2.140 -0.4347 -0.2733 -0.8951
   40TCq2    O4  616   1.039   0.736   2.108 -0.0551  0.1001  0.3064
   40TCq2    C9  617   0.617   1.080   2.307 -0.0299  0.5187  0.2458
   40TCq2    O5  618   0.704   1.159   2.360 -0.0062  0.3638 -0.1958
   40TCq2    O6  619   0.502   1.117   2.274  0.2265 -0.3017 -0.7042
   40TCq2    H2  620   0.477   0.911   2.162  0.1242  1.5787  0.7066
   40TCq2    H3  621   0.866   1.005   2.307 -1.3197  2.7059 -1.1685
   40TCq2    H4  622   0.813   0.678   2.046 -1.5185 -0.8415 -0.4501
   41TMC2    C1  623   3.898   3.046  14.067 -0.7313  0.5310  0.2205
   41TMC2    C2  624   4.025   3.099  14.070  0.4606 -0.1057 -0.3311
   41TMC2    C3  625   4.064   3.159  13.954  0.8262  0.6302  0.0029
   41TMC2    C4  626   3.812   3.055  13.960 -0.1652  0.0732  0.5390
   41TMC2    C5  627   3.845   3.149  13.863  0.2701 -0.1697  0.4386
   41TMC2    C6  628   3.975   3.202  13.857 -0.6292 -0.2092  0.1648
   41TMC2     C  629   3.850   2.962  14.175  0.5255  1.0786 -0.0030
   41TMC2     O  630   3.753   2.895  14.143  0.3188 -0.3472  0.3514
   41TMC2     H  631   4.105   3.059  14.132 -0.4905 -1.1104  0.2521
   41TMC2    H1  632   3.711   3.017  13.964 -0.4035  1.1021  4.6284
   41TMC2    H2  633   4.010   3.271  13.781 -0.4498 -0.2318  0.2290
   41TMC2    C7  634   3.729   3.211  13.803  0.3887  0.0646  0.4453
   41TMC2    C8  635   4.183   3.238  13.955 -0.2392  0.0123  0.3930
   41TMC2    O1  636   3.619   3.208  13.858 -0.4488 -0.5910 -0.0196
   41TMC2    O2  637   4.261   3.238  13.862  0.2568 -0.0313  0.4878
   41TMC2    O5  638   4.117   3.355  13.989 -0.2488  0.5729  0.1106
   41TMC2    H5  639   4.047   3.339  14.056  0.9973 -0.3554  1.2227
   42MPD2     C  640   3.837   2.761  14.398  0.0986  0.2725  0.9278
   42MPD2    C1  641   3.884   2.889  14.410  0.3348 -0.1173 -0.2080
   42MPD2    C2  642   3.912   2.941  14.535  0.3133 -0.5650  0.1128
   42MPD2    C3  643   3.889   2.865  14.653 -0.0273  0.7827  0.6051
   42MPD2    C4  644   3.850   2.735  14.640  0.0974 -0.7975 -0.2699
   42MPD2    C5  645   3.824   2.684  14.513  0.2323  0.7848  0.4945
   42MPD2     H  646   3.966   3.035  14.539  0.7950 -0.7876 -1.1035
   42MPD2    H1  647   3.829   2.671  14.725 -1.0777  0.5051  0.4158
   42MPD2    H2  648   3.819   2.715  14.302 -0.0754 -1.0715  1.6051
   42MPD2    H3  649   3.773   2.588  14.513 -1.0502  1.4833 -1.4697
   42MPD2     N  650   3.912   2.910  14.783  0.8279 -0.3647 -0.2214
   42MPD2    H5  651   3.903   2.853  14.867 -0.7789 -0.2602 -0.3331
   42MPD2    N1  652   3.914   2.978  14.299  0.1325 -0.3015 -1.1074
   42MPD2    H7  653   3.971   3.056  14.327 -0.3888 -0.1794 -0.3866
   43MPD2     C  654   1.021   0.836   0.679 -0.2291 -0.1606 -0.0318
   43MPD2    C1  655   1.119   0.906   0.748  0.5354 -0.3663 -0.4734
   43MPD2    C2  656   1.085   0.962   0.869  0.2152  0.1609 -0.4380
   43MPD2    C3  657   0.963   0.944   0.928  0.4321 -0.2344 -0.3232
   43MPD2    C4  658   0.866   0.873   0.858 -0.0791 -1.1074 -0.7297
   43MPD2    C5  659   0.901   0.810   0.739 -1.5274  0.3601 -0.2142
   43MPD2     H  660   1.160   1.033   0.903 -0.8295  0.6151  0.9307
   43MPD2    H1  661   0.767   0.853   0.896  0.2680 -3.7502 -1.2108
   43MPD2    H2  662   1.049   0.794   0.583  0.5616 -0.1155  0.1851
   43MPD2    H3  663   0.829   0.744   0.691 -0.6878 -1.1295  0.5695
   43MPD2     N  664   0.935   1.015   1.045 -0.5362  0.7330  0.3366
   43MPD2    H5  665   0.835   1.026   1.060 -0.5378 -0.0545  0.9382
   43MPD2    N1  666   1.242   0.950   0.698 -0.7117 -0.1572  0.2481
   43MPD2    H7  667   1.305   1.011   0.749 -0.2207 -0.7335  0.3283
   44TCq2    C1  668   1.159   1.354   1.479 -0.4775 -0.0416 -0.7590
   44TCq2    O2  669   1.271   1.316   1.457  0.0184 -0.3149  0.8751
   44TCq2    C2  670   1.047   1.301   1.409  0.0093 -0.1792  0.5907
   44TCq2    C3  671   0.933   1.364   1.403  0.0540 -0.8387  0.7173
   44TCq2    C4  672   0.843   1.328   1.302  0.2613 -0.5053 -0.2980
   44TCq2    C5  673   0.875   1.230   1.215  0.8653 -0.8146  0.2301
   44TCq2    C6  674   0.992   1.161   1.223  0.2883 -0.4079  0.3793
   44TCq2    C7  675   1.087   1.207   1.312 -0.3845 -0.2246  0.2060
   44TCq2    C8  676   1.035   1.071   1.120 -0.2167 -0.0632 -0.4247
   44TCq2    O4  677   1.149   1.041   1.133  0.1278  0.4080  0.1468
   44TCq2    C9  678   0.705   1.372   1.297 -0.1743  0.5879  0.6597
   44TCq2    O5  679   0.674   1.475   1.364 -0.3113  0.6846 -0.1966
   44TCq2    O6  680   0.630   1.334   1.199 -0.1917 -0.3199 -0.1808
   44TCq2    H2  681   0.886   1.414   1.486 -2.7585  1.0865 -2.0648
   44TCq2    H3  682   0.794   1.196   1.152  1.7764 -1.1062 -0.7702
   44TCq2    H4  683   1.179   1.153   1.330 -0.6123 -0.8961 -0.6655
   45TMC2    C1  684   1.215   3.186   9.511 -0.2346  0.3323 -0.3968
   45TMC2    C2  685   1.347   3.190   9.531  0.4199 -0.2235 -0.0055
   45TMC2    C3  686   1.390   3.289   9.608  0.3787 -0.5184 -0.1040
   45TMC2    C4  687   1.126   3.277   9.563 -0.0682  0.0799  0.6647
   45TMC2    C5  688   1.174   3.375   9.643 -0.2163  0.0315  0.1412
   45TMC2    C6  689   1.308   3.385   9.661  0.2784 -0.1080 -0.4184
   45TMC2     C  690   1.174   3.110   9.396 -0.4776  0.0926 -0.4254
   45TMC2     O  691   1.250   3.024   9.357 -0.1287 -0.1651  0.8215
   45TMC2     H  692   1.413   3.123   9.477 -0.8372 -1.0192 -0.5509
   45TMC2    H1  693   1.018   3.273   9.562 -0.1461  1.9187  0.2951
   45TMC2    H2  694   1.353   3.461   9.722 -1.3289  2.1224 -2.0241
   45TMC2    C7  695   1.096   3.499   9.635 -0.8600  0.1150 -0.1755
   45TMC2    C8  696   1.522   3.346   9.588  0.4776  0.2467  0.0665
   45TMC2    O1  697   1.014   3.508   9.544 -0.7046  0.2906  0.3517
   45TMC2    O2  698   1.531   3.468   9.581  0.2347  0.4022 -0.6145
   45TMC2    O5  699   1.607   3.247   9.540  0.5295  0.1713  0.4673
   45TMC2    H5  700   1.565   3.159   9.552  1.4667  0.1361  3.3937
   46MPD2     C  701   1.003   2.943   9.205 -0.2997  0.0200 -0.3586
   46MPD2    C1  702   0.972   3.065   9.260 -0.5438  0.4368  0.2415
   46MPD2    C2  703   0.865   3.137   9.215  0.1839 -0.3760  0.3126
   46MPD2    C3  704   0.780   3.082   9.118 -0.7281  0.1451 -0.0526
   46MPD2    C4  705   0.805   2.956   9.069 -0.4300 -1.0537 -0.1137
   46MPD2    C5  706   0.920   2.889   9.109 -0.4610 -0.2103  0.9446
   46MPD2     H  707   0.864   3.240   9.249 -1.3240 -1.0726  2.3764
   46MPD2    H1  708   0.745   2.922   8.986  0.8929 -0.2773 -1.3910
   46MPD2    H2  709   1.093   2.888   9.229 -0.0629 -0.2209 -1.7752
   46MPD2    H3  710   0.946   2.795   9.062 -0.2530  0.9327 -1.2171
   46MPD2     N  711   0.664   3.151   9.078 -0.5208  0.1957 -0.8013
   46MPD2    H5  712   0.656   3.247   9.112 -0.3838 -0.3476  0.7950
   46MPD2    N1  713   1.044   3.136   9.365 -0.8251  0.6660 -0.6116
   46MPD2    H7  714   0.992   3.205   9.419 -0.1241  1.2340 -0.6543
   47TMC2    C1  715   3.330   4.226   9.630  0.5064 -0.4359  0.1738
   47TMC2    C2  716   3.353   4.120   9.545  0.2397 -0.1049 -0.0305
   47TMC2    C3  717   3.312   4.133   9.420 -0.1773  0.4814  0.0558
   47TMC2    C4  718   3.261   4.340   9.590  0.4751  0.2950 -0.3705
   47TMC2    C5  719   3.220   4.345   9.456 -0.1465 -0.3474 -0.6240
   47TMC2    C6  720   3.251   4.245   9.371 -0.0170 -0.1454 -0.6307
   47TMC2     C  721   3.353   4.208   9.774  0.0834  0.4682  0.0642
   47TMC2     O  722   3.361   4.312   9.849  0.3492  0.4764  0.5534
   47TMC2     H  723   3.421   4.041   9.577  0.3020  0.2282  0.6589
   47TMC2    H1  724   3.273   4.424   9.658  0.6063 -0.7076  0.8547
   47TMC2    H2  725   3.207   4.247   9.272  0.0922 -0.5743 -0.6886
   47TMC2    C7  726   3.144   4.457   9.412  0.0570 -0.1081 -0.1626
   47TMC2    C8  727   3.292   4.016   9.337  0.1964 -0.5974  0.0829
   47TMC2    O1  728   3.133   4.473   9.289 -0.1384 -0.0365 -0.2479
   47TMC2    O2  729   3.284   4.020   9.214 -0.1453  0.4824  0.4580
   47TMC2    O5  730   3.236   3.914   9.409 -0.1978  0.1650  0.1535
   47TMC2    H5  731   3.244   3.918   9.507 -1.7456 -2.4422  0.4029
   48MPD2     C  732   3.427   4.109  10.035  0.4990  0.2455  0.1047
   48MPD2    C1  733   3.406   4.026   9.927  0.4295  0.1400  0.0894
   48MPD2    C2  734   3.441   3.893   9.935 -0.6146  0.4116  0.3025
   48MPD2    C3  735   3.486   3.841  10.052  0.2620 -0.2945  0.1166
   48MPD2    C4  736   3.504   3.927  10.161  0.0531  0.0872 -0.0409
   48MPD2    C5  737   3.477   4.061  10.151 -0.7466  0.4637 -0.3390
   48MPD2     H  738   3.423   3.827   9.851 -0.3895  0.0007  0.5761
   48MPD2    H1  739   3.532   3.885  10.257  1.0667 -1.6848 -1.1096
   48MPD2    H2  740   3.390   4.211  10.037  2.4313  0.9613 -0.7158
   48MPD2    H3  741   3.491   4.123  10.239  0.5845  0.8858 -0.8426
   48MPD2     N  742   3.526   3.708  10.057 -0.1408 -0.0994  0.1868
   48MPD2    H5  743   3.497   3.644   9.984 -1.4543 -0.9217  1.4362
   48MPD2    N1  744   3.364   4.074   9.801 -0.1293 -0.8892 -0.2752
   48MPD2    H7  745   3.336   4.000   9.737 -0.1108 -0.2453 -1.0257
   49MPD2     C  746   1.722   0.829  10.064 -0.6520  0.1135  0.5304
   49MPD2    C1  747   1.677   0.798  10.187  0.3490 -0.2646 -0.4138
   49MPD2    C2  748   1.719   0.865  10.297  0.1700 -0.5467 -0.2202
   49MPD2    C3  749   1.802   0.967  10.288 -0.4447 -0.3279 -0.4541
   49MPD2    C4  750   1.841   1.009  10.167 -0.0481 -0.1773 -0.2537
   49MPD2    C5  751   1.803   0.941  10.053 -0.1812  0.6730  0.1105
   49MPD2     H  752   1.695   0.823  10.394 -1.9631 -1.9572 -1.3497
   49MPD2    H1  753   1.915   1.086  10.154 -0.0018 -0.4270 -1.4668
   49MPD2    H2  754   1.679   0.795   9.970  2.2679 -0.5769 -0.5733
   49MPD2    H3  755   1.835   0.985   9.960  0.9952 -1.3300 -0.4332
   49MPD2     N  756   1.862   1.030  10.405 -0.7818  0.1670  0.1930
   49MPD2    H5  757   1.919   1.111  10.384 -1.4077  1.0345  1.8575
   49MPD2    N1  758   1.587   0.691  10.204 -0.1978 -0.1477  0.1069
   49MPD2    H7  759   1.569   0.659  10.299 -1.3294 -0.0066 -0.0508
   50TCq2    C1  760   1.512   0.627  10.107 -0.2335  0.0346 -0.4664
   50TCq2    O2  761   1.497   0.658   9.987  0.3363  0.4862  0.3327
   50TCq2    C2  762   1.440   0.511  10.156 -0.2035  0.2496 -0.7678
   50TCq2    C3  763   1.384   0.443  10.056  0.0821  0.0840  0.3663
   50TCq2    C4  764   1.357   0.308  10.063 -0.0805 -0.2095 -0.0211
   50TCq2    C5  765   1.391   0.235  10.175 -0.0961  0.1825  0.0818
   50TCq2    C6  766   1.442   0.309  10.282 -0.3474 -0.2395  0.5834
   50TCq2    C7  767   1.468   0.443  10.273  0.5091  0.0747 -0.1272
   50TCq2    C8  768   1.482   0.239  10.398  0.1228  0.4863 -0.1073
   50TCq2    O4  769   1.442   0.120  10.410  0.2124 -0.2276 -0.5487
   50TCq2    C9  770   1.299   0.235   9.949 -0.5048 -0.5159  0.1784
   50TCq2    O5  771   1.239   0.305   9.863 -0.2283 -0.2238 -0.8787
   50TCq2    O6  772   1.321   0.114   9.937 -0.4564  0.1266 -0.5993
   50TCq2    H2  773   1.350   0.494   9.966  1.1894 -0.3755 -0.3111
   50TCq2    H3  774   1.357   0.133  10.187  2.0036 -0.7298 -1.5262
   50TCq2    H4  775   1.516   0.496  10.354  0.0677  0.7216 -0.2930
   51MPD2     C  776   2.126   4.559   1.234 -0.2940  0.2070 -0.2394
   51MPD2    C1  777   2.110   4.434   1.295  0.1680  0.5110 -0.6383
   51MPD2    C2  778   2.122   4.415   1.432 -0.3263 -0.2241  0.3888
   51MPD2    C3  779   2.156   4.517   1.514  0.0218  0.1111 -0.1971
   51MPD2    C4  780   2.197   4.634   1.453 -0.4823  0.1756  0.2263
   51MPD2    C5  781   2.180   4.655   1.317  0.1686 -0.1259  0.5005
   51MPD2     H  782   2.100   4.316   1.471  0.8448 -1.7024 -2.7706
   51MPD2    H1  783   2.240   4.712   1.516  0.0028  0.5162 -0.5261
   51MPD2    H2  784   2.124   4.575   1.127 -0.5741  1.5560 -0.0260
   51MPD2    H3  785   2.212   0.029   1.276 -0.1912 -0.5222 -0.6848
   51MPD2     N  786   2.159   4.512   1.655 -0.0785 -0.6666 -0.6158
   51MPD2    H5  787   2.199   4.595   1.698 -1.4897 -0.3704  0.1301
   51MPD2    N1  788   2.079   4.318   1.224  0.6743  0.0139 -0.0691
   51MPD2    H7  789   2.070   4.233   1.279  0.6208  0.8033  1.1451
   52TCq2    C1  790   2.146   4.397   1.729  0.7108  0.2596 -0.0152
   52TCq2    O2  791   2.091   4.292   1.701 -0.0286  0.5905  0.1585
   52TCq2    C2  792   2.189   4.410   1.867  0.2805  0.3099  0.5170
   52TCq2    C3  793   2.178   4.308   1.956 -0.2088  0.3435  0.0083
   52TCq2    C4  794   2.239   4.312   2.082 -0.1797 -0.1949 -1.0001
   52TCq2    C5  795   2.319   4.418   2.116  0.4731  0.2326 -0.5315
   52TCq2    C6  796   2.323   4.524   2.031  0.3470  0.6295 -0.0225
   52TCq2    C7  797   2.263   4.519   1.902 -0.1281  0.5656 -0.4513
   52TCq2    C8  798   2.371   4.646   2.089 -0.3570  0.5148 -0.2213
   52TCq2    O4  799   2.378   0.016   2.011  0.0669 -0.2025  0.0383
   52TCq2    C9  800   2.223   4.205   2.180  0.2327  0.6171 -0.6079
   52TCq2    O5  801   2.206   4.087   2.134 -0.2531  0.4166  0.2719
   52TCq2    O6  802   2.280   4.215   2.294 -0.2766  0.2320 -0.0850
   52TCq2    H2  803   2.120   4.219   1.935  0.7779  0.2245 -2.1761
   52TCq2    H3  804   2.369   4.404   2.211 -0.0683  0.5592 -0.1984
   52TCq2    H4  805   2.284   4.594   1.827 -1.3343  0.2697 -1.0922
   53TMC2    C1  806   2.398   2.842  12.365  0.5500 -0.0968 -0.0402
   53TMC2    C2  807   2.481   2.773  12.444  0.7146 -0.2197  0.5084
   53TMC2    C3  808   2.437   2.742  12.572  0.3026 -0.9760  0.1825
   53TMC2    C4  809   2.276   2.890  12.403  0.9831  0.0647 -0.0905
   53TMC2    C5  810   2.246   2.868  12.533  0.6311 -0.5939  0.7260
   53TMC2    C6  811   2.326   2.798  12.619  0.0623  0.2384 -0.5898
   53TMC2     C  812   2.439   2.838  12.223 -0.5296  0.1024 -0.3859
   53TMC2     O  813   2.540   2.771  12.191  0.1628 -0.1946  0.3511
   53TMC2     H  814   2.582   2.747  12.414  1.0961  0.8129  0.8648
   53TMC2    H1  815   2.198   2.913  12.331 -0.0662 -1.1765  0.6478
   53TMC2    H2  816   2.298   2.779  12.722  0.3790  0.5526 -0.4468
   53TMC2    C7  817   2.109   2.910  12.568 -0.3729  0.3431  0.5736
   53TMC2    C8  818   2.543   2.733  12.671  0.6720  0.1249 -0.3270
   53TMC2    O1  819   2.057   2.991  12.492  0.2534  0.3954 -0.2805
   53TMC2    O2  820   2.537   2.797  12.776 -0.1682 -0.1693 -0.0634
   53TMC2    O5  821   2.657   2.670  12.626  0.5680  0.1868 -0.6331
   53TMC2    H5  822   2.637   2.614  12.548 -2.2140  0.9848 -0.4905
   54MPD2     C  823   2.489   2.904  11.936 -0.0362  0.0424  0.3932
   54MPD2    C1  824   2.388   2.961  12.009  0.1952  0.1349  0.5101
   54MPD2    C2  825   2.310   3.060  11.947 -0.1916  0.2893  0.1802
   54MPD2    C3  826   2.325   3.095  11.813  0.1666 -0.2445 -1.0882
   54MPD2    C4  827   2.424   3.039  11.739  0.0859 -0.4867 -1.2098
   54MPD2    C5  828   2.507   2.952  11.806  0.5949 -0.4853  0.2567
   54MPD2     H  829   2.244   3.112  12.014 -1.0263  0.0912 -0.4863
   54MPD2    H1  830   2.447   3.069  11.637  2.4790 -0.0127 -0.5364
   54MPD2    H2  831   2.568   2.837  11.969 -0.3272 -1.5914 -2.2548
   54MPD2    H3  832   2.597   2.915  11.757 -0.1036 -0.8532 -0.7282
   54MPD2     N  833   2.248   3.190  11.747 -0.4246 -0.2538 -0.1615
   54MPD2    H5  834   2.257   3.207  11.647  2.0194  2.3440  0.4933
   54MPD2    N1  835   2.371   2.935  12.153 -0.1626 -0.5101  0.2277
   54MPD2    H7  836   2.293   2.982  12.199  0.2504  0.4021  0.0095
   55MPD2     C  837   3.422   0.777   0.607  0.0055 -0.2587 -0.1132
   55MPD2    C1  838   3.341   0.684   0.672 -0.0898 -0.1970 -0.6051
   55MPD2    C2  839   3.251   0.736   0.760 -0.1056  0.6052 -0.2647
   55MPD2    C3  840   3.244   0.870   0.786  0.0982  0.1983 -0.1172
   55MPD2    C4  841   3.337   0.959   0.739 -0.5999 -0.0901 -0.1208
   55MPD2    C5  842   3.421   0.906   0.646  0.5233 -0.3430  0.0877
   55MPD2     H  843   3.183   0.662   0.800 -0.0863  0.5696 -0.2978
   55MPD2    H1  844   3.360   1.060   0.770  0.6451 -1.0418  2.0737
   55MPD2    H2  845   3.500   0.741   0.540  0.3835 -1.5726  1.0272
   55MPD2    H3  846   3.498   0.968   0.602 -1.0277  1.6569  0.1674
   55MPD2     N  847   3.152   0.911   0.889  0.1759  0.4121 -0.1647
   55MPD2    H5  848   3.100   0.834   0.930  2.1889 -0.4595  0.7841
   55MPD2    N1  849   3.352   0.550   0.633  0.0361 -0.4798 -0.4677
   55MPD2    H7  850   3.398   0.538   0.543  0.1850 -0.9543 -0.3293
   56TCq2    C1  851   3.322   0.445   0.716 -0.1113 -0.2817  0.9140
   56TCq2    O2  852   3.290   0.442   0.834 -0.1227  0.1694 -0.7266
   56TCq2    C2  853   3.351   0.313   0.656  0.3486  0.0883 -0.2605
   56TCq2    C3  854   3.416   0.295   0.539 -0.4295  0.2825 -0.6827
   56TCq2    C4  855   3.456   0.168   0.506  0.1525 -0.0862 -0.0995
   56TCq2    C5  856   3.404   0.062   0.574  0.5098 -0.2221 -0.0232
   56TCq2    C6  857   3.332   0.090   0.689  0.1837 -0.0924  0.6321
   56TCq2    C7  858   3.312   0.210   0.739 -0.1827 -0.1594 -0.6163
   56TCq2    C8  859   3.279   4.701   0.765 -0.3778 -0.2230 -0.1750
   56TCq2    O4  860   3.324   4.587   0.751  0.5695  0.1187  0.6943
   56TCq2    C9  861   3.546   0.150   0.397 -0.4675 -0.7880  0.1989
   56TCq2    O5  862   3.588   0.030   0.385  0.1659  0.4282  0.2548
   56TCq2    O6  863   3.600   0.252   0.348 -0.0959 -0.2555 -0.4978
   56TCq2    H2  864   3.467   0.375   0.488  2.3981 -2.2869 -1.8882
   56TCq2    H3  865   3.416   4.682   0.538 -0.4507 -0.5795  0.6746
   56TCq2    H4  866   3.250   0.228   0.826 -0.6545 -2.9617 -0.3717
   57TMC2    C1  867   2.132   1.954  13.926 -0.4775 -0.5606 -0.4008
   57TMC2    C2  868   2.227   2.050  13.925 -0.3161 -0.2725  0.0581
   57TMC2    C3  869   2.332   2.029  13.842 -0.2832 -0.5691 -0.2828
   57TMC2    C4  870   2.118   1.856  13.831 -0.1371  0.0452 -0.6505
   57TMC2    C5  871   2.229   1.832  13.758 -0.4709  1.1254 -0.1215
   57TMC2    C6  872   2.335   1.919  13.764 -0.3782  0.1681  0.3873
   57TMC2     C  873   2.029   1.973  14.030  0.8414  0.4929  0.5911
   57TMC2     O  874   2.023   2.085  14.083 -0.2644 -0.4191  0.0312
   57TMC2     H  875   2.239   2.129  13.998  3.1497 -1.3700  0.7010
   57TMC2    H1  876   2.033   1.789  13.830 -2.6805  3.2860 -0.8224
   57TMC2    H2  877   2.428   1.906  13.709 -1.0995  1.6920 -1.2053
   57TMC2    C7  878   2.205   1.738  13.652  0.1234 -0.2289  0.6610
   57TMC2    C8  879   2.447   2.118  13.838  0.6732  0.0319 -0.1260
   57TMC2    O1  880   2.087   1.707  13.645  0.2357  0.1693 -0.7683
   57TMC2    O2  881   2.560   2.084  13.860  0.2057 -0.6123  0.8171
   57TMC2    O5  882   2.402   2.245  13.842  0.5446  0.2801 -0.0156
   57TMC2    H5  883   2.305   2.250  13.829  0.3556  0.0445  1.2687
   58MPD2     C  884   1.576   1.853  14.237 -0.1113  0.3416  0.2492
   58MPD2    C1  885   1.643   1.975  14.218  0.2111 -0.1658  0.1414
   58MPD2    C2  886   1.753   1.980  14.143 -0.1155  0.2063  0.2084
   58MPD2    C3  887   1.825   1.861  14.121 -0.8949  0.7243 -0.1606
   58MPD2    C4  888   1.762   1.739  14.142 -0.0032 -0.5630  0.2262
   58MPD2    C5  889   1.638   1.741  14.199 -1.0038 -0.0556 -0.3097
   58MPD2     H  890   1.803   2.073  14.118 -1.0006  0.3740 -0.9305
   58MPD2    H1  891   1.800   1.639  14.125 -1.2679 -0.7616 -1.4582
   58MPD2    H2  892   1.477   1.847  14.281  0.5886 -2.1526  1.4891
   58MPD2    H3  893   1.590   1.645  14.214 -2.6965  0.7384 -0.5776
   58MPD2     N  894   1.948   1.862  14.051  0.0629  0.0259  0.2260
   58MPD2    H5  895   1.974   1.767  14.027 -0.6042  0.4565 -2.2100
   58MPD2    N1  896   1.575   2.098  14.244  0.1568 -0.1000  0.1469
   58MPD2    H7  897   1.620   2.182  14.211  1.7564 -1.4506 -1.1247
   59MPD2     C  898   4.445   1.634  12.927  0.4888 -0.3386  0.4430
   59MPD2    C1  899   4.583   1.637  12.903  0.6022 -1.0220 -0.5871
   59MPD2    C2  900   4.658   1.710  12.996 -0.7250  0.8865 -0.1219
   59MPD2    C3  901   4.604   1.775  13.102 -0.5087  1.0263  0.3627
   59MPD2    C4  902   4.468   1.776  13.116 -0.2677 -0.1003  1.3440
   59MPD2    C5  903   4.394   1.706  13.031  0.6259  0.1159 -0.1633
   59MPD2     H  904   0.045   1.708  12.995 -0.7307  0.2623  1.1092
   59MPD2    H1  905   4.416   1.830  13.194  1.2503  0.9187  1.6445
   59MPD2    H2  906   4.371   1.579  12.870  0.0251  1.5846 -0.8250
   59MPD2    H3  907   4.287   1.694  13.046  0.9835  0.1640  2.4123
   59MPD2     N  908   4.689   1.854  13.179 -0.1239 -0.0378  0.1378
   59MPD2    H5  909   0.068   1.863  13.163 -0.7872  2.1001 -2.6987
   59MPD2    N1  910   4.644   1.564  12.791  0.1721 -0.5791  0.0913
   59MPD2    H7  911   0.022   1.546  12.783  0.6478  1.5544  1.1073
   60TCq2    C1  912   4.573   1.467  12.716 -0.3649 -0.5829  0.2467
   60TCq2    O2  913   4.463   1.418  12.738 -0.8576  0.4432  0.3955
   60TCq2    C2  914   4.655   1.410  12.610 -0.0377 -0.3510  0.2066
   60TCq2    C3  915   4.653   1.277  12.589 -0.2072  0.1576  0.4463
   60TCq2    C4  916   0.016   1.239  12.488  0.2369 -0.6084 -0.3342
   60TCq2    C5  917   0.078   1.327  12.402  0.0199  0.5272  0.1641
   60TCq2    C6  918   0.070   1.466  12.430  0.3927  0.2415  0.0102
   60TCq2    C7  919   4.721   1.504  12.541  0.4997 -0.3545  0.8185
   60TCq2    C8  920   0.073   1.562  12.317  0.3933  0.6671  0.2860
   60TCq2    O4  921   0.079   1.501  12.213  0.6171 -0.3857 -0.3954
   60TCq2    C9  922   0.014   1.108  12.432 -0.0025 -1.2687  0.1481
   60TCq2    O5  923   0.103   1.074  12.352 -0.5604  0.2919  0.4105
   60TCq2    O6  924   4.653   1.029  12.484 -0.3668 -0.4856 -0.5149
   60TCq2    H2  925   4.583   1.215  12.642 -0.4140 -1.2724 -1.5164
   60TCq2    H3  926   0.128   1.291  12.313  1.3655 -0.7205  1.4152
   60TCq2    H4  927   4.717   1.611  12.557 -1.3812 -0.2372 -0.3548
   61MPD2     C  928   4.294   3.266  14.827  0.1238 -0.2248 -0.4181
   61MPD2    C1  929   4.378   3.353  14.897 -0.1178  0.3507 -0.3438
   61MPD2    C2  930   4.433   3.461  14.828 -0.0232 -0.3288  0.1102
   61MPD2    C3  931   4.390   3.489  14.701 -0.4387 -0.1403  0.2837
   61MPD2    C4  932   4.324   3.392  14.629 -0.0418  0.1414  0.9356
   61MPD2    C5  933   4.281   3.273  14.687  0.7604  0.6098 -0.0082
   61MPD2     H  934   4.494   3.532  14.883  2.3623 -1.0837 -1.5036
   61MPD2    H1  935   4.303   3.408  14.524 -3.3569  0.6619  1.6874
   61MPD2    H2  936   4.259   3.175  14.874 -1.1224  0.5831  0.2243
   61MPD2    H3  937   4.232   3.194  14.632  1.8613  0.9119 -1.4090
   61MPD2     N  938   4.421   3.613  14.638  0.1974 -0.0079 -0.4541
   61MPD2    H5  939   4.388   3.621  14.543 -0.4965  2.1103 -0.0394
   61MPD2    N1  940   4.409   3.333  15.038  0.3655 -0.2347  0.7809
   61MPD2    H7  941   4.476   3.397  15.078  0.9056 -0.8965  0.9478
   62TCq2    C1  942   4.361   3.231  15.118 -0.1695 -0.0958 -1.2387
   62TCq2    O2  943   4.299   3.134  15.084  0.7694  0.2342  0.0005
   62TCq2    C2  944   4.377   3.261  15.257  0.8204  0.3564 -0.3159
   62TCq2    C3  945   4.339   3.160  15.345  0.3217 -0.0320  0.3984
   62TCq2    C4  946   4.313   3.183  15.471 -0.3624 -0.8092  0.3769
   62TCq2    C5  947   4.317   3.312  15.515 -0.3741 -0.3351 -0.1885
   62TCq2    C6  948   4.355   3.416  15.430  0.0317  0.9011  0.6454
   62TCq2    C7  949   4.387   3.390  15.299 -1.1008  0.0055 -0.6397
   62TCq2    C8  950   4.296   3.550  15.443  0.4654  0.3829  0.3870
   62TCq2    O4  951   4.348   3.642  15.378 -0.0227  0.2941  0.1277
   62TCq2    C9  952   4.264   3.090  15.564  0.3078  0.7006  0.0950
   62TCq2    O5  953   4.256   2.970  15.517 -0.6008 -0.2163 -0.5136
   62TCq2    O6  954   4.207   3.129  15.672  0.0839  0.3940  0.1042
   62TCq2    H2  955   4.328   3.058  15.313  1.6265  0.1350 -0.5892
   62TCq2    H3  956   4.284   3.335  15.616  1.1386 -0.9067  0.4424
   62TCq2    H4  957   4.382   3.467  15.222  1.0237  0.4411 -0.3422
   63TMC2    C1  958   3.496   2.870  11.646  0.6347  0.8210  0.0455
   63TMC2    C2  959   3.593   2.893  11.741 -0.1470 -0.7633  0.6480
   63TMC2    C3  960   3.678   3.005  11.722 -0.4774 -0.4984 -0.0335
   63TMC2    C4  961   3.495   2.934  11.527 -0.6330  0.1350 -0.0393
   63TMC2    C5  962   3.579   3.040  11.515  0.0093 -0.5629 -0.4652
   63TMC2    C6  963   3.677   3.079  11.606  0.4822 -0.1031  0.9195
   63TMC2     C  964   3.447   2.733  11.660 -0.4656  0.0236 -0.3360
   63TMC2     O  965   3.456   2.664  11.764  0.3979 -0.2071  0.2181
   63TMC2     H  966   3.586   2.834  11.831 -0.9283 -0.8151  0.5534
   63TMC2    H1  967   3.418   2.914  11.453  0.7069 -0.2701 -1.3299
   63TMC2    H2  968   3.762   3.138  11.573 -0.1128 -0.1663 -0.7247
   63TMC2    C7  969   3.572   3.101  11.376  0.6803  0.5791  0.2631
   63TMC2    C8  970   3.756   3.045  11.836  0.0787  1.2201  0.3996
   63TMC2    O1  971   3.529   3.032  11.284 -0.5169  0.0535  0.3450
   63TMC2    O2  972   3.808   3.156  11.839 -0.5199  0.3355 -0.0366
   63TMC2    O5  973   3.793   2.944  11.917  0.3070 -0.1409 -0.6534
   63TMC2    H5  974   3.755   2.855  11.900  0.9055 -0.2244 -1.5648
   64MPD2     C  975   3.220   2.304  11.488 -0.9968  0.1992 -0.3406
   64MPD2    C1  976   3.304   2.350  11.388 -0.3439 -0.3561  0.5249
   64MPD2    C2  977   3.358   2.478  11.400 -0.0494  0.5622 -0.4811
   64MPD2    C3  978   3.353   2.549  11.520 -1.2690 -0.5663  0.5106
   64MPD2    C4  979   3.269   2.504  11.621 -0.8399 -0.0573  0.6208
   64MPD2    C5  980   3.203   2.378  11.602  0.5124  0.6221  0.3176
   64MPD2     H  981   3.406   2.514  11.310 -0.3172 -1.1172 -1.2804
   64MPD2    H1  982   3.259   2.537  11.724 -1.9784 -0.8682  0.7748
   64MPD2    H2  983   3.150   2.222  11.485 -0.1123 -0.4859 -2.4083
   64MPD2    H3  984   3.145   2.346  11.688  0.2686  0.5812  0.1398
   64MPD2     N  985   3.417   2.678  11.535 -0.0359  0.6074 -0.3385
   64MPD2    H5  986   3.463   2.712  11.451 -0.2022 -2.0652 -1.5086
   64MPD2    N1  987   3.321   2.282  11.268  0.0777 -0.4780 -0.1923
   64MPD2    H7  988   3.382   2.329  11.202 -1.0032  2.8759  1.1424
   65MPD2     C  989   4.463   2.861  15.830  0.0353  0.0979  0.4851
   65MPD2    C1  990   4.554   2.841  15.730  0.4288 -0.8785  1.2147
   65MPD2    C2  991   4.574   2.712  15.677 -0.0664 -0.4829  1.0823
   65MPD2    C3  992   4.527   2.596  15.740  0.4989 -0.2057  0.3879
   65MPD2    C4  993   4.435   2.616  15.847 -0.0662  0.3123 -0.1600
   65MPD2    C5  994   4.410   2.747  15.890  0.4787  0.0836  0.0865
   65MPD2     H  995   4.634   2.702  15.588 -0.4635  0.6268  0.6910
   65MPD2    H1  996   4.392   2.534  15.902  0.4177  0.6399  0.7077
   65MPD2    H2  997   4.444   2.951  15.888  1.3810  2.4697 -2.7387
   65MPD2    H3  998   4.344   2.753  15.977 -0.2641  0.6752 -0.5218
   65MPD2     N  999   4.555   2.467  15.695  0.3209  0.0838  0.2223
   65MPD2    H5 1000   4.526   2.386  15.749 -0.0076  0.7483  1.0354
   65MPD2    N1 1001   4.617   2.945  15.655 -0.1631 -0.5724 -0.6668
   65MPD2    H7 1002   4.683   2.916  15.583 -0.3873 -0.5477 -0.8810
   66TCq2    C1 1003   4.591   3.070  15.667  0.0611  0.1214 -0.2464
   66TCq2    O2 1004   4.520   3.128  15.750 -0.1004 -0.5824  0.5831
   66TCq2    C2 1005   4.645   3.150  15.561  0.3318 -0.2031 -0.0700
   66TCq2    C3 1006   4.681   3.097  15.444 -0.3476 -0.6896 -0.0775
   66TCq2    C4 1007   0.018   3.177  15.353  0.6418  0.3086  0.2589
   66TCq2    C5 1008   0.060   3.300  15.388  0.5747  0.3291 -1.1506
   66TCq2    C6 1009   0.041   3.344  15.520  0.7333  0.3321  0.0848
   66TCq2    C7 1010   4.677   3.272  15.602  0.5124 -0.2567  0.3380
   66TCq2    C8 1011   0.121   3.467  15.561 -0.0219 -0.0395  0.0787
   66TCq2    O4 1012   0.204   3.515  15.483 -0.0318  0.0846  0.1229
   66TCq2    C9 1013   0.034   3.131  15.221 -0.2732 -0.3507  0.0383
   66TCq2    O5 1014   4.719   3.013  15.208  0.0701  0.2177  0.6427
   66TCq2    O6 1015   0.068   3.213  15.132 -0.1510  0.4790 -0.1123
   66TCq2    H2 1016   4.642   3.001  15.412 -1.6844  0.1842 -1.0073
   66TCq2    H3 1017   0.122   3.351  15.315  0.4543  0.4229 -1.1876
   66TCq2    H4 1018   4.665   3.297  15.707  0.1374 -0.4207  0.3334
   67MPD2     C 1019   4.485   2.214  14.289  0.5432 -0.0195 -0.5653
   67MPD2    C1 1020   4.524   2.346  14.294 -0.1984  0.6661 -0.0402
   67MPD2    C2 1021   4.506   2.431  14.183 -0.1042 -0.6783  0.5143
   67MPD2    C3 1022   4.446   2.374  14.067  0.1722 -0.0287  1.1683
   67MPD2    C4 1023   4.411   2.244  14.065 -0.2841  0.6637  0.3287
   67MPD2    C5 1024   4.429   2.159  14.178 -0.2540  0.3773 -0.1202
   67MPD2     H 1025   4.530   2.537  14.187 -1.6007 -0.3628  1.0806
   67MPD2    H1 1026   4.373   2.210  13.969  0.5336  0.6435  0.0106
   67MPD2    H2 1027   4.481   2.154  14.379 -0.9951 -0.0858 -0.6738
   67MPD2    H3 1028   4.406   2.053  14.177 -0.1051  0.3485 -0.4969
   67MPD2     N 1029   4.414   2.451  13.957  0.1505  0.0082  0.1440
   67MPD2    H5 1030   4.377   2.405  13.874 -0.6995  0.1907  0.4220
   67MPD2    N1 1031   4.571   2.403  14.416 -0.4410 -0.2463  0.0268
   67MPD2    H7 1032   4.585   2.504  14.420  2.3897 -0.6765  1.1850
   68TCq2    C1 1033   4.594   2.340  14.533  0.0020 -0.9520  0.2638
   68TCq2    O2 1034   4.601   2.219  14.563  0.0336 -0.0647 -0.2957
   68TCq2    C2 1035   4.609   2.420  14.654 -1.0328 -0.4276 -0.5404
   68TCq2    C3 1036   4.534   2.529  14.663  0.2100  0.0899 -1.0097
   68TCq2    C4 1037   4.530   2.592  14.789  0.0077 -0.0113  0.1377
   68TCq2    C5 1038   4.617   2.548  14.886 -0.0360  0.4055 -0.1079
   68TCq2    C6 1039   4.692   2.442  14.866 -0.0786  0.1189  0.4783
   68TCq2    C7 1040   4.688   2.368  14.751  0.5165 -0.6955  0.8704
   68TCq2    C8 1041   0.092   2.424  14.947 -0.8337 -0.3313 -0.3705
   68TCq2    O4 1042   0.166   2.341  14.895  0.0033 -0.0722 -0.2547
   68TCq2    C9 1043   4.436   2.697  14.813 -1.0081 -0.1429 -0.4942
   68TCq2    O5 1044   4.364   2.731  14.720 -0.1212  0.1393 -0.1717
   68TCq2    O6 1045   4.428   2.736  14.931  0.7615  0.2226 -0.5310
   68TCq2    H2 1046   4.458   2.550  14.588 -2.5437 -1.1052  1.4632
   68TCq2    H3 1047   4.614   2.599  14.981 -0.9950  0.5982 -0.2440
   68TCq2    H4 1048   0.027   2.280  14.732  1.1304 -0.6076  2.3557
   69TMC2    C1 1049   1.344   3.674  12.457  0.7205 -0.0061 -0.3547
   69TMC2    C2 1050   1.261   3.777  12.479 -0.3921 -0.6318  0.3668
   69TMC2    C3 1051   1.287   3.897  12.426  0.1213 -0.4125 -0.8726
   69TMC2    C4 1052   1.435   3.683  12.355 -0.1755  0.3226  0.1337
   69TMC2    C5 1053   1.455   3.802  12.297 -0.2537 -0.0103  0.0393
   69TMC2    C6 1054   1.384   3.907  12.332  0.4133  0.5377 -0.0072
   69TMC2     C 1055   1.363   3.564  12.546  0.1844  0.3109 -0.6521
   69TMC2     O 1056   1.266   3.502  12.578  0.2229  0.6900 -0.4558
   69TMC2     H 1057   1.172   3.765  12.539 -0.7450  3.2038  0.5769
   69TMC2    H1 1058   1.485   3.596  12.313 -1.9542  0.5567 -2.4600
   69TMC2    H2 1059   1.406   4.006  12.293 -0.0113  0.2447 -0.9812
   69TMC2    C7 1060   1.585   3.816  12.238 -0.1389 -0.3026 -0.6531
   69TMC2    C8 1061   1.175   3.982  12.404  0.5122 -0.6473  0.2277
   69TMC2    O1 1062   1.672   3.763  12.296  0.1377  0.0936  0.1409
   69TMC2    O2 1063   1.166   4.047  12.301 -0.5516  0.2683  0.6259
   69TMC2    O5 1064   1.107   4.000  12.522 -0.2071  0.7614  0.3790
   69TMC2    H5 1065   1.151   3.951  12.594  1.2702  0.6492 -0.5989
   70MPD2     C 1066   1.680   3.386  12.596 -0.2301  0.0264  0.1149
   70MPD2    C1 1067   1.553   3.414  12.614 -1.3247 -0.8445 -0.4519
   70MPD2    C2 1068   1.486   3.337  12.706 -0.6874 -1.2795  0.0603
   70MPD2    C3 1069   1.555   3.246  12.786  0.3311  0.0998 -0.1892
   70MPD2    C4 1070   1.690   3.218  12.763  0.5919 -0.5566  0.0425
   70MPD2    C5 1071   1.753   3.285  12.656 -0.6301 -0.0927  0.0475
   70MPD2     H 1072   1.381   3.354  12.728 -0.6845 -0.0229 -0.9540
   70MPD2    H1 1073   1.734   3.146  12.830  1.3633  0.7106  0.8948
   70MPD2    H2 1074   1.730   3.441  12.517 -1.7617  3.1814  1.3534
   70MPD2    H3 1075   1.857   3.265  12.635 -0.4920  0.1058  0.5461
   70MPD2     N 1076   1.496   3.165  12.889  0.4399  0.4667  0.2867
   70MPD2    H5 1077   1.560   3.108  12.944  0.0240 -0.2340  0.0435
   70MPD2    N1 1078   1.495   3.523  12.542 -0.2164 -1.0059 -0.0273
   70MPD2    H7 1079   1.559   3.571  12.479 -1.7973  1.5876  0.3329
   71TMC2    C1 1080   1.480   4.186   1.676  0.0086 -0.6004  0.3418
   71TMC2    C2 1081   1.595   4.116   1.672 -0.1336  0.4563  0.4975
   71TMC2    C3 1082   1.651   4.072   1.786 -0.1498 -0.4130  0.0270
   71TMC2    C4 1083   1.427   4.228   1.795 -0.4137 -0.2370 -0.3628
   71TMC2    C5 1084   1.489   4.183   1.907  0.4094 -0.9313 -0.6894
   71TMC2    C6 1085   1.601   4.105   1.905  0.4151  0.3494  0.3699
   71TMC2     C 1086   1.412   4.214   1.559 -0.6991  0.0441  0.2222
   71TMC2     O 1087   1.354   4.320   1.544 -0.1753 -0.2072  0.4244
   71TMC2     H 1088   1.619   4.077   1.573  0.7706  1.4684  0.3141
   71TMC2    H1 1089   1.347   4.300   1.807  0.6620  1.0654 -0.9597
   71TMC2    H2 1090   1.663   4.086   1.992 -0.0794  2.0507  1.0795
   71TMC2    C7 1091   1.403   4.153   2.021 -1.1699  0.7046  0.5992
   71TMC2    C8 1092   1.794   4.051   1.784 -0.2156  0.3546  0.4699
   71TMC2    O1 1093   1.451   4.124   2.129 -0.2262  0.9916 -0.1330
   71TMC2    O2 1094   1.855   4.059   1.680  0.0664  0.4863 -0.0621
   71TMC2    O5 1095   1.834   3.965   1.874 -0.3071  0.0925 -0.0970
   71TMC2    H5 1096   1.757   3.930   1.923  1.3142 -2.1604  0.8675
   72MPD2     C 1097   1.116   4.060   1.164 -0.4990  0.0371 -0.2693
   72MPD2    C1 1098   1.167   4.185   1.191  0.0516  0.2615  0.1774
   72MPD2    C2 1099   1.253   4.200   1.300  0.3212  0.4254  0.2089
   72MPD2    C3 1100   1.279   4.093   1.388  0.2984 -0.2844  0.7296
   72MPD2    C4 1101   1.219   3.977   1.361 -0.0231  0.5573 -0.0242
   72MPD2    C5 1102   1.145   3.958   1.247 -0.9621  0.4655  0.0305
   72MPD2     H 1103   1.293   4.298   1.323  0.8981  0.2240  0.0852
   72MPD2    H1 1104   1.228   3.891   1.426  2.3344  0.8065 -0.0314
   72MPD2    H2 1105   1.059   4.044   1.074  0.0264  2.5191 -1.0438
   72MPD2    H3 1106   1.091   3.867   1.222  1.8335 -0.6904 -1.7934
   72MPD2     N 1107   1.365   4.094   1.503  0.2847  0.2024 -0.1242
   72MPD2    H5 1108   1.390   4.005   1.546  0.9123  0.3649 -0.1506
   72MPD2    N1 1109   1.121   4.304   1.127  0.2385  0.4194  0.0879
   72MPD2    H7 1110   1.170   4.390   1.150 -1.1740  1.5192 -0.9789
   73TMC2    C1 1111   3.897   1.293  14.003 -0.6497  1.1460 -0.6526
   73TMC2    C2 1112   3.836   1.403  14.062 -0.3566  0.0573  1.1076
   73TMC2    C3 1113   3.764   1.373  14.179  0.7076 -0.4530 -0.2031
   73TMC2    C4 1114   3.872   1.169  14.044 -0.0579  0.1139  0.4296
   73TMC2    C5 1115   3.813   1.144  14.163 -0.1352  0.0131  0.7047
   73TMC2    C6 1116   3.754   1.245  14.230 -0.1471 -0.8039 -0.2715
   73TMC2     C 1117   4.044   1.307  13.977 -0.5816 -0.6706  0.1930
   73TMC2     O 1118   4.112   1.228  14.039 -0.2216  0.1249  0.0592
   73TMC2     H 1119   3.861   1.508  14.051 -2.9532  0.5177 -0.3844
   73TMC2    H1 1120   3.916   1.082  13.996 -0.0316 -0.6753  1.8959
   73TMC2    H2 1121   3.747   1.236  14.338 -2.6149 -1.1501 -0.4615
   73TMC2    C7 1122   3.878   1.055  14.263 -0.0873  0.0936 -0.0524
   73TMC2    C8 1123   3.724   1.493  14.261 -0.1098 -0.3307 -0.1850
   73TMC2    O1 1124   3.820   1.016  14.364  0.0497  0.2544 -0.2427
   73TMC2    O2 1125   3.753   1.611  14.250 -0.1967  0.5143  0.5618
   73TMC2    O5 1126   3.634   1.439  14.341  0.1575 -0.4793  0.1099
   73TMC2    H5 1127   3.604   1.348  14.319  0.4503 -0.6980  0.6104
   74MPD2     C 1128   4.480   1.550  13.825 -0.2137 -0.8706 -0.5863
   74MPD2    C1 1129   4.454   1.450  13.918 -0.5294 -0.1231  0.5256
   74MPD2    C2 1130   4.317   1.408  13.938  0.0961 -0.1700  0.9498
   74MPD2    C3 1131   4.208   1.466  13.872  0.2429  0.9800  0.0771
   74MPD2    C4 1132   4.236   1.571  13.782  0.0798  0.2050  0.3769
   74MPD2    C5 1133   4.369   1.606  13.767 -0.0678 -0.2061 -0.2546
   74MPD2     H 1134   4.300   1.319  13.998 -0.1644 -0.1924  0.8456
   74MPD2    H1 1135   4.160   1.631  13.734  1.8746 -1.1419 -4.1270
   74MPD2    H2 1136   4.583   1.578  13.807 -0.9522  1.2101 -1.6655
   74MPD2    H3 1137   4.386   1.693  13.704  0.0843 -1.8132 -2.4080
   74MPD2     N 1138   4.076   1.419  13.899 -0.1280  0.1810  1.2491
   74MPD2    H5 1139   3.995   1.464  13.856 -0.4222 -1.3376  0.1944
   74MPD2    N1 1140   4.555   1.377  13.967  0.0509  0.1503  0.9509
   74MPD2    H7 1141   4.649   1.387  13.931 -0.1469 -1.5668 -0.0467
   75TCq2    C1 1142   4.444   2.582  13.932 -0.2427  0.1274 -0.4595
   75TCq2    O2 1143   4.503   2.664  14.003 -0.1703 -0.1202  0.8502
   75TCq2    C2 1144   4.422   2.611  13.800 -0.6068 -0.8273 -0.0604
   75TCq2    C3 1145   4.483   2.717  13.742  1.0629  0.0047  0.3737
   75TCq2    C4 1146   4.453   2.744  13.609  0.2259  0.2815 -0.5196
   75TCq2    C5 1147   4.353   2.687  13.539  0.4864 -0.2531  0.1267
   75TCq2    C6 1148   4.285   2.589  13.606  0.2323 -0.2255  0.3274
   75TCq2    C7 1149   4.322   2.541  13.730 -0.7861  0.2706  0.3539
   75TCq2    C8 1150   4.168   2.535  13.540 -0.6940 -0.2411  0.6039
   75TCq2    O4 1151   4.123   2.428  13.585  0.0153  0.1210 -0.2766
   75TCq2    C9 1152   4.515   2.868  13.556 -0.6794  0.0257  0.3454
   75TCq2    O5 1153   4.558   2.941  13.644 -0.1930 -0.2542 -0.2272
   75TCq2    O6 1154   4.474   2.904  13.447 -0.6719 -0.1632 -0.5450
   75TCq2    H2 1155   4.544   2.782  13.803  1.4139 -0.0854  0.1162
   75TCq2    H3 1156   4.330   2.728  13.442 -1.3660  0.2358  0.7784
   75TCq2    H4 1157   4.257   2.470  13.780  0.0776 -0.8019 -0.0368
   76MPD2     C 1158   2.497   3.156  12.416 -0.0473 -0.0286  0.1891
   76MPD2    C1 1159   2.559   3.187  12.300  0.1848 -0.6668  0.5117
   76MPD2    C2 1160   2.682   3.139  12.271  0.5264 -0.4013 -1.2164
   76MPD2    C3 1161   2.758   3.078  12.375 -0.1925 -0.3199 -0.1918
   76MPD2    C4 1162   2.697   3.055  12.498  0.0721 -0.3261  0.4190
   76MPD2    C5 1163   2.566   3.090  12.513  0.2129  0.0262  0.3094
   76MPD2     H 1164   2.710   3.155  12.168  0.7176 -0.3472 -1.1556
   76MPD2    H1 1165   2.739   2.991  12.575 -0.7742 -1.3994 -0.0094
   76MPD2    H2 1166   2.394   3.187  12.429  0.1685  0.3154  1.1167
   76MPD2    H3 1167   2.513   3.061  12.603 -0.2312 -2.7998 -0.8621
   76MPD2     N 1168   2.881   3.013  12.359 -0.6284  0.1324 -0.4280
   76MPD2    H5 1169   2.905   2.945  12.430 -3.0887  2.9356  3.0631
   76MPD2    N1 1170   2.489   3.264  12.199  0.2897 -0.2988 -0.5356
   76MPD2    H7 1171   2.547   3.290  12.120  3.8872  0.5737  2.4191
   77TCq2    C1 1172   2.954   2.999  12.245 -0.3196 -0.6918 -0.1965
   77TCq2    O2 1173   2.922   3.042  12.133 -0.4904  0.4821 -0.9393
   77TCq2    C2 1174   3.064   2.905  12.253 -0.0862  0.1696 -0.8986
   77TCq2    C3 1175   3.079   2.817  12.149 -0.0423  0.0778  0.3328
   77TCq2    C4 1176   3.144   2.706  12.172 -0.5294  0.1743  0.0808
   77TCq2    C5 1177   3.207   2.679  12.289  0.3796 -0.2429  0.0544
   77TCq2    C6 1178   3.208   2.773  12.388 -1.3932 -0.1321  0.0538
   77TCq2    C7 1179   3.141   2.890  12.369  0.1111  0.0988 -0.2011
   77TCq2    C8 1180   3.292   2.754  12.503 -0.5307 -0.7876  0.5104
   77TCq2    O4 1181   3.302   2.637  12.537 -0.7859 -0.1650  0.4180
   77TCq2    C9 1182   3.160   2.618  12.064 -0.9739 -0.0958  0.1600
   77TCq2    O5 1183   3.172   2.498  12.093  1.0013  0.1991 -0.2714
   77TCq2    O6 1184   3.132   2.658  11.946 -0.0787 -0.7272 -0.3241
   77TCq2    H2 1185   3.036   2.832  12.050 -0.5847 -0.6266  0.4600
   77TCq2    H3 1186   3.245   2.578  12.298  0.7170 -0.2625 -1.5948
   77TCq2    H4 1187   3.123   2.953  12.456 -2.3564 -1.0609  0.1315
   78MPD1     C 1188   4.416   0.035   1.948 -0.3061  0.0120 -0.4889
   78MPD1    C1 1189   4.406   0.058   2.086 -0.2534 -0.1637  0.0832
   78MPD1    C2 1190   4.487   4.698   2.167 -0.1128 -0.4226 -0.5312
   78MPD1    C3 1191   4.572   4.608   2.105  1.0097  0.7296  0.0131
   78MPD1    C4 1192   4.591   4.609   1.972  0.3313  1.0330  0.5406
   78MPD1    C5 1193   4.512   4.680   1.900  0.5372 -0.0029 -0.2065
   78MPD1     H 1194   4.473   4.701   2.274 -1.4549 -0.7451 -0.6990
   78MPD1    H1 1195   4.642   4.539   1.908  0.6569  1.3007  0.5088
   78MPD1    H2 1196   4.351   0.093   1.884 -0.5179  1.0533  0.6605
   78MPD1    H3 1197   4.540   4.689   1.796 -1.0480  0.7860 -0.5701
   78MPD1     N 1198   4.652   4.514   2.172  0.4118  1.1936  0.2853
   78MPD1    H5 1199   4.711   4.462   2.108 -1.5501 -1.9812  1.0702
   78MPD1    N1 1200   4.305   0.135   2.141 -0.0275 -0.1692  0.5570
   78MPD1    H6 1201   4.326   0.159   2.238  1.5148  1.3676 -0.1716
   78MPD1    H7 1202   4.302   0.226   2.095  1.7484 -0.6651 -0.5186
   79TCq2    C1 1203   4.655   4.493   2.307  0.3337 -0.4239  0.2034
   79TCq2    O2 1204   4.606   4.556   2.399  0.1832 -0.4081 -0.3867
   79TCq2    C2 1205   0.032   4.393   2.353 -0.4319  0.1335 -0.3993
   79TCq2    C3 1206   0.054   4.376   2.488 -0.4968 -0.5865 -0.5432
   79TCq2    C4 1207   0.130   4.277   2.536 -0.2013  0.0756  0.6004
   79TCq2    C5 1208   0.195   4.197   2.449  0.2318 -0.4011  0.0682
   79TCq2    C6 1209   0.159   4.198   2.317  0.3599 -0.2642 -0.3000
   79TCq2    C7 1210   0.074   4.291   2.266 -0.7065 -0.1443 -0.3451
   79TCq2    C8 1211   0.250   4.124   2.229 -0.3873 -0.3004 -0.8179
   79TCq2    O4 1212   0.355   4.085   2.282 -0.1433 -0.2630  0.0356
   79TCq2    C9 1213   0.145   4.254   2.676 -0.6816 -0.3315 -0.1402
   79TCq2    O5 1214   0.219   4.154   2.711 -0.0080 -1.1219 -0.2765
   79TCq2    O6 1215   0.074   4.318   2.757  0.1846 -0.8131 -0.1678
   79TCq2    H2 1216   0.008   4.447   2.556  0.9660 -1.5629  1.4730
   79TCq2    H3 1217   0.263   4.120   2.481 -1.1425 -2.4455 -1.9376
   79TCq2    H4 1218   0.054   4.279   2.160  0.5191 -0.9018 -0.4999
   80MPD2     C 1219   2.095   2.604  12.337 -0.3794  0.6322 -0.0512
   80MPD2    C1 1220   2.044   2.669  12.228 -0.7128 -0.2914  0.3369
   80MPD2    C2 1221   1.917   2.725  12.231  0.0845 -0.9295 -0.2988
   80MPD2    C3 1222   1.833   2.711  12.334 -0.6262  0.3950 -0.4407
   80MPD2    C4 1223   1.884   2.638  12.440  0.4280  0.6884  0.2445
   80MPD2    C5 1224   2.012   2.588  12.445 -0.4763  0.1398 -0.3162
   80MPD2     H 1225   1.879   2.769  12.140  1.5353  1.4605  0.2501
   80MPD2    H1 1226   1.818   2.615  12.523 -1.8409  2.4604 -1.0741
   80MPD2    H2 1227   2.193   2.558  12.337 -0.1688  1.0929 -0.5107
   80MPD2    H3 1228   2.045   2.530  12.531 -0.4013  2.0084  0.9048
   80MPD2     N 1229   1.695   2.740  12.329 -0.7739 -0.8072 -0.3999
   80MPD2    H5 1230   1.644   2.690  12.401 -0.1693 -2.9215 -1.4605
   80MPD2    N1 1231   2.108   2.670  12.098  0.4395  0.2815 -0.1632
   80MPD2    H7 1232   2.062   2.727  12.029  1.7036  3.7429  1.8703
   81TCq2    C1 1233   2.231   2.606  12.065  0.0770  0.4122  0.0655
   81TCq2    O2 1234   2.311   2.547  12.140  0.5292 -0.7249 -0.0663
   81TCq2    C2 1235   2.259   2.633  11.924 -0.2479  0.6643 -0.1467
   81TCq2    C3 1236   2.392   2.617  11.889 -0.8075 -0.2351 -0.0749
   81TCq2    C4 1237   2.423   2.590  11.762  0.1650 -0.0376 -0.3156
   81TCq2    C5 1238   2.327   2.570  11.670  0.7083 -0.1782 -0.2659
   81TCq2    C6 1239   2.196   2.574  11.704  0.4718  0.1257  0.0874
   81TCq2    C7 1240   2.156   2.607  11.832  0.1782 -0.6850 -0.0500
   81TCq2    C8 1241   2.110   2.495  11.617  0.6469  0.6320 -0.8779
   81TCq2    O4 1242   2.131   2.493  11.497 -0.0284 -0.2692  0.5559
   81TCq2    C9 1243   2.566   2.564  11.728 -0.1746  0.1622  0.3424
   81TCq2    O5 1244   2.641   2.546  11.818  0.0497  0.0567 -0.5063
   81TCq2    O6 1245   2.589   2.559  11.606  0.3657 -0.3417 -0.1330
   81TCq2    H2 1246   2.455   2.633  11.976 -0.4444 -1.4928 -0.1078
   81TCq2    H3 1247   2.364   2.536  11.574  0.2322 -0.7786 -0.2377
   81TCq2    H4 1248   2.053   2.610  11.862  0.7458  0.2684  1.7663
   82MPD2     C 1249   0.559   2.654  10.395 -0.1629  0.6118 -0.1919
   82MPD2    C1 1250   0.484   2.538  10.396 -1.0344 -0.4711 -0.2106
   82MPD2    C2 1251   0.550   2.420  10.437  0.1942 -0.2358  0.0290
   82MPD2    C3 1252   0.689   2.414  10.459 -0.7804  0.4752  0.3603
   82MPD2    C4 1253   0.759   2.533  10.440  0.2802  0.3463  0.0028
   82MPD2    C5 1254   0.692   2.648  10.420 -0.4578 -0.2833  0.1272
   82MPD2     H 1255   0.493   2.333  10.467 -1.9424  1.7006  1.6066
   82MPD2    H1 1256   0.867   2.544  10.449 -0.0396  1.9189  1.7810
   82MPD2    H2 1257   0.519   2.748  10.359  0.1410  2.2181  3.6590
   82MPD2    H3 1258   0.748   2.740  10.403  0.2821 -0.2683  2.6507
   82MPD2     N 1259   0.749   2.290  10.500  0.4280  0.1365 -0.7308
   82MPD2    H5 1260   0.689   2.211  10.520  1.4564 -0.1417  1.1938
   82MPD2    N1 1261   0.350   2.536  10.351 -0.6345  1.0256  0.2546
   82MPD2    H7 1262   0.322   2.630  10.328  1.3876  0.8205 -3.1181
   83TCq2    C1 1263   0.883   2.267  10.506  0.2017  0.3367 -0.6151
   83TCq2    O2 1264   0.979   2.339  10.480  0.6098  0.1819  0.5127
   83TCq2    C2 1265   0.917   2.132  10.541 -0.3393 -0.2001  0.2509
   83TCq2    C3 1266   1.034   2.087  10.489  0.2572  0.6141 -0.0916
   83TCq2    C4 1267   1.079   1.964  10.522 -0.4156 -0.2936  0.7186
   83TCq2    C5 1268   1.005   1.892  10.611  0.5909  0.5719 -0.4565
   83TCq2    C6 1269   0.889   1.944  10.667 -0.0887 -0.0048  0.4929
   83TCq2    C7 1270   0.848   2.067  10.639  0.7561  0.0041 -0.1980
   83TCq2    C8 1271   0.799   1.861  10.746  0.3983 -0.2957  0.4911
   83TCq2    O4 1272   0.704   1.919  10.796 -0.1065  0.0950 -0.5501
   83TCq2    C9 1273   1.217   1.918  10.498 -0.0831  0.6353 -0.9516
   83TCq2    O5 1274   1.260   1.810  10.546 -0.4901  0.1712  0.2193
   83TCq2    O6 1275   1.285   1.992  10.417  0.7617  0.6322 -0.1223
   83TCq2    H2 1276   1.086   2.156  10.423  1.4848  1.1655  1.4591
   83TCq2    H3 1277   1.045   1.797  10.646  0.0785  1.1948  1.8133
   83TCq2    H4 1278   0.760   2.113  10.682  0.4124 -1.9150  1.1500
   84TCq2    C1 1279   1.843   0.999  10.543  0.6395  0.5159 -0.4734
   84TCq2    O2 1280   1.770   0.918  10.592 -0.8885  0.4379 -0.1435
   84TCq2    C2 1281   1.933   1.073  10.633  0.0980 -0.3220  0.7175
   84TCq2    C3 1282   2.010   1.174  10.584  0.6392 -0.4582 -0.1533
   84TCq2    C4 1283   2.080   1.245  10.672 -0.1762  0.4931 -0.1926
   84TCq2    C5 1284   2.076   1.211  10.807 -0.2352 -0.1549  0.3542
   84TCq2    C6 1285   2.010   1.102  10.848 -0.0210 -0.5725  0.3250
   84TCq2    C7 1286   1.927   1.036  10.760 -0.4350  0.1640 -0.2636
   84TCq2    C8 1287   2.006   1.067  10.988 -0.0890 -0.4354 -0.3590
   84TCq2    O4 1288   1.920   0.989  11.029 -0.0293 -0.5747  0.0488
   84TCq2    C9 1289   2.131   1.379  10.633  0.3338 -0.2257  0.2512
   84TCq2    O5 1290   2.141   1.414  10.512 -0.0246  0.3310  0.2331
   84TCq2    O6 1291   2.149   1.457  10.727  0.9914 -0.4104 -0.1982
   84TCq2    H2 1292   2.008   1.206  10.481  0.1635 -0.4214 -0.1306
   84TCq2    H3 1293   2.111   1.283  10.879 -0.3670  1.9807 -1.7023
   84TCq2    H4 1294   1.877   0.944  10.787 -0.1356  0.0772  0.0025
   85MPD2     C 1295   2.234   3.647  16.234 -0.7228 -0.5230  0.2312
   85MPD2    C1 1296   2.103   3.657  16.188  0.1577  0.1877  0.0098
   85MPD2    C2 1297   2.077   3.738  16.075  0.0204 -1.0808  0.2289
   85MPD2    C3 1298   2.178   3.809  16.010  0.8974  0.1253 -0.2462
   85MPD2    C4 1299   2.309   3.785  16.053  0.5527 -0.0929  1.1980
   85MPD2    C5 1300   2.335   3.701  16.158 -0.4210  0.0818  0.2049
   85MPD2     H 1301   1.973   3.746  16.042  0.5684 -0.2317 -1.3261
   85MPD2    H1 1302   2.393   3.829  16.001  0.2634 -2.5249 -1.3219
   85MPD2    H2 1303   2.261   3.595  16.325  0.4494 -0.4574 -0.0847
   85MPD2    H3 1304   2.441   3.692  16.182 -0.3955  1.2997  0.5382
   85MPD2     N 1305   2.147   3.889  15.899 -0.7095  0.4967 -0.9908
   85MPD2    H5 1306   2.048   3.888  15.877 -0.7154  0.4603 -0.9623
   85MPD2    N1 1307   1.989   3.597  16.252  0.0626 -0.3844 -0.2629
   85MPD2    H7 1308   1.899   3.615  16.209  0.4809 -0.2798 -1.1105
   86TCq2    C1 1309   2.236   3.960  15.828 -1.1743 -0.1171 -0.0085
   86TCq2    O2 1310   2.348   3.985  15.858 -0.5464 -0.0562  0.4473
   86TCq2    C2 1311   2.173   4.064  15.743 -0.0353  0.1159 -0.3542
   86TCq2    C3 1312   2.034   4.056  15.720  0.4290  0.6599 -0.2029
   86TCq2    C4 1313   1.972   4.145  15.638  0.3311 -0.3740 -0.3153
   86TCq2    C5 1314   2.054   4.230  15.577  0.2770 -0.4118  0.0553
   86TCq2    C6 1315   2.188   4.235  15.595  0.6508  0.4076 -0.0256
   86TCq2    C7 1316   2.255   4.143  15.668 -0.1675 -0.4425 -0.0998
   86TCq2    C8 1317   2.271   4.322  15.519 -0.0784 -0.4770  0.1764
   86TCq2    O4 1318   2.387   4.284  15.493  0.8257  0.2092  0.3099
   86TCq2    C9 1319   1.826   4.154  15.623  0.3081  0.4685  0.2342
   86TCq2    O5 1320   1.776   4.245  15.547 -0.6673  0.1057  0.1657
   86TCq2    O6 1321   1.762   4.054  15.671 -0.2940 -0.0531 -0.1351
   86TCq2    H2 1322   1.971   3.994  15.782  0.8461  1.0836  0.6420
   86TCq2    H3 1323   2.003   4.297  15.509  0.1768 -0.6662 -0.1191
   86TCq2    H4 1324   2.350   4.166  15.714 -0.6649  0.7516  0.3397
   87MPD2     C 1325   4.492   3.481   1.433 -1.4818 -0.3064 -0.3208
   87MPD2    C1 1326   4.454   3.352   1.397 -0.3295  0.5957  0.1572
   87MPD2    C2 1327   4.342   3.337   1.306 -0.3212  0.4955 -0.0394
   87MPD2    C3 1328   4.278   3.450   1.255  0.0448 -0.5269 -0.6902
   87MPD2    C4 1329   4.325   3.570   1.296 -0.0666 -0.1966  0.5862
   87MPD2    C5 1330   4.430   3.592   1.383 -0.0213 -0.5843  0.0984
   87MPD2     H 1331   4.316   3.236   1.277  1.5809 -0.4022  1.3744
   87MPD2    H1 1332   4.289   3.665   1.257  3.0451  1.0456  0.7392
   87MPD2    H2 1333   4.583   3.503   1.489 -1.2873  0.8177 -1.0784
   87MPD2    H3 1334   4.462   3.691   1.412 -3.9956  0.6158  0.4515
   87MPD2     N 1335   4.175   3.447   1.158  0.0176  0.2067  0.0885
   87MPD2    H5 1336   4.151   3.535   1.113 -0.9480 -0.4824 -0.7603
   87MPD2    N1 1337   4.522   3.248   1.468  0.3576 -0.1982 -0.6902
   87MPD2    H7 1338   4.594   3.269   1.536 -0.9609  1.7459  0.0975
   88TCq2    C1 1339   4.503   3.113   1.450  1.4153  0.3939  0.9035
   88TCq2    O2 1340   4.444   3.050   1.362 -0.1941 -0.1589 -0.7005
   88TCq2    C2 1341   4.577   3.036   1.555 -0.2332 -0.2769  0.0493
   88TCq2    C3 1342   4.628   3.097   1.668  0.4613 -0.3055 -0.9054
   88TCq2    C4 1343   4.716   3.021   1.734 -0.3016  0.3335  0.4537
   88TCq2    C5 1344   0.019   2.882   1.701 -0.5652  0.0966  0.0235
   88TCq2    C6 1345   4.674   2.828   1.594 -0.4297 -0.2037  0.3279
   88TCq2    C7 1346   4.592   2.905   1.519 -0.2314  0.7437  0.1154
   88TCq2    C8 1347   0.020   2.724   1.520 -0.3177  0.3651 -0.1094
   88TCq2    O4 1348   0.001   2.722   1.396  0.0265  0.0373 -0.1614
   88TCq2    C9 1349   0.062   3.086   1.842  0.2868 -0.1715 -0.1337
   88TCq2    O5 1350   0.061   3.210   1.836  0.2042  0.0962 -0.4757
   88TCq2    O6 1351   0.153   3.019   1.901  0.2513  0.2362 -0.1541
   88TCq2    H2 1352   4.609   3.201   1.692  0.7109 -0.2417 -0.9794
   88TCq2    H3 1353   0.084   2.830   1.770 -0.4410  2.5561  1.7768
   88TCq2    H4 1354   4.543   2.877   1.426  1.8855 -0.5362 -0.6054
   89MPD2     C 1355   1.264   0.909   2.036  0.5670 -0.0131 -0.3039
   89MPD2    C1 1356   1.187   1.002   2.105 -0.3350 -0.0537 -0.4523
   89MPD2    C2 1357   1.232   1.129   2.127 -0.0316 -0.1644  0.0538
   89MPD2    C3 1358   1.359   1.160   2.079 -0.5425 -0.1674  0.1280
   89MPD2    C4 1359   1.443   1.067   2.022  0.1865 -0.0402 -0.4371
   89MPD2    C5 1360   1.393   0.940   1.994  0.7359 -0.4733 -0.2463
   89MPD2     H 1361   1.163   1.205   2.164 -1.3910 -0.5809 -1.6253
   89MPD2    H1 1362   1.551   1.075   2.008  0.2910  0.3206  0.5934
   89MPD2    H2 1363   1.234   0.811   1.999 -0.2023  0.0043  0.2629
   89MPD2    H3 1364   1.449   0.865   1.939 -0.6631 -1.1307 -0.7678
   89MPD2     N 1365   1.402   1.291   2.107  0.3710  0.1620  0.2575
   89MPD2    H5 1366   1.331   1.353   2.145 -0.0028 -0.6097  0.8117
   89MPD2    N1 1367   1.049   0.971   2.143  0.5868  0.5015  0.2101
   89MPD2    H7 1368   0.993   1.053   2.164 -1.9853 -0.7635 -1.6983
   90TCq2    C1 1369   1.528   1.344   2.078  0.0049  0.7047  0.0749
   90TCq2    O2 1370   1.622   1.291   2.020 -0.2524 -0.7544 -0.2361
   90TCq2    C2 1371   1.554   1.472   2.146  0.3249 -0.2872 -0.0680
   90TCq2    C3 1372   1.468   1.523   2.245  0.0000 -0.3629  0.3308
   90TCq2    C4 1373   1.515   1.616   2.330 -0.4014  0.1602  0.3954
   90TCq2    C5 1374   1.643   1.662   2.321  0.3818 -0.1083 -0.5556
   90TCq2    C6 1375   1.725   1.604   2.227  0.3263  0.5870 -0.1114
   90TCq2    C7 1376   1.684   1.510   2.142  0.0939  0.1685 -1.2812
   90TCq2    C8 1377   1.868   1.627   2.243 -0.3882  0.3482 -0.0575
   90TCq2    O4 1378   1.896   1.728   2.304  0.5752  0.4133  0.1214
   90TCq2    C9 1379   1.430   1.683   2.418  0.9162 -0.5370  0.4510
   90TCq2    O5 1380   1.471   1.795   2.452  0.4716  0.1809 -0.2297
   90TCq2    O6 1381   1.310   1.640   2.428  0.0626  0.3900 -0.7841
   90TCq2    H2 1382   1.368   1.485   2.263 -0.5186  1.8474  2.1073
   90TCq2    H3 1383   1.676   1.737   2.391  0.4935  0.5885 -1.3591
   90TCq2    H4 1384   1.747   1.489   2.057  2.5348  0.7933  0.3712
   91TMC2    C1 1385   2.629   0.073  15.714 -0.4345  0.7384  0.2799
   91TMC2    C2 1386   2.733   0.027  15.642  0.5474 -0.1070  0.4779
   91TMC2    C3 1387   2.749   4.614  15.604  0.4312 -0.0514  0.5643
   91TMC2    C4 1388   2.523   4.713  15.743 -0.0370  0.0290 -0.8442
   91TMC2    C5 1389   2.540   4.580  15.712  1.0099  0.2235  0.7088
   91TMC2    C6 1390   2.651   4.527  15.646  0.5217  0.6209 -0.5019
   91TMC2     C 1391   2.624   0.215  15.757 -0.8093 -0.7864  0.1511
   91TMC2     O 1392   2.511   0.260  15.775  0.2549  0.4137  0.2466
   91TMC2     H 1393   2.807   0.104  15.621 -0.2286  0.2272 -1.0342
   91TMC2    H1 1394   2.433   0.021  15.796  1.2065  2.0210  0.1514
   91TMC2    H2 1395   2.659   4.421  15.625  1.9452  1.2171 -3.0996
   91TMC2    C7 1396   2.460   4.479  15.776  0.3464 -0.2684 -0.0603
   91TMC2    C8 1397   2.869   4.569  15.552 -1.0555 -0.5656  0.8643
   91TMC2    O1 1398   2.521   4.374  15.795 -0.0977  0.3354  0.7800
   91TMC2    O2 1399   2.928   4.661  15.490 -0.1939 -0.0163 -0.3008
   91TMC2    O5 1400   2.913   4.482  15.643 -0.1119 -0.9223 -0.2035
   91TMC2    H5 1401   2.850   4.407  15.653 -2.0090  0.5651 -0.9076
   92MPD2     C 1402   2.678   0.506  15.778  0.0832 -0.3756  0.1525
   92MPD2    C1 1403   2.764   0.407  15.813  0.3300  0.3207  0.2486
   92MPD2    C2 1404   2.884   0.437  15.879 -0.6955 -0.2482 -0.7752
   92MPD2    C3 1405   2.896   0.566  15.921 -0.1435  0.7304  0.0755
   92MPD2    C4 1406   2.796   0.665  15.902  1.1388 -0.5325  0.2551
   92MPD2    C5 1407   2.683   0.629  15.835  0.1690  0.3096  0.1487
   92MPD2     H 1408   2.954   0.365  15.921 -1.1674  0.5513  1.3933
   92MPD2    H1 1409   2.810   0.764  15.945  1.2990 -1.4516  2.3331
   92MPD2    H2 1410   2.584   0.480  15.731 -0.7081  1.4165  0.7403
   92MPD2    H3 1411   2.607   0.701  15.808  0.6497  0.2268 -1.4040
   92MPD2     N 1412   3.005   0.589  16.011 -0.1931  0.2708  0.7474
   92MPD2    H5 1413   3.067   0.514  16.043 -1.5080 -1.2790 -0.3772
   92MPD2    N1 1414   2.744   0.274  15.780  0.1245 -0.1189 -0.1935
   92MPD2    H7 1415   2.816   0.206  15.804 -1.2807 -1.1325  1.0770
   93MPD2     C 1416   4.225   4.490  13.807 -0.1972  0.5953 -0.1351
   93MPD2    C1 1417   4.216   4.625  13.842  0.4935  0.5562  0.5687
   93MPD2    C2 1418   4.087   4.685  13.843 -0.1882 -0.4747  0.5162
   93MPD2    C3 1419   3.975   4.605  13.821 -0.3742  0.2225  0.3071
   93MPD2    C4 1420   3.990   4.472  13.784 -0.3394  0.7099  0.4145
   93MPD2    C5 1421   4.109   4.420  13.776 -0.0531  0.2540 -0.3744
   93MPD2     H 1422   4.070   0.069  13.862 -0.0519 -0.8452  2.7126
   93MPD2    H1 1423   3.904   4.412  13.755 -0.4266  1.4885 -0.9653
   93MPD2    H2 1424   4.317   4.434  13.817 -1.5206 -1.0754  2.7596
   93MPD2    H3 1425   4.111   4.316  13.746  2.8870  0.3514 -0.5066
   93MPD2     N 1426   3.854   4.670  13.822 -0.0769 -0.0489  0.1554
   93MPD2    H5 1427   3.858   0.048  13.839  1.1316 -0.1028  0.1810
   93MPD2    N1 1428   4.318   4.712  13.866  0.0509 -0.0185 -0.4301
   93MPD2    H7 1429   4.277   0.082  13.884  0.6858  0.1423  0.2276
   94TCq2    C1 1430   4.449   4.687  13.857 -0.5553 -0.3385  0.3053
   94TCq2    O2 1431   4.505   4.583  13.818 -1.4120 -0.3323 -0.4685
   94TCq2    C2 1432   4.527   0.071  13.903  0.3174 -0.0814 -0.0247
   94TCq2    C3 1433   4.473   0.184  13.960  0.0172 -0.2529  0.0768
   94TCq2    C4 1434   4.558   0.294  13.977 -1.1754  0.0566  0.1613
   94TCq2    C5 1435   4.686   0.292  13.936 -0.3232 -0.1350 -0.4408
   94TCq2    C6 1436   0.020   0.169  13.906  0.4432 -0.5280  1.2694
   94TCq2    C7 1437   4.662   0.058  13.888 -0.7216  0.3666  0.4598
   94TCq2    C8 1438   0.165   0.157  13.920 -0.9681 -0.7514  0.1487
   94TCq2    O4 1439   0.217   0.065  13.864  0.2562 -0.7329 -0.4689
   94TCq2    C9 1440   4.497   0.416  14.015  0.1257  0.6426  0.0997
   94TCq2    O5 1441   4.373   0.425  13.995 -0.1254 -0.0642  0.4276
   94TCq2    O6 1442   4.577   0.516  14.013 -0.0050  0.0606  0.7504
   94TCq2    H2 1443   4.368   0.209  13.970 -0.1892 -0.9967 -0.2534
   94TCq2    H3 1444   0.026   0.381  13.943  0.1932 -0.4500 -0.9735
   94TCq2    H4 1445   4.699   4.687  13.845  1.2353  1.7119 -0.7729
   95TMC2    C1 1446   3.926   1.794  15.468  0.8299  0.0103  0.2503
   95TMC2    C2 1447   3.855   1.901  15.412  0.3756 -0.0547  0.3514
   95TMC2    C3 1448   3.735   1.864  15.367  0.3577  0.5947 -0.3175
   95TMC2    C4 1449   3.896   1.654  15.458  0.3303  0.0538 -0.3425
   95TMC2    C5 1450   3.772   1.638  15.410  0.8573  0.1792  0.2230
   95TMC2    C6 1451   3.694   1.734  15.356 -0.0964  0.3146 -0.9378
   95TMC2     C 1452   4.053   1.831  15.535  0.4976 -0.0332 -0.4948
   95TMC2     O 1453   4.112   1.927  15.494 -0.2227  0.1401 -0.4961
   95TMC2     H 1454   3.885   2.001  15.440  0.5725  0.6110 -2.2880
   95TMC2    H1 1455   3.965   1.575  15.483  0.9181  1.1429  1.5165
   95TMC2    H2 1456   3.591   1.725  15.324 -0.2032 -0.0179 -0.4936
   95TMC2    C7 1457   3.707   1.510  15.435  0.0067 -0.4954  0.5352
   95TMC2    C8 1458   3.629   1.954  15.405 -0.0894  0.0675 -0.8334
   95TMC2    O1 1459   3.621   1.476  15.356 -0.0457 -0.6462 -0.2021
   95TMC2    O2 1460   3.531   1.930  15.471 -0.1325 -0.1477 -0.6852
   95TMC2    O5 1461   3.663   2.077  15.359  0.2947 -0.0554 -0.5443
   95TMC2    H5 1462   3.726   2.083  15.284 -0.4745 -0.3711 -1.2109
   96MPD2     C 1463   4.492   1.663  15.757 -1.0037 -0.3048 -0.6251
   96MPD2    C1 1464   4.467   1.781  15.687  0.1723  0.4024  0.6423
   96MPD2    C2 1465   4.339   1.802  15.633 -0.0811  0.0291 -0.0679
   96MPD2    C3 1466   4.236   1.718  15.651 -0.7826  0.1143 -0.3646
   96MPD2    C4 1467   4.269   1.607  15.721 -0.2527  0.4285  0.1474
   96MPD2    C5 1468   4.393   1.572  15.767  0.1126  0.2333  0.0650
   96MPD2     H 1469   4.331   1.887  15.566 -2.4473  0.6594  1.0218
   96MPD2    H1 1470   4.194   1.532  15.745  0.3023  0.0340  0.6716
   96MPD2    H2 1471   4.591   1.649  15.798 -1.0055 -0.9391 -0.8482
   96MPD2    H3 1472   4.403   1.484  15.830 -0.7323 -0.1469 -0.3415
   96MPD2     N 1473   4.102   1.726  15.608  0.1821 -0.4931  0.0887
   96MPD2    H5 1474   4.042   1.646  15.622  0.5013 -0.6653  0.4726
   96MPD2    N1 1475   4.565   1.884  15.685  0.2332 -0.2243 -0.1095
   96MPD2    H7 1476   4.662   1.864  15.708  1.1980  0.5066 -3.5598
   97MPD2     C 1477   1.656   4.195   1.240  0.2405 -0.2143 -0.1202
   97MPD2    C1 1478   1.648   4.331   1.212  0.0764  0.5788 -0.4388
   97MPD2    C2 1479   1.581   4.378   1.102 -0.2418  0.1867 -0.2876
   97MPD2    C3 1480   1.521   4.286   1.015  0.4953 -0.5725 -0.3386
   97MPD2    C4 1481   1.512   4.155   1.047 -0.1239 -0.0732  0.0073
   97MPD2    C5 1482   1.576   4.111   1.160 -0.4557 -0.2210  0.1533
   97MPD2     H 1483   1.554   4.482   1.094  4.0423  1.4772  2.1261
   97MPD2    H1 1484   1.455   4.093   0.979 -0.3688  0.1525  0.0040
   97MPD2    H2 1485   1.701   4.153   1.329 -2.0250 -1.9300  0.2223
   97MPD2    H3 1486   1.571   4.004   1.172 -1.6208 -0.2307 -0.4559
   97MPD2     N 1487   1.448   4.317   0.900  0.8191 -0.2573  0.2678
   97MPD2    H5 1488   1.416   4.241   0.840 -2.9080 -0.0315  1.9279
   97MPD2    N1 1489   1.715   4.410   1.315  0.3307  0.1340 -0.1691
   97MPD2    H7 1490   1.750   4.355   1.392  0.3349 -2.2146 -1.8225
   98TCq2    C1 1491   1.452   4.442   0.843 -0.0797  0.7043 -0.4259
   98TCq2    O2 1492   1.532   4.530   0.871  0.0143 -0.3373  0.2776
   98TCq2    C2 1493   1.390   4.458   0.712 -0.7403 -0.0261 -0.5817
   98TCq2    C3 1494   1.285   4.372   0.671 -0.5427  0.6265  0.5703
   98TCq2    C4 1495   1.201   4.409   0.570 -0.0172  0.3578 -0.2178
   98TCq2    C5 1496   1.221   4.528   0.503  0.0499  0.5314  0.1795
   98TCq2    C6 1497   1.323   4.612   0.543 -0.0829  0.4586 -0.2916
   98TCq2    C7 1498   1.400   4.583   0.655 -0.3464 -0.1520 -0.4637
   98TCq2    C8 1499   1.344   0.011   0.470 -1.0421  0.5219  0.4105
   98TCq2    O4 1500   1.245   0.058   0.412  0.2789 -0.3751  0.3041
   98TCq2    C9 1501   1.076   4.346   0.554 -0.1291 -0.3651  0.1022
   98TCq2    O5 1502   0.989   4.412   0.495  0.0733 -0.5450 -0.1561
   98TCq2    O6 1503   1.074   4.226   0.575 -0.5008  0.0826  0.1867
   98TCq2    H2 1504   1.257   4.278   0.715 -1.0669  1.9479  3.0936
   98TCq2    H3 1505   1.156   4.567   0.425  0.7370 -1.5608 -1.4373
   98TCq2    H4 1506   1.459   4.663   0.697  1.9220 -1.8708 -0.3713
   99MPD2     C 1507   1.312   1.630   1.889 -0.7292  0.6468 -0.2474
   99MPD2    C1 1508   1.183   1.659   1.872 -0.0057  0.1752 -0.0325
   99MPD2    C2 1509   1.113   1.591   1.777 -0.0657 -0.1347 -0.6130
   99MPD2    C3 1510   1.179   1.510   1.687  0.3956 -1.2173 -0.3689
   99MPD2    C4 1511   1.311   1.481   1.702  0.1281  0.5812 -0.3546
   99MPD2    C5 1512   1.378   1.553   1.796 -0.3306 -0.0056 -0.2587
   99MPD2     H 1513   1.006   1.605   1.764 -0.7341 -0.4982  4.6454
   99MPD2    H1 1514   1.368   1.413   1.640  2.0786  1.2144  0.7437
   99MPD2    H2 1515   1.376   1.682   1.960  0.7780 -1.0240 -0.3744
   99MPD2    H3 1516   1.485   1.539   1.807 -0.5350 -1.8817 -0.7704
   99MPD2     N 1517   1.109   1.438   1.583  0.5828 -0.4446 -0.2478
   99MPD2    H5 1518   1.011   1.464   1.570  0.6156 -0.2203 -0.0232
   99MPD2    N1 1519   1.116   1.754   1.953  0.5551 -0.2066  0.1038
   99MPD2    H7 1520   1.016   1.761   1.935  0.6961  0.1477 -0.5611
  100TCq2    C1 1521   1.175   1.839   2.044 -0.3291 -0.5446 -1.6295
  100TCq2    O2 1522   1.284   1.828   2.091  0.0940 -0.0059  0.0731
  100TCq2    C2 1523   1.077   1.945   2.086 -0.2739  0.1174 -0.1031
  100TCq2    C3 1524   1.123   2.069   2.120  0.3261  0.3238  0.4169
  100TCq2    C4 1525   1.029   2.165   2.143 -0.1709  0.1934 -0.2872
  100TCq2    C5 1526   0.899   2.131   2.146 -0.0025 -0.6043 -0.0692
  100TCq2    C6 1527   0.854   2.008   2.114  0.1273 -0.5562  0.2297
  100TCq2    C7 1528   0.944   1.909   2.082  0.3847  0.9260 -0.1130
  100TCq2    C8 1529   0.718   1.991   2.128 -0.5660 -0.7836 -0.6941
  100TCq2    O4 1530   0.650   2.065   2.201 -0.1036 -0.3576  0.0983
  100TCq2    C9 1531   1.059   2.305   2.155  0.0768  0.3416 -0.0637
  100TCq2    O5 1532   1.002   2.370   2.244 -0.2393 -0.1709 -0.0563
  100TCq2    O6 1533   1.111   2.344   2.048 -1.0927 -0.2568 -0.7205
  100TCq2    H2 1534   1.227   2.100   2.109  0.9300 -2.3237 -1.2844
  100TCq2    H3 1535   0.828   2.211   2.163  1.4381  0.2978  1.6820
  100TCq2    H4 1536   0.918   1.804   2.074 -0.6025  1.0830  1.0586
  101MPD2     C 1537   0.573   2.600  13.016 -0.3616  0.1116 -0.5995
  101MPD2    C1 1538   0.462   2.657  13.082 -0.1217  0.8789 -1.2770
  101MPD2    C2 1539   0.389   2.570  13.168  0.3994 -0.6865 -0.1097
  101MPD2    C3 1540   0.418   2.433  13.174 -0.3610  0.4734 -0.0432
  101MPD2    C4 1541   0.533   2.382  13.106 -0.2515  0.3908 -0.1955
  101MPD2    C5 1542   0.611   2.470  13.033 -0.1618  0.2363  0.3210
  101MPD2     H 1543   0.298   2.613  13.208  0.5570  0.5853 -1.1173
  101MPD2    H1 1544   0.563   2.278  13.111  0.8938  0.7912  1.1596
  101MPD2    H2 1545   0.643   2.654  12.953 -1.8346 -0.3290 -2.6145
  101MPD2    H3 1546   0.702   2.433  12.988 -0.3099  1.1682 -0.7538
  101MPD2     N 1547   0.328   2.347  13.247 -0.1938 -0.3323  0.3799
  101MPD2    H5 1548   0.246   2.396  13.283 -1.0107 -0.7789 -0.8715
  101MPD2    N1 1549   0.435   2.796  13.071  0.6567 -0.5232 -0.0806
  101MPD2    H7 1550   0.491   2.843  13.000 -0.3965  2.3515  0.9794
  102TCq2    C1 1551   0.595   3.154  12.865 -0.0812  0.4599 -0.1730
  102TCq2    O2 1552   0.693   3.085  12.882 -0.0623 -0.0920  0.6060
  102TCq2    C2 1553   0.497   3.168  12.972 -0.1366 -0.0246 -0.2768
  102TCq2    C3 1554   0.389   3.248  12.953 -0.3367 -1.1160 -0.6205
  102TCq2    C4 1555   0.269   3.206  13.002 -0.3610  0.4841 -0.1162
  102TCq2    C5 1556   0.253   3.092  13.076 -0.4213 -0.6822  0.2501
  102TCq2    C6 1557   0.363   3.014  13.088 -0.4751 -0.5899  0.0885
  102TCq2    C7 1558   0.490   3.045  13.040  0.2016 -0.4372 -0.1709
  102TCq2    C8 1559   0.341   2.875  13.128  0.1785 -0.6821 -0.6062
  102TCq2    O4 1560   0.243   2.858  13.201  0.2444  0.0176 -0.2096
  102TCq2    C9 1561   0.154   3.297  12.976  0.3657  0.3906 -0.4281
  102TCq2    O5 1562   0.191   3.387  12.902  0.8826  0.3251  0.7711
  102TCq2    O6 1563   0.038   3.257  12.982  0.4050 -0.2106  0.1811
  102TCq2    H2 1564   0.401   3.348  12.913 -0.0342 -0.7195  0.4857
  102TCq2    H3 1565   0.157   3.064  13.118  0.1362 -0.7513  1.5016
  102TCq2    H4 1566   0.575   2.978  13.050  1.3395  1.0933  0.4087
  103TMC2    C1 1567   3.746   3.311  12.839  0.1604 -0.0644 -0.5368
  103TMC2    C2 1568   3.799   3.418  12.775 -0.4344  0.5735  0.0585
  103TMC2    C3 1569   3.851   3.525  12.843  0.0308  0.0146 -0.5619
  103TMC2    C4 1570   3.749   3.300  12.978 -0.0176 -0.7320 -0.2944
  103TMC2    C5 1571   3.803   3.406  13.047 -0.8406  0.5568 -0.0004
  103TMC2    C6 1572   3.859   3.520  12.986 -0.4848  0.3814 -0.1042
  103TMC2     C 1573   3.709   3.192  12.758  0.5424 -0.1212  0.2571
  103TMC2     O 1574   3.677   3.223  12.643  0.6300 -0.4495 -0.3976
  103TMC2     H 1575   3.803   3.413  12.666  2.8236  0.3526  0.1802
  103TMC2    H1 1576   3.695   3.222  13.032 -0.2705  0.2307  0.8387
  103TMC2    H2 1577   3.895   3.600  13.049 -1.3911 -0.0258  0.9208
  103TMC2    C7 1578   3.782   3.416  13.189  0.0720 -0.1295 -0.5216
  103TMC2    C8 1579   3.894   3.638  12.763  0.2364 -0.3257  0.7680
  103TMC2    O1 1580   3.878   3.439  13.262  0.4818 -0.1976 -0.6030
  103TMC2    O2 1581   3.866   3.652  12.644  0.3873 -1.0304  0.7509
  103TMC2    O5 1582   3.939   3.731  12.855  0.1844 -0.8488 -0.3311
  103TMC2    H5 1583   3.998   3.688  12.920 -0.9527 -2.1110 -0.1300
  104MPD2     C 1584   3.602   2.866  12.896 -0.5322 -0.1306 -0.1575
  104MPD2    C1 1585   3.603   2.975  12.813 -0.5237  0.0007  0.4798
  104MPD2    C2 1586   3.527   2.969  12.697  0.7175 -0.2468  0.4976
  104MPD2    C3 1587   3.441   2.859  12.668  0.1095 -0.6699 -0.0951
  104MPD2    C4 1588   3.450   2.749  12.751  0.0137  0.1593  0.0646
  104MPD2    C5 1589   3.529   2.751  12.863 -0.1807  0.5484  0.8402
  104MPD2     H 1590   3.508   3.065  12.649 -0.5861 -0.3232  0.8487
  104MPD2    H1 1591   3.386   2.661  12.749 -0.1191  0.2150  1.6004
  104MPD2    H2 1592   3.653   2.875  12.991 -0.9327  1.8442 -0.1315
  104MPD2    H3 1593   3.530   2.662  12.925  0.8027 -0.7238 -0.9855
  104MPD2     N 1594   3.351   2.867  12.558 -0.2442  0.1593  0.1171
  104MPD2    H5 1595   3.350   2.948  12.497  0.6626  1.2701  1.5674
  104MPD2    N1 1596   3.678   3.086  12.844  0.5002  0.0204  0.2606
  104MPD2    H7 1597   3.716   3.085  12.938 -1.3370 -1.0771  0.9872
  105MPD2     C 1598   0.890   1.768   0.551 -0.5884  0.3736 -0.7021
  105MPD2    C1 1599   0.850   1.889   0.499  1.1548 -0.1384  0.1222
  105MPD2    C2 1600   0.783   1.978   0.581  0.4009 -0.4921 -0.0499
  105MPD2    C3 1601   0.759   1.945   0.716 -0.1158 -1.1777  0.3247
  105MPD2    C4 1602   0.796   1.824   0.764  0.3647 -0.4557  0.1862
  105MPD2    C5 1603   0.870   1.741   0.684  0.0804 -0.7485 -0.3081
  105MPD2     H 1604   0.755   2.074   0.539  1.8026 -0.4316 -0.8343
  105MPD2    H1 1605   0.785   1.795   0.868 -3.6205 -0.9706 -0.3916
  105MPD2    H2 1606   0.956   1.702   0.496 -1.8733 -0.1906 -1.5744
  105MPD2    H3 1607   0.905   1.645   0.721  0.4403  0.0516  1.4234
  105MPD2     N 1608   0.680   2.035   0.790 -0.6861  0.0263  0.4094
  105MPD2    H5 1609   0.671   2.128   0.751 -2.1240  0.9877  3.0116
  105MPD2    N1 1610   0.863   1.917   0.361  0.5344  0.3047  0.1230
  105MPD2    H7 1611   0.834   2.010   0.332 -0.4582 -0.0683 -0.0501
  106TCq2    C1 1612   0.629   2.022   0.918  0.6072  0.1664  0.2607
  106TCq2    O2 1613   0.625   1.924   0.993  0.6786  0.0081  0.2510
  106TCq2    C2 1614   0.565   2.144   0.962  0.2020 -0.4446 -0.1787
  106TCq2    C3 1615   0.530   2.247   0.868 -0.6068 -0.0695  0.1223
  106TCq2    C4 1616   0.444   2.341   0.899  0.0170  0.0205 -0.0263
  106TCq2    C5 1617   0.383   2.332   1.023 -0.4661  0.1181  0.6192
  106TCq2    C6 1618   0.412   2.229   1.106 -0.8439 -0.5395  0.0852
  106TCq2    C7 1619   0.503   2.130   1.079  0.2178  0.3213 -0.1340
  106TCq2    C8 1620   0.361   2.225   1.246 -0.8048  0.6148  0.1858
  106TCq2    O4 1621   0.344   2.115   1.299 -0.9473 -0.2564 -0.3011
  106TCq2    C9 1622   0.400   2.452   0.813 -0.2904 -0.4384  0.0660
  106TCq2    O5 1623   0.325   2.540   0.866 -0.2591 -0.1803  0.4282
  106TCq2    O6 1624   0.446   2.458   0.697  0.3144 -0.3002  0.3624
  106TCq2    H2 1625   0.578   2.271   0.774 -1.2462 -0.9116 -0.4273
  106TCq2    H3 1626   0.310   2.406   1.055  0.6631  0.2784  2.8037
  106TCq2    H4 1627   0.523   2.045   1.143 -1.2078  0.2866  0.2613
  107TMC2    C1 1628   1.473   1.162  11.748 -0.4506 -0.1412  0.3737
  107TMC2    C2 1629   1.454   1.030  11.724  0.0499  0.1670 -0.1793
  107TMC2    C3 1630   1.555   0.960  11.670 -0.1551 -0.0232  0.0075
  107TMC2    C4 1631   1.585   1.228  11.707 -0.3676 -0.3190  1.1699
  107TMC2    C5 1632   1.685   1.153  11.651 -0.6054  0.4038  0.8926
  107TMC2    C6 1633   1.670   1.020  11.637  0.2090  0.1798 -0.2284
  107TMC2     C 1634   1.372   1.235  11.819  0.7434  0.3425 -0.7567
  107TMC2     O 1635   1.284   1.166  11.870  0.9298 -0.4671  0.4073
  107TMC2     H 1636   1.363   0.980  11.756 -0.4353  0.9270 -0.3955
  107TMC2    H1 1637   1.598   1.336  11.712  1.5440 -0.4212 -1.7437
  107TMC2    H2 1638   1.749   0.966  11.585  0.3308  0.6608 -0.5489
  107TMC2    C7 1639   1.797   1.228  11.591 -0.5574  0.2875 -0.4367
  107TMC2    C8 1640   1.538   0.833  11.640 -0.4294 -0.1655  0.3050
  107TMC2    O1 1641   1.853   1.310  11.659  0.2456 -0.2396 -0.2870
  107TMC2    O2 1642   1.464   0.771  11.720 -0.3099  0.3047 -0.4447
  107TMC2    O5 1643   1.510   0.839  11.506 -0.5353  0.0755  0.5133
  107TMC2    H5 1644   1.579   0.893  11.461 -0.7527  1.1621  1.4782
  108MPD2     C 1645   1.290   1.588  11.790  0.7586 -0.5158 -0.1023
  108MPD2    C1 1646   1.282   1.461  11.836 -0.2269  0.5217 -0.1484
  108MPD2    C2 1647   1.218   1.430  11.955  0.4148 -0.1216  0.7154
  108MPD2    C3 1648   1.145   1.528  12.023 -0.7047 -0.3992  0.0994
  108MPD2    C4 1649   1.151   1.659  11.977 -0.0653 -0.4849  0.0220
  108MPD2    C5 1650   1.235   1.686  11.868  0.1921 -0.0625  0.2546
  108MPD2     H 1651   1.202   1.330  11.994 -0.0378 -0.8183 -1.2754
  108MPD2    H1 1652   1.088   1.741  12.007 -0.7401 -0.7514 -0.6594
  108MPD2    H2 1653   1.335   1.619  11.696 -0.8291  1.0900 -0.3362
  108MPD2    H3 1654   1.236   1.787  11.827  1.3215 -0.2838 -0.2607
  108MPD2     N 1655   1.068   1.504  12.135 -0.3358 -0.2900  0.4471
  108MPD2    H5 1656   1.018   1.582  12.175 -1.0094  0.7262 -2.3616
  108MPD2    N1 1657   1.359   1.362  11.769  0.3215 -0.3144  0.3755
  108MPD2    H7 1658   1.409   1.381  11.683  0.7184 -2.5804  0.1009
  109MPD2     C 1659   1.137   3.703   2.364  0.3088 -0.3388 -0.1530
  109MPD2    C1 1660   1.163   3.785   2.260  0.3574 -0.4256 -0.2291
  109MPD2    C2 1661   1.288   3.854   2.249  0.0518 -0.2113 -0.1557
  109MPD2    C3 1662   1.374   3.848   2.357  0.2470  1.0384 -0.2674
  109MPD2    C4 1663   1.351   3.758   2.453 -0.1905 -0.6557 -0.1695
  109MPD2    C5 1664   1.237   3.683   2.457  0.2403 -0.8347 -0.2916
  109MPD2     H 1665   1.303   3.937   2.181  0.4000  1.5046  1.9934
  109MPD2    H1 1666   1.418   3.733   2.534 -0.3391 -0.8119 -0.0953
  109MPD2    H2 1667   1.040   3.656   2.355  0.2989  0.1476 -2.6193
  109MPD2    H3 1668   1.233   3.610   2.537  0.7927  0.2889  0.7529
  109MPD2     N 1669   1.496   3.926   2.357 -0.3632  0.2455 -0.1415
  109MPD2    H5 1670   1.508   3.985   2.276  1.7637 -3.5205 -2.5580
  109MPD2    N1 1671   1.074   3.779   2.153  0.1050  0.3393  0.1914
  109MPD2    H7 1672   0.982   3.740   2.167 -0.2417  0.5846 -1.4059
  110TCq2    C1 1673   1.606   3.907   2.441  0.9803 -0.4070 -0.1099
  110TCq2    O2 1674   1.608   3.842   2.547  0.0294  0.5351  0.4196
  110TCq2    C2 1675   1.728   3.979   2.401  0.5533  0.1822  0.0400
  110TCq2    C3 1676   1.839   3.945   2.471  0.0986  0.2654  0.2975
  110TCq2    C4 1677   1.947   4.024   2.458 -0.5065  0.0789  0.3297
  110TCq2    C5 1678   1.948   4.137   2.380  0.7105  0.2540  0.6985
  110TCq2    C6 1679   1.844   4.153   2.296 -0.1966 -0.5949  0.0788
  110TCq2    C7 1680   1.725   4.077   2.312 -0.5488 -0.2712 -0.3937
  110TCq2    C8 1681   1.858   4.265   2.203 -0.6063 -0.1451 -0.3104
  110TCq2    O4 1682   1.787   4.250   2.105 -0.0757 -0.4879  0.1072
  110TCq2    C9 1683   2.060   3.999   2.542  0.7568  0.6171 -0.1541
  110TCq2    O5 1684   2.041   3.919   2.641 -0.8171  0.2474  0.4432
  110TCq2    O6 1685   2.166   4.050   2.515 -0.6235 -0.1736 -0.1250
  110TCq2    H2 1686   1.838   3.858   2.536 -0.5635 -1.3557 -1.8608
  110TCq2    H3 1687   2.041   4.192   2.371  0.7955  0.2222  1.3394
  110TCq2    H4 1688   1.643   4.095   2.243 -0.5621  1.0335 -0.0253
  111TMC2    C1 1689   1.156   3.864  11.706 -0.6379 -0.2225  0.7499
  111TMC2    C2 1690   1.238   3.946  11.632 -0.1981 -0.3387 -0.1461
  111TMC2    C3 1691   1.376   3.934  11.657  0.5902  0.2663  0.0368
  111TMC2    C4 1692   1.196   3.792  11.812  1.2525 -0.6200 -0.0400
  111TMC2    C5 1693   1.335   3.787  11.832  0.3171  0.2041  0.1102
  111TMC2    C6 1694   1.429   3.855  11.753 -0.1627 -0.3965  0.4404
  111TMC2     C 1695   1.017   3.899  11.694 -0.3888 -0.1998  1.0158
  111TMC2     O 1696   0.991   3.960  11.589  0.0645  0.2074  0.0667
  111TMC2     H 1697   1.214   4.014  11.551  0.4522  0.3976  0.2821
  111TMC2    H1 1698   1.124   3.735  11.870 -0.5071 -0.3446 -1.9334
  111TMC2    H2 1699   1.533   3.871  11.779 -0.2544 -1.5201  1.4848
  111TMC2    C7 1700   1.378   3.691  11.933 -0.4845 -0.6021  0.2936
  111TMC2    C8 1701   1.466   4.004  11.568 -0.0489 -0.6740  0.7017
  111TMC2    O1 1702   1.286   3.656  12.005  0.2411 -0.0561  0.1598
  111TMC2    O2 1703   1.570   4.054  11.602 -0.1739  0.2715 -0.1849
  111TMC2    O5 1704   1.427   3.979  11.444  0.3317 -0.2368 -0.4738
  111TMC2    H5 1705   1.348   3.924  11.428 -0.2469  0.3147  0.5166
  112MPD2     C 1706   0.519   3.915  11.814 -0.2823  0.3986  0.2448
  112MPD2    C1 1707   0.581   3.915  11.690  0.0956  0.4814 -0.3045
  112MPD2    C2 1708   0.720   3.902  11.684  0.4164 -0.1005 -0.6625
  112MPD2    C3 1709   0.799   3.884  11.804  0.0160  0.1342  0.2477
  112MPD2    C4 1710   0.735   3.881  11.925  1.2046 -0.2478  0.1179
  112MPD2    C5 1711   0.597   3.903  11.925 -1.1169 -0.3591  0.0159
  112MPD2     H 1712   0.776   3.893  11.591  2.7043  5.0862  0.1937
  112MPD2    H1 1713   0.776   3.870  12.024 -2.0409 -0.1613  1.4577
  112MPD2    H2 1714   0.414   3.938  11.832 -0.6263 -0.8285 -0.1942
  112MPD2    H3 1715   0.554   3.913  12.024 -2.9234 -0.3668 -0.7647
  112MPD2     N 1716   0.939   3.873  11.801  0.7456  0.4160 -0.1153
  112MPD2    H5 1717   0.977   3.841  11.890 -1.2263 -0.9561  0.2124
  112MPD2    N1 1718   0.517   3.943  11.568  0.2272 -1.3053 -0.6453
  112MPD2    H7 1719   0.577   3.949  11.486 -0.4975 -0.7998 -1.1392
  113MPD2     C 1720   0.047   1.436   1.034  0.0532  0.0569 -0.2941
  113MPD2    C1 1721   4.641   1.461   1.073  0.3307  0.5000  0.1398
  113MPD2    C2 1722   4.533   1.398   1.015 -0.3424  0.5780  1.1214
  113MPD2    C3 1723   4.556   1.306   0.909 -0.6395 -0.7296 -0.5272
  113MPD2    C4 1724   4.679   1.299   0.872 -0.3725  0.7610 -0.1410
  113MPD2    C5 1725   0.062   1.368   0.923 -0.0027 -0.7316 -0.1017
  113MPD2     H 1726   4.433   1.432   1.040 -1.5369 -1.7633 -0.5659
  113MPD2    H1 1727   4.705   1.240   0.785  0.1150  0.9443 -0.1212
  113MPD2    H2 1728   0.126   1.492   1.083  1.2814 -2.0880  0.1485
  113MPD2    H3 1729   0.160   1.344   0.883  0.1857 -0.9109  0.4689
  113MPD2     N 1730   4.463   1.235   0.832 -0.6040 -0.1641  0.5544
  113MPD2    H5 1731   4.489   1.198   0.741  0.6913  1.1523  0.3825
  113MPD2    N1 1732   4.601   1.545   1.177  0.2185 -0.0843 -0.7511
  113MPD2    H7 1733   4.506   1.530   1.210 -0.6275  2.0967 -2.2390
  114TCq2    C1 1734   4.326   1.238   0.861 -0.0954 -0.0297 -0.0951
  114TCq2    O2 1735   4.262   1.271   0.962 -0.1489 -0.0746  0.2945
  114TCq2    C2 1736   4.238   1.214   0.738  0.0165  0.7558 -0.1257
  114TCq2    C3 1737   4.270   1.279   0.619 -0.4137 -0.2540 -0.3055
  114TCq2    C4 1738   4.166   1.273   0.529  0.3440  0.4398  0.3339
  114TCq2    C5 1739   4.047   1.214   0.555  0.3885  0.4121  0.8233
  114TCq2    C6 1740   4.027   1.146   0.668 -0.2939  0.0858 -1.6736
  114TCq2    C7 1741   4.122   1.145   0.768 -0.3266 -0.1176  0.1870
  114TCq2    C8 1742   3.918   1.045   0.671 -0.1470 -0.0419  0.1263
  114TCq2    O4 1743   3.866   1.007   0.564  0.2305 -0.0643 -0.2575
  114TCq2    C9 1744   4.178   1.335   0.400  0.1758  0.4455  0.4764
  114TCq2    O5 1745   4.081   1.311   0.319  0.5286 -0.0663  0.5074
  114TCq2    O6 1746   4.294   1.363   0.371  0.2638  0.1244 -0.0705
  114TCq2    H2 1747   4.361   1.332   0.595 -0.3684 -0.4257 -0.5085
  114TCq2    H3 1748   3.979   1.202   0.471 -1.0776  2.3776  1.7321
  114TCq2    H4 1749   4.123   1.086   0.859  1.7476 -1.5644 -0.7576
  115TMC2    C1 1750   0.627   4.427   0.384 -0.7688 -0.8281  1.1575
  115TMC2    C2 1751   0.710   4.478   0.484 -0.5246 -0.3129 -0.1799
  115TMC2    C3 1752   0.720   4.616   0.470 -0.1004  0.2559 -0.6816
  115TMC2    C4 1753   0.567   4.501   0.290  0.2248  0.8325  0.3449
  115TMC2    C5 1754   0.579   4.638   0.284 -0.1583 -0.7999 -0.1880
  115TMC2    C6 1755   0.662   4.695   0.374  0.2439  0.4785 -0.2575
  115TMC2     C 1756   0.570   4.291   0.402  0.2689 -0.0079 -1.2221
  115TMC2     O 1757   0.517   4.238   0.309  0.2946  0.0167  0.1784
  115TMC2     H 1758   0.748   4.425   0.570 -1.3766 -1.1493 -0.3207
  115TMC2    H1 1759   0.493   4.453   0.227  0.7314 -1.9456  1.8533
  115TMC2    H2 1760   0.648   0.081   0.387  0.4310  0.4368  0.3188
  115TMC2    C7 1761   0.484   4.715   0.200 -0.7259  0.0699  0.0843
  115TMC2    C8 1762   0.780   4.690   0.579  0.1377 -0.5463  0.1549
  115TMC2    O1 1763   0.376   4.672   0.193  0.3716  0.9757 -0.4835
  115TMC2    O2 1764   0.759   0.088   0.606  0.6165 -0.1757  0.5092
  115TMC2    O5 1765   0.896   4.624   0.604 -0.0228 -0.5153 -0.9779
  115TMC2    H5 1766   0.909   4.548   0.544 -1.4959  0.6206 -2.7282
  116MPD2     C 1767   0.328   3.972   0.704 -0.1106  0.2132  0.8766
  116MPD2    C1 1768   0.288   4.013   0.578 -0.4745 -0.1450 -0.7018
  116MPD2    C2 1769   0.361   4.114   0.522 -1.2561 -0.2119  0.3421
  116MPD2    C3 1770   0.473   4.166   0.589 -0.4229 -0.8006 -0.1859
  116MPD2    C4 1771   0.508   4.125   0.714 -0.6459  0.3199  0.3760
  116MPD2    C5 1772   0.434   4.024   0.773 -0.1741 -0.2024  0.2017
  116MPD2     H 1773   0.338   4.147   0.421  0.5801  0.1424  0.0330
  116MPD2    H1 1774   0.597   4.165   0.762  0.6448 -0.7580 -1.1137
  116MPD2    H2 1775   0.277   3.887   0.747  0.4123  1.1448  3.3399
  116MPD2    H3 1776   0.462   3.992   0.872 -0.2777  0.6627  0.5100
  116MPD2     N 1777   0.559   4.264   0.533  0.4851  0.1007  0.1702
  116MPD2    H5 1778   0.606   4.319   0.604 -1.0146  0.1670  1.0948
  116MPD2    N1 1779   0.174   3.955   0.518  0.3647 -0.2565 -0.3114
  116MPD2    H7 1780   0.141   3.868   0.556  1.8515 -0.7335 -0.1250
  117TMC2    C1 1781   3.390   0.781  13.841 -0.1874  0.8884  0.2432
  117TMC2    C2 1782   3.507   0.731  13.878  0.1633 -0.2066  0.3468
  117TMC2    C3 1783   3.584   0.796  13.972  0.6244  0.4856  0.4852
  117TMC2    C4 1784   3.343   0.902  13.890  0.6337  0.2084  0.4187
  117TMC2    C5 1785   3.421   0.969  13.976 -0.0713  0.2420  0.0008
  117TMC2    C6 1786   3.546   0.923  14.003 -0.8495  0.1182 -0.1362
  117TMC2     C 1787   3.312   0.707  13.746  0.5146 -0.7261  0.2639
  117TMC2     O 1788   3.371   0.629  13.663 -0.4100 -0.3854  0.1256
  117TMC2     H 1789   3.538   0.636  13.836 -3.5143 -1.1680 -0.2710
  117TMC2    H1 1790   3.252   0.945  13.850  1.0838  0.8194  0.0666
  117TMC2    H2 1791   3.612   0.973  14.073 -0.8989 -1.3714  0.9981
  117TMC2    C7 1792   3.396   1.106  14.009 -0.1224 -0.3124 -0.4175
  117TMC2    C8 1793   3.733   0.772  13.953  0.3476 -0.4588 -0.3347
  117TMC2    O1 1794   3.481   1.173  14.068 -0.5741 -0.3083 -0.0186
  117TMC2    O2 1795   3.809   0.867  13.978 -0.0126 -0.4364 -0.2310
  117TMC2    O5 1796   3.752   0.639  13.923  0.3612  0.2701  0.0468
  117TMC2    H5 1797   3.680   0.577  13.945 -2.1995  2.7499 -1.4291
  118MPD2     C 1798   3.064   1.262  14.042 -0.3088 -0.1898 -0.4653
  118MPD2    C1 1799   3.200   1.256  14.017 -1.0292 -0.7525 -0.0088
  118MPD2    C2 1800   3.275   1.369  14.036  0.6848 -0.4110  0.4129
  118MPD2    C3 1801   3.220   1.486  14.084  0.7236 -0.0208  1.0136
  118MPD2    C4 1802   3.088   1.489  14.097  0.3614  0.5169 -0.3286
  118MPD2    C5 1803   3.012   1.381  14.075 -0.2854 -0.1666  0.3643
  118MPD2     H 1804   3.381   1.371  14.018  0.3326  1.1616 -1.4644
  118MPD2    H1 1805   3.034   1.575  14.137  1.8639  1.5944 -0.6110
  118MPD2    H2 1806   3.001   1.175  14.030 -0.6468  0.0076 -0.1339
  118MPD2    H3 1807   2.904   1.392  14.087 -0.3394 -0.0328 -0.2709
  118MPD2     N 1808   3.292   1.603  14.108  0.2992 -0.2616 -0.0427
  118MPD2    H5 1809   3.244   1.687  14.140 -1.5859 -1.6619  0.7521
  118MPD2    N1 1810   3.263   1.128  13.994  0.4414  0.6057 -0.8801
  118MPD2    H7 1811   3.195   1.054  13.979  0.5616 -0.0352  1.7578
  119MPD2     C 1812   1.784   2.289  13.949  0.1753 -0.0911 -0.3360
  119MPD2    C1 1813   1.658   2.348  13.934  0.2859  0.3033 -1.0685
  119MPD2    C2 1814   1.583   2.325  13.824  0.1523  0.4743  0.2035
  119MPD2    C3 1815   1.630   2.250  13.723 -0.2671  0.8339  0.2434
  119MPD2    C4 1816   1.753   2.187  13.730 -0.2673 -0.0260 -0.0002
  119MPD2    C5 1817   1.828   2.212  13.839 -0.5731 -0.0013 -0.4555
  119MPD2     H 1818   1.490   2.379  13.812  0.0699  0.3288  0.1925
  119MPD2    H1 1819   1.794   2.130  13.647  0.0271 -1.0840  0.8735
  119MPD2    H2 1820   1.851   2.314  14.030 -0.9060 -0.1631  0.5801
  119MPD2    H3 1821   1.928   2.170  13.843 -1.1525 -1.2654  0.8141
  119MPD2     N 1822   1.555   2.224  13.606  0.4924  0.6065 -0.2051
  119MPD2    H5 1823   1.597   2.167  13.534 -0.5528 -1.9202  1.1906
  119MPD2    N1 1824   1.605   2.410  14.051  0.5198 -0.4022  0.3704
  119MPD2    H7 1825   1.671   2.420  14.128 -2.2634  3.0589  2.3060
  120TCq2    C1 1826   1.430   2.284  13.574  0.7453 -0.2061 -0.2219
  120TCq2    O2 1827   1.371   2.379  13.626  0.1847 -0.0457 -0.1383
  120TCq2    C2 1828   1.364   2.203  13.462  0.3367 -0.0377 -0.1858
  120TCq2    C3 1829   1.442   2.115  13.386  0.0372  0.3248  0.4732
  120TCq2    C4 1830   1.371   2.018  13.314  0.0064 -0.5379 -0.2251
  120TCq2    C5 1831   1.234   2.001  13.326 -0.4545 -0.6147 -0.5575
  120TCq2    C6 1832   1.165   2.086  13.406  0.3330 -0.2775  0.0456
  120TCq2    C7 1833   1.234   2.179  13.483  0.3016  0.4830  0.4728
  120TCq2    C8 1834   1.053   2.017  13.470 -0.0446 -0.4005  0.3131
  120TCq2    O4 1835   0.965   1.965  13.393 -0.5248  0.3877  0.3161
  120TCq2    C9 1836   1.444   1.924  13.234  0.0639 -0.3295 -0.3342
  120TCq2    O5 1837   1.388   1.861  13.138 -0.4807  0.6345 -0.5781
  120TCq2    O6 1838   1.571   1.924  13.263  0.0433 -0.7234 -0.3142
  120TCq2    H2 1839   1.551   2.116  13.383 -0.0434  2.1150 -2.1472
  120TCq2    H3 1840   1.175   1.935  13.264 -0.6391 -0.4817 -0.5229
  120TCq2    H4 1841   1.179   2.253  13.540 -0.0632  0.8113 -0.3022
  121TMC2    C1 1842   2.879   3.528  14.647 -0.2094 -0.3642 -0.0388
  121TMC2    C2 1843   2.915   3.490  14.775 -0.2154 -0.4650 -0.7756
  121TMC2    C3 1844   2.808   3.456  14.853  0.2427 -0.1228  0.8668
  121TMC2    C4 1845   2.748   3.527  14.603  0.0889  0.7475  0.0025
  121TMC2    C5 1846   2.654   3.472  14.681  0.8108  0.0560 -0.1760
  121TMC2    C6 1847   2.676   3.443  14.807 -0.7196  0.0843  1.0838
  121TMC2     C 1848   2.987   3.523  14.551 -0.0721 -0.1116 -0.6820
  121TMC2     O 1849   3.095   3.479  14.595 -0.0786  0.2023 -0.1966
  121TMC2     H 1850   3.011   3.516  14.818 -0.2221  1.6590 -2.0359
  121TMC2    H1 1851   2.728   3.524  14.496  0.9574 -1.1701 -0.0980
  121TMC2    H2 1852   2.598   3.410  14.874 -0.9775 -1.9701 -0.1969
  121TMC2    C7 1853   2.514   3.469  14.645 -0.5135 -0.5055 -0.0289
  121TMC2    C8 1854   2.824   3.418  14.989 -0.2951  0.2766  0.3488
  121TMC2    O1 1855   2.447   3.407  14.721  0.3379  0.0700 -0.7793
  121TMC2    O2 1856   2.723   3.399  15.059 -0.1173 -0.5866 -0.2695
  121TMC2    O5 1857   2.953   3.409  15.030 -0.2215 -0.1413 -0.0723
  121TMC2    H5 1858   3.019   3.421  14.958  0.1820  1.2265  0.5099
  122MPD2     C 1859   3.162   3.488  14.308  0.1221 -0.1666  0.1058
  122MPD2    C1 1860   3.065   3.589  14.316 -0.5818  0.0179  0.1945
  122MPD2    C2 1861   3.055   3.672  14.213  0.7978 -0.0657 -0.1684
  122MPD2    C3 1862   3.143   3.676  14.106  0.6835  0.0551  0.3451
  122MPD2    C4 1863   3.229   3.566  14.093  0.2152  0.6076  0.3857
  122MPD2    C5 1864   3.249   3.482  14.200 -0.9094  0.3616 -0.7359
  122MPD2     H 1865   2.973   3.743  14.207 -0.3084 -1.3569 -0.1178
  122MPD2    H1 1866   3.291   3.551  14.006 -2.1528 -1.0297 -1.0312
  122MPD2    H2 1867   3.158   3.402  14.374  0.1462 -0.8575 -0.8041
  122MPD2    H3 1868   3.305   3.389  14.204 -0.4420  0.6002 -1.7094
  122MPD2     N 1869   3.142   3.777  14.007 -0.1204 -0.1762  0.0508
  122MPD2    H5 1870   3.199   3.758  13.926  1.7857  3.1013  0.6235
  122MPD2    N1 1871   2.970   3.590  14.427 -0.2011 -0.1053 -0.5965
  122MPD2    H7 1872   2.888   3.650  14.417 -0.5083 -0.0907  2.0081
  123MPD2     C 1873   0.913   2.500   9.423 -0.9707  0.8396  0.4714
  123MPD2    C1 1874   0.785   2.468   9.374 -0.5356  0.5194  0.7228
  123MPD2    C2 1875   0.759   2.334   9.349 -0.3918  0.1107  0.1487
  123MPD2    C3 1876   0.852   2.236   9.372  0.0082 -0.6516  0.5406
  123MPD2    C4 1877   0.976   2.268   9.420  0.6137  0.1321 -0.2244
  123MPD2    C5 1878   1.005   2.398   9.451  0.1214 -0.4981 -0.7092
  123MPD2     H 1879   0.659   2.307   9.316 -0.5044  1.7020 -0.7904
  123MPD2    H1 1880   1.051   2.194   9.445  0.1293 -0.5227 -0.7183
  123MPD2    H2 1881   0.951   2.599   9.446 -0.8114  0.9168 -0.1204
  123MPD2    H3 1882   1.102   2.429   9.489 -1.8103  0.0342  3.7829
  123MPD2     N 1883   0.808   2.100   9.370 -0.0644  0.4839 -0.2758
  123MPD2    H5 1884   0.719   2.078   9.326 -1.5505  2.6462  1.6831
  123MPD2    N1 1885   0.689   2.571   9.350  0.3798 -0.1157 -0.3384
  123MPD2    H7 1886   0.717   2.661   9.388  0.1852  0.3435 -1.2795
  124TCq2    C1 1887   0.871   2.002   9.444  0.0355  0.3446  0.0052
  124TCq2    O2 1888   0.948   2.013   9.539  0.2401  0.0389 -0.6947
  124TCq2    C2 1889   0.813   1.876   9.416  1.0823  0.1951 -0.1159
  124TCq2    C3 1890   0.713   1.853   9.318  0.3428 -0.9015  0.4327
  124TCq2    C4 1891   0.652   1.727   9.320  0.0628 -0.2873  0.3793
  124TCq2    C5 1892   0.686   1.633   9.410 -0.5291  0.6518 -0.2963
  124TCq2    C6 1893   0.788   1.662   9.499  0.6365 -0.0250 -0.3004
  124TCq2    C7 1894   0.849   1.780   9.508  0.3229 -0.3035 -0.1996
  124TCq2    C8 1895   0.827   1.566   9.611 -0.6694  0.2758  0.5805
  124TCq2    O4 1896   0.931   1.594   9.669  0.2182 -0.7816  0.7602
  124TCq2    C9 1897   0.552   1.705   9.223 -0.3008  0.0701  0.2989
  124TCq2    O5 1898   0.497   1.808   9.176  0.1764  0.2501  0.0452
  124TCq2    O6 1899   0.520   1.588   9.196 -0.4908 -0.3903  0.1601
  124TCq2    H2 1900   0.695   1.926   9.241  0.6196 -0.5457  0.7028
  124TCq2    H3 1901   0.634   1.538   9.414 -0.8171  0.8642  1.0102
  124TCq2    H4 1902   0.931   1.785   9.579  0.9310  0.1566 -0.9265
  125TMC2    C1 1903   2.910   0.601   9.071 -0.2509 -0.0700  0.7096
  125TMC2    C2 1904   2.868   0.527   8.965  0.0686  0.1903  0.5325
  125TMC2    C3 1905   2.841   0.397   8.990 -0.4666  0.0361  0.6131
  125TMC2    C4 1906   2.952   0.549   9.191 -0.4342  0.0303  0.3435
  125TMC2    C5 1907   2.943   0.408   9.201 -0.6215  0.3246  0.0182
  125TMC2    C6 1908   2.878   0.335   9.105  0.2934 -0.0826 -0.3536
  125TMC2     C 1909   2.912   0.744   9.051  0.1516  0.0916 -0.2397
  125TMC2     O 1910   2.832   0.788   8.971  0.2930 -0.3834 -0.1466
  125TMC2     H 1911   2.834   0.570   8.871 -2.3154 -1.8227  0.4605
  125TMC2    H1 1912   2.982   0.611   9.275  2.1292 -0.1219 -0.4562
  125TMC2    H2 1913   2.862   0.228   9.113 -0.8278  0.1163  0.0491
  125TMC2    C7 1914   2.976   0.356   9.331  0.2099  0.3584 -0.2019
  125TMC2    C8 1915   2.817   0.326   8.876 -0.3880  0.1443  0.4973
  125TMC2    O1 1916   2.981   0.427   9.428 -0.4019 -0.1512  0.0348
  125TMC2    O2 1917   2.744   0.229   8.872 -0.2071 -0.5133 -0.4776
  125TMC2    O5 1918   2.910   0.355   8.781  0.9007 -0.8096  0.2431
  125TMC2    H5 1919   2.977   0.422   8.805  1.8328 -0.8419 -2.2204
  126MPD1     C 1920   3.115   1.201   9.053  0.2623  0.7475 -0.1700
  126MPD1    C1 1921   3.208   1.111   9.110 -0.2027  0.6887 -0.2765
  126MPD1    C2 1922   3.168   0.980   9.132  0.2808 -0.1972 -0.6901
  126MPD1    C3 1923   3.038   0.946   9.101 -0.2096 -0.7188 -0.2508
  126MPD1    C4 1924   2.943   1.037   9.059  0.6066 -0.3494  0.2471
  126MPD1    C5 1925   2.985   1.163   9.034  0.3812  1.1261  0.3728
  126MPD1     H 1926   3.237   0.906   9.172  0.4578  0.0823 -0.4719
  126MPD1    H1 1927   2.840   1.021   9.033  0.9149 -0.3994 -0.9458
  126MPD1    H2 1928   3.132   1.301   9.015  0.3085  0.7391 -0.1717
  126MPD1    H3 1929   2.927   1.236   8.978 -2.2659 -0.8189  0.6109
  126MPD1     N 1930   3.016   0.812   9.111 -0.6087 -0.5511  0.0802
  126MPD1    H5 1931   3.092   0.760   9.153  0.6475  0.1747 -1.2834
  126MPD1    N1 1932   3.347   1.146   9.109  0.0031 -0.0982  0.3798
  126MPD1    H6 1933   3.405   1.096   9.176 -0.0235 -0.0492  0.4396
  126MPD1    H7 1934   3.356   1.244   9.135  0.5976  0.3021 -1.3082
  127MPD2     C 1935   3.265   2.878   9.723  0.7076  0.7101 -0.2437
  127MPD2    C1 1936   3.296   2.844   9.853 -0.1091  0.7050 -0.2430
  127MPD2    C2 1937   3.382   2.927   9.918 -0.5340 -0.1065  0.6463
  127MPD2    C3 1938   3.443   3.035   9.853  0.3290  0.0318  0.1140
  127MPD2    C4 1939   3.408   3.067   9.725 -0.4099 -0.0142  0.6279
  127MPD2    C5 1940   3.321   2.983   9.659  0.8737 -0.5026  0.4699
  127MPD2     H 1941   3.401   2.916  10.024 -0.3930  0.9258  0.7183
  127MPD2    H1 1942   3.448   3.150   9.668 -1.0844 -0.4934 -0.5266
  127MPD2    H2 1943   3.208   2.814   9.655  0.6729 -0.2013  0.6407
  127MPD2    H3 1944   3.287   3.008   9.559 -1.6032 -1.8512  0.9632
  127MPD2     N 1945   3.535   3.111   9.938  0.3454  0.0567  0.0002
  127MPD2    H5 1946   3.553   3.070  10.029 -2.1269 -0.5022  0.2202
  127MPD2    N1 1947   3.226   2.734   9.909  0.1781  1.1693  0.1994
  127MPD2    H7 1948   3.148   2.701   9.852  0.7134 -2.1521  1.4505
  128TCq2    C1 1949   3.234   2.696  10.040  0.1013 -0.4054  0.8626
  128TCq2    O2 1950   3.325   2.722  10.118 -0.6290  0.7447  0.0935
  128TCq2    C2 1951   3.138   2.594  10.072 -0.2854 -0.3062 -0.3195
  128TCq2    C3 1952   3.152   2.533  10.198 -0.0265  0.4386  0.5839
  128TCq2    C4 1953   3.064   2.426  10.230  0.9761  0.1982 -0.2596
  128TCq2    C5 1954   2.955   2.398  10.146  0.0841 -0.7820  0.0646
  128TCq2    C6 1955   2.952   2.461  10.023 -0.0824  0.6552  0.0367
  128TCq2    C7 1956   3.033   2.564   9.981 -0.7428  0.1232  0.8751
  128TCq2    C8 1957   2.834   2.424   9.940 -0.2795  0.7863  0.6983
  128TCq2    O4 1958   2.798   2.514   9.867 -0.2029  0.5130  0.5189
  128TCq2    C9 1959   3.070   2.362  10.361 -0.1601 -1.0321 -0.4949
  128TCq2    O5 1960   3.028   2.243  10.364 -0.0227  0.4299 -0.3070
  128TCq2    O6 1961   3.129   2.424  10.453 -0.7256  0.2658  0.0344
  128TCq2    H2 1962   3.235   2.562  10.262 -0.3291  0.6774  0.8663
  128TCq2    H3 1963   2.888   2.323  10.184 -0.7965 -0.0057  0.0447
  128TCq2    H4 1964   3.019   2.601   9.880 -5.0149 -1.8172  0.7501
  129MPD2     C 1965   1.623   3.734   1.595 -0.3981 -0.3796  0.1986
  129MPD2    C1 1966   1.761   3.737   1.610  0.1483  1.1565  0.3738
  129MPD2    C2 1967   1.835   3.803   1.511  0.5017  0.0898 -0.0223
  129MPD2    C3 1968   1.778   3.838   1.388  0.3634  1.0991  0.1032
  129MPD2    C4 1969   1.642   3.820   1.373  0.3043  0.1226  0.2958
  129MPD2    C5 1970   1.567   3.784   1.481  0.2038  0.6645  0.5679
  129MPD2     H 1971   1.937   3.824   1.540 -0.3527  1.0401  2.2923
  129MPD2    H1 1972   1.591   3.842   1.280 -2.4852  0.5432  1.9374
  129MPD2    H2 1973   1.554   3.682   1.660  0.3864 -1.5186  0.1267
  129MPD2    H3 1974   1.460   3.777   1.469  0.1592 -0.8842  1.8193
  129MPD2     N 1975   1.858   3.898   1.287  0.4395  0.4237 -0.0988
  129MPD2    H5 1976   1.942   3.941   1.323 -0.3718  2.1547 -0.2467
  129MPD2    N1 1977   1.821   3.687   1.729  1.1356 -0.2812 -0.2779
  129MPD2    H7 1978   1.919   3.709   1.746  0.7097  0.3792  1.3238
  130TCq2    C1 1979   1.767   3.590   1.806  0.4015  0.2572 -0.5378
  130TCq2    O2 1980   1.658   3.539   1.805  0.0191  0.2732 -0.0909
  130TCq2    C2 1981   1.848   3.533   1.915  0.0544  0.1817  0.3311
  130TCq2    C3 1982   1.959   3.595   1.959 -0.2597  0.0192  0.0300
  130TCq2    C4 1983   2.056   3.523   2.025  0.1488  0.0724 -0.3589
  130TCq2    C5 1984   2.039   3.390   2.056  0.3646 -0.3076  0.0769
  130TCq2    C6 1985   1.919   3.333   2.014 -0.6449  0.2402  0.3228
  130TCq2    C7 1986   1.825   3.398   1.938  0.0992 -0.4305 -0.0003
  130TCq2    C8 1987   1.880   3.202   2.055  0.1874  0.0151 -0.3498
  130TCq2    O4 1988   1.772   3.163   2.008  0.2329  0.9245 -0.5342
  130TCq2    C9 1989   2.186   3.581   2.049  0.5483  0.5641 -0.2554
  130TCq2    O5 1990   2.206   3.700   2.011 -0.3626 -0.4899 -0.0927
  130TCq2    O6 1991   2.266   3.509   2.113 -0.0864  0.0763  0.1957
  130TCq2    H2 1992   1.982   3.698   1.936  1.3119  0.1217  2.0776
  130TCq2    H3 1993   2.111   3.333   2.114 -1.6785 -0.7356  2.1991
  130TCq2    H4 1994   1.726   3.357   1.921  0.0272  0.2778 -1.3434
  131MPD2     C 1995   0.758   3.365   9.678 -0.7511 -0.3540  0.0490
  131MPD2    C1 1996   0.807   3.237   9.696  0.7482 -0.1625  0.1251
  131MPD2    C2 1997   0.770   3.134   9.607  0.3378  0.1235  0.1197
  131MPD2    C3 1998   0.679   3.157   9.503  0.3591  0.2712 -0.4060
  131MPD2    C4 1999   0.649   3.288   9.479 -0.3827  0.8798  0.1697
  131MPD2    C5 2000   0.672   3.389   9.574  0.0302  0.2783  0.3772
  131MPD2     H 2001   0.800   3.032   9.629  2.0837  0.4986 -0.4605
  131MPD2    H1 2002   0.574   3.317   9.407  1.2050  1.4453 -1.2600
  131MPD2    H2 2003   0.783   3.444   9.748  1.4537 -1.6470  0.7384
  131MPD2    H3 2004   0.648   3.492   9.552 -0.3495  0.3388  1.0933
  131MPD2     N 2005   0.619   3.044   9.439  0.3827 -0.1275  0.5282
  131MPD2    H5 2006   0.662   2.954   9.456 -0.1610 -0.6931 -1.0813
  131MPD2    N1 2007   0.900   3.223   9.808  0.6617  0.4270  0.3895
  131MPD2    H7 2008   0.902   3.293   9.881  1.7755  1.2557 -0.4379
  132TCq2    C1 2009   1.446   3.174   9.952  0.6069 -0.0470  0.2302
  132TCq2    O2 2010   1.484   3.079   9.881  0.4625  0.1128  0.2353
  132TCq2    C2 2011   1.302   3.175   9.990  0.1226  0.4650 -0.2920
  132TCq2    C3 2012   1.263   3.256  10.093 -0.9384  0.1604  1.1863
  132TCq2    C4 2013   1.130   3.286  10.105 -0.1120 -0.2594 -0.1613
  132TCq2    C5 2014   1.039   3.230  10.021  0.3322 -0.7078  0.0073
  132TCq2    C6 2015   1.083   3.141   9.927 -0.7678 -0.5840  0.3627
  132TCq2    C7 2016   1.216   3.109   9.908 -0.2765 -0.2726 -0.6942
  132TCq2    C8 2017   0.985   3.120   9.821 -0.7712  0.2072  0.8731
  132TCq2    O4 2018   1.024   3.039   9.738 -0.2859 -0.2952 -0.1454
  132TCq2    C9 2019   1.092   3.382  10.202  0.3066 -0.2498  0.7320
  132TCq2    O5 2020   1.182   3.466  10.230 -0.3052 -0.8077  0.4746
  132TCq2    O6 2021   0.968   3.407  10.212 -0.1387 -0.3379 -0.0797
  132TCq2    H2 2022   1.332   3.295  10.167 -0.3509  0.1083  0.6601
  132TCq2    H3 2023   0.932   3.235  10.035  0.3777 -0.4568  0.2642
  132TCq2    H4 2024   1.245   3.033   9.836  3.5912 -0.1845  0.7577
  133MPD2     C 2025   0.737   3.971   9.034 -0.5964 -0.5503  0.7822
  133MPD2    C1 2026   0.607   3.970   9.090  0.2360 -1.0903 -0.2449
  133MPD2    C2 2027   0.534   3.851   9.084  0.2392 -0.0487  0.3728
  133MPD2    C3 2028   0.600   3.736   9.048 -0.0957  0.4181 -0.4370
  133MPD2    C4 2029   0.723   3.747   8.993 -0.4438  0.4953  0.6945
  133MPD2    C5 2030   0.794   3.860   8.981 -0.4284 -0.0354  0.7871
  133MPD2     H 2031   0.437   3.846   9.131  0.3480  0.5673  0.6672
  133MPD2    H1 2032   0.775   3.659   8.957 -1.0639  0.6577 -0.5811
  133MPD2    H2 2033   0.800   4.060   9.038  2.2117 -2.5104 -0.1243
  133MPD2    H3 2034   0.892   3.871   8.935 -0.6639 -0.3436  0.2156
  133MPD2     N 2035   0.543   3.605   9.045  0.8523 -0.6565  0.4743
  133MPD2    H5 2036   0.608   3.529   9.028  1.0523  0.4356 -3.4980
  133MPD2    N1 2037   0.554   4.090   9.147  0.0436 -0.0187  0.4511
  133MPD2    H7 2038   0.614   4.171   9.156  1.0047 -0.8853  1.9759
  134TCq2    C1 2039   0.440   4.099   9.222 -0.4466  0.2783 -0.2475
  134TCq2    O2 2040   0.359   4.015   9.264 -0.4004 -0.5679  0.0723
  134TCq2    C2 2041   0.403   4.231   9.265  0.3272 -0.5143  0.4020
  134TCq2    C3 2042   0.454   4.339   9.197 -1.0555  0.1402 -0.0712
  134TCq2    C4 2043   0.447   4.460   9.254  0.3941  0.3825 -0.3706
  134TCq2    C5 2044   0.384   4.481   9.373 -0.3670 -0.3654 -0.8042
  134TCq2    C6 2045   0.317   4.375   9.429 -0.4992  0.2648 -0.4621
  134TCq2    C7 2046   0.338   4.250   9.391  0.1362 -0.2735 -0.6001
  134TCq2    C8 2047   0.249   4.401   9.548 -0.4969 -0.2041 -0.0179
  134TCq2    O4 2048   0.212   4.514   9.579 -0.0932 -0.1622 -0.0384
  134TCq2    C9 2049   0.492   4.576   9.182  0.1878  0.6454 -0.1120
  134TCq2    O5 2050   0.552   4.548   9.071 -0.4243  0.3389  0.2479
  134TCq2    O6 2051   0.497   4.688   9.241 -0.4132 -0.1357 -0.0148
  134TCq2    H2 2052   0.486   4.329   9.094 -1.6878  0.5360 -0.3058
  134TCq2    H3 2053   0.365   4.583   9.402  0.3898 -0.7701  1.0817
  134TCq2    H4 2054   0.310   4.158   9.441 -0.1801  0.5644  0.7573
  135MPD2     C 2055   2.891   0.505   9.970  0.1976 -0.1866  0.4264
  135MPD2    C1 2056   2.963   0.387   9.996 -0.1405 -0.0778 -1.0484
  135MPD2    C2 2057   3.051   0.329   9.906 -0.5148 -0.4218  0.1976
  135MPD2    C3 2058   3.063   0.390   9.785 -0.1165 -0.4066  0.2592
  135MPD2    C4 2059   2.984   0.494   9.754 -1.0375 -0.0883 -0.0046
  135MPD2    C5 2060   2.905   0.558   9.848 -0.7616  0.3185  0.0474
  135MPD2     H 2061   3.099   0.236   9.936 -0.0629  0.2432  1.5104
  135MPD2    H1 2062   2.996   0.538   9.656  1.1015 -0.6056  0.0208
  135MPD2    H2 2063   2.819   0.556  10.033  0.5651  1.0500 -0.1601
  135MPD2    H3 2064   2.845   0.644   9.818  1.8778  1.6236 -1.4862
  135MPD2     N 2065   3.146   0.347   9.679 -0.2109 -0.2578 -0.2015
  135MPD2    H5 2066   3.124   0.377   9.585 -0.6611  0.7827  0.2297
  135MPD2    N1 2067   2.941   0.324  10.121 -0.4350  0.3714  0.5923
  135MPD2    H7 2068   2.999   0.243  10.139 -1.0756 -0.1355  0.4029
  136TCq2    C1 2069   2.835   0.354  10.209  0.3842  0.0715  0.4768
  136TCq2    O2 2070   2.746   0.436  10.209  0.0154 -0.4364  0.5134
  136TCq2    C2 2071   2.833   0.261  10.325 -0.0009 -0.9177  0.8363
  136TCq2    C3 2072   2.764   0.290  10.446 -0.6523  0.2733 -0.6046
  136TCq2    C4 2073   2.743   0.183  10.530  0.5961 -0.0988  0.0901
  136TCq2    C5 2074   2.794   0.061  10.502 -0.3350  0.3684  0.1148
  136TCq2    C6 2075   2.859   0.038  10.391  0.6088 -0.0921 -0.4208
  136TCq2    C7 2076   2.883   0.138  10.302 -0.0447  0.1535 -0.0722
  136TCq2    C8 2077   2.873   4.621  10.351  0.8790  0.0422  0.8076
  136TCq2    O4 2078   2.964   4.591  10.278  0.2418 -0.3255  0.1976
  136TCq2    C9 2079   2.675   0.205  10.651 -0.1506 -0.4897  0.1616
  136TCq2    O5 2080   2.638   0.095  10.708  0.0841 -0.5366  0.2493
  136TCq2    O6 2081   2.599   0.303  10.639  0.3655 -0.3811  0.0760
  136TCq2    H2 2082   2.727   0.389  10.469  0.6665  0.5939  0.1359
  136TCq2    H3 2083   2.806   4.706  10.578  0.4925  0.6348  0.2477
  136TCq2    H4 2084   2.923   0.106  10.207 -0.4889 -0.9558  0.1010
  137MPD2     C 2085   2.786   3.254   9.724  0.2621  0.0483  0.5377
  137MPD2    C1 2086   2.773   3.320   9.843  0.2044 -0.2301 -0.0033
  137MPD2    C2 2087   2.697   3.263   9.943  0.6440 -0.0468 -0.4864
  137MPD2    C3 2088   2.642   3.140   9.933 -0.0446 -0.5613 -0.0441
  137MPD2    C4 2089   2.656   3.074   9.814  1.0486  0.1528 -0.2156
  137MPD2    C5 2090   2.733   3.129   9.711 -0.3860  0.4244  0.8433
  137MPD2     H 2091   2.684   3.326  10.030 -1.5706 -0.8415 -0.2477
  137MPD2    H1 2092   2.604   2.980   9.802 -2.3436  2.1700 -1.1232
  137MPD2    H2 2093   2.847   3.307   9.652  1.1601 -1.9082 -0.1455
  137MPD2    H3 2094   2.743   3.076   9.617  1.4557  1.6157  0.3715
  137MPD2     N 2095   2.582   3.084  10.045  0.1811 -0.4571 -0.6437
  137MPD2    H5 2096   2.616   3.121  10.132  0.8748 -0.8346 -0.7545
  137MPD2    N1 2097   2.835   3.452   9.856  0.3886  0.0287  0.1182
  137MPD2    H7 2098   2.901   3.485   9.786  1.2898  2.4375  2.1015
  138TCq2    C1 2099   2.809   3.553   9.950  0.9750  0.0406  0.1734
  138TCq2    O2 2100   2.725   3.563  10.040  0.5685  0.0671  0.0452
  138TCq2    C2 2101   2.892   3.674   9.934  0.4519 -0.2668  0.8001
  138TCq2    C3 2102   2.997   3.677   9.845  0.5824  0.8387  0.6201
  138TCq2    C4 2103   3.044   3.796   9.800 -0.1185 -0.4957 -0.4746
  138TCq2    C5 2104   2.996   3.911   9.848 -0.3042  0.4863  0.3911
  138TCq2    C6 2105   2.883   3.907   9.915 -0.0587 -0.5286 -0.0461
  138TCq2    C7 2106   2.833   3.789   9.968  0.4536 -0.4182  0.0861
  138TCq2    C8 2107   2.819   4.043   9.950 -0.0069  0.0605 -1.2927
  138TCq2    O4 2108   2.890   4.138   9.961 -0.1777 -0.3359  0.2665
  138TCq2    C9 2109   3.148   3.798   9.700 -0.0782  0.3351 -0.0298
  138TCq2    O5 2110   3.193   3.683   9.673  0.4775  0.5841 -0.0100
  138TCq2    O6 2111   3.197   3.906   9.651  0.1810 -0.0605 -0.4219
  138TCq2    H2 2112   3.050   3.586   9.820 -0.1664  0.2939  1.0259
  138TCq2    H3 2113   3.038   4.007   9.820  0.6612  0.6714  2.4514
  138TCq2    H4 2114   2.747   3.793  10.034  0.4065  1.8651 -0.1203
  139TMC2    C1 2115   3.053   1.659  13.766 -0.2017  0.0517  1.2454
  139TMC2    C2 2116   2.927   1.620  13.803 -0.3448 -0.3010  0.6021
  139TMC2    C3 2117   2.829   1.722  13.793  0.8197  0.5575  0.0685
  139TMC2    C4 2118   3.083   1.778  13.713 -0.3444  0.0142  0.0877
  139TMC2    C5 2119   2.981   1.872  13.700 -0.0183 -0.2566  0.3560
  139TMC2    C6 2120   2.853   1.848  13.746  0.3519 -0.0635 -0.5425
  139TMC2     C 2121   3.154   1.556  13.760  0.6623 -0.5085  0.0166
  139TMC2     O 2122   3.270   1.592  13.769 -0.0943 -0.0509 -0.3433
  139TMC2     H 2123   2.907   1.520  13.839  1.0764 -0.6716  0.3508
  139TMC2    H1 2124   3.181   1.812  13.681 -0.8379  0.6706 -0.7523
  139TMC2    H2 2125   2.779   1.926  13.760 -0.3787 -0.9491  0.5012
  139TMC2    C7 2126   3.020   2.004  13.669  0.2137  0.5739  0.0243
  139TMC2    C8 2127   2.692   1.682  13.828  0.0378  0.8411  0.0101
  139TMC2    O1 2128   3.118   2.050  13.722  0.7631 -0.1081 -0.0151
  139TMC2    O2 2129   2.601   1.687  13.748 -0.1643  0.1584  0.0914
  139TMC2    O5 2130   2.690   1.649  13.959  0.0073 -0.2852 -0.0890
  139TMC2    H5 2131   2.774   1.676  14.002 -1.3383  1.0193  1.7334
  140MPD2     C 2132   3.093   1.204  13.668 -0.1809  0.1886 -0.2695
  140MPD2    C1 2133   3.168   1.314  13.703  0.0299  0.1673 -0.0947
  140MPD2    C2 2134   3.306   1.300  13.717 -0.4998 -0.0072 -0.9986
  140MPD2    C3 2135   3.366   1.186  13.659  0.2672 -0.5974  0.1348
  140MPD2    C4 2136   3.291   1.081  13.604 -0.1620 -0.2525  0.7246
  140MPD2    C5 2137   3.156   1.090  13.622 -0.4783 -0.7721  0.4727
  140MPD2     H 2138   3.365   1.383  13.754 -0.0581 -0.8014  0.0976
  140MPD2    H1 2139   3.333   0.987  13.568 -3.1543 -0.1955 -2.8002
  140MPD2    H2 2140   2.985   1.211  13.666 -0.2716 -1.6701 -2.2073
  140MPD2    H3 2141   3.097   1.001  13.604  1.4754 -1.8934 -0.4105
  140MPD2     N 2142   3.508   1.187  13.666  0.0584  0.5939  0.2831
  140MPD2    H5 2143   3.543   1.277  13.696  1.0909 -0.0953  1.1535
  140MPD2    N1 2144   3.097   1.435  13.726 -0.2373 -0.2783  0.1960
  140MPD2    H7 2145   2.997   1.427  13.714 -0.4408  0.0916  1.6785
  141TCq2    C1 2146   3.949   3.040  14.809  0.3621  0.1740  0.4801
  141TCq2    O2 2147   4.005   3.117  14.731 -0.3285 -0.0126 -0.1880
  141TCq2    C2 2148   3.918   3.069  14.953  0.3721  0.0033 -0.8680
  141TCq2    C3 2149   3.845   2.983  15.038 -0.0743 -0.8980  1.0142
  141TCq2    C4 2150   3.851   3.011  15.173 -0.3475 -0.4157  0.2608
  141TCq2    C5 2151   3.913   3.120  15.221  0.3478  0.0369  0.0942
  141TCq2    C6 2152   3.977   3.207  15.134  0.1293  0.6467  0.2198
  141TCq2    C7 2153   3.974   3.186  14.999  0.4348 -0.6940  0.1361
  141TCq2    C8 2154   4.017   3.336  15.190 -0.2087  0.4305  0.1416
  141TCq2    O4 2155   3.991   3.366  15.304  0.0049 -0.0800 -0.6140
  141TCq2    C9 2156   3.805   2.913  15.264 -0.3796 -0.0787 -0.8413
  141TCq2    O5 2157   3.746   2.811  15.219 -0.2758  0.1825 -0.2155
  141TCq2    O6 2158   3.833   2.937  15.382  0.4425 -0.4300 -0.1893
  141TCq2    H2 2159   3.823   2.885  14.998  0.7028 -2.1194  3.5759
  141TCq2    H3 2160   3.919   3.139  15.328  1.2925  0.7068 -0.0829
  141TCq2    H4 2161   3.995   3.266  14.929  0.3978 -1.0387 -0.2705
  142MPD2     C 2162   1.414   0.664  10.674  0.1102 -0.1269  0.5479
  142MPD2    C1 2163   1.331   0.614  10.579  0.1841  0.1978  0.2077
  142MPD2    C2 2164   1.302   0.685  10.471 -0.1412 -0.7585 -0.3289
  142MPD2    C3 2165   1.372   0.808  10.453  0.2230 -0.2387 -0.3095
  142MPD2    C4 2166   1.453   0.858  10.553  0.8153  0.7246 -0.0052
  142MPD2    C5 2167   1.477   0.782  10.659  0.1493 -1.1508 -0.0280
  142MPD2     H 2168   1.221   0.651  10.408  0.1952 -0.7902 -0.7494
  142MPD2    H1 2169   1.498   0.956  10.545  0.7051  0.6963 -1.0233
  142MPD2    H2 2170   1.451   0.615  10.764 -0.3889 -0.4285  0.5901
  142MPD2    H3 2171   1.543   0.813  10.740 -1.0805  0.4155  0.3716
  142MPD2     N 2172   1.373   0.893  10.338 -0.2884 -0.1009 -0.4933
  142MPD2    H5 2173   1.426   0.979  10.342 -2.7843  1.4878 -1.5245
  142MPD2    N1 2174   1.256   0.493  10.603  0.2673 -0.0007  0.7927
  142MPD2    H7 2175   1.280   0.438  10.684  0.6428 -0.4737  0.3584
  143TCq2    C1 2176   1.292   0.880  10.225 -0.2566  0.5888  0.2820
  143TCq2    O2 2177   1.201   0.799  10.204  0.2293  0.0404  0.0873
  143TCq2    C2 2178   1.312   0.997  10.135  0.1403  0.0276 -0.0119
  143TCq2    C3 2179   1.430   1.062  10.153  0.2840 -1.2127 -0.5845
  143TCq2    C4 2180   1.443   1.184  10.097  0.5825 -0.5687  0.3368
  143TCq2    C5 2181   1.347   1.238  10.017  0.1467  0.0256  0.0309
  143TCq2    C6 2182   1.234   1.174  10.001 -0.6732 -0.5627 -0.1385
  143TCq2    C7 2183   1.209   1.057  10.067  0.1077 -0.1165  0.3141
  143TCq2    C8 2184   1.130   1.243   9.922  0.2367 -0.3355  0.3790
  143TCq2    O4 2185   1.139   1.363   9.898 -0.2015 -0.2652 -0.3004
  143TCq2    C9 2186   1.567   1.259  10.097 -0.3140  0.2010  0.0259
  143TCq2    O5 2187   1.625   1.274  10.211 -0.2568  0.1341 -0.1094
  143TCq2    O6 2188   1.597   1.318   9.994 -0.4211  0.6904  0.2873
  143TCq2    H2 2189   1.519   1.020  10.199  0.3783  0.0992  0.4048
  143TCq2    H3 2190   1.365   1.336   9.977  1.2161  0.1123  0.7306
  143TCq2    H4 2191   1.116   1.003  10.065  0.0163  0.0811 -0.5977
  144MPD2     C 2192   4.533   0.891   0.938 -0.2276 -0.6995 -0.4275
  144MPD2    C1 2193   4.528   0.760   0.904 -0.0130 -0.2319 -0.5222
  144MPD2    C2 2194   4.630   0.676   0.949  0.6121 -0.3055  0.0045
  144MPD2    C3 2195   0.019   0.726   1.022 -0.5065  0.1199  0.4566
  144MPD2    C4 2196   0.027   0.865   1.035  0.0437  0.2060  0.7687
  144MPD2    C5 2197   4.642   0.947   0.987 -0.3596 -0.9426 -0.4953
  144MPD2     H 2198   4.644   0.576   0.908 -0.7131 -0.0105 -1.1372
  144MPD2    H1 2199   0.116   0.900   1.084 -0.3690  1.2412  0.7856
  144MPD2    H2 2200   4.446   0.951   0.914  0.5523  1.2286  1.5628
  144MPD2    H3 2201   4.652   1.053   1.007  3.8315 -1.5681  0.8286
  144MPD2     N 2202   0.134   0.656   1.060 -0.1878 -0.3326  0.5348
  144MPD2    H5 2203   0.208   0.713   1.102 -1.6426  1.7840  0.2145
  144MPD2    N1 2204   4.432   0.701   0.817  0.0895 -0.0574 -0.4375
  144MPD2    H7 2205   4.431   0.599   0.808  2.0190 -0.0002 -1.3186
  145TCq2    C1 2206   0.165   0.525   1.051 -0.0140  0.3958 -0.1331
  145TCq2    O2 2207   0.109   0.436   0.994 -1.1182 -0.2522 -0.2547
  145TCq2    C2 2208   0.300   0.482   1.082  0.1550  0.0918  0.1966
  145TCq2    C3 2209   0.342   0.354   1.055  0.0239 -0.2910  0.1059
  145TCq2    C4 2210   0.470   0.331   1.048 -0.4971  0.1398  0.7353
  145TCq2    C5 2211   0.566   0.425   1.063 -0.1080 -0.2757 -0.2811
  145TCq2    C6 2212   0.529   0.550   1.093 -0.6062 -0.4079 -0.1644
  145TCq2    C7 2213   0.395   0.582   1.100  0.2357 -0.2709  0.3115
  145TCq2    C8 2214   0.634   0.644   1.134 -0.8102  0.0962  0.2321
  145TCq2    O4 2215   0.745   0.593   1.154 -0.3802  0.2099  0.0945
  145TCq2    C9 2216   0.516   0.200   1.029  0.6076  1.2318 -0.0750
  145TCq2    O5 2217   0.625   0.184   0.966  0.1093 -0.1171  0.4887
  145TCq2    O6 2218   0.449   0.108   1.081  0.2373  0.2544  0.4363
  145TCq2    H2 2219   0.276   0.277   1.018 -0.9256  0.6022 -0.0251
  145TCq2    H3 2220   0.669   0.402   1.040  0.1504 -1.0431  1.6429
  145TCq2    H4 2221   0.370   0.684   1.125 -0.8118 -0.4358 -0.0452
  146TMC2    C1 2222   0.287   3.844  12.356 -0.9071 -0.2605  0.5308
  146TMC2    C2 2223   0.188   3.857  12.266 -0.1661 -0.4486  0.7889
  146TMC2    C3 2224   0.204   3.781  12.152 -0.3420 -0.8001  0.3656
  146TMC2    C4 2225   0.392   3.755  12.342  0.0181  0.1612  0.6689
  146TMC2    C5 2226   0.399   3.684  12.229 -0.3372  0.3820  0.2739
  146TMC2    C6 2227   0.311   3.703  12.130 -0.1013 -0.4784  0.0127
  146TMC2     C 2228   0.279   3.934  12.467  0.4779  0.1174 -0.0232
  146TMC2     O 2229   0.212   4.036  12.448  0.7090 -0.2605 -0.3852
  146TMC2     H 2230   0.115   3.937  12.276 -1.1271 -1.2165 -0.0592
  146TMC2    H1 2231   0.469   3.757  12.419  1.4106  0.0738 -0.7384
  146TMC2    H2 2232   0.315   3.653  12.034 -2.2117 -0.1984 -0.2188
  146TMC2    C7 2233   0.530   3.630  12.193 -0.2792 -0.1965 -0.2093
  146TMC2    C8 2234   0.099   3.785  12.046  0.4750  0.3632  0.1726
  146TMC2    O1 2235   0.548   3.603  12.075 -0.3712  0.7054 -0.3744
  146TMC2    O2 2236   0.134   3.764  11.932 -0.0378  0.2015 -0.1071
  146TMC2    O5 2237   4.707   3.754  12.103  0.0520  0.4864 -0.1955
  146TMC2    H5 2238   0.004   3.724  12.195  2.2054 -0.3427 -0.8818
  147MPD2     C 2239   1.017   3.558  12.343  0.3095  0.7578 -0.3802
  147MPD2    C1 2240   0.939   3.517  12.454  0.3826 -0.1742 -1.2504
  147MPD2    C2 2241   0.798   3.528  12.441  0.9492  0.2617  0.5013
  147MPD2    C3 2242   0.736   3.569  12.322 -0.6176 -0.2172 -0.3154
  147MPD2    C4 2243   0.815   3.616  12.221  0.2061 -0.4080  0.0800
  147MPD2    C5 2244   0.955   3.619  12.234 -0.6872  0.2453  0.1284
  147MPD2     H 2245   0.730   3.505  12.521 -1.4557  0.0585 -1.6104
  147MPD2    H1 2246   0.777   3.669  12.134  1.6896 -2.4553 -1.8411
  147MPD2    H2 2247   1.124   3.546  12.350  0.0557 -1.5448 -0.6149
  147MPD2    H3 2248   1.023   3.665  12.163 -2.3388 -0.0942 -1.6524
  147MPD2     N 2249   0.600   3.585  12.310  0.5224 -0.5438  0.5883
  147MPD2    H5 2250   0.545   3.560  12.391  0.1823  0.7129  0.7517
  147MPD2    N1 2251   0.995   3.496  12.580  0.0968  0.6700  0.1946
  147MPD2    H7 2252   1.096   3.485  12.584 -0.2588 -1.9794  2.0715
  148MPD2     C 2253   1.158   2.977  10.280  0.0306  0.1988 -0.7552
  148MPD2    C1 2254   1.201   2.872  10.200  0.0743  0.0526  0.4061
  148MPD2    C2 2255   1.116   2.776  10.150 -0.1068  0.1664 -0.6193
  148MPD2    C3 2256   0.981   2.795  10.177  0.0905 -0.7168  0.0028
  148MPD2    C4 2257   0.928   2.904  10.254 -0.1509  0.1381  0.3901
  148MPD2    C5 2258   1.024   2.989  10.307  0.0170  0.1528 -0.0826
  148MPD2     H 2259   1.164   2.702  10.087  2.7529 -0.0443  1.8153
  148MPD2    H1 2260   0.824   2.925  10.273  0.1430  0.1858  1.9242
  148MPD2    H2 2261   1.227   3.052  10.318 -0.9332  1.1492 -0.9055
  148MPD2    H3 2262   0.982   3.073  10.360  0.1397 -0.5210  1.0721
  148MPD2     N 2263   0.885   2.713  10.125  0.6804 -0.7340 -0.0704
  148MPD2    H5 2264   0.792   2.752  10.135  1.4079  1.2139 -0.9057
  148MPD2    N1 2265   1.336   2.846  10.171 -0.7870 -0.1100 -0.0221
  148MPD2    H7 2266   1.362   2.773  10.105  0.2376  1.6044 -1.5538
  149TCq2    C1 2267   1.441   2.923  10.224 -0.0547  0.4448  0.1047
  149TCq2    O2 2268   1.436   3.011  10.304 -0.1034 -0.1446  0.4655
  149TCq2    C2 2269   1.567   2.869  10.199  0.2396  0.6983  0.1363
  149TCq2    C3 2270   1.641   2.820  10.299 -0.1250  0.0418  0.3218
  149TCq2    C4 2271   1.712   2.709  10.281  0.0633 -0.5914 -0.3090
  149TCq2    C5 2272   1.698   2.632  10.164  0.3499  0.0289  0.6047
  149TCq2    C6 2273   1.634   2.693  10.061 -0.2592 -0.4589  0.5010
  149TCq2    C7 2274   1.568   2.810  10.080  1.2080  0.2412  0.0408
  149TCq2    C8 2275   1.543   2.613   9.986  0.7098 -0.1836  0.0584
  149TCq2    O4 2276   1.429   2.652   9.971  0.2491 -0.4433  0.1860
  149TCq2    C9 2277   1.749   2.633  10.399 -0.1971  0.2713 -0.1066
  149TCq2    O5 2278   1.809   2.528  10.394  0.5168 -0.2765 -0.2434
  149TCq2    O6 2279   1.692   2.678  10.505 -0.4970 -0.5982 -0.5471
  149TCq2    H2 2280   1.641   2.867  10.397 -4.6227  3.0670 -1.1312
  149TCq2    H3 2281   1.740   2.533  10.155 -3.2959 -1.3907 -0.9307
  149TCq2    H4 2282   1.517   2.859   9.998  0.4930 -0.8107 -0.1324
  150MPD2     C 2283   2.394   1.579  12.240 -0.1793 -0.6393 -0.5865
  150MPD2    C1 2284   2.356   1.704  12.194 -0.2327  0.9149 -0.4600
  150MPD2    C2 2285   2.439   1.805  12.239 -0.2511  0.2174  1.0288
  150MPD2    C3 2286   2.553   1.789  12.318  0.0935 -0.2462 -0.7707
  150MPD2    C4 2287   2.584   1.661  12.355 -0.1950 -0.4374  0.4094
  150MPD2    C5 2288   2.505   1.552  12.314  0.6249 -0.4349 -0.0491
  150MPD2     H 2289   2.389   1.901  12.228  0.9766  1.1299  3.4713
  150MPD2    H1 2290   2.651   1.628  12.433  0.7627 -1.8905 -1.0357
  150MPD2    H2 2291   2.336   1.491  12.214  0.8324 -0.6215 -2.8450
  150MPD2    H3 2292   2.532   1.449  12.338 -1.1027 -0.4295  1.9521
  150MPD2     N 2293   2.609   1.907  12.366 -0.5244 -0.1080 -0.0318
  150MPD2    H5 2294   2.566   1.994  12.336  1.8236  1.0268 -0.1164
  150MPD2    N1 2295   2.229   1.720  12.122 -0.1709  0.7044 -0.3443
  150MPD2    H7 2296   2.171   1.639  12.107 -1.5915  1.9284 -1.4847
  151TCq2    C1 2297   2.726   1.918  12.440 -0.7110 -0.0536 -0.0541
  151TCq2    O2 2298   2.812   1.833  12.458  0.1067  0.3479 -0.3431
  151TCq2    C2 2299   2.753   2.055  12.476  0.2368 -0.0205  0.0484
  151TCq2    C3 2300   2.659   2.153  12.470 -0.4681  0.4102 -0.2348
  151TCq2    C4 2301   2.692   2.289  12.491  0.3737 -0.0578  0.2240
  151TCq2    C5 2302   2.824   2.327  12.516  0.2286  0.4023 -0.5402
  151TCq2    C6 2303   2.915   2.222  12.535 -0.5913 -0.4271  0.4017
  151TCq2    C7 2304   2.882   2.090  12.507 -0.0732  0.3586 -0.1141
  151TCq2    C8 2305   3.050   2.263  12.572  0.2322 -0.1356  0.0089
  151TCq2    O4 2306   3.063   2.385  12.562 -0.1484 -0.0316 -0.3320
  151TCq2    C9 2307   2.599   2.389  12.439 -0.3412  0.2489  0.1696
  151TCq2    O5 2308   2.488   2.348  12.391  0.6587  0.1816  0.8945
  151TCq2    O6 2309   2.646   2.505  12.424 -0.3227 -0.4762 -0.2388
  151TCq2    H2 2310   2.557   2.127  12.444 -0.2629 -0.1435 -0.4846
  151TCq2    H3 2311   2.848   2.433  12.509  0.6620  0.4225  1.2997
  151TCq2    H4 2312   2.962   2.017  12.507  2.5401  3.1890 -0.5327
  152MPD2     C 2313   2.095   1.551  12.440  0.0015  0.3874 -0.0462
  152MPD2    C1 2314   2.120   1.682  12.473 -0.1574 -0.2437 -0.4769
  152MPD2    C2 2315   2.018   1.773  12.431  0.3803 -0.8594 -0.0206
  152MPD2    C3 2316   1.897   1.727  12.372  0.7400 -0.9311 -0.3010
  152MPD2    C4 2317   1.884   1.591  12.354  0.7385  0.1557 -0.0135
  152MPD2    C5 2318   1.985   1.507  12.380 -0.4817  0.6456  0.4657
  152MPD2     H 2319   2.025   1.879  12.450  0.3341 -1.3720  2.8357
  152MPD2    H1 2320   1.795   1.545  12.312 -0.5538  0.9801  1.8360
  152MPD2    H2 2321   2.177   1.483  12.460 -0.5543  0.7471  3.4565
  152MPD2    H3 2322   1.979   1.399  12.371 -0.3026  0.6703  0.0491
  152MPD2     N 2323   1.788   1.818  12.335  0.1652 -0.3690 -0.7492
  152MPD2    H5 2324   1.810   1.917  12.330  0.9508 -0.4715  0.9713
  152MPD2    N1 2325   2.237   1.721  12.538 -0.0405  0.5212  0.1566
  152MPD2    H7 2326   2.291   1.643  12.573 -0.0663  0.0007 -0.9722
  153TCq2    C1 2327   2.280   1.849  12.561 -0.0666  0.3852 -0.6235
  153TCq2    O2 2328   2.236   1.955  12.518 -0.4939 -0.0567  0.9906
  153TCq2    C2 2329   2.406   1.842  12.632 -0.0237  0.2833 -0.6249
  153TCq2    C3 2330   2.472   1.728  12.643  0.0474  0.4418  0.6430
  153TCq2    C4 2331   2.592   1.720  12.712  0.1415 -0.2363 -0.4882
  153TCq2    C5 2332   2.637   1.838  12.768 -0.4547 -0.6250 -0.4626
  153TCq2    C6 2333   2.570   1.955  12.760  0.3337  0.2582 -0.4673
  153TCq2    C7 2334   2.451   1.960  12.689 -0.5585 -0.2624 -0.6563
  153TCq2    C8 2335   2.640   2.077  12.789  0.7794  0.1416  0.0562
  153TCq2    O4 2336   2.565   2.176  12.800  0.1489  0.1739  0.2369
  153TCq2    C9 2337   2.667   1.602  12.694 -0.6109  0.6112 -0.3877
  153TCq2    O5 2338   2.607   1.496  12.681  0.3810 -0.0285 -0.3918
  153TCq2    O6 2339   2.788   1.605  12.732 -0.0745  0.1001  0.2038
  153TCq2    H2 2340   2.448   1.640  12.584 -0.8538  0.3032  1.2190
  153TCq2    H3 2341   2.728   1.823  12.826 -0.3240 -0.9870 -0.7561
  153TCq2    H4 2342   2.394   2.051  12.677 -1.9358 -0.5894  3.3133
  154MPD2     C 2343   0.063   2.359   0.474 -0.5404 -0.5119 -0.3718
  154MPD2    C1 2344   0.047   2.253   0.558 -0.2775  0.3027 -0.3943
  154MPD2    C2 2345   4.638   2.229   0.612  0.2148 -0.1593 -0.3420
  154MPD2    C3 2346   4.533   2.312   0.576 -0.0904  0.0156 -0.7467
  154MPD2    C4 2347   4.553   2.408   0.481 -0.3580 -0.2169  0.1200
  154MPD2    C5 2348   4.675   2.428   0.431  0.8485  0.4110 -0.5137
  154MPD2     H 2349   4.634   2.160   0.695  0.9475  0.5852  0.3246
  154MPD2    H1 2350   4.478   2.477   0.446 -0.2793 -0.0223  0.3375
  154MPD2    H2 2351   0.156   2.379   0.421 -0.1427  1.8255  1.2637
  154MPD2    H3 2352   4.679   2.515   0.365  1.5695  0.3956 -0.4822
  154MPD2     N 2353   4.403   2.280   0.625 -0.6764 -0.0347  0.3054
  154MPD2    H5 2354   4.394   2.213   0.701 -1.2539 -2.0508 -1.5620
  154MPD2    N1 2355   0.162   2.170   0.578 -0.1796  0.3405 -0.0764
  154MPD2    H7 2356   0.251   2.207   0.546 -0.3085  0.0520 -0.7652
  155TCq2    C1 2357   0.165   2.047   0.643  0.4888 -0.7490 -0.0028
  155TCq2    O2 2358   0.076   1.982   0.691 -0.1020  0.1111  0.0431
  155TCq2    C2 2359   0.284   1.986   0.617  0.6276 -0.1853 -0.5419
  155TCq2    C3 2360   0.332   1.892   0.705  0.1160 -0.2240 -0.4872
  155TCq2    C4 2361   0.431   1.807   0.668 -0.4276 -0.0109 -0.8183
  155TCq2    C5 2362   0.485   1.822   0.551 -0.8309  0.3740  0.0884
  155TCq2    C6 2363   0.452   1.927   0.468 -0.3882 -0.1837  0.3979
  155TCq2    C7 2364   0.343   2.011   0.497 -0.0083  0.1998  0.1277
  155TCq2    C8 2365   0.491   1.933   0.335  0.2344 -1.2708  0.0587
  155TCq2    O4 2366   0.478   2.039   0.276 -0.3636  0.2558 -0.2309
  155TCq2    C9 2367   0.479   1.700   0.749 -0.3624  1.3184  0.5208
  155TCq2    O5 2368   0.563   1.616   0.704 -0.3129  0.1580  0.0228
  155TCq2    O6 2369   0.410   1.678   0.852 -0.6477  0.2804  0.0159
  155TCq2    H2 2370   0.279   1.871   0.796  0.0049 -1.9291 -0.9564
  155TCq2    H3 2371   0.565   1.757   0.519  0.5093  0.2155  3.8240
  155TCq2    H4 2372   0.296   2.064   0.414 -1.6164 -0.7587  0.4483
  156MPD2     C 2373   2.957   3.998  12.038 -0.2000  0.1190 -0.0416
  156MPD2    C1 2374   2.883   4.094  11.973 -0.4418 -0.3060 -0.6220
  156MPD2    C2 2375   2.874   4.225  12.023 -0.1391  0.0158 -0.1422
  156MPD2    C3 2376   2.927   4.261  12.140 -0.1213 -0.1209  0.6078
  156MPD2    C4 2377   3.002   4.175  12.203  0.8358  0.3192  0.1593
  156MPD2    C5 2378   3.023   4.043  12.149  0.0068 -0.0262 -0.1705
  156MPD2     H 2379   2.811   4.299  11.975  0.6594  1.0460  0.4032
  156MPD2    H1 2380   3.060   4.202  12.290 -0.0455 -0.9466  1.1459
  156MPD2    H2 2381   2.955   3.892  12.013  0.1188  0.1377 -0.1484
  156MPD2    H3 2382   3.087   3.978  12.208 -1.0902 -0.7803  0.1970
  156MPD2     N 2383   2.887   4.385  12.195 -0.5782  0.4139 -0.4148
  156MPD2    H5 2384   2.830   4.445  12.136  0.9384  2.1636 -0.0903
  156MPD2    N1 2385   2.804   4.057  11.867 -0.2926 -0.2167  0.1952
  156MPD2    H7 2386   2.779   3.960  11.851 -2.6546  0.1428  1.7625
  157TCq2    C1 2387   2.780   4.153  11.771 -0.3200  0.3709  0.4632
  157TCq2    O2 2388   2.841   4.255  11.742 -0.0343  0.5683  1.0925
  157TCq2    C2 2389   2.660   4.125  11.701  0.7009 -0.4681 -0.8497
  157TCq2    C3 2390   2.565   4.046  11.754 -0.5465 -0.3090 -0.0033
  157TCq2    C4 2391   2.442   4.054  11.685 -0.3324  0.3718 -0.5529
  157TCq2    C5 2392   2.411   4.152  11.600  0.3537 -1.0286 -0.1268
  157TCq2    C6 2393   2.515   4.224  11.557 -0.5946 -0.3084  0.0969
  157TCq2    C7 2394   2.638   4.209  11.599 -0.1469 -0.2249 -0.1013
  157TCq2    C8 2395   2.489   4.351  11.490  0.0071  0.2767 -0.5703
  157TCq2    O4 2396   2.583   4.414  11.451 -0.5654 -0.0788  0.3879
  157TCq2    C9 2397   2.324   3.975  11.736  1.0938  0.6492  0.3362
  157TCq2    O5 2398   2.337   3.915  11.845  0.0671  0.4142 -0.0453
  157TCq2    O6 2399   2.213   3.986  11.675  0.0576  0.1032  0.0593
  157TCq2    H2 2400   2.574   3.985  11.844  1.8522 -1.5513 -1.0679
  157TCq2    H3 2401   2.308   4.166  11.567  0.2779 -1.7502 -0.1888
  157TCq2    H4 2402   2.719   4.261  11.548  0.6002  0.5013  1.8123
  158TMC2    C1 2403   2.977   3.373  13.370 -0.1539  0.3293 -0.5265
  158TMC2    C2 2404   3.052   3.401  13.261  0.7527 -0.0057  0.1525
  158TMC2    C3 2405   2.989   3.408  13.141  0.6336 -0.4429 -0.5614
  158TMC2    C4 2406   2.843   3.339  13.367  0.5414  0.6665 -0.4210
  158TMC2    C5 2407   2.780   3.371  13.257  0.4538 -0.2261 -0.4452
  158TMC2    C6 2408   2.847   3.409  13.140 -0.5214  0.1476  0.4865
  158TMC2     C 2409   3.055   3.375  13.491 -0.3342 -0.6259  0.2566
  158TMC2     O 2410   3.155   3.450  13.492  0.1305 -0.2005 -0.3407
  158TMC2     H 2411   3.160   3.393  13.258  0.8382  2.0257 -2.0151
  158TMC2    H1 2412   2.778   3.307  13.447  0.9217 -2.3942 -1.3271
  158TMC2    H2 2413   2.802   3.414  13.042 -1.2862 -0.0146  0.8282
  158TMC2    C7 2414   2.641   3.344  13.242 -0.3570  0.4799 -0.6688
  158TMC2    C8 2415   3.048   3.439  13.017  0.3430 -0.0783  0.0003
  158TMC2    O1 2416   2.571   3.402  13.160 -0.0375 -0.2326  0.0087
  158TMC2    O2 2417   2.978   3.486  12.923 -0.2238 -0.2066  0.2733
  158TMC2    O5 2418   3.166   3.374  13.005  0.2569 -0.3581 -0.4674
  158TMC2    H5 2419   3.176   3.314  13.082 -1.3425  0.9924  0.7941
  159MPD2     C 2420   3.170   3.227  13.979 -0.6408 -1.0021  0.0619
  159MPD2    C1 2421   3.044   3.190  13.942  0.9460  0.5630 -0.3520
  159MPD2    C2 2422   2.993   3.218  13.816  0.5075  0.1866 -0.3230
  159MPD2    C3 2423   3.065   3.288  13.728 -0.2193 -0.1444  0.7464
  159MPD2    C4 2424   3.196   3.331  13.757 -0.2550 -0.0088  0.2263
  159MPD2    C5 2425   3.246   3.296  13.878  0.0535 -0.1743 -0.4047
  159MPD2     H 2426   2.893   3.190  13.786  2.0776 -1.5062 -3.9288
  159MPD2    H1 2427   3.257   3.390  13.690 -0.3782  1.8981  1.8006
  159MPD2    H2 2428   3.212   3.195  14.074 -0.6836 -0.5218  0.2413
  159MPD2    H3 2429   3.350   3.313  13.904 -0.1999 -1.0371  1.1642
  159MPD2     N 2430   3.001   3.304  13.595  0.2412  0.0887  1.0504
  159MPD2    H5 2431   2.915   3.256  13.571 -1.5635  2.5458  2.6947
  159MPD2    N1 2432   2.969   3.123  14.046  0.2140 -0.0060 -0.2082
  159MPD2    H7 2433   3.002   3.131  14.142  0.9058 -0.8666 -0.3709
  160TMC2    C1 2434   3.078   1.075   1.671 -0.5571 -1.0824  0.2066
  160TMC2    C2 2435   2.976   0.986   1.695 -0.0125 -0.1897  0.0979
  160TMC2    C3 2436   2.988   0.857   1.652  0.1648  0.1602  0.3398
  160TMC2    C4 2437   3.197   1.038   1.623 -0.4872  0.1905 -0.1818
  160TMC2    C5 2438   3.201   0.909   1.567 -0.0660  0.4249 -0.1238
  160TMC2    C6 2439   3.097   0.823   1.575 -0.2884 -0.8609  0.1477
  160TMC2     C 2440   3.053   1.217   1.696  0.5805  0.2217  0.2598
  160TMC2     O 2441   3.144   1.295   1.662  0.3394 -0.0057 -0.2785
  160TMC2     H 2442   2.891   1.014   1.758  0.4219  1.4149 -0.0407
  160TMC2    H1 2443   3.273   1.115   1.614  1.4387 -2.0350 -3.0879
  160TMC2    H2 2444   3.100   0.722   1.535  1.7571 -0.5013 -0.6165
  160TMC2    C7 2445   3.268   0.903   1.446 -0.1026 -0.7704  0.3546
  160TMC2    C8 2446   2.872   0.770   1.681  0.1768  0.0305  0.3534
  160TMC2    O1 2447   3.199   0.855   1.356  0.0443 -0.1779  0.2152
  160TMC2    O2 2448   2.768   0.817   1.719 -0.4388 -0.4425 -0.4249
  160TMC2    O5 2449   2.873   0.662   1.608  0.0391  0.5682 -0.0803
  160TMC2    H5 2450   2.955   0.628   1.566 -1.7227 -1.1549 -2.0715
  161MPD2     C 2451   2.959   1.485   1.771  0.6666  0.8734 -0.5066
  161MPD2    C1 2452   2.874   1.381   1.744  0.4562  0.0022 -0.1023
  161MPD2    C2 2453   2.740   1.406   1.745 -0.0304 -0.5262 -0.0517
  161MPD2    C3 2454   2.686   1.534   1.776  0.2728 -0.0687 -0.4997
  161MPD2    C4 2455   2.772   1.635   1.795 -0.8509  0.1740  0.3383
  161MPD2    C5 2456   2.909   1.613   1.781 -0.7966  0.7364  0.1143
  161MPD2     H 2457   2.671   1.326   1.721 -1.7837  0.4020  1.9298
  161MPD2    H1 2458   2.733   1.736   1.792  0.1885  0.5383 -0.7272
  161MPD2    H2 2459   3.067   1.482   1.772  0.6226 -1.3817 -1.5544
  161MPD2    H3 2460   2.974   1.696   1.802  2.0816 -1.1968 -1.2091
  161MPD2     N 2461   2.549   1.567   1.789  0.0273 -0.1840 -0.1090
  161MPD2    H5 2462   2.527   1.666   1.789  0.9634  0.0165 -1.1938
  161MPD2    N1 2463   2.917   1.253   1.713 -0.5007  0.3061  0.3628
  161MPD2    H7 2464   2.853   1.176   1.727  1.2749 -1.7087 -2.4979
  162TMC2    C1 2465   0.841   3.289   1.653  0.0975 -0.6181  0.8233
  162TMC2    C2 2466   0.733   3.372   1.640  0.3642 -0.1613 -0.3988
  162TMC2    C3 2467   0.631   3.365   1.731  0.9001  0.2698 -0.4692
  162TMC2    C4 2468   0.845   3.193   1.757 -0.6273 -0.4274 -1.0052
  162TMC2    C5 2469   0.740   3.190   1.849 -0.1800 -0.5514 -0.4715
  162TMC2    C6 2470   0.636   3.278   1.838 -0.1366  0.8252  0.2791
  162TMC2     C 2471   0.918   3.263   1.528  0.8448  0.2998 -0.2767
  162TMC2     O 2472   0.866   3.282   1.418 -0.3131  0.1202  0.2442
  162TMC2     H 2473   0.747   3.448   1.563  0.0036 -0.5982 -0.8928
  162TMC2    H1 2474   0.907   3.108   1.729 -0.9004 -0.2522 -2.1264
  162TMC2    H2 2475   0.562   3.292   1.916 -0.3202 -0.7243  0.3799
  162TMC2    C7 2476   0.728   3.072   1.925  0.0805 -0.0971  0.4590
  162TMC2    C8 2477   0.532   3.468   1.738  1.0646 -0.7009 -0.7035
  162TMC2    O1 2478   0.615   3.040   1.948  0.1801  0.0568  0.1345
  162TMC2    O2 2479   0.554   3.588   1.731  0.6162  0.4601 -0.4916
  162TMC2    O5 2480   0.420   3.404   1.763 -0.6207 -0.2557 -0.5104
  162TMC2    H5 2481   0.430   3.307   1.753 -0.2013 -0.0117 -2.3702
  163MPD2     C 2482   1.359   3.178   1.279  0.0573 -0.6686 -0.1800
  163MPD2    C1 2483   1.226   3.170   1.235 -0.2065  0.1583 -0.6018
  163MPD2    C2 2484   1.122   3.187   1.322  0.1568 -0.2950 -0.2652
  163MPD2    C3 2485   1.149   3.211   1.454  0.5578 -1.0429  0.5669
  163MPD2    C4 2486   1.275   3.212   1.494 -0.2301  0.1518  0.2995
  163MPD2    C5 2487   1.386   3.210   1.411 -0.0048 -0.6521 -0.4755
  163MPD2     H 2488   1.025   3.195   1.275  0.0686  1.2402  0.1838
  163MPD2    H1 2489   1.297   3.247   1.595  1.1166 -1.2583  0.4907
  163MPD2    H2 2490   1.447   3.168   1.216  1.2014  2.2878  0.9186
  163MPD2    H3 2491   1.486   3.228   1.449  0.0930 -1.5893 -0.2778
  163MPD2     N 2492   1.052   3.231   1.553  0.1995  0.3892 -0.7350
  163MPD2    H5 2493   1.089   3.249   1.646  3.4452 -2.1216 -1.5578
  163MPD2    N1 2494   1.211   3.136   1.097  0.7970 -0.0688  0.4225
  163MPD2    H7 2495   1.298   3.143   1.044  1.2792 -0.3432  1.1749
  164TCq2    C1 2496   0.987   3.584  10.672  0.5720 -0.1444 -0.0528
  164TCq2    O2 2497   1.101   3.620  10.631 -0.1471  0.0486  0.1057
  164TCq2    C2 2498   0.911   3.684  10.748  0.0608  0.3931 -0.0145
  164TCq2    C3 2499   0.978   3.794  10.791  0.3464  0.5394  0.2909
  164TCq2    C4 2500   0.939   3.863  10.899  0.4052 -0.5533 -0.3680
  164TCq2    C5 2501   0.831   3.831  10.972  0.1691  0.1649 -0.0321
  164TCq2    C6 2502   0.749   3.730  10.925  0.1591  0.6488 -0.0502
  164TCq2    C7 2503   0.790   3.652  10.814  0.5283 -0.0487 -0.2864
  164TCq2    C8 2504   0.640   3.667  11.000  0.2995 -0.1178 -0.7949
  164TCq2    O4 2505   0.558   3.595  10.940  0.0236  0.7923  0.1603
  164TCq2    C9 2506   1.010   3.982  10.932  0.1895  0.5670  0.0695
  164TCq2    O5 2507   1.018   4.014  11.055 -0.6387  0.0110  1.0336
  164TCq2    O6 2508   1.081   4.032  10.839 -0.0265 -0.3805  0.5376
  164TCq2    H2 2509   1.071   3.824  10.744  0.2843 -3.3091 -2.2432
  164TCq2    H3 2510   0.806   3.903  11.049  0.8440 -1.1308  1.3958
  164TCq2    H4 2511   0.733   3.569  10.775 -0.3707  0.8478 -0.8840
  165MPD2     C 2512   2.386   0.035   2.454 -0.2820  0.2908  0.4011
  165MPD2    C1 2513   2.406   0.042   2.311  0.5755  0.6011  0.5726
  165MPD2    C2 2514   2.463   0.151   2.260  0.2777 -0.2618  0.3949
  165MPD2    C3 2515   2.502   0.266   2.343  0.4925 -0.5872  0.2334
  165MPD2    C4 2516   2.477   0.255   2.482  0.2270 -0.1767 -0.0074
  165MPD2    C5 2517   2.418   0.142   2.532 -0.3802 -0.3813 -0.0339
  165MPD2     H 2518   2.494   0.152   2.156 -0.7470  0.5638  0.0827
  165MPD2    H1 2519   2.503   0.336   2.549 -0.9117 -0.9675  1.4021
  165MPD2    H2 2520   2.345   4.668   2.502 -0.4103 -0.6857 -1.4971
  165MPD2    H3 2521   2.397   0.145   2.639  1.5809  1.0381  0.3268
  165MPD2     N 2522   2.548   0.390   2.288  0.3214  0.2880 -0.7766
  165MPD2    H5 2523   2.566   0.462   2.357  1.2578  0.1419 -0.8696
  165MPD2    N1 2524   2.374   4.654   2.229  1.1204 -0.0833  0.2459
  165MPD2    H7 2525   2.333   4.577   2.280 -2.5530  1.3883 -0.4884
  166TCq2    C1 2526   2.587   0.422   2.155  0.3479 -0.0362 -0.0530
  166TCq2    O2 2527   2.606   0.343   2.065  0.1851  0.1131 -0.4733
  166TCq2    C2 2528   2.652   0.552   2.148  0.0906 -0.0195  0.1168
  166TCq2    C3 2529   2.646   0.624   2.266  0.0867 -0.1224  0.6596
  166TCq2    C4 2530   2.752   0.702   2.292 -0.9557  0.9168 -0.6162
  166TCq2    C5 2531   2.858   0.709   2.214 -0.0232 -0.1466 -0.2251
  166TCq2    C6 2532   2.865   0.638   2.098  0.7793 -0.0149  0.2463
  166TCq2    C7 2533   2.756   0.559   2.059 -0.4025  0.3252 -0.9010
  166TCq2    C8 2534   2.992   0.628   2.036  0.0705  0.5369  0.3759
  166TCq2    O4 2535   3.082   0.700   2.072  0.1577 -0.2684 -0.5897
  166TCq2    C9 2536   2.750   0.808   2.399 -1.0701 -0.1432  0.1502
  166TCq2    O5 2537   2.638   0.833   2.455 -0.1671  0.0481 -0.7319
  166TCq2    O6 2538   2.865   0.843   2.441  0.0578 -0.3699  0.0057
  166TCq2    H2 2539   2.553   0.627   2.322 -0.9153  2.0980 -1.1413
  166TCq2    H3 2540   2.934   0.779   2.246  1.3806 -1.3132 -1.0098
  166TCq2    H4 2541   2.758   0.511   1.962  2.5949 -1.6755  0.1664
  167TMC2    C1 2542   0.090   3.008  12.710  0.2596 -0.1467  0.2830
  167TMC2    C2 2543   4.721   3.050  12.799 -0.3327  0.5462  0.1876
  167TMC2    C3 2544   4.692   2.961  12.896  0.9263  0.4692  0.4021
  167TMC2    C4 2545   0.158   2.889  12.715  0.0085 -0.6958 -0.5142
  167TMC2    C5 2546   0.129   2.813  12.825  0.1166  0.6186  0.9960
  167TMC2    C6 2547   0.028   2.840  12.908  0.3687 -0.7846  0.0411
  167TMC2     C 2548   0.113   3.097  12.593 -0.1406 -0.1693  0.1642
  167TMC2     O 2549   0.080   3.212  12.609  0.5512  0.3983  0.4925
  167TMC2     H 2550   4.680   3.150  12.787  0.6309  0.7371 -1.4527
  167TMC2    H1 2551   0.227   2.869  12.635 -0.2317 -1.3204 -0.5613
  167TMC2    H2 2552   4.702   2.773  12.979  0.6542 -2.0310 -0.9351
  167TMC2    C7 2553   0.188   2.676  12.841 -0.1786 -0.4319 -0.0281
  167TMC2    C8 2554   4.567   2.976  12.971  0.0216 -0.3740 -0.4925
  167TMC2    O1 2555   0.125   2.606  12.918  0.9424 -0.0402 -0.3069
  167TMC2    O2 2556   4.507   2.884  13.018  0.1684 -0.3151  0.5030
  167TMC2    O5 2557   4.537   3.103  12.974  0.5950 -0.0548  0.0136
  167TMC2    H5 2558   4.617   3.159  12.963  0.0553  0.5520 -0.8118
  168MPD2     C 2559   0.194   3.232  12.333  0.3148 -0.0004  0.6479
  168MPD2    C1 2560   0.214   3.104  12.363 -0.1720  0.7095  0.2570
  168MPD2    C2 2561   0.275   3.014  12.274  0.6788 -0.4634  0.0721
  168MPD2    C3 2562   0.289   3.052  12.145  0.0258  0.5717  0.5599
  168MPD2    C4 2563   0.257   3.180  12.111 -0.1926  0.1064  0.0447
  168MPD2    C5 2564   0.211   3.267  12.206  0.1312  0.2218  0.0745
  168MPD2     H 2565   0.304   2.918  12.316 -1.1059 -1.5799 -1.2263
  168MPD2    H1 2566   0.265   3.217  12.009  1.9650  2.0165  0.9308
  168MPD2    H2 2567   0.146   3.308  12.393  0.4477  0.0950  0.6337
  168MPD2    H3 2568   0.184   3.366  12.169 -1.4469 -0.8806 -1.7120
  168MPD2     N 2569   0.319   2.965  12.045 -0.3807 -0.0039 -0.1349
  168MPD2    H5 2570   0.298   3.001  11.952  0.3002 -0.3930 -0.4363
  168MPD2    N1 2571   0.178   3.041  12.483 -0.1882  0.2943  0.3120
  168MPD2    H7 2572   0.209   2.945  12.485 -0.0821  0.2847 -1.9740
  169MPD1     C 2573   2.586   1.724   8.896  0.2477 -0.5125  0.3012
  169MPD1    C1 2574   2.635   1.627   8.973  0.0883  0.1336  0.3151
  169MPD1    C2 2575   2.695   1.668   9.090  0.3118  0.6772 -0.3907
  169MPD1    C3 2576   2.688   1.801   9.130  0.7778  1.1599  0.3480
  169MPD1    C4 2577   2.624   1.895   9.054  0.1925  0.5779  0.7160
  169MPD1    C5 2578   2.571   1.858   8.939  0.0260  0.0899 -0.6210
  169MPD1     H 2579   2.750   1.597   9.151 -1.4308  0.7395  1.2694
  169MPD1    H1 2580   2.602   1.997   9.085 -0.9573  0.7321 -0.5636
  169MPD1    H2 2581   2.531   1.690   8.810 -0.8174 -0.3441  0.9208
  169MPD1    H3 2582   2.514   1.934   8.887  1.0172 -0.2574 -2.2569
  169MPD1     N 2583   2.766   1.831   9.243 -0.2964  0.3765 -0.7234
  169MPD1    H5 2584   2.824   1.756   9.278 -0.7121  0.7328  0.7178
  169MPD1    N1 2585   2.673   1.507   8.917  0.5804 -0.1826 -0.3406
  169MPD1    H6 2586   2.702   1.440   8.988 -1.1483 -1.0869 -0.4916
  169MPD1    H7 2587   2.601   1.478   8.852 -0.0213 -0.4051  0.4289
  170MPD1     C 2588   0.998   4.485  12.909 -0.3705 -0.1269 -0.2947
  170MPD1    C1 2589   0.948   4.563  13.011  0.0237 -0.0850 -0.3594
  170MPD1    C2 2590   1.030   4.583  13.119  0.5411  0.0568  0.3346
  170MPD1    C3 2591   1.154   4.522  13.140  0.5437 -1.0146  0.6851
  170MPD1    C4 2592   1.189   4.427  13.049 -1.1972 -0.3158  0.2221
  170MPD1    C5 2593   1.120   4.419  12.930 -0.5961 -0.6876  0.4615
  170MPD1     H 2594   0.989   4.652  13.193 -0.8889 -0.1931 -0.2246
  170MPD1    H1 2595   1.283   4.372  13.057 -0.9919  0.1911  1.1894
  170MPD1    H2 2596   0.939   4.459  12.822  0.1037 -0.9544 -0.3737
  170MPD1    H3 2597   1.156   4.346  12.859  0.1510  1.8367 -1.7289
  170MPD1     N 2598   1.230   4.567  13.248  0.0825 -0.2023 -0.0513
  170MPD1    H5 2599   1.180   4.628  13.312  0.1228 -0.0196 -0.1936
  170MPD1    N1 2600   0.819   4.627  12.994  0.7757 -0.7063  0.1650
  170MPD1    H6 2601   0.792   4.646  13.090 -0.7953 -1.7023 -0.0827
  170MPD1    H7 2602   0.755   4.554  12.963  0.7248 -0.0435 -1.2839
  171MPD1     C 2603   0.035   1.251  16.542  0.3885  0.1215  0.2199
  171MPD1    C1 2604   4.704   1.265  16.413  0.1326  0.0810 -0.1464
  171MPD1    C2 2605   0.070   1.248  16.306  0.1343  0.1219  0.0449
  171MPD1    C3 2606   0.206   1.216  16.328 -0.1672 -0.0329  0.8222
  171MPD1    C4 2607   0.251   1.195  16.460  0.3946  0.0498  0.0127
  171MPD1    C5 2608   0.169   1.220  16.561 -0.2722  0.7762 -1.3974
  171MPD1     H 2609   0.034   1.273  16.207 -1.6720 -0.4309  0.5626
  171MPD1    H1 2610   0.351   1.159  16.482 -0.4115 -3.3055 -1.8155
  171MPD1    H2 2611   4.702   1.273  16.633  2.2296  1.3634  1.0167
  171MPD1    H3 2612   0.207   1.203  16.661  0.1139 -1.1422 -1.8554
  171MPD1     N 2613   0.304   1.192  16.225 -0.1362 -0.0976  0.1466
  171MPD1    H5 2614   0.396   1.166  16.256  0.5206  1.8671 -0.1384
  171MPD1    N1 2615   4.575   1.315  16.380  0.3178  0.3633  0.7556
  171MPD1    H6 2616   4.532   1.282  16.294 -1.2597  0.7139  1.4166
  171MPD1    H7 2617   4.508   1.295  16.454 -2.0216  2.3932 -0.7822
  172MPD1     C 2618   4.547   0.151   0.587  0.0887 -0.2696 -0.2015
  172MPD1    C1 2619   4.559   0.261   0.505 -0.6736 -0.2938  0.5323
  172MPD1    C2 2620   4.628   0.369   0.553  0.3085 -0.1581 -0.1355
  172MPD1    C3 2621   4.686   0.364   0.680 -0.0658  0.0185 -0.2571
  172MPD1    C4 2622   4.665   0.253   0.756 -0.1555 -0.5150  0.1246
  172MPD1    C5 2623   4.598   0.151   0.711 -0.4809 -0.5179 -0.4156
  172MPD1     H 2624   4.634   0.455   0.486  2.5452 -2.1398 -2.4850
  172MPD1    H1 2625   4.695   0.251   0.860 -0.4585  0.3740  0.2327
  172MPD1    H2 2626   4.493   0.063   0.554 -0.1437 -0.3208  0.3163
  172MPD1    H3 2627   4.576   0.073   0.784  2.1443 -2.2147 -1.4498
  172MPD1     N 2628   0.049   0.469   0.733  0.2951 -0.1308 -0.4815
  172MPD1    H5 2629   0.091   0.454   0.824 -0.4861 -2.5620 -0.5234
  172MPD1    N1 2630   4.520   0.258   0.367 -0.3027 -0.3603 -0.8641
  172MPD1    H6 2631   4.488   0.346   0.327  0.5931  0.8181  1.0193
  172MPD1    H7 2632   4.449   0.187   0.351 -1.2049  0.6130 -1.1086
  173MPD1     C 2633   0.680   0.752  13.790  0.6930  0.5592 -0.3945
  173MPD1    C1 2634   0.619   0.746  13.915 -0.0871 -0.4550  0.0779
  173MPD1    C2 2635   0.698   0.710  14.024  0.4635 -0.2173  0.4448
  173MPD1    C3 2636   0.832   0.689  14.014  0.3947 -0.5047 -0.0721
  173MPD1    C4 2637   0.892   0.700  13.891  0.3001 -0.0710 -0.2068
  173MPD1    C5 2638   0.811   0.733  13.785 -0.2845 -0.2398  0.1495
  173MPD1     H 2639   0.635   0.703  14.112  0.4080  1.4948  0.5506
  173MPD1    H1 2640   0.997   0.681  13.869  0.5204 -0.9452  1.6243
  173MPD1    H2 2641   0.630   0.783  13.699 -0.4438 -0.2981 -0.0708
  173MPD1    H3 2642   0.853   0.740  13.686 -0.5009 -0.3272  0.0503
  173MPD1     N 2643   0.898   0.646  14.129 -0.4073  0.0068  0.1757
  173MPD1    H5 2644   0.843   0.617  14.210  1.7301 -1.8342  0.9760
  173MPD1    N1 2645   0.487   0.785  13.930  0.1077  0.2169  0.0171
  173MPD1    H6 2646   0.437   0.757  13.846  1.9282 -0.3475 -0.8922
  173MPD1    H7 2647   0.444   0.752  14.016  0.3857 -0.2504 -0.0236
  174MPD1     C 2648   1.552   4.618  14.142  0.4247 -0.6287  0.0226
  174MPD1    C1 2649   1.550   4.659  14.277 -0.2916 -0.7268 -0.1805
  174MPD1    C2 2650   1.473   0.044  14.317 -0.0104 -0.2246  0.3543
  174MPD1    C3 2651   1.393   0.115  14.229 -0.0779  0.0634 -0.1348
  174MPD1    C4 2652   1.405   0.081  14.098 -0.1197 -0.0021 -0.1762
  174MPD1    C5 2653   1.482   4.697  14.054 -0.5815 -1.2812 -0.4832
  174MPD1     H 2654   1.489   0.083  14.417 -0.3123 -1.4942  0.8976
  174MPD1    H1 2655   1.356   0.141  14.023  2.1801  0.2765 -1.4776
  174MPD1    H2 2656   1.599   4.525  14.113  2.4558  0.4123  0.0016
  174MPD1    H3 2657   1.489   4.686  13.946 -0.2317  1.9822 -0.7987
  174MPD1     N 2658   1.304   0.224  14.261  0.2503 -0.1347 -0.9508
  174MPD1    H5 2659   1.256   0.271  14.185  0.1828  1.8933  0.3311
  174MPD1    N1 2660   1.594   4.567  14.375 -0.3993  0.3141 -0.7740
  174MPD1    H6 2661   1.671   4.511  14.338  0.1404  0.3144  0.3110
  174MPD1    H7 2662   1.638   4.617  14.453 -0.4736  0.8537 -1.0776
  175MPD1     C 2663   3.927   1.148  16.111  0.0546 -0.1311  0.1310
  175MPD1    C1 2664   4.038   1.216  16.146 -0.8971  0.8864 -0.3698
  175MPD1    C2 2665   4.078   1.225  16.279 -0.3037 -0.2990 -0.9582
  175MPD1    C3 2666   3.995   1.165  16.377  0.2939  0.3649 -0.1140
  175MPD1    C4 2667   3.872   1.104  16.347  0.7278  0.3363  0.3393
  175MPD1    C5 2668   3.840   1.096  16.207 -0.5702 -0.1412  0.1070
  175MPD1     H 2669   4.158   1.294  16.302 -0.8757 -0.3539  1.1314
  175MPD1    H1 2670   3.795   1.072  16.417 -0.0696  1.5684  0.0286
  175MPD1    H2 2671   3.897   1.143  16.007 -2.1953 -0.2547  0.7718
  175MPD1    H3 2672   3.742   1.052  16.193 -0.2721 -0.1830 -1.7841
  175MPD1     N 2673   4.019   1.191  16.513  0.1678 -0.4301 -0.1440
  175MPD1    H5 2674   3.953   1.147  16.576 -0.4766 -3.4815 -2.9442
  175MPD1    N1 2675   4.097   1.295  16.050 -0.4596  1.0012  0.1968
  175MPD1    H6 2676   4.100   1.254  15.957  0.3768  1.4453  0.0187
  175MPD1    H7 2677   4.192   1.324  16.076 -0.4469  0.7373  0.4395
  176MPD1     C 2678   1.186   3.310   0.166  0.3115  0.4147 -0.1219
  176MPD1    C1 2679   1.129   3.211   0.088 -0.1729 -0.2822  0.7413
  176MPD1    C2 2680   1.130   3.224  17.636  0.2742  0.3072 -0.5081
  176MPD1    C3 2681   1.171   3.342  17.582 -0.2111  0.5978 -0.1023
  176MPD1    C4 2682   1.213   3.452  17.667 -0.1377  0.6783  0.5733
  176MPD1    C5 2683   1.216   3.432   0.114 -0.3322  0.0966 -0.0592
  176MPD1     H 2684   1.088   3.140  17.581  0.6514  0.1305 -0.5226
  176MPD1    H1 2685   1.246   3.549  17.633 -2.5823  0.0801 -3.5524
  176MPD1    H2 2686   1.204   3.297   0.272  0.5793  0.1312 -0.2008
  176MPD1    H3 2687   1.272   3.506   0.169  1.7830 -1.4270 -0.1650
  176MPD1     N 2688   1.147   3.362  17.447  0.0366 -0.1164  0.3122
  176MPD1    H5 2689   1.117   3.281  17.395 -1.2630  0.0723  0.7770
  176MPD1    N1 2690   1.127   3.082   0.153 -0.1740  0.0375 -0.2954
  176MPD1    H6 2691   1.089   3.092   0.247 -2.5491 -2.1051 -1.0655
  176MPD1    H7 2692   1.067   3.016   0.105 -1.9010  2.4140 -1.3818
  177MPD1     C 2693   4.037   2.863  10.548  0.3506  0.1675  0.6014
  177MPD1    C1 2694   4.074   2.859  10.413 -0.1003  0.6583  0.5808
  177MPD1    C2 2695   4.015   2.961  10.339 -0.0952 -0.1559 -0.6449
  177MPD1    C3 2696   3.946   3.070  10.391  0.7931 -0.0915  0.1891
  177MPD1    C4 2697   3.927   3.080  10.522 -0.7040  0.4827  0.1708
  177MPD1    C5 2698   3.968   2.975  10.600 -0.0828 -0.1391  0.5231
  177MPD1     H 2699   4.020   2.944  10.232  0.0748  2.2918 -1.0423
  177MPD1    H1 2700   3.882   3.164  10.575 -1.5677  1.2276 -1.7457
  177MPD1    H2 2701   4.069   2.784  10.614  0.4571 -1.6418 -1.6196
  177MPD1    H3 2702   3.956   2.988  10.707 -1.7259 -1.6366  0.5296
  177MPD1     N 2703   3.884   3.161  10.302  0.8438 -0.4834  0.1849
  177MPD1    H5 2704   3.912   3.156  10.204 -0.1453 -1.3697 -0.0583
  177MPD1    N1 2705   4.124   2.736  10.354  0.3711  0.0759  0.6572
  177MPD1    H6 2706   4.164   2.752  10.262 -1.8912 -0.2106 -0.3911
  177MPD1    H7 2707   4.185   2.682  10.414 -0.3016 -1.3336  0.0648
  178MPD1     C 2708   2.024   4.237   0.483 -0.0428 -0.3333 -0.3198
  178MPD1    C1 2709   2.120   4.321   0.427 -0.0400 -0.0514 -0.2615
  178MPD1    C2 2710   2.155   4.302   0.295  0.4906 -0.1496 -0.3180
  178MPD1    C3 2711   2.091   4.216   0.215 -0.0385 -0.5226  0.4935
  178MPD1    C4 2712   2.002   4.132   0.274  0.4325 -0.3678  0.5557
  178MPD1    C5 2713   1.975   4.139   0.402  0.0237  0.3599 -0.8708
  178MPD1     H 2714   2.227   4.366   0.247  0.0268  0.5171 -0.1226
  178MPD1    H1 2715   1.939   4.066   0.215  0.2928 -0.2635  0.5882
  178MPD1    H2 2716   1.996   4.235   0.588  2.4697 -0.5524  0.3553
  178MPD1    H3 2717   1.897   4.077   0.443  0.4080  2.7170  3.4083
  178MPD1     N 2718   2.117   4.192   0.074 -0.2822  0.2855 -0.2135
  178MPD1    H5 2719   2.063   4.121   0.026  0.1082 -0.9398  1.1699
  178MPD1    N1 2720   2.173   4.421   0.505  0.4694 -0.2312 -0.4549
  178MPD1    H6 2721   2.264   4.437   0.461  0.0188  1.4439 -0.7673
  178MPD1    H7 2722   2.179   4.393   0.603 -1.2777 -0.4844 -0.4153
  179MPD1     C 2723   1.532   2.288  15.649 -0.4715 -0.2485 -0.0238
  179MPD1    C1 2724   1.600   2.182  15.699  0.5375 -0.1297 -0.3328
  179MPD1    C2 2725   1.528   2.088  15.783  0.1179 -0.0369 -0.0290
  179MPD1    C3 2726   1.393   2.109  15.806 -0.2411  0.1738 -0.3680
  179MPD1    C4 2727   1.330   2.215  15.752  0.1528 -0.6115 -0.9635
  179MPD1    C5 2728   1.400   2.304  15.678  0.5880 -0.0107  0.3122
  179MPD1     H 2729   1.588   2.009  15.826  1.9858  0.9268 -0.8527
  179MPD1    H1 2730   1.223   2.230  15.766  0.0421 -2.5575  0.3088
  179MPD1    H2 2731   1.579   2.365  15.589 -0.6583 -0.3027 -0.2427
  179MPD1    H3 2732   1.344   2.382  15.627 -0.9394  0.0936  2.1495
  179MPD1     N 2733   1.317   2.025  15.889 -0.2050  0.1623 -0.5665
  179MPD1    H5 2734   1.228   2.062  15.920 -0.4522  0.0413 -1.1303
  179MPD1    N1 2735   1.735   2.148  15.670 -0.0312 -0.4855 -0.1080
  179MPD1    H6 2736   1.785   2.071  15.713 -0.2952 -0.6009 -0.0056
  179MPD1    H7 2737   1.800   2.226  15.667 -1.4155  0.7015  0.5633
  180MPD1     C 2738   1.568   3.368  14.699 -0.2172  0.3362 -0.0260
  180MPD1    C1 2739   1.531   3.392  14.567 -0.1304 -0.3462 -0.7067
  180MPD1    C2 2740   1.402   3.430  14.539 -0.4382 -0.5489 -0.5938
  180MPD1    C3 2741   1.313   3.455  14.646 -0.0160  1.1069 -0.5323
  180MPD1    C4 2742   1.355   3.441  14.776  0.6115 -0.5507  0.5708
  180MPD1    C5 2743   1.482   3.404  14.799 -0.0942 -0.4333  0.5060
  180MPD1     H 2744   1.372   3.453  14.437  0.5549 -0.3069 -0.8389
  180MPD1    H1 2745   1.301   3.463  14.867 -1.9082 -1.1196 -0.7978
  180MPD1    H2 2746   1.663   3.326  14.727 -1.5880 -0.9684  2.7101
  180MPD1    H3 2747   1.512   3.377  14.900  0.8359 -0.3613  0.2489
  180MPD1     N 2748   1.186   3.507  14.616  0.4591  0.0818  0.3121
  180MPD1    H5 2749   1.177   3.517  14.516 -0.6648  1.1332  0.5245
  180MPD1    N1 2750   1.619   3.352  14.463  0.0339 -0.5053  0.0017
  180MPD1    H6 2751   1.714   3.349  14.499 -0.6575 -0.5192  1.8190
  180MPD1    H7 2752   1.611   3.430  14.397 -0.1437  0.4625  1.1759
  181MPD1     C 2753   2.177   0.978  10.048 -0.5834  0.1500 -0.0457
  181MPD1    C1 2754   2.222   1.097   9.995 -0.3538  0.0386  0.3771
  181MPD1    C2 2755   2.348   1.148  10.020  0.0176 -0.5421  0.7143
  181MPD1    C3 2756   2.436   1.061  10.076  0.0647 -0.4323  0.3292
  181MPD1    C4 2757   2.392   0.933  10.116  0.3146  0.4214 -0.7311
  181MPD1    C5 2758   2.262   0.884  10.095  0.5223  0.3581  0.4432
  181MPD1     H 2759   2.368   1.254  10.004 -1.6480  0.2313  3.6266
  181MPD1    H1 2760   2.466   0.868  10.162  1.9504  2.2438 -0.8093
  181MPD1    H2 2761   2.071   0.955  10.052 -0.6260  0.4985  0.8479
  181MPD1    H3 2762   2.236   0.786  10.131 -0.5677  0.7946  0.8496
  181MPD1     N 2763   2.569   1.093  10.111  0.0562 -0.2819  0.2145
  181MPD1    H5 2764   2.633   1.023  10.148 -0.5276 -1.1520 -0.4277
  181MPD1    N1 2765   2.127   1.190   9.955 -0.2110  1.0036  0.5055
  181MPD1    H6 2766   2.045   1.144   9.917  0.2355 -1.2660  2.3066
  181MPD1    H7 2767   2.166   1.258   9.889  0.5844 -2.2232 -2.3875
  182MPD1     C 2768   0.821   4.307   1.364  0.7570  0.0525 -0.0886
  182MPD1    C1 2769   0.786   4.408   1.458  0.4250  0.5663 -0.8497
  182MPD1    C2 2770   0.652   4.446   1.469  0.0299 -0.5239  0.4251
  182MPD1    C3 2771   0.560   4.408   1.371 -0.0262 -0.1165  0.2011
  182MPD1    C4 2772   0.596   4.326   1.268 -0.4463  0.5556 -1.0776
  182MPD1    C5 2773   0.730   4.280   1.265  0.1217 -0.5950  0.0401
  182MPD1     H 2774   0.625   4.508   1.553 -2.4311 -1.4597  0.3331
  182MPD1    H1 2775   0.526   4.291   1.193  1.2624 -1.3447 -1.7797
  182MPD1    H2 2776   0.924   4.281   1.343  0.1520 -1.1157 -1.6243
  182MPD1    H3 2777   0.755   4.207   1.189  1.1122  1.5344 -1.6905
  182MPD1     N 2778   0.420   4.441   1.382  0.3980 -0.0890 -0.0590
  182MPD1    H5 2779   0.362   4.397   1.312 -0.5288  0.7030  0.2069
  182MPD1    N1 2780   0.876   4.450   1.551  0.1074  0.1787  0.6688
  182MPD1    H6 2781   0.975   4.452   1.527 -1.1692 -0.4222 -4.5115
  182MPD1    H7 2782   0.844   4.538   1.589  1.8785  0.4851  1.4593
  183MPD1     C 2783   4.709   0.586   9.410 -0.5048 -0.0550  0.6296
  183MPD1    C1 2784   4.648   0.475   9.414 -0.3434 -0.2437 -0.0498
  183MPD1    C2 2785   4.511   0.479   9.447 -0.7699 -0.1184  0.0627
  183MPD1    C3 2786   4.439   0.597   9.457 -0.1851  0.0783  0.2221
  183MPD1    C4 2787   4.511   0.714   9.429 -0.0842 -0.0165  0.1585
  183MPD1    C5 2788   4.647   0.708   9.405  0.5852 -0.4292  0.4316
  183MPD1     H 2789   4.455   0.388   9.465 -0.7790 -0.2805 -0.7728
  183MPD1    H1 2790   4.466   0.812   9.438 -0.2452 -0.1585  0.8863
  183MPD1    H2 2791   0.095   0.598   9.399 -0.4185 -1.0191  0.4117
  183MPD1    H3 2792   4.709   0.793   9.380 -0.2754  0.2669  0.6570
  183MPD1     N 2793   4.301   0.594   9.490  0.2976  0.5255 -0.1997
  183MPD1    H5 2794   4.256   0.512   9.530  0.6852  0.4256  0.0396
  183MPD1    N1 2795   4.717   0.356   9.373  0.2469 -1.0452 -0.3003
  183MPD1    H6 2796   0.093   0.360   9.406 -0.1593  0.0042  0.7586
  183MPD1    H7 2797   4.675   0.274   9.417 -0.2515 -0.1964  0.8135
  184MPD1     C 2798   3.052   2.430  11.042 -0.6372 -0.4095  0.7237
  184MPD1    C1 2799   2.921   2.430  11.007  0.2702 -0.4410 -0.0937
  184MPD1    C2 2800   2.893   2.461  10.882  0.0304 -0.0837  0.5542
  184MPD1    C3 2801   2.994   2.487  10.791 -0.9010 -0.3736 -0.7395
  184MPD1    C4 2802   3.127   2.461  10.819 -0.5069  0.0244  0.1472
  184MPD1    C5 2803   3.150   2.438  10.950  0.2762 -0.2866 -0.3000
  184MPD1     H 2804   2.790   2.455  10.851 -0.3996 -1.3370  2.1896
  184MPD1    H1 2805   3.201   2.475  10.741  0.9807  1.0272  1.7275
  184MPD1    H2 2806   3.091   2.408  11.141  0.3193 -0.3212  0.3631
  184MPD1    H3 2807   3.249   2.431  10.992  0.4420 -1.1126 -0.8269
  184MPD1     N 2808   2.957   2.522  10.663  0.9598  0.3322 -0.5471
  184MPD1    H5 2809   3.029   2.541  10.594  2.0036 -0.5352  0.3062
  184MPD1    N1 2810   2.827   2.440  11.113 -0.4599  0.6060  0.1855
  184MPD1    H6 2811   2.731   2.417  11.086 -0.5673 -0.7833  1.7225
  184MPD1    H7 2812   2.854   2.386  11.195  1.0440 -0.4622 -1.0198
  185MPD1     C 2813   2.069   2.661  10.183  0.0987 -1.2416  0.4508
  185MPD1    C1 2814   2.170   2.666  10.084 -0.1226 -0.1002  0.3140
  185MPD1    C2 2815   2.300   2.649  10.114 -0.3130 -0.8559  0.0323
  185MPD1    C3 2816   2.333   2.628  10.246 -0.7692 -0.3319 -0.0557
  185MPD1    C4 2817   2.237   2.610  10.340 -0.0637  0.1416 -0.4949
  185MPD1    C5 2818   2.109   2.621  10.308 -0.9236  0.1506 -0.3869
  185MPD1     H 2819   2.374   2.656  10.036 -1.4264 -1.5025 -1.0837
  185MPD1    H1 2820   2.259   2.592  10.445 -1.8694 -2.6273 -0.5966
  185MPD1    H2 2821   1.966   2.677  10.153  0.4280 -1.8128 -0.9769
  185MPD1    H3 2822   2.038   2.608  10.389 -1.5191  2.3148 -0.5616
  185MPD1     N 2823   2.462   2.609  10.295 -0.8719  0.4352 -0.3837
  185MPD1    H5 2824   2.475   2.587  10.393 -1.7213  0.9746 -0.1433
  185MPD1    N1 2825   2.134   2.680   9.952 -0.2864 -0.7766  0.2638
  185MPD1    H6 2826   2.061   2.751   9.954  0.7012  0.2619 -1.2364
  185MPD1    H7 2827   2.204   2.739   9.908 -1.2038  0.8867  1.0063
  186MPD1     C 2828   1.584   2.201  16.109 -0.1800  0.4416 -0.4630
  186MPD1    C1 2829   1.647   2.191  16.228  0.1210 -0.6782 -0.0586
  186MPD1    C2 2830   1.635   2.291  16.323  0.1586 -0.2846  0.3171
  186MPD1    C3 2831   1.562   2.407  16.291 -0.1589 -0.1038 -0.3972
  186MPD1    C4 2832   1.504   2.418  16.164  0.0040 -0.0816  0.2582
  186MPD1    C5 2833   1.510   2.313  16.077 -0.1042 -0.6654  0.0232
  186MPD1     H 2834   1.690   2.271  16.414  0.0138 -0.7022  0.3090
  186MPD1    H1 2835   1.448   2.509  16.145  1.9301  1.8628  3.6605
  186MPD1    H2 2836   1.600   2.123  16.036  0.0290  0.1447 -0.1033
  186MPD1    H3 2837   1.496   2.341  15.974  0.2641  1.7590  0.6360
  186MPD1     N 2838   1.547   2.515  16.383 -0.0421  0.7032 -0.0680
  186MPD1    H5 2839   1.524   2.611  16.361 -0.7339  0.0123 -2.3954
  186MPD1    N1 2840   1.703   2.071  16.269 -0.4935 -0.4805 -0.2501
  186MPD1    H6 2841   1.772   2.096  16.340 -0.5512 -0.3811 -0.2287
  186MPD1    H7 2842   1.742   2.014  16.194 -1.2268 -0.3464 -0.7356
  187MPD1     C 2843   0.899   0.509   0.474  0.6892  0.2438  0.3968
  187MPD1    C1 2844   0.826   0.470   0.365  0.1795 -0.2295 -0.3264
  187MPD1    C2 2845   0.848   0.349   0.305 -0.6869  0.5804  0.9411
  187MPD1    C3 2846   0.960   0.272   0.339 -0.4486 -0.2172  0.4767
  187MPD1    C4 2847   1.047   0.328   0.428  0.2492  0.2607  0.1787
  187MPD1    C5 2848   1.010   0.433   0.504 -0.5904 -0.2458  0.4054
  187MPD1     H 2849   0.783   0.318   0.224  1.6807 -0.3260 -0.6109
  187MPD1    H1 2850   1.147   0.288   0.441  0.6178  0.9695 -0.5676
  187MPD1    H2 2851   0.881   0.599   0.533 -0.4780 -0.7180  1.5135
  187MPD1    H3 2852   1.083   0.459   0.580 -0.3179 -0.3242  0.1716
  187MPD1     N 2853   0.991   0.152   0.282  0.4397 -0.2153 -0.1535
  187MPD1    H5 2854   1.068   0.100   0.324  1.7488  1.7478 -0.1078
  187MPD1    N1 2855   0.726   0.554   0.326  0.3659 -0.3888  0.2629
  187MPD1    H6 2856   0.722   0.635   0.388  1.0192  0.2790 -0.5693
  187MPD1    H7 2857   0.635   0.509   0.334  0.6840 -1.4658 -2.4923
  188MPD1     C 2858   4.336   0.075  10.113 -0.1547  0.2548 -0.3049
  188MPD1    C1 2859   4.274   4.698  10.188 -0.5068 -0.3163 -0.2320
  188MPD1    C2 2860   4.326   4.565  10.180 -0.9218  0.4696  0.2092
  188MPD1    C3 2861   4.403   4.523  10.071  0.4098 -0.2865 -0.3097
  188MPD1    C4 2862   4.418   4.618   9.975  0.7640 -0.3239 -0.0798
  188MPD1    C5 2863   4.389   0.029   9.998  0.3364 -0.0031  0.1613
  188MPD1     H 2864   4.310   4.491  10.257  1.9569  2.0644  2.3668
  188MPD1    H1 2865   4.470   4.603   9.881 -0.7554 -0.7533 -0.8373
  188MPD1    H2 2866   4.308   0.180  10.104 -0.4925  0.0013 -2.1610
  188MPD1    H3 2867   4.423   0.094   9.919  0.4082 -0.7844 -0.4491
  188MPD1     N 2868   4.458   4.400  10.047  0.5068 -0.2199 -0.0261
  188MPD1    H5 2869   4.521   4.388   9.968  0.4665  0.5822 -0.1738
  188MPD1    N1 2870   4.210   0.015  10.305  0.2162  0.2088  0.2143
  188MPD1    H6 2871   4.132   4.674  10.326 -0.6568  1.2333 -0.0216
  188MPD1    H7 2872   4.170   0.108  10.296  0.8332  0.3784 -0.7771
  189MPD1     C 2873   2.628   4.404   0.795 -0.3565 -0.6045 -0.3071
  189MPD1    C1 2874   2.485   4.400   0.818  0.2192 -0.0112 -0.0544
  189MPD1    C2 2875   2.412   4.506   0.777 -0.8057  0.4095  0.1348
  189MPD1    C3 2876   2.472   4.621   0.725 -0.6363 -0.0695 -0.4069
  189MPD1    C4 2877   2.608   4.631   0.717 -1.0637 -0.4222 -0.4351
  189MPD1    C5 2878   2.683   4.522   0.746 -0.5221 -0.8136  0.0833
  189MPD1     H 2879   2.304   4.502   0.788 -0.7861  0.1190  0.2385
  189MPD1    H1 2880   2.658   0.004   0.696  0.6999 -1.3001 -0.1455
  189MPD1    H2 2881   2.694   4.323   0.820  0.4064  0.2492  0.4435
  189MPD1    H3 2882   2.791   4.533   0.743 -0.5160 -1.1731 -0.9893
  189MPD1     N 2883   2.391   0.005   0.682 -0.8223 -0.5943 -0.6167
  189MPD1    H5 2884   2.292   4.710   0.698 -0.3865 -0.8659  1.7708
  189MPD1    N1 2885   2.423   4.278   0.847  0.0043 -0.0140 -0.5472
  189MPD1    H6 2886   2.339   4.292   0.903  1.2098 -1.0103  1.4918
  189MPD1    H7 2887   2.486   4.231   0.911  0.6548  0.9421 -0.4809
  190MPD1     C 2888   0.563   4.003  15.842 -0.5088 -0.2699 -0.6151
  190MPD1    C1 2889   0.646   3.919  15.761 -0.7471 -0.3461  0.3697
  190MPD1    C2 2890   0.723   3.824  15.827 -0.0299 -0.6114  0.3154
  190MPD1    C3 2891   0.728   3.820  15.964 -0.3483 -0.4879  0.4578
  190MPD1    C4 2892   0.651   3.905  16.042 -0.6409  0.2691  0.0250
  190MPD1    C5 2893   0.565   3.986  15.974  0.1512  0.6430  0.4636
  190MPD1     H 2894   0.786   3.755  15.772  0.4082 -0.2934  0.4145
  190MPD1    H1 2895   0.649   3.897  16.150 -2.3887  2.6019  0.1662
  190MPD1    H2 2896   0.501   4.072  15.787  0.8217 -0.2393 -2.0842
  190MPD1    H3 2897   0.493   4.040  16.034  1.3798  2.2539  0.4751
  190MPD1     N 2898   0.831   3.740  16.018  0.4201 -0.3705  0.8509
  190MPD1    H5 2899   0.879   3.669  15.963 -2.7817 -0.7872 -1.3870
  190MPD1    N1 2900   0.670   3.942  15.622 -0.2610 -0.1962  0.1228
  190MPD1    H6 2901   0.586   3.979  15.580 -1.1231 -0.0192  1.9894
  190MPD1    H7 2902   0.707   3.863  15.569 -2.3253 -1.1874  0.1747
  191MPD1     C 2903   0.317   0.615  13.239  0.0541  0.2766 -0.6370
  191MPD1    C1 2904   0.394   0.594  13.130  0.3530 -0.2778 -0.3511
  191MPD1    C2 2905   0.381   0.693  13.028 -0.1269 -0.5738  0.1883
  191MPD1    C3 2906   0.322   0.813  13.049  0.3177  0.2285 -0.1304
  191MPD1    C4 2907   0.265   0.839  13.166  0.1861  0.2814 -0.8732
  191MPD1    C5 2908   0.249   0.738  13.252 -0.2397 -0.4656 -0.2747
  191MPD1     H 2909   0.409   0.663  12.928  0.0367 -2.0036  0.6619
  191MPD1    H1 2910   0.226   0.935  13.197  0.1141  0.0994 -0.3984
  191MPD1    H2 2911   0.302   0.536  13.312 -1.8528  1.3854  0.1641
  191MPD1    H3 2912   0.196   0.755  13.344  2.9120 -1.5894  1.7736
  191MPD1     N 2913   0.323   0.896  12.941  1.4844  0.4118  0.2778
  191MPD1    H5 2914   0.368   0.855  12.859 -1.4714  0.0605 -1.1812
  191MPD1    N1 2915   0.452   0.472  13.101  0.5217 -0.3152  0.5515
  191MPD1    H6 2916   0.522   0.470  13.027 -0.1377 -0.1122 -0.0649
  191MPD1    H7 2917   0.484   0.428  13.187 -3.4252 -2.5331  0.8478
  192MPD1     C 2918   0.416   1.929  12.717 -0.1115  0.0444 -0.1403
  192MPD1    C1 2919   0.354   1.856  12.817  0.8327  0.0872  0.0073
  192MPD1    C2 2920   0.319   1.728  12.791 -0.9177 -0.4805 -0.4034
  192MPD1    C3 2921   0.352   1.666  12.672  0.5640  0.2548 -0.0967
  192MPD1    C4 2922   0.416   1.737  12.577  0.2926 -0.2520 -0.4338
  192MPD1    C5 2923   0.432   1.872  12.597  0.2002 -0.1248 -0.1656
  192MPD1     H 2924   0.272   1.673  12.873  2.8768 -1.2949  1.2209
  192MPD1    H1 2925   0.429   1.696  12.477  0.8766 -1.8106  0.2695
  192MPD1    H2 2926   0.444   2.034  12.723 -0.7085  0.1616  0.5902
  192MPD1    H3 2927   0.477   1.922  12.512 -1.4878  1.1669 -0.3056
  192MPD1     N 2928   0.337   1.524  12.646  0.2427 -0.1959 -0.0370
  192MPD1    H5 2929   0.375   1.494  12.557 -0.4606  0.3304 -0.5179
  192MPD1    N1 2930   0.301   1.918  12.936  0.4253  0.2853  0.1082
  192MPD1    H6 2931   0.356   1.998  12.968  0.0046  0.2889  0.8022
  192MPD1    H7 2932   0.293   1.853  13.013  1.6485 -0.7559 -0.6402
  193MPD1     C 2933   0.370   0.742  15.996 -0.1740  0.3548  0.2424
  193MPD1    C1 2934   0.341   0.810  16.113 -0.1183 -0.7979  0.5339
  193MPD1    C2 2935   0.443   0.812  16.209 -0.2895  0.0804  0.1611
  193MPD1    C3 2936   0.570   0.764  16.183  0.6576 -0.1758  0.0340
  193MPD1    C4 2937   0.594   0.702  16.066 -0.0594 -0.3519 -0.6014
  193MPD1    C5 2938   0.497   0.692  15.971  0.5325  0.2342 -0.1491
  193MPD1     H 2939   0.414   0.851  16.306  1.2996  0.5067  0.4655
  193MPD1    H1 2940   0.690   0.662  16.035 -0.7603 -2.5203  0.0464
  193MPD1    H2 2941   0.291   0.734  15.922  0.0257  2.9599 -0.2700
  193MPD1    H3 2942   0.508   0.641  15.876 -1.4406  3.2871 -2.0445
  193MPD1     N 2943   0.665   0.731  16.280 -0.3793  0.0131  0.6074
  193MPD1    H5 2944   0.743   0.667  16.267  1.3335  1.8562  1.8796
  193MPD1    N1 2945   0.210   0.862  16.146 -0.0906  0.3684  0.1771
  193MPD1    H6 2946   0.220   0.940  16.210  2.4826 -1.3048  1.8550
  193MPD1    H7 2947   0.157   0.894  16.066  1.4302 -0.2630 -1.0779
  194MPD1     C 2948   2.585   3.154  17.566 -0.3622 -0.0522 -0.2690
  194MPD1    C1 2949   2.690   3.196  17.641 -0.5047  0.1460 -0.2302
  194MPD1    C2 2950   2.761   3.101   0.022  0.3075  0.5015  0.8733
  194MPD1    C3 2951   2.731   2.965   0.021 -0.3451 -0.0816 -0.7512
  194MPD1    C4 2952   2.624   2.929  17.627 -0.1197 -0.0004  0.3130
  194MPD1    C5 2953   2.555   3.020  17.548 -0.6339 -0.0177  0.3153
  194MPD1     H 2954   2.846   3.134   0.080  0.6098 -1.8006  1.7712
  194MPD1    H1 2955   2.584   2.829  17.621 -1.9547  0.7195  0.6211
  194MPD1    H2 2956   2.517   3.228  17.528 -0.8377  0.2778  1.2242
  194MPD1    H3 2957   2.461   2.992  17.501 -1.1254 -0.0766  1.3353
  194MPD1     N 2958   2.794   2.866   0.096 -0.2681  0.1165 -0.5769
  194MPD1    H5 2959   2.761   2.774   0.068  0.3821  0.0055 -0.9724
  194MPD1    N1 2960   2.695   3.326  17.685  0.0373  0.4691 -0.2467
  194MPD1    H6 2961   2.794   3.346   0.008  0.2281 -1.5946  1.6918
  194MPD1    H7 2962   2.667   3.400  17.620  0.7262  1.4425  0.5665
  195MPD1     C 2963   1.147   2.587   0.411 -0.1687  0.0356 -0.2623
  195MPD1    C1 2964   1.195   2.707   0.370  0.7701 -0.7281 -0.0168
  195MPD1    C2 2965   1.110   2.818   0.386  0.3792 -0.0928 -0.4014
  195MPD1    C3 2966   0.973   2.803   0.415 -0.5225  0.2320 -0.0864
  195MPD1    C4 2967   0.936   2.682   0.448  0.0040 -0.1272  0.2897
  195MPD1    C5 2968   1.022   2.579   0.458 -0.0761 -0.2644 -0.3185
  195MPD1     H 2969   1.150   2.918   0.375  1.4091 -0.3409  1.0865
  195MPD1    H1 2970   0.834   2.668   0.481  1.1204 -2.7592  2.6690
  195MPD1    H2 2971   1.202   2.494   0.409 -0.7879 -0.2996 -1.4596
  195MPD1    H3 2972   0.985   2.480   0.479 -0.2942  0.2889  1.9390
  195MPD1     N 2973   0.875   2.907   0.430  0.6165 -0.5827  0.4659
  195MPD1    H5 2974   0.780   2.875   0.443  0.6160  0.0343  2.0448
  195MPD1    N1 2975   1.334   2.729   0.362 -0.4075  0.2367 -0.0573
  195MPD1    H6 2976   1.393   2.656   0.322  0.2855  1.4166 -1.1972
  195MPD1    H7 2977   1.344   2.815   0.309 -1.6786  0.0655 -0.5590
  196MPD1     C 2978   0.166   4.587   0.673 -0.5187  0.1178 -0.2596
  196MPD1    C1 2979   0.236   4.467   0.675  0.1763 -0.1487 -0.1594
  196MPD1    C2 2980   0.363   4.470   0.735 -0.2653  0.2733  0.0628
  196MPD1    C3 2981   0.417   4.588   0.790  0.2942 -0.4684  0.2231
  196MPD1    C4 2982   0.345   4.703   0.774 -0.5971 -0.8757  0.1795
  196MPD1    C5 2983   0.229   4.703   0.720 -0.3361 -0.0661  0.5097
  196MPD1     H 2984   0.421   4.380   0.752 -1.3303  0.0407  2.4335
  196MPD1    H1 2985   0.386   0.070   0.822 -1.5282  0.5821 -1.6819
  196MPD1    H2 2986   0.065   4.604   0.636 -1.2266 -0.7320  1.3050
  196MPD1    H3 2987   0.168   0.071   0.721  1.3255  1.0841 -1.1507
  196MPD1     N 2988   0.536   4.599   0.859  0.1119 -0.3764 -0.0412
  196MPD1    H5 2989   0.551   4.684   0.913  0.6409 -0.3465 -0.2310
  196MPD1    N1 2990   0.183   4.347   0.615  0.3810  0.2537  0.3404
  196MPD1    H6 2991   0.113   4.363   0.543 -0.2739 -0.4264  0.8268
  196MPD1    H7 2992   0.249   4.276   0.583 -0.7270 -0.4120 -0.4538
  197MPD1     C 2993   0.221   1.853   0.045 -0.0423  0.1809  0.8060
  197MPD1    C1 2994   0.263   1.946  17.642  0.1478  0.6441 -0.7017
  197MPD1    C2 2995   0.210   1.935  17.513 -0.4047 -0.1199 -0.7086
  197MPD1    C3 2996   0.119   1.842  17.468 -0.7079 -0.0654 -0.3624
  197MPD1    C4 2997   0.080   1.747  17.559 -0.7488 -0.6157 -0.1179
  197MPD1    C5 2998   0.123   1.759   0.001  0.5850 -0.1762 -0.0221
  197MPD1     H 2999   0.238   2.018  17.450  0.1083  2.7355  3.2433
  197MPD1    H1 3000   0.005   1.674  17.533 -0.8367 -0.6081  0.1086
  197MPD1    H2 3001   0.245   1.852   0.151  0.7049 -1.1826  0.6286
  197MPD1    H3 3002   0.091   1.694   0.081 -0.6699  1.0171  0.4518
  197MPD1     N 3003   0.070   1.847  17.336 -0.5458  0.3891  0.3279
  197MPD1    H5 3004   0.002   1.775  17.313 -0.4780  0.2063  0.6974
  197MPD1    N1 3005   0.321   2.071  17.679  0.5168 -0.0770 -0.0899
  197MPD1    H6 3006   0.382   2.065   0.073 -0.1194  0.1004  0.4073
  197MPD1    H7 3007   0.362   2.126  17.605  1.2540 -1.2439 -0.5321
  198MPD1     C 3008   1.155   3.853  15.878 -0.1598 -0.6920  0.6997
  198MPD1    C1 3009   1.290   3.862  15.875 -0.0680  0.2711  0.2258
  198MPD1    C2 3010   1.361   3.981  15.894 -0.5880 -0.1312 -0.5913
  198MPD1    C3 3011   1.283   4.099  15.906  0.3045 -0.0202 -0.3722
  198MPD1    C4 3012   1.150   4.093  15.919  0.7497  0.0884  0.0747
  198MPD1    C5 3013   1.086   3.970  15.907 -0.4832 -0.2352  0.0249
  198MPD1     H 3014   1.470   3.982  15.901 -0.6823 -0.4255  0.9026
  198MPD1    H1 3015   1.090   4.173  15.960  0.2621  0.2538 -0.9531
  198MPD1    H2 3016   1.107   3.756  15.873 -1.8389  0.0733  1.8680
  198MPD1    H3 3017   0.984   3.969  15.944  0.4400 -0.2859  2.5694
  198MPD1     N 3018   1.355   4.218  15.920 -0.4055  0.5108  0.6496
  198MPD1    H5 3019   1.456   4.212  15.924 -0.3831  1.0661  0.9724
  198MPD1    N1 3020   1.358   3.741  15.865  0.3737 -0.2680  0.3317
  198MPD1    H6 3021   1.448   3.760  15.821  1.2313 -2.1520  1.2595
  198MPD1    H7 3022   1.306   3.667  15.818 -1.3484  2.0488 -1.3902
  199MPD1     C 3023   2.521   0.175   9.872  0.2585 -0.6079  0.9842
  199MPD1    C1 3024   2.547   0.275   9.964  0.1881 -0.6210 -0.3330
  199MPD1    C2 3025   2.555   0.405   9.912 -0.0842 -0.0548  0.5835
  199MPD1    C3 3026   2.563   0.435   9.774  0.1008  0.7163 -0.4310
  199MPD1    C4 3027   2.560   0.331   9.689  0.5224  0.0616 -0.0824
  199MPD1    C5 3028   2.540   0.205   9.734 -0.1793  0.0301 -0.1802
  199MPD1     H 3029   2.547   0.490   9.978 -2.4528  0.6732 -0.6730
  199MPD1    H1 3030   2.560   0.348   9.582 -2.2033  0.0227 -0.0875
  199MPD1    H2 3031   2.510   0.069   9.894  0.5612 -0.6251  1.0565
  199MPD1    H3 3032   2.531   0.123   9.664  2.3903  1.1354 -1.8019
  199MPD1     N 3033   2.555   0.564   9.720  0.1098 -0.1867 -0.2159
  199MPD1    H5 3034   2.542   0.571   9.620  1.4626 -0.4942 -0.4166
  199MPD1    N1 3035   2.525   0.252  10.103  0.0011 -0.0165  1.1243
  199MPD1    H6 3036   2.563   0.163  10.131 -0.1671 -1.0680 -1.9251
  199MPD1    H7 3037   2.554   0.334  10.156  0.3086  1.3601 -1.1596
  200MPD1     C 3038   1.951   1.272  14.939  0.3355 -0.5135  0.0449
  200MPD1    C1 3039   1.982   1.240  14.810 -0.3289  0.3866 -0.0799
  200MPD1    C2 3040   2.108   1.272  14.765 -0.4163  0.1097  0.7824
  200MPD1    C3 3041   2.210   1.315  14.846 -0.4172  0.2641  0.0435
  200MPD1    C4 3042   2.186   1.321  14.985 -0.5856 -0.1800 -0.2345
  200MPD1    C5 3043   2.053   1.310  15.024  0.0781 -0.3248 -0.1668
  200MPD1     H 3044   2.142   1.263  14.662 -0.4775  1.1263  0.6695
  200MPD1    H1 3045   2.265   1.346  15.055 -0.6450 -0.2307 -0.1503
  200MPD1    H2 3046   1.850   1.259  14.976  0.8036 -1.0055  1.1660
  200MPD1    H3 3047   2.034   1.332  15.128  2.1362  0.8539 -0.0415
  200MPD1     N 3048   2.334   1.338  14.778 -0.1729 -0.0687 -0.0898
  200MPD1    H5 3049   2.345   1.305  14.683 -1.3120  0.3940 -0.3818
  200MPD1    N1 3050   1.882   1.211  14.717 -0.2309  0.3393  0.2191
  200MPD1    H6 3051   1.833   1.135  14.765 -0.0743  1.6619  2.4591
  200MPD1    H7 3052   1.912   1.167  14.630 -0.4963 -2.0713  1.3249
  201MPD1     C 3053   0.171   0.362  13.485  0.8348 -0.7621 -0.2361
  201MPD1    C1 3054   0.267   0.266  13.465  0.0544 -0.9319  0.1497
  201MPD1    C2 3055   0.239   0.134  13.500 -0.8114  0.4379  0.5209
  201MPD1    C3 3056   0.113   0.088  13.541  0.3852  0.0369  0.0761
  201MPD1    C4 3057   0.022   0.187  13.560 -0.0492  0.0381  0.8804
  201MPD1    C5 3058   0.045   0.319  13.529 -0.5486 -0.3986 -0.2224
  201MPD1     H 3059   0.321   0.064  13.484 -0.1825  0.8558  1.8584
  201MPD1    H1 3060   4.642   0.165  13.593 -0.8675 -0.0089 -1.7010
  201MPD1    H2 3061   0.176   0.468  13.465 -1.3432  0.0632  3.5571
  201MPD1    H3 3062   4.685   0.391  13.534  0.9443  1.1184  2.3568
  201MPD1     N 3063   0.091   4.672  13.554  0.4972  0.0749 -0.2942
  201MPD1    H5 3064   0.176   4.615  13.557  0.4993  0.1500  1.1303
  201MPD1    N1 3065   0.398   0.304  13.437 -0.4454 -0.3394 -0.7002
  201MPD1    H6 3066   0.396   0.388  13.380  0.2573 -1.2793 -2.1084
  201MPD1    H7 3067   0.444   0.233  13.380  0.3373  1.1961 -1.9750
  202MPD1     C 3068   4.146   4.616   9.102 -0.7237  0.3804  0.1186
  202MPD1    C1 3069   4.235   4.512   9.129  0.1497 -0.0835  0.4575
  202MPD1    C2 3070   4.241   4.473   9.262  0.3596  0.2096  0.5167
  202MPD1    C3 3071   4.117   4.481   9.338 -0.0897  0.7162 -0.1124
  202MPD1    C4 3072   4.014   4.551   9.288 -0.4461  0.4029  0.1547
  202MPD1    C5 3073   4.047   4.637   9.191 -0.1464 -0.4859  0.0582
  202MPD1     H 3074   4.321   4.405   9.288  0.6733  0.5017  0.3108
  202MPD1    H1 3075   3.923   4.560   9.347  0.9609 -0.6833  2.5121
  202MPD1    H2 3076   4.159   4.689   9.024  0.1204  1.7837  1.5802
  202MPD1    H3 3077   3.981   0.001   9.180 -1.3007 -1.6630 -2.0447
  202MPD1     N 3078   4.098   4.426   9.465 -0.0146  0.5534  0.0683
  202MPD1    H5 3079   4.015   4.455   9.515 -0.2533 -1.2980  0.7664
  202MPD1    N1 3080   4.355   4.507   9.057  0.3282  0.4394  0.1419
  202MPD1    H6 3081   4.339   4.502   8.957 -0.8827  0.6626  0.3244
  202MPD1    H7 3082   4.410   4.422   9.070  0.4497  0.8469  2.3452
  203MPD1     C 3083   3.576   0.752  13.083  0.0865  0.1273  0.4277
  203MPD1    C1 3084   3.488   0.746  12.975 -0.4705  0.4839 -0.1523
  203MPD1    C2 3085   3.449   0.619  12.940 -0.3184 -0.6811 -0.6309
  203MPD1    C3 3086   3.493   0.499  13.006  0.4515  1.0131  0.2259
  203MPD1    C4 3087   3.590   0.509  13.101  0.0192  0.6079 -0.1784
  203MPD1    C5 3088   3.621   0.640  13.146  0.0404  0.4099 -0.0089
  203MPD1     H 3089   3.370   0.610  12.867 -0.3623 -2.1604 -0.3925
  203MPD1    H1 3090   3.630   0.419  13.147 -1.0397 -0.0274 -0.4937
  203MPD1    H2 3091   3.621   0.845  13.115 -2.2307  0.9408  1.3352
  203MPD1    H3 3092   3.684   0.641  13.234  0.1307 -1.0223 -0.0657
  203MPD1     N 3093   3.442   0.372  12.977  0.0014  0.0246  0.1053
  203MPD1    H5 3094   3.382   0.361  12.895  0.3859  1.9467 -0.4509
  203MPD1    N1 3095   3.447   0.862  12.909  0.2600  0.5765 -0.6078
  203MPD1    H6 3096   3.345   0.863  12.911  0.2948 -1.4637  1.6260
  203MPD1    H7 3097   3.469   0.936  12.976 -0.6252 -0.1760  0.5073
  204MPD1     C 3098   2.910   0.952   0.619 -0.1985  0.1680 -0.1645
  204MPD1    C1 3099   3.014   0.995   0.543  0.2373 -0.2786  0.6617
  204MPD1    C2 3100   3.074   0.901   0.461 -0.0275  0.1214  0.8479
  204MPD1    C3 3101   3.043   0.767   0.476  0.1319 -0.2750 -0.3002
  204MPD1    C4 3102   2.954   0.725   0.569 -0.0142 -0.2267 -0.0069
  204MPD1    C5 3103   2.885   0.818   0.633  0.6896 -0.2606  0.7223
  204MPD1     H 3104   3.155   0.934   0.397 -3.1184  1.4640 -2.3263
  204MPD1    H1 3105   2.920   0.622   0.579 -0.8057 -0.0483 -0.9551
  204MPD1    H2 3106   2.852   1.023   0.677 -0.3507 -1.3071  1.5217
  204MPD1    H3 3107   2.799   0.788   0.692  0.6276  2.9369  2.2369
  204MPD1     N 3108   3.109   0.693   0.385 -0.2848 -1.0992  0.2258
  204MPD1    H5 3109   3.169   0.739   0.316  2.2117 -1.8424  1.8994
  204MPD1    N1 3110   3.040   1.129   0.531 -0.5455  0.1303 -0.3156
  204MPD1    H6 3111   3.140   1.147   0.529 -0.7828  1.7208  2.3393
  204MPD1    H7 3112   3.001   1.184   0.607 -1.8830 -0.7785 -0.3344
  205MPD1     C 3113   2.581   3.678   0.291  0.3310 -0.8834 -0.2337
  205MPD1    C1 3114   2.604   3.736   0.405 -0.1052 -0.0306  0.0008
  205MPD1    C2 3115   2.710   3.825   0.426 -0.0989  0.5390 -0.5941
  205MPD1    C3 3116   2.798   3.850   0.322  0.1161 -0.3267 -0.0524
  205MPD1    C4 3117   2.773   3.789   0.199 -0.0523 -0.1758  0.5456
  205MPD1    C5 3118   2.666   3.708   0.182 -0.3228  0.0676 -0.3913
  205MPD1     H 3119   2.728   3.876   0.520 -1.1326  0.6385 -0.4547
  205MPD1    H1 3120   2.822   3.823   0.108 -1.1868  2.5627  0.9626
  205MPD1    H2 3121   2.495   3.618   0.264 -0.2622  0.4505 -1.2927
  205MPD1    H3 3122   2.636   3.677   0.083  0.8142  0.7880 -0.9603
  205MPD1     N 3123   2.910   3.934   0.336 -0.1906  0.1173 -0.1598
  205MPD1    H5 3124   2.965   3.963   0.256 -0.3640  1.8155  0.3215
  205MPD1    N1 3125   2.508   3.733   0.511 -0.8291  0.2855  0.9994
  205MPD1    H6 3126   2.554   3.740   0.601  0.7938  0.6978  0.1432
  205MPD1    H7 3127   2.452   3.648   0.504 -0.7378  0.0431  3.4280
  206MPD1     C 3128   3.296   2.531  16.738  1.2045 -0.1431 -0.4016
  206MPD1    C1 3129   3.275   2.656  16.788  0.4061 -0.2648 -0.3289
  206MPD1    C2 3130   3.235   2.751  16.699  0.0762 -0.9733  0.4857
  206MPD1    C3 3131   3.236   2.731  16.563 -0.5690 -0.1617  0.2295
  206MPD1    C4 3132   3.272   2.609  16.516 -0.0309  0.4073 -0.0199
  206MPD1    C5 3133   3.296   2.505  16.601 -0.3268  0.6076  0.0663
  206MPD1     H 3134   3.194   2.843  16.739 -0.4075 -0.7144 -0.6049
  206MPD1    H1 3135   3.273   2.592  16.409 -1.0173 -0.5764  0.1328
  206MPD1    H2 3136   3.325   2.443  16.795 -1.5657 -0.3606  0.6874
  206MPD1    H3 3137   3.315   2.410  16.553  1.8617  0.4169  1.3116
  206MPD1     N 3138   3.223   2.843  16.474 -0.2397 -0.0110  0.0654
  206MPD1    H5 3139   3.244   2.823  16.377 -2.0172  0.5604 -0.4392
  206MPD1    N1 3140   3.267   2.674  16.929 -0.2285 -0.3081  0.3808
  206MPD1    H6 3141   3.281   2.772  16.954 -0.0570 -0.8548  2.3791
  206MPD1    H7 3142   3.327   2.612  16.983  1.1237  1.6430  1.1245
  207MPD1     C 3143   0.705   4.344  10.331 -0.2871 -0.2494 -0.3697
  207MPD1    C1 3144   0.822   4.365  10.268 -1.1675  0.0609 -0.4963
  207MPD1    C2 3145   0.912   4.449  10.325  0.4710 -0.1219  0.1885
  207MPD1    C3 3146   0.881   4.529  10.438 -0.6393 -0.5126  0.2029
  207MPD1    C4 3147   0.763   4.500  10.499 -0.4066  0.2313 -0.1287
  207MPD1    C5 3148   0.675   4.409  10.449  0.3405  0.0669 -0.1947
  207MPD1     H 3149   1.007   4.468  10.276  1.3321 -1.3867  1.3598
  207MPD1    H1 3150   0.737   4.555  10.589 -0.9468  0.0763 -0.1944
  207MPD1    H2 3151   0.626   4.282  10.290  1.7977 -3.0931 -0.1363
  207MPD1    H3 3152   0.578   4.398  10.495  0.6898 -1.4376  0.1659
  207MPD1     N 3153   0.969   4.628  10.490  0.1132 -0.4533 -0.3108
  207MPD1    H5 3154   0.938   4.660  10.581  0.9273 -0.1706 -0.1346
  207MPD1    N1 3155   0.838   4.305  10.141  0.2805 -0.1137  0.3067
  207MPD1    H6 3156   0.937   4.300  10.118 -0.3528  1.5553 -2.7055
  207MPD1    H7 3157   0.786   4.218  10.134 -0.0051 -0.0716  1.8609
  208MPD1     C 3158   3.824   4.542   0.224 -0.0830 -0.7840  0.2468
  208MPD1    C1 3159   3.771   4.419   0.252  0.2043  0.6365 -0.7791
  208MPD1    C2 3160   3.824   4.327   0.348 -0.3182  0.1506 -0.5974
  208MPD1    C3 3161   3.931   4.367   0.431 -0.2594 -0.1519  0.7453
  208MPD1    C4 3162   3.973   4.498   0.414  0.2324 -0.5929 -0.2004
  208MPD1    C5 3163   3.934   4.581   0.310 -0.6003 -0.2469 -0.1747
  208MPD1     H 3164   3.767   4.235   0.354 -0.9627  0.4825 -1.4826
  208MPD1    H1 3165   4.065   4.530   0.461  0.9292 -1.8217 -0.7186
  208MPD1    H2 3166   3.793   4.607   0.143 -0.2667 -2.0402 -0.6919
  208MPD1    H3 3167   3.996   4.668   0.293  0.5350 -0.4727  2.8224
  208MPD1     N 3168   3.978   4.279   0.529  0.2595  0.3098  0.5198
  208MPD1    H5 3169   3.947   4.182   0.531 -1.2809  0.7636 -1.3517
  208MPD1    N1 3170   3.650   4.386   0.189 -0.2850 -0.1196  0.2755
  208MPD1    H6 3171   3.656   4.429   0.097  4.9842 -0.2069  0.5605
  208MPD1    H7 3172   3.647   4.285   0.178  2.2523 -0.1322 -0.3031
  209MPD1     C 3173   1.434   0.209  12.405  0.1237  0.0640  0.1338
  209MPD1    C1 3174   1.518   0.301  12.350 -0.5039  0.6695  0.1289
  209MPD1    C2 3175   1.526   0.306  12.211 -0.2825  0.8242 -0.1117
  209MPD1    C3 3176   1.466   0.213  12.126  0.6247 -0.0231 -0.3607
  209MPD1    C4 3177   1.398   0.105  12.189  0.4116 -0.1641 -0.8540
  209MPD1    C5 3178   1.377   0.116  12.322 -0.9289  0.3395 -0.3802
  209MPD1     H 3179   1.590   0.376  12.158  0.3756  1.0899  1.0389
  209MPD1    H1 3180   1.351   0.016  12.150 -0.4926 -1.0219  2.2305
  209MPD1    H2 3181   1.422   0.203  12.513 -2.4687  0.1763 -0.1488
  209MPD1    H3 3182   1.317   0.040  12.371 -0.3305  0.9624  1.3456
  209MPD1     N 3183   1.487   0.227  11.986 -0.0710  0.0744 -0.2363
  209MPD1    H5 3184   1.522   0.320  11.964  0.7382 -0.3205 -0.5634
  209MPD1    N1 3185   1.571   0.396  12.440  0.8512 -0.5429 -0.2235
  209MPD1    H6 3186   1.652   0.447  12.406 -0.9305  1.0851 -1.9864
  209MPD1    H7 3187   1.591   0.356  12.532  1.4233 -1.6784 -0.8352
  210MPD1     C 3188   1.918   0.810  11.324 -0.7133 -0.5866 -0.6781
  210MPD1    C1 3189   1.910   0.788  11.461 -0.2232  0.1866 -0.2796
  210MPD1    C2 3190   1.818   0.697  11.507 -0.0610  0.2544  0.1387
  210MPD1    C3 3191   1.729   0.624  11.427  0.3217 -0.0010 -0.5434
  210MPD1    C4 3192   1.738   0.647  11.290 -0.5029 -0.5838 -0.2524
  210MPD1    C5 3193   1.828   0.740  11.246  0.3276 -0.3704  0.5431
  210MPD1     H 3194   1.812   0.677  11.613 -1.4058 -0.5625 -0.0967
  210MPD1    H1 3195   1.684   0.585  11.219 -1.1354 -0.9199  0.5222
  210MPD1    H2 3196   1.993   0.876  11.285  0.3767 -2.0838 -1.1050
  210MPD1    H3 3197   1.840   0.758  11.140  0.8649  1.4218  0.8985
  210MPD1     N 3198   1.638   0.532  11.471  0.7617  0.7377 -0.5064
  210MPD1    H5 3199   1.592   0.479  11.398 -0.9897 -1.4597  2.1923
  210MPD1    N1 3200   2.011   0.835  11.544 -0.0653 -0.2386  0.0194
  210MPD1    H6 3201   1.981   0.834  11.641  2.6865 -1.6628  0.8449
  210MPD1    H7 3202   2.047   0.925  11.511  0.0005 -0.3497 -0.2093
  211MPD1     C 3203   3.801   0.101  16.298  0.4269 -0.2540  0.5752
  211MPD1    C1 3204   3.697   0.085  16.383 -0.2636 -0.1532 -0.8179
  211MPD1    C2 3205   3.588   0.156  16.360  0.1786 -0.9319 -0.3382
  211MPD1    C3 3206   3.567   0.245  16.258  0.4333  0.4261  0.2763
  211MPD1    C4 3207   3.674   0.255  16.162 -0.4172 -0.0803 -0.0492
  211MPD1    C5 3208   3.790   0.187  16.192 -1.3550  0.6233 -0.7919
  211MPD1     H 3209   3.513   0.141  16.437 -0.4402 -0.0665 -0.7722
  211MPD1    H1 3210   3.668   0.319  16.075 -0.0750  1.2936  0.9431
  211MPD1    H2 3211   3.901   0.064  16.316  1.2263  0.6395 -2.0231
  211MPD1    H3 3212   3.862   0.205  16.113  1.2022 -0.7690  1.2432
  211MPD1     N 3213   3.446   0.327  16.266 -0.0929 -1.2829  0.4266
  211MPD1    H5 3214   3.382   0.304  16.342  1.6341 -0.7630  2.0453
  211MPD1    N1 3215   3.704   0.003  16.499 -0.2066 -0.0641 -0.1235
  211MPD1    H6 3216   3.612   4.699  16.536  0.3948 -1.5374  0.3501
  211MPD1    H7 3217   3.752   4.638  16.472 -0.1726  0.4974 -1.8540
  212MPD1     C 3218   2.814   3.178  16.416 -0.1639  0.1891  0.0841
  212MPD1    C1 3219   2.761   3.266  16.507 -0.0025 -0.4154  0.0521
  212MPD1    C2 3220   2.667   3.218  16.597 -0.7886  0.5038 -0.5467
  212MPD1    C3 3221   2.630   3.083  16.602 -0.1009 -0.3513  0.2421
  212MPD1    C4 3222   2.697   3.004  16.513  0.2301 -0.5503 -0.5379
  212MPD1    C5 3223   2.786   3.050  16.424 -0.1315 -0.3806 -0.2754
  212MPD1     H 3224   2.627   3.276  16.679  1.2602  1.9160 -0.5281
  212MPD1    H1 3225   2.682   2.897  16.516 -1.0351 -0.3979 -1.2801
  212MPD1    H2 3226   2.880   3.212  16.338  0.9248  0.7159  1.2329
  212MPD1    H3 3227   2.838   2.979  16.360  1.7297  0.1140  0.7044
  212MPD1     N 3228   2.551   3.022  16.694 -0.5012 -0.4333 -0.2180
  212MPD1    H5 3229   2.543   2.921  16.686  0.2848 -0.3329 -2.2409
  212MPD1    N1 3230   2.785   3.403  16.492  0.6262 -0.1130  0.2618
  212MPD1    H6 3231   2.783   3.460  16.576 -2.4456 -1.3053  1.0129
  212MPD1    H7 3232   2.875   3.421  16.448 -0.0066 -0.6549 -1.2496
  213MPD1     C 3233   0.666   4.097  16.502  0.6960 -0.6918 -0.6485
  213MPD1    C1 3234   0.580   4.006  16.445  0.3574 -0.3898 -0.3589
  213MPD1    C2 3235   0.486   4.054  16.353  0.5290 -0.1386 -0.2959
  213MPD1    C3 3236   0.504   4.176  16.290 -1.2265 -0.4052 -0.5275
  213MPD1    C4 3237   0.617   4.250  16.327 -0.3546 -0.0109  0.1907
  213MPD1    C5 3238   0.696   4.211  16.435 -0.9992 -0.9168 -0.7084
  213MPD1     H 3239   0.409   3.981  16.330 -0.3678  0.8574 -0.4325
  213MPD1    H1 3240   0.640   4.351  16.296  0.9575 -0.0930  0.9068
  213MPD1    H2 3241   0.725   4.066  16.587  0.3983 -0.3837 -0.3291
  213MPD1    H3 3242   0.779   4.266  16.476 -0.8735 -0.0081 -2.1664
  213MPD1     N 3243   0.407   4.227  16.197 -0.0850 -0.5222 -0.6080
  213MPD1    H5 3244   0.325   4.169  16.185 -1.8311  1.7928  0.2786
  213MPD1    N1 3245   0.552   3.891  16.526  0.0181  0.6420 -0.4608
  213MPD1    H6 3246   0.531   3.810  16.468 -1.7166  0.2850  0.6717
  213MPD1    H7 3247   0.640   3.866  16.571  0.2693 -0.6838 -1.6890
  214MPD1     C 3248   4.308   3.938  15.839  0.2292  0.1106 -0.1229
  214MPD1    C1 3249   4.420   3.880  15.881 -0.1378 -0.7978  0.0244
  214MPD1    C2 3250   4.534   3.963  15.883  0.6759 -0.4019 -0.5078
  214MPD1    C3 3251   4.530   4.094  15.850  0.3476  0.7385 -0.6886
  214MPD1    C4 3252   4.417   4.137  15.797 -0.3464  0.0070 -0.0461
  214MPD1    C5 3253   4.309   4.058  15.779 -0.1227  0.4822 -0.0066
  214MPD1     H 3254   4.631   3.919  15.902  0.9344  0.6119  0.4909
  214MPD1    H1 3255   4.403   4.230  15.743 -1.1697  1.1380  2.0796
  214MPD1    H2 3256   4.218   3.878  15.848  1.7777 -2.5962 -2.5011
  214MPD1    H3 3257   4.220   4.103  15.736  1.1506  3.4753  0.4511
  214MPD1     N 3258   4.634   4.186  15.861 -0.5682 -0.1465 -0.5441
  214MPD1    H5 3259   4.626   4.272  15.807 -0.3510  1.4848  2.0097
  214MPD1    N1 3260   4.436   3.740  15.891  1.1906 -0.3112 -0.2862
  214MPD1    H6 3261   4.356   3.690  15.929 -0.2432  1.2957 -1.1658
  214MPD1    H7 3262   4.505   3.721  15.963  2.0295 -0.7985 -1.2264
  215MPD1     C 3263   0.710   4.187  11.373  0.1662 -0.2080 -0.6187
  215MPD1    C1 3264   0.662   4.287  11.464 -0.5020 -0.2667 -0.2582
  215MPD1    C2 3265   0.667   4.419  11.428  0.0792 -0.3547 -0.8988
  215MPD1    C3 3266   0.698   4.452  11.292 -0.7457  0.2713  0.4733
  215MPD1    C4 3267   0.733   4.353  11.203  0.1007 -0.9791 -0.2529
  215MPD1    C5 3268   0.734   4.222  11.242  0.0589 -0.2262 -0.0056
  215MPD1     H 3269   0.653   4.500  11.498 -0.7580 -0.0876 -1.3648
  215MPD1    H1 3270   0.752   4.379  11.099 -0.0672 -0.0109 -0.0392
  215MPD1    H2 3271   0.715   4.083  11.405  0.6342 -0.3846 -1.2806
  215MPD1    H3 3272   0.753   4.144  11.169 -0.2604  0.3071 -0.6674
  215MPD1     N 3273   0.706   4.593  11.253  0.1969 -0.0950  0.0688
  215MPD1    H5 3274   0.714   4.660  11.330  0.8836 -0.5315  0.3738
  215MPD1    N1 3275   0.639   4.249  11.602 -0.0492  0.2582  0.4188
  215MPD1    H6 3276   0.587   4.161  11.602 -0.3362  0.4279  2.0332
  215MPD1    H7 3277   0.586   4.321  11.651 -0.1221 -0.0974  0.8580
  216MPD1     C 3278   2.819   1.315  16.743  0.2061  0.5596  0.0194
  216MPD1    C1 3279   2.817   1.453  16.747  0.4275 -0.6017  0.2718
  216MPD1    C2 3280   2.869   1.523  16.858  0.2325 -0.0537  0.2338
  216MPD1    C3 3281   2.914   1.459  16.974  0.4618  0.4929  0.6957
  216MPD1    C4 3282   2.908   1.325  16.968 -0.2132  0.6388 -0.7441
  216MPD1    C5 3283   2.865   1.250  16.856 -0.2987  0.2112  0.0202
  216MPD1     H 3284   2.865   1.630  16.842 -0.4152 -0.0770  0.2346
  216MPD1    H1 3285   2.946   1.262  17.047 -1.4046  2.1499  1.0296
  216MPD1    H2 3286   2.788   1.271  16.649 -0.4432  1.4527 -0.1947
  216MPD1    H3 3287   2.860   1.142  16.870 -0.6882  0.0782 -1.1945
  216MPD1     N 3288   2.941   1.539  17.090 -0.3164 -0.3891  0.2140
  216MPD1    H5 3289   2.923   1.638  17.082  1.3468 -0.2883 -2.1136
  216MPD1    N1 3290   2.778   1.511  16.625 -0.0313 -0.5369 -0.1033
  216MPD1    H6 3291   2.729   1.598  16.645  1.2095  0.4382 -1.3400
  216MPD1    H7 3292   2.706   1.453  16.583  0.8301 -1.6434 -0.0603
  217MPD1     C 3293   3.215   0.310   8.728 -0.0127 -0.2666  0.9718
  217MPD1    C1 3294   3.210   0.408   8.826  0.6330  0.8838 -0.8129
  217MPD1    C2 3295   3.253   0.371   8.952 -0.2852 -0.3177  0.0354
  217MPD1    C3 3296   3.310   0.245   8.977 -0.2160 -0.2750  0.2347
  217MPD1    C4 3297   3.326   0.157   8.874  1.0516  0.3593 -0.7190
  217MPD1    C5 3298   3.282   0.196   8.752 -0.4053  0.3347 -0.1858
  217MPD1     H 3299   3.242   0.450   9.025  1.0523  0.0667 -0.1858
  217MPD1    H1 3300   3.355   0.054   8.889  1.5462  0.3504 -1.7432
  217MPD1    H2 3301   3.173   0.324   8.629  2.2290 -0.4288  0.0147
  217MPD1    H3 3302   3.277   0.122   8.673 -0.2246 -1.5075  1.5198
  217MPD1     N 3303   3.356   0.207   9.100 -0.0899  0.4073 -0.2940
  217MPD1    H5 3304   3.396   0.113   9.107 -1.1366 -0.0976 -1.1565
  217MPD1    N1 3305   3.128   0.521   8.807 -0.2137  0.1707  0.3942
  217MPD1    H6 3306   3.138   0.553   8.711  2.6889 -0.4734  0.4946
  217MPD1    H7 3307   3.156   0.598   8.867  1.2962 -0.2469  0.2079
  218MPD1     C 3308   4.038   4.642  13.485  0.2473 -0.2289  0.0773
  218MPD1    C1 3309   4.146   4.569  13.442 -0.0656 -0.3008  0.1682
  218MPD1    C2 3310   4.256   4.640  13.389  0.1069  0.1379 -0.4749
  218MPD1    C3 3311   4.264   0.056  13.385  0.1866 -0.2301 -0.1690
  218MPD1    C4 3312   4.151   0.125  13.415  0.7041 -0.3962 -0.3638
  218MPD1    C5 3313   4.044   0.055  13.475 -0.7159 -0.5442 -0.3517
  218MPD1     H 3314   4.339   4.585  13.344 -0.2567 -1.1373  0.4030
  218MPD1    H1 3315   4.150   0.233  13.418  1.2513 -0.4190  0.8999
  218MPD1    H2 3316   3.948   4.589  13.514  0.9557 -1.0572  0.7733
  218MPD1    H3 3317   3.953   0.105  13.507  1.0389  1.6358  1.2709
  218MPD1     N 3318   4.385   0.116  13.344  0.4069  0.0922 -0.3934
  218MPD1    H5 3319   4.456   0.053  13.310 -0.9369 -1.0954 -0.9877
  218MPD1    N1 3320   4.138   4.431  13.422 -0.8457  0.3284 -0.6518
  218MPD1    H6 3321   4.232   4.392  13.412 -0.5687  0.6069  0.7642
  218MPD1    H7 3322   4.081   4.393  13.497  1.1834 -0.3951  0.5283
  219MPD1     C 3323   4.704   0.910  12.796 -0.2212  0.1197  0.0526
  219MPD1    C1 3324   0.038   0.793  12.754 -0.5875  0.6335  0.2665
  219MPD1    C2 3325   0.002   0.682  12.830 -0.2296  0.5229 -0.1754
  219MPD1    C3 3326   4.672   0.695  12.959 -0.0148  0.2816  0.0272
  219MPD1    C4 3327   4.642   0.818  13.002  0.3008  1.4951 -0.1573
  219MPD1    C5 3328   4.648   0.923  12.921  0.0519  0.1849  0.2349
  219MPD1     H 3329   0.025   0.582  12.793 -2.3184  0.3856 -1.0962
  219MPD1    H1 3330   4.597   0.836  13.099 -2.6797 -1.9656 -0.8881
  219MPD1    H2 3331   4.709   0.997  12.731  0.2912 -1.5004 -2.0615
  219MPD1    H3 3332   4.624   1.021  12.959  0.2435  0.1057  0.5633
  219MPD1     N 3333   4.659   0.592  13.053  0.4068  0.3893  0.0103
  219MPD1    H5 3334   4.634   0.609  13.150 -1.0861  0.3193 -0.3777
  219MPD1    N1 3335   0.093   0.769  12.630  0.1012 -0.5421  0.1164
  219MPD1    H6 3336   0.152   0.686  12.629 -1.1179 -1.3884 -0.6253
  219MPD1    H7 3337   0.141   0.857  12.609  0.5697 -0.9160 -0.3781
  220MPD1     C 3338   0.602   4.031   9.510  0.7395 -0.9277  0.9256
  220MPD1    C1 3339   0.547   3.979   9.625  0.1622  0.2297  0.4007
  220MPD1    C2 3340   0.541   4.056   9.743 -0.1382 -0.2866  0.1459
  220MPD1    C3 3341   0.572   4.194   9.743 -0.4030 -0.8452 -0.2904
  220MPD1    C4 3342   0.617   4.246   9.624 -0.0670  0.5974  0.6309
  220MPD1    C5 3343   0.634   4.168   9.512 -0.3070 -0.6045 -0.1299
  220MPD1     H 3344   0.504   4.009   9.833  1.7148 -0.3165  0.8792
  220MPD1    H1 3345   0.627   4.353   9.606  0.9170  0.0626 -2.0540
  220MPD1    H2 3346   0.603   3.970   9.421  1.4981  0.9299 -0.3459
  220MPD1    H3 3347   0.661   4.221   9.422 -0.2462  1.2262  0.9754
  220MPD1     N 3348   0.543   4.272   9.858  0.7212  0.4594  0.1953
  220MPD1    H5 3349   0.494   4.234   9.939  0.4826  1.0530  0.3320
  220MPD1    N1 3350   0.510   3.845   9.628 -0.0422  0.2529 -0.1554
  220MPD1    H6 3351   0.590   3.782   9.635 -0.5345  0.0170  2.9423
  220MPD1    H7 3352   0.467   3.813   9.541  0.0794  1.3928 -0.6479
  221MPD1     C 3353   3.205   0.302  15.672  0.0394  0.1497  0.6155
  221MPD1    C1 3354   3.299   0.298  15.771 -0.9167  0.0939 -0.2566
  221MPD1    C2 3355   3.341   0.177  15.821  0.0562  0.2769 -0.3441
  221MPD1    C3 3356   3.307   0.058  15.761 -0.2852 -0.6708  0.8629
  221MPD1    C4 3357   3.217   0.066  15.654 -0.0219 -0.1447 -0.4615
  221MPD1    C5 3358   3.159   0.187  15.607 -0.0979  0.0806  0.1596
  221MPD1     H 3359   3.413   0.176  15.902  0.3068  0.7361 -0.5595
  221MPD1    H1 3360   3.189   4.705  15.590 -2.2884 -0.2198  0.6135
  221MPD1    H2 3361   3.147   0.391  15.649  1.3889  0.6882 -0.6969
  221MPD1    H3 3362   3.079   0.189  15.535  0.7054  1.0350 -0.7051
  221MPD1     N 3363   3.351   4.652  15.808  0.3964  1.0180 -0.6450
  221MPD1    H5 3364   3.315   4.572  15.757  1.0027  2.3663 -3.2467
  221MPD1    N1 3365   3.324   0.418  15.848 -0.0001 -0.1320 -0.1425
  221MPD1    H6 3366   3.415   0.416  15.893 -0.7815  0.1080  1.4359
  221MPD1    H7 3367   3.302   0.493  15.783  0.9094  2.0559  2.0641
  222MPD1     C 3368   3.634   3.258  16.671  1.0916 -0.0710  0.6540
  222MPD1    C1 3369   3.565   3.377  16.686 -0.4168 -0.5548  0.3454
  222MPD1    C2 3370   3.430   3.365  16.710 -0.1369 -0.5080 -0.1648
  222MPD1    C3 3371   3.360   3.239  16.719 -0.1521  0.1539  0.7744
  222MPD1    C4 3372   3.436   3.132  16.688  0.4732  0.5942 -0.5887
  222MPD1    C5 3373   3.567   3.134  16.656  0.2921 -0.4261 -0.4481
  222MPD1     H 3374   3.373   3.455  16.728 -2.2004 -2.1245  1.3298
  222MPD1    H1 3375   3.388   3.035  16.698  0.4544  0.6470 -0.1673
  222MPD1    H2 3376   3.740   3.258  16.648  0.9261 -0.6149 -0.1077
  222MPD1    H3 3377   3.633   3.052  16.629  1.5742 -0.4838  2.7595
  222MPD1     N 3378   3.228   3.224  16.753  0.1376 -0.2576 -0.2638
  222MPD1    H5 3379   3.186   3.131  16.756  1.4635 -0.8293  0.6259
  222MPD1    N1 3380   3.627   3.501  16.685  0.1083 -0.7273  0.0923
  222MPD1    H6 3381   3.564   3.564  16.634  1.4263  0.4642 -0.0597
  222MPD1    H7 3382   3.708   3.491  16.623  0.6760  2.7765  0.2820
  223MPD1     C 3383   2.804   2.510  16.706  0.4047 -0.1330 -0.7710
  223MPD1    C1 3384   2.889   2.578  16.638 -0.2595  0.1801 -0.1108
  223MPD1    C2 3385   2.895   2.715  16.660 -0.7660  0.6444 -0.2587
  223MPD1    C3 3386   2.817   2.775  16.755  0.4619  0.0993 -0.5244
  223MPD1    C4 3387   2.740   2.695  16.838 -0.8024  0.0779  0.4675
  223MPD1    C5 3388   2.726   2.568  16.800 -0.6603 -0.5285 -0.5410
  223MPD1     H 3389   2.955   2.769  16.588 -1.2345  0.9738 -0.4065
  223MPD1    H1 3390   2.688   2.741  16.921 -1.2165  0.7806 -0.1860
  223MPD1    H2 3391   2.781   2.406  16.686 -0.4446  0.3248 -2.1812
  223MPD1    H3 3392   2.666   2.503  16.863 -1.1458  0.4532  0.0051
  223MPD1     N 3393   2.849   2.904  16.779 -0.9492 -0.2883  0.0068
  223MPD1    H5 3394   2.918   2.956  16.725 -2.9978  3.2812  0.8814
  223MPD1    N1 3395   2.948   2.521  16.529 -0.7507 -0.3207 -0.5128
  223MPD1    H6 3396   3.042   2.555  16.509 -0.5885 -0.8301 -0.6154
  223MPD1    H7 3397   2.961   2.423  16.552  0.0192 -0.1149 -0.0738
  224MPD1     C 3398   3.757   0.413   9.327 -0.0411 -0.7845 -0.0181
  224MPD1    C1 3399   3.662   0.508   9.362 -0.9836  0.4189  0.4954
  224MPD1    C2 3400   3.608   0.495   9.492 -0.9639  0.0329 -0.2618
  224MPD1    C3 3401   3.647   0.398   9.585 -0.2723 -0.0272 -0.0267
  224MPD1    C4 3402   3.750   0.316   9.546  0.3339 -0.7390 -0.1997
  224MPD1    C5 3403   3.810   0.328   9.421 -0.1647  0.6001  0.2551
  224MPD1     H 3404   3.532   0.568   9.519 -1.5240  0.0954 -1.9854
  224MPD1    H1 3405   3.807   0.253   9.613  0.9399  1.2034  1.1243
  224MPD1    H2 3406   3.796   0.421   9.226 -0.1666  1.5261  0.0975
  224MPD1    H3 3407   3.897   0.269   9.393 -0.2374  0.9458 -0.7045
  224MPD1     N 3408   3.595   0.391   9.716 -0.3728  0.7038  0.4450
  224MPD1    H5 3409   3.646   0.324   9.772 -1.3330  0.6976  1.3062
  224MPD1    N1 3410   3.592   0.586   9.261 -0.3217 -0.6946 -0.0035
  224MPD1    H6 3411   3.534   0.662   9.296  1.0786 -0.8904  2.7488
  224MPD1    H7 3412   3.668   0.622   9.203 -0.3504  0.5809  0.7588
  225MPD1     C 3413   0.159   2.184  11.147  0.6396 -0.5369  0.0711
  225MPD1    C1 3414   0.175   2.053  11.184  0.0236 -0.1567  0.3264
  225MPD1    C2 3415   0.125   2.017  11.306 -0.4686 -0.4040 -0.1508
  225MPD1    C3 3416   0.085   2.113  11.409 -0.4766 -0.1888 -0.0427
  225MPD1    C4 3417   0.082   2.247  11.372 -0.1798  0.3460 -0.1263
  225MPD1    C5 3418   0.110   2.274  11.244  0.0884 -0.1770 -0.1014
  225MPD1     H 3419   0.127   1.910  11.323  0.2237 -0.3531  0.0987
  225MPD1    H1 3420   0.041   2.322  11.439  1.1571  0.3763  0.6550
  225MPD1    H2 3421   0.179   2.214  11.045 -0.6700 -0.3152 -0.1147
  225MPD1    H3 3422   0.094   2.375  11.207  1.2053 -0.1626 -0.5380
  225MPD1     N 3423   0.033   2.083  11.536 -0.2988  1.6687  0.1273
  225MPD1    H5 3424   4.713   2.156  11.594  1.2698  0.5178  2.6687
  225MPD1    N1 3425   0.206   1.964  11.081  0.0437  0.1106 -0.0340
  225MPD1    H6 3426   0.231   1.867  11.099 -1.2875 -0.2716 -0.2157
  225MPD1    H7 3427   0.260   2.002  11.004 -0.8419 -0.3228 -0.8634
  226MPD1     C 3428   2.600   0.733   9.342 -0.2295 -0.2258 -0.1200
  226MPD1    C1 3429   2.717   0.701   9.413  0.3994  0.4377  0.2449
  226MPD1    C2 3430   2.810   0.799   9.445 -0.8571  0.3381  0.0542
  226MPD1    C3 3431   2.794   0.931   9.407  0.0130  0.1033 -0.7572
  226MPD1    C4 3432   2.678   0.958   9.330 -0.1716 -0.4628  0.6794
  226MPD1    C5 3433   2.594   0.860   9.296 -0.4079  0.1294  0.2936
  226MPD1     H 3434   2.906   0.772   9.487 -0.5336 -0.5844 -1.2681
  226MPD1    H1 3435   2.646   1.055   9.295  1.5117 -0.2319 -0.2120
  226MPD1    H2 3436   2.517   0.669   9.315  0.8800 -1.6265 -0.2278
  226MPD1    H3 3437   2.503   0.881   9.241 -0.4543  2.0267  1.1066
  226MPD1     N 3438   2.895   1.027   9.428  0.5209  0.3308  0.1002
  226MPD1    H5 3439   2.964   0.999   9.496  1.2033 -1.6091 -1.3912
  226MPD1    N1 3440   2.730   0.570   9.471  0.0407  0.3139  0.0993
  226MPD1    H6 3441   2.677   0.496   9.426 -0.1052  0.4727  0.0069
  226MPD1    H7 3442   2.823   0.539   9.497 -0.1205  0.2319  0.5885
  227MPD1     C 3443   3.146   2.088   9.310  0.0835  0.3842 -0.2731
  227MPD1    C1 3444   3.205   2.042   9.425 -0.0128 -0.1686  0.4380
  227MPD1    C2 3445   3.218   1.899   9.451  0.2873  0.0480  0.8351
  227MPD1    C3 3446   3.160   1.809   9.363 -0.0182  1.1037  0.4680
  227MPD1    C4 3447   3.109   1.859   9.246  0.6913 -0.4784 -0.3068
  227MPD1    C5 3448   3.096   1.996   9.223  0.6647  0.3016 -0.1446
  227MPD1     H 3449   3.268   1.868   9.542  1.9176  0.2252 -0.0054
  227MPD1    H1 3450   3.079   1.792   9.167 -1.0666  0.2944 -0.2868
  227MPD1    H2 3451   3.132   2.193   9.289  2.0275  0.6311 -0.3565
  227MPD1    H3 3452   3.059   2.040   9.131  0.9635  1.2165  0.1769
  227MPD1     N 3453   3.154   1.676   9.388 -0.2895  0.5409 -0.5033
  227MPD1    H5 3454   3.196   1.651   9.477  0.3931  0.6413 -0.7907
  227MPD1    N1 3455   3.292   2.133   9.496 -0.0127  0.1994 -0.6579
  227MPD1    H6 3456   3.254   2.227   9.505  0.3051  0.3285 -0.6500
  227MPD1    H7 3457   3.302   2.100   9.592 -2.0763  1.3314 -0.0608
  228MPD1     C 3458   1.587   3.853  13.328 -0.1737  0.2942  0.2401
  228MPD1    C1 3459   1.554   3.731  13.388  0.2518  0.2612 -1.0386
  228MPD1    C2 3460   1.476   3.639  13.322  0.7926 -0.1999  0.2734
  228MPD1    C3 3461   1.419   3.672  13.197 -0.6815 -0.0471 -0.5207
  228MPD1    C4 3462   1.440   3.800  13.144 -0.4546 -0.1390  0.2818
  228MPD1    C5 3463   1.528   3.884  13.206 -0.4697  0.4062  0.2587
  228MPD1     H 3464   1.448   3.545  13.369 -1.2895  1.0079  1.4572
  228MPD1    H1 3465   1.392   3.831  13.052 -0.2771  2.8416  1.1894
  228MPD1    H2 3466   1.662   3.917  13.374 -1.1017  1.3656  0.2688
  228MPD1    H3 3467   1.549   3.977  13.155  1.5938 -0.1391  0.1209
  228MPD1     N 3468   1.327   3.585  13.130  0.0485  0.3443  0.0712
  228MPD1    H5 3469   1.313   3.497  13.179 -2.9576  0.1081 -1.2122
  228MPD1    N1 3470   1.618   3.686  13.502 -0.1697  0.1589 -0.5299
  228MPD1    H6 3471   1.637   3.762  13.567 -2.3087  0.1706  0.0792
  228MPD1    H7 3472   1.557   3.613  13.538  1.0941 -0.4060  0.4357
  229MPD1     C 3473   0.890   2.063  15.372  0.3199 -0.2862  0.1846
  229MPD1    C1 3474   0.923   1.998  15.487  0.2004 -0.4653  1.4884
  229MPD1    C2 3475   1.048   1.945  15.504 -0.0146 -0.1325 -0.6971
  229MPD1    C3 3476   1.137   1.955  15.397 -0.7206 -0.1940 -1.0601
  229MPD1    C4 3477   1.097   2.027  15.282 -0.1959  0.5782 -0.0613
  229MPD1    C5 3478   0.974   2.074  15.266 -1.1218 -0.2997 -0.2569
  229MPD1     H 3479   1.080   1.910  15.601  0.3483 -0.1430 -0.8217
  229MPD1    H1 3480   1.160   2.053  15.198 -0.3300  1.9361  0.2498
  229MPD1    H2 3481   0.798   2.120  15.360  0.6486 -0.0788 -1.3869
  229MPD1    H3 3482   0.946   2.127  15.176  1.8652  1.2088 -0.3220
  229MPD1     N 3483   1.273   1.911  15.402  0.4602  0.1163 -0.3985
  229MPD1    H5 3484   1.338   1.948  15.333 -0.8802  2.4692 -0.3753
  229MPD1    N1 3485   0.837   1.999  15.599  0.8659 -0.3493  0.1684
  229MPD1    H6 3486   0.737   2.011  15.582  0.9978 -2.0848 -1.8486
  229MPD1    H7 3487   0.853   1.930  15.672  0.3026  1.1426  1.7201
  230MPD1     C 3488   1.957   1.859  16.150  0.0035  0.0400  0.3437
  230MPD1    C1 3489   1.826   1.824  16.155 -0.4592  0.6505  0.6311
  230MPD1    C2 3490   1.747   1.802  16.041 -0.3236 -0.4191 -0.3209
  230MPD1    C3 3491   1.802   1.818  15.921  0.6367 -0.7431  0.6376
  230MPD1    C4 3492   1.938   1.848  15.913 -1.2256  0.1792 -0.1765
  230MPD1    C5 3493   2.015   1.871  16.027 -0.2222  0.5899 -0.4269
  230MPD1     H 3494   1.648   1.759  16.050 -0.8945  1.1987  1.1500
  230MPD1    H1 3495   1.985   1.866  15.817  1.0506  1.3519  1.1395
  230MPD1    H2 3496   2.017   1.878  16.238  0.8909  1.1839 -0.5110
  230MPD1    H3 3497   2.118   1.901  16.007  0.3916 -0.5660  0.9748
  230MPD1     N 3498   1.728   1.796  15.802  0.4808  0.2946  0.1411
  230MPD1    H5 3499   1.631   1.772  15.819  1.2682 -1.4999  2.1397
  230MPD1    N1 3500   1.779   1.773  16.275 -0.2165 -0.3300  0.3385
  230MPD1    H6 3501   1.824   1.809  16.359  1.1590 -0.1159 -0.4811
  230MPD1    H7 3502   1.680   1.761  16.297 -0.0782  0.7137  1.5045
  231MPD1     C 3503   4.693   4.577  15.784  0.3046 -0.6426 -0.1301
  231MPD1    C1 3504   4.634   4.520  15.669 -0.0906  0.3916 -0.6818
  231MPD1    C2 3505   4.698   4.541  15.549 -0.7582 -0.7032 -0.2877
  231MPD1    C3 3506   0.090   4.618  15.537 -0.2392  0.0673  0.1547
  231MPD1    C4 3507   0.147   4.673  15.653 -0.2788  0.1588  0.0990
  231MPD1    C5 3508   0.089   4.653  15.777 -0.5419  0.2240 -0.2144
  231MPD1     H 3509   4.669   4.490  15.458 -1.0696  1.7633 -1.5859
  231MPD1    H1 3510   0.243   0.001  15.662 -0.1866 -0.3467  1.7763
  231MPD1    H2 3511   4.665   4.549  15.885 -2.2848 -0.0503 -0.6920
  231MPD1    H3 3512   0.143   4.696  15.860  1.5546 -1.9223 -0.4632
  231MPD1     N 3513   0.136   4.640  15.405 -0.0765  0.0244  0.1773
  231MPD1    H5 3514   0.096   4.581  15.333  1.2900  2.6399 -2.6901
  231MPD1    N1 3515   4.529   4.431  15.685  0.0214  0.4664 -0.4678
  231MPD1    H6 3516   4.470   4.453  15.765 -1.1681 -1.0806 -0.9265
  231MPD1    H7 3517   4.467   4.428  15.604 -2.2119 -0.8120  1.2901
  232MPD1     C 3518   2.374   2.012   1.666 -0.2982  0.0825  0.3124
  232MPD1    C1 3519   2.415   1.885   1.628 -1.2777  0.1121 -0.0615
  232MPD1    C2 3520   2.326   1.802   1.560  0.0447 -0.3263  0.0864
  232MPD1    C3 3521   2.196   1.849   1.529 -0.2454  0.8123  0.4882
  232MPD1    C4 3522   2.156   1.964   1.582 -0.4789 -0.4907 -0.6445
  232MPD1    C5 3523   2.248   2.046   1.637  0.8269  0.1720  0.3931
  232MPD1     H 3524   2.358   1.703   1.530  1.1490 -0.0938  0.4853
  232MPD1    H1 3525   2.054   2.000   1.574  0.3033  2.1135  1.1381
  232MPD1    H2 3526   2.429   2.079   1.731 -2.4627  2.1845 -0.0057
  232MPD1    H3 3527   2.200   2.136   1.674 -0.6629 -0.5610  0.2304
  232MPD1     N 3528   2.115   1.765   1.449  0.2025  0.2309 -0.4244
  232MPD1    H5 3529   2.151   1.674   1.422  1.5376  0.9941 -1.2197
  232MPD1    N1 3530   2.550   1.838   1.662 -0.0292  0.0569 -0.1520
  232MPD1    H6 3531   2.582   1.774   1.589  1.0971 -1.7013  1.8953
  232MPD1    H7 3532   2.623   1.908   1.673  0.1179 -0.2470  0.7855
  233MPD1     C 3533   4.236   0.948   2.535  0.6281  0.1276 -0.5827
  233MPD1    C1 3534   4.230   0.823   2.599 -0.0146 -0.2325  0.5568
  233MPD1    C2 3535   4.291   0.718   2.529 -0.1052 -0.0272 -0.6854
  233MPD1    C3 3536   4.380   0.732   2.429  0.3917 -0.8756 -0.6973
  233MPD1    C4 3537   4.403   0.861   2.378 -0.2239  0.2005 -0.2005
  233MPD1    C5 3538   4.327   0.965   2.432 -1.0471  0.5682 -0.4321
  233MPD1     H 3539   4.272   0.625   2.581  0.2759  0.4523  0.3238
  233MPD1    H1 3540   4.463   0.889   2.292 -1.4088  1.7697 -0.5165
  233MPD1    H2 3541   4.173   1.028   2.572  0.2160 -1.2982  1.8326
  233MPD1    H3 3542   4.338   1.059   2.379  1.0889  0.1763 -0.6789
  233MPD1     N 3543   4.451   0.630   2.360  0.3858 -0.0678  0.0684
  233MPD1    H5 3544   4.501   0.652   2.274 -0.4055 -0.8978 -0.5953
  233MPD1    N1 3545   4.138   0.807   2.700  0.5603 -0.1232 -0.0903
  233MPD1    H6 3546   4.115   0.894   2.749  2.8216  0.3633  0.1163
  233MPD1    H7 3547   4.151   0.724   2.757 -1.3522 -0.5251 -0.2454
  234MPD1     C 3548   4.069   3.421  10.141 -0.3234 -0.2359 -0.7870
  234MPD1    C1 3549   4.024   3.504  10.241  0.3945 -0.0131  0.1832
  234MPD1    C2 3550   3.966   3.617  10.209  1.3526 -0.0829  0.3155
  234MPD1    C3 3551   3.950   3.655  10.072 -0.8568  0.0749 -0.3748
  234MPD1    C4 3552   3.998   3.576   9.974 -0.4218  0.8524 -0.3263
  234MPD1    C5 3553   4.056   3.458  10.011 -0.4674  0.2593  0.3741
  234MPD1     H 3554   3.926   3.675  10.291  1.8108  1.3830 -0.4940
  234MPD1    H1 3555   3.994   3.609   9.871 -1.6240  0.2172 -0.4813
  234MPD1    H2 3556   4.108   3.323  10.166  1.5286  0.7068  0.0071
  234MPD1    H3 3557   4.104   3.387   9.945 -0.1753  0.0074  0.8510
  234MPD1     N 3558   3.893   3.782  10.058  0.1251 -0.4021 -0.2197
  234MPD1    H5 3559   3.853   3.822  10.142 -1.2089 -1.0405 -0.5442
  234MPD1    N1 3560   4.022   3.451  10.375  0.2765 -0.3190 -0.4682
  234MPD1    H6 3561   4.091   3.377  10.387  0.1730 -0.3781 -0.2361
  234MPD1    H7 3562   3.930   3.414  10.399 -1.4327  4.0650 -0.2947
  235MPD1     C 3563   4.430   2.788   9.580  0.1773  0.5089 -0.3501
  235MPD1    C1 3564   4.509   2.892   9.620  0.9557 -1.0445 -0.1132
  235MPD1    C2 3565   4.628   2.914   9.547 -0.0958  1.0576  0.3511
  235MPD1    C3 3566   4.664   2.828   9.445  0.1803  0.2980 -0.5662
  235MPD1    C4 3567   4.579   2.725   9.408  0.1355  0.4004 -0.1243
  235MPD1    C5 3568   4.461   2.710   9.472  0.5231  0.0114 -0.2357
  235MPD1     H 3569   4.691   2.997   9.578  0.2489  0.8776  0.1408
  235MPD1    H1 3570   4.612   2.649   9.338 -1.4527 -0.8555  0.4851
  235MPD1    H2 3571   4.342   2.768   9.641  0.6985 -0.8649 -0.0418
  235MPD1    H3 3572   4.397   2.626   9.446  0.1394  0.4709 -0.7967
  235MPD1     N 3573   0.068   2.852   9.381 -0.7373 -0.0156 -0.3439
  235MPD1    H5 3574   0.132   2.916   9.427  1.5218 -4.2565  2.4193
  235MPD1    N1 3575   4.488   2.959   9.740 -0.1826  0.3542 -0.4424
  235MPD1    H6 3576   4.392   2.941   9.768 -0.0162  2.1883  1.3516
  235MPD1    H7 3577   4.486   3.058   9.714  0.0234  0.5113  0.1334
  236MPD1     C 3578   0.054   2.926   9.994 -0.4473  0.8023 -0.6012
  236MPD1    C1 3579   0.058   2.793   9.942  0.2465  0.1102  0.2911
  236MPD1    C2 3580   0.164   2.710   9.972  0.7135  0.0701 -0.1509
  236MPD1    C3 3581   0.274   2.751  10.048 -0.3524 -0.1631  0.3369
  236MPD1    C4 3582   0.271   2.878  10.092 -0.6227  0.2851  0.2669
  236MPD1    C5 3583   0.178   2.972  10.056 -0.2062  0.5371  0.5357
  236MPD1     H 3584   0.149   2.608   9.938  0.5505 -0.6779  2.1489
  236MPD1    H1 3585   0.355   2.917  10.149 -0.5331  2.9428 -1.6762
  236MPD1    H2 3586   4.688   2.990   9.998 -1.4900 -0.6400 -0.3387
  236MPD1    H3 3587   0.185   3.075  10.088  0.1678  0.1305  1.7725
  236MPD1     N 3588   0.390   2.674  10.073 -0.0309  0.7360  0.1994
  236MPD1    H5 3589   0.471   2.729  10.098  0.6470 -0.3907  0.5118
  236MPD1    N1 3590   4.663   2.734   9.888  0.1305  0.1505  0.1139
  236MPD1    H6 3591   4.678   2.665   9.814  1.7917  2.1980 -1.4645
  236MPD1    H7 3592   4.605   2.813   9.861 -0.3126 -0.0122  0.6030
  237MPD1     C 3593   0.236   1.568  15.766  0.9686 -0.5620  0.1540
  237MPD1    C1 3594   0.155   1.614  15.661 -0.5815  0.2894  0.2588
  237MPD1    C2 3595   0.091   1.521  15.587  0.1574 -0.8776  0.2547
  237MPD1    C3 3596   0.112   1.385  15.595  0.2867 -0.8274  0.5030
  237MPD1    C4 3597   0.199   1.342  15.684 -0.1959 -0.1552 -0.3640
  237MPD1    C5 3598   0.262   1.434  15.764 -0.1217 -0.6368  0.1967
  237MPD1     H 3599   0.020   1.554  15.512  0.0878  1.3527  1.2924
  237MPD1    H1 3600   0.203   1.235  15.700  2.1010 -0.0446 -0.2886
  237MPD1    H2 3601   0.294   1.637  15.827  0.2306  0.8242 -0.6914
  237MPD1    H3 3602   0.329   1.400  15.842  0.1419 -0.1585  0.1782
  237MPD1     N 3603   0.020   1.282  15.544  0.4850  0.4077 -0.4097
  237MPD1    H5 3604   0.049   1.186  15.556 -0.0858  0.1148 -1.3819
  237MPD1    N1 3605   0.131   1.753  15.650 -0.1745  0.3895  0.2851
  237MPD1    H6 3606   0.215   1.810  15.649 -0.3605  0.6616 -0.0095
  237MPD1    H7 3607   0.091   1.777  15.559 -2.0234 -0.8206  0.7856
  238MPD1     C 3608   2.203   3.981  14.975 -0.2514  0.2943  0.3255
  238MPD1    C1 3609   2.186   3.855  15.036 -0.0642 -0.1851 -0.0745
  238MPD1    C2 3610   2.056   3.836  15.069 -0.5259 -0.2716  0.2310
  238MPD1    C3 3611   1.952   3.898  15.005  0.1454  0.4564  0.5260
  238MPD1    C4 3612   1.976   4.007  14.919  0.3804 -0.6241  0.2431
  238MPD1    C5 3613   2.105   4.052  14.915  0.1419 -0.3800  0.2745
  238MPD1     H 3614   2.034   3.745  15.124  0.8251  0.3683  1.8213
  238MPD1    H1 3615   1.897   4.054  14.862  0.4566  0.5046  1.0687
  238MPD1    H2 3616   2.299   4.030  14.970  0.8520 -1.5817  2.9181
  238MPD1    H3 3617   2.118   4.146  14.862  1.7443  0.6567  2.5016
  238MPD1     N 3618   1.818   3.856  15.019 -0.1135  0.9136  0.1458
  238MPD1    H5 3619   1.748   3.921  14.985 -0.9550 -0.6570 -1.1385
  238MPD1    N1 3620   2.291   3.790  15.111 -0.0131  0.0611 -0.4127
  238MPD1    H6 3621   2.264   3.693  15.122  0.0678  0.1820  0.8573
  238MPD1    H7 3622   2.384   3.801  15.070  0.7298 -0.1678  1.1700
  239MPD1     C 3623   1.575   4.426  15.001 -0.4340 -0.6760  0.0488
  239MPD1    C1 3624   1.655   4.408  14.893  0.6785 -0.0838 -0.2733
  239MPD1    C2 3625   1.662   4.514  14.809 -0.1982  0.0100  0.1493
  239MPD1    C3 3626   1.575   4.620  14.813  0.2610  0.4026 -0.3208
  239MPD1    C4 3627   1.483   4.630  14.914  0.3305  0.3806 -0.0996
  239MPD1    C5 3628   1.485   4.525  15.007 -0.0993 -0.7571 -0.3352
  239MPD1     H 3629   1.740   4.522  14.734 -1.1164  0.3756 -0.7638
  239MPD1    H1 3630   1.432   0.004  14.923 -1.6226 -0.7155  0.6501
  239MPD1    H2 3631   1.571   4.354  15.082  0.1846 -0.0831  0.6147
  239MPD1    H3 3632   1.428   4.533  15.099 -2.2985  3.9946 -2.0983
  239MPD1     N 3633   1.602   0.020  14.738 -0.3824 -0.7195  0.6931
  239MPD1    H5 3634   1.533   0.093  14.755 -1.1258 -0.7873 -2.1275
  239MPD1    N1 3635   1.748   4.304  14.892  0.6079  0.0080  0.4425
  239MPD1    H6 3636   1.788   4.268  14.806 -1.0448 -0.3163 -0.1990
  239MPD1    H7 3637   1.719   4.223  14.946 -0.7084  1.2159  1.5546
  240MPD1     C 3638   1.576   4.210  13.988 -0.0076  0.1666 -0.2892
  240MPD1    C1 3639   1.467   4.283  14.022  0.3584  0.2100  0.5811
  240MPD1    C2 3640   1.449   4.305  14.161  0.2690  0.1835  0.2387
  240MPD1    C3 3641   1.523   4.244  14.260 -0.4531  1.1565  0.3774
  240MPD1    C4 3642   1.611   4.147  14.219 -0.0788 -0.6826  0.5521
  240MPD1    C5 3643   1.630   4.129  14.083 -0.0159 -0.6625  0.3976
  240MPD1     H 3644   1.366   4.371  14.187  1.0265  1.3230 -0.2302
  240MPD1    H1 3645   1.664   4.078  14.285 -0.1082 -1.2821 -0.0515
  240MPD1    H2 3646   1.605   4.193  13.885 -0.7823 -1.4082 -0.2439
  240MPD1    H3 3647   1.715   4.071  14.051  0.7064  0.1838  0.7689
  240MPD1     N 3648   1.483   4.270  14.399 -0.1882  0.1401 -0.4892
  240MPD1    H5 3649   1.403   4.329  14.415  0.2246  1.0926 -1.9731
  240MPD1    N1 3650   1.403   4.367  13.926 -0.3696 -0.2627  0.1035
  240MPD1    H6 3651   1.320   4.420  13.950  0.2563 -0.6742  3.2779
  240MPD1    H7 3652   1.407   4.339  13.829  1.4295 -1.7910  0.6115
  241MPD1     C 3653   1.436   3.977  15.473 -0.3495  0.4467  0.7986
  241MPD1    C1 3654   1.545   3.997  15.393 -0.0052 -0.2431 -0.4636
  241MPD1    C2 3655   1.537   3.996  15.259  0.2290  0.4262 -0.6574
  241MPD1    C3 3656   1.417   4.017  15.203  1.0868  0.4080 -0.2549
  241MPD1    C4 3657   1.303   4.008  15.275  0.5027 -0.4198 -0.6853
  241MPD1    C5 3658   1.313   3.978  15.406  0.3333 -0.5228 -0.3593
  241MPD1     H 3659   1.626   3.999  15.197  0.7631  2.0752  0.1835
  241MPD1    H1 3660   1.201   4.025  15.241  0.1097  2.1444  1.7024
  241MPD1    H2 3661   1.434   3.964  15.580 -1.2662 -0.4213  0.6795
  241MPD1    H3 3662   1.220   3.961  15.459 -0.1328 -0.7205 -1.2409
  241MPD1     N 3663   1.397   4.056  15.067  1.0447  0.5784 -0.1565
  241MPD1    H5 3664   1.299   4.061  15.042  0.9021  3.2047  0.9614
  241MPD1    N1 3665   1.671   3.975  15.439 -0.5966  1.3559 -0.0971
  241MPD1    H6 3666   1.741   4.012  15.375 -0.9911  0.7512 -0.8940
  241MPD1    H7 3667   1.690   4.017  15.530  1.2926 -0.9470  0.5854
  242MPD1     C 3668   0.496   2.700  16.078  0.2430  0.2589 -0.4705
  242MPD1    C1 3669   0.454   2.804  16.001 -0.0623 -0.6191  0.1037
  242MPD1    C2 3670   0.496   2.802  15.870 -0.0039  0.1005  0.6578
  242MPD1    C3 3671   0.570   2.691  15.822  0.3346  0.2114  0.7068
  242MPD1    C4 3672   0.601   2.581  15.903 -0.5057  0.1242  0.0254
  242MPD1    C5 3673   0.567   2.586  16.033  0.0092  0.4810  0.0226
  242MPD1     H 3674   0.485   2.891  15.809  0.1832 -1.3041 -1.4285
  242MPD1    H1 3675   0.663   2.499  15.868 -1.1762 -0.4603  0.2098
  242MPD1    H2 3676   0.486   2.703  16.185 -3.2008  1.2245 -0.8258
  242MPD1    H3 3677   0.599   2.519  16.112  2.5085  0.4594 -1.0330
  242MPD1     N 3678   0.600   2.682  15.683 -0.2714  0.3397 -0.3862
  242MPD1    H5 3679   0.647   2.596  15.655 -1.8433 -0.2863 -1.0841
  242MPD1    N1 3680   0.408   2.918  16.054  0.7096  0.3754 -0.4335
  242MPD1    H6 3681   0.357   2.900  16.140 -1.8257 -1.3636 -2.3212
  242MPD1    H7 3682   0.348   2.974  15.994 -0.4220 -0.9958 -0.5651
  243MPD1     C 3683   2.301   1.592   0.491  0.1285 -0.5989  0.5813
  243MPD1    C1 3684   2.258   1.604   0.360  0.1316  0.2959  0.2168
  243MPD1    C2 3685   2.294   1.510   0.260 -0.1392  0.2889 -0.1487
  243MPD1    C3 3686   2.355   1.394   0.302 -0.0166  0.2420 -0.4118
  243MPD1    C4 3687   2.387   1.373   0.433  0.6129 -0.2860  0.2020
  243MPD1    C5 3688   2.365   1.473   0.526  0.3543  0.1863 -0.1961
  243MPD1     H 3689   2.266   1.529   0.157  1.0249  0.7694 -0.3790
  243MPD1    H1 3690   2.440   1.286   0.470  1.0364 -0.5364 -0.9894
  243MPD1    H2 3691   2.279   1.665   0.568 -3.5028 -0.8783 -0.1857
  243MPD1    H3 3692   2.400   1.462   0.628 -0.9195  1.6898  0.4028
  243MPD1     N 3693   2.390   1.297   0.203  0.6125  0.4993  0.1520
  243MPD1    H5 3694   2.358   1.319   0.109 -0.9734 -2.0761  0.0959
  243MPD1    N1 3695   2.192   1.722   0.331  0.3050  0.2662  0.3528
  243MPD1    H6 3696   2.149   1.752   0.418  0.7623  0.6038  0.4586
  243MPD1    H7 3697   2.116   1.696   0.267  0.0282 -0.4193  0.9592
  244MPD1     C 3698   2.589   0.308   0.355  0.1713 -0.0765 -1.0319
  244MPD1    C1 3699   2.654   0.411   0.420  0.2886 -0.3661 -0.6341
  244MPD1    C2 3700   2.640   0.544   0.375  0.1751  0.2988 -0.8467
  244MPD1    C3 3701   2.558   0.566   0.263 -0.0696 -0.3137 -0.1577
  244MPD1    C4 3702   2.487   0.464   0.207  0.2199 -0.5993  0.0523
  244MPD1    C5 3703   2.510   0.340   0.251  0.4280  0.2185  0.0145
  244MPD1     H 3704   2.680   0.633   0.422 -2.4396  0.6702  0.6630
  244MPD1    H1 3705   2.423   0.472   0.120  1.8441 -2.7954 -1.3392
  244MPD1    H2 3706   2.591   0.203   0.385  1.1400  0.2410  0.0242
  244MPD1    H3 3707   2.475   0.260   0.187 -0.5922 -0.2614  1.1552
  244MPD1     N 3708   2.569   0.695   0.203 -0.0744  0.2744 -0.4601
  244MPD1    H5 3709   2.604   0.770   0.261  0.9436  0.7117 -1.6508
  244MPD1    N1 3710   2.731   0.388   0.532 -0.0670 -0.0000  0.3595
  244MPD1    H6 3711   2.719   0.292   0.564  1.9665 -0.7329 -1.0505
  244MPD1    H7 3712   2.829   0.404   0.508  0.3633  1.9655  3.4789
  245MPD1     C 3713   4.422   2.180  13.531  0.1644  0.2466 -0.1854
  245MPD1    C1 3714   4.491   2.170  13.649 -0.1138 -0.1308 -0.0178
  245MPD1    C2 3715   4.575   2.277  13.673 -0.7231  0.8013  0.4340
  245MPD1    C3 3716   4.611   2.373  13.580  0.0858 -0.5101 -0.1149
  245MPD1    C4 3717   4.553   2.372  13.456 -0.1681 -0.2122 -0.0425
  245MPD1    C5 3718   4.459   2.271  13.434 -0.2278  0.0335  0.3123
  245MPD1     H 3719   4.620   2.277  13.771  0.7208  0.3038 -0.2276
  245MPD1    H1 3720   4.578   2.443  13.378  0.6102 -0.8801 -0.4030
  245MPD1    H2 3721   4.359   2.098  13.500 -1.4660  2.4350 -2.5913
  245MPD1    H3 3722   4.409   2.270  13.338 -1.0304 -1.8484  0.7587
  245MPD1     N 3723   4.718   2.450  13.626  0.2883 -0.1148  0.3191
  245MPD1    H5 3724   0.027   2.432  13.721  1.2004  0.7015  0.1766
  245MPD1    N1 3725   4.448   2.071  13.740  0.7652 -0.1812 -0.0473
  245MPD1    H6 3726   4.422   1.986  13.691  3.2213 -0.2200 -1.3156
  245MPD1    H7 3727   4.522   2.054  13.808 -1.9101  1.5211  3.2925
  246MPD1     C 3728   0.130   4.199  10.005  0.0442  0.0655  0.1869
  246MPD1    C1 3729   0.181   4.094   9.932 -0.9535  0.0425  0.2928
  246MPD1    C2 3730   0.203   4.127   9.798  0.1658 -0.3892 -0.0012
  246MPD1    C3 3731   0.194   4.260   9.749 -1.0073 -0.0500  0.1289
  246MPD1    C4 3732   0.149   4.359   9.831  0.4802  0.4100  0.4677
  246MPD1    C5 3733   0.112   4.330   9.957 -0.4894 -0.1039  0.5268
  246MPD1     H 3734   0.228   4.042   9.735  2.0032  0.5101 -0.4650
  246MPD1    H1 3735   0.125   4.460   9.798 -2.8236  0.1879  2.1817
  246MPD1    H2 3736   0.117   4.185  10.111 -0.8916 -2.3583 -0.2605
  246MPD1    H3 3737   0.098   4.407  10.032  0.3054  1.8242 -1.2988
  246MPD1     N 3738   0.236   4.282   9.616 -0.0565 -0.0754  0.1627
  246MPD1    H5 3739   0.286   4.207   9.568  1.0158  0.1871  0.8536
  246MPD1    N1 3740   0.192   3.958   9.977  0.2501 -0.3060 -0.2578
  246MPD1    H6 3741   0.220   3.947  10.074  3.4832 -1.1278 -1.2710
  246MPD1    H7 3742   0.257   3.901   9.922  0.3846 -0.3070 -0.0973
  247MPD1     C 3743   3.676   1.065  15.668 -0.2242 -0.3670 -0.0507
  247MPD1    C1 3744   3.643   1.097  15.541 -0.6300  0.2707  0.2030
  247MPD1    C2 3745   3.665   1.230  15.500  0.2292 -0.6076 -0.9038
  247MPD1    C3 3746   3.746   1.313  15.576 -0.2160 -1.0988 -0.9240
  247MPD1    C4 3747   3.776   1.274  15.706  0.1291 -0.3332  0.5164
  247MPD1    C5 3748   3.746   1.148  15.749 -0.1386  0.8623 -0.2591
  247MPD1     H 3749   3.623   1.271  15.408 -0.9602 -0.1374 -0.1539
  247MPD1    H1 3750   3.827   1.336  15.778 -1.2194  0.1107  1.0795
  247MPD1    H2 3751   3.673   0.961  15.700  1.3512 -0.4547 -0.1733
  247MPD1    H3 3752   3.782   1.118  15.847  2.6653  0.5346 -1.3820
  247MPD1     N 3753   3.767   1.448  15.542  0.4326 -0.1078 -0.4656
  247MPD1    H5 3754   3.824   1.500  15.608  0.2337 -1.2461  0.6175
  247MPD1    N1 3755   3.562   1.002  15.477 -0.4421  0.3885 -0.2479
  247MPD1    H6 3756   3.585   1.000  15.378 -0.3959 -1.9365 -0.1864
  247MPD1    H7 3757   3.596   0.909  15.501 -0.0625  0.1844 -1.5947
  248MPD1     C 3758   0.682   1.705  17.602  0.7182  0.4276 -0.2618
  248MPD1    C1 3759   0.647   1.606   0.004 -0.1038  0.5052 -0.0089
  248MPD1    C2 3760   0.585   1.647   0.121 -0.0968  0.3093 -0.3053
  248MPD1    C3 3761   0.565   1.780   0.149  0.4142  0.1347 -0.2885
  248MPD1    C4 3762   0.594   1.876   0.054  0.6184 -0.2048 -0.5993
  248MPD1    C5 3763   0.651   1.835  17.628 -1.2370  1.0996 -0.4321
  248MPD1     H 3764   0.560   1.577   0.200 -0.7021 -0.2261 -0.9657
  248MPD1    H1 3765   0.564   1.980   0.065  1.1113 -0.3408  2.0862
  248MPD1    H2 3766   0.717   1.676  17.503  0.8264  1.5171 -0.5433
  248MPD1    H3 3767   0.677   1.919  17.566 -0.3748  0.3286 -1.1206
  248MPD1     N 3768   0.514   1.803   0.279  0.3109  0.3620  1.0654
  248MPD1    H5 3769   0.500   1.725   0.342 -4.1163 -0.2540 -0.6939
  248MPD1    N1 3770   0.637   1.477  17.642  0.1917 -0.2969 -0.1495
  248MPD1    H6 3771   0.622   1.406   0.026 -2.1422 -0.8141 -1.1405
  248MPD1    H7 3772   0.701   1.441  17.571 -0.5270  2.1198 -1.9942
  249MPD1     C 3773   1.778   0.135  10.793 -0.7533 -0.2415  0.2284
  249MPD1    C1 3774   1.805   0.263  10.756  0.4035 -0.1325  0.2181
  249MPD1    C2 3775   1.728   0.312  10.653 -0.0411 -0.2025 -0.8294
  249MPD1    C3 3776   1.627   0.245  10.590  0.0679 -0.2130 -0.2488
  249MPD1    C4 3777   1.599   0.121  10.642  0.8514 -0.4811  0.5824
  249MPD1    C5 3778   1.668   0.075  10.748  0.3018  0.0746 -0.1796
  249MPD1     H 3779   1.751   0.406  10.604  0.5045  0.1525  0.1010
  249MPD1    H1 3780   1.532   0.043  10.607  0.9492  0.1021 -0.9213
  249MPD1    H2 3781   1.811   0.091  10.886 -2.0551  2.2090  1.8560
  249MPD1    H3 3782   1.639   4.694  10.774 -3.6019  0.9451 -1.2137
  249MPD1     N 3783   1.556   0.304  10.480  0.2999 -0.4790  0.4437
  249MPD1    H5 3784   1.597   0.394  10.456 -1.8852 -0.1568 -2.1171
  249MPD1    N1 3785   1.899   0.337  10.823  0.1279 -0.0955  0.0081
  249MPD1    H6 3786   1.951   0.400  10.763  0.3816 -0.2488  0.0651
  249MPD1    H7 3787   1.970   0.278  10.867 -0.3750  0.2297  1.2495
  250MPD2     C 3788   2.817   0.657  12.983 -0.2096  0.1246 -0.5474
  250MPD2    C1 3789   2.747   0.710  13.086 -0.6657  0.1031  0.0667
  250MPD2    C2 3790   2.635   0.633  13.139  0.8499  0.3100  0.3667
  250MPD2    C3 3791   2.602   0.516  13.076  0.3902  0.0758 -0.1703
  250MPD2    C4 3792   2.674   0.465  12.966  0.2179  0.0416  0.1493
  250MPD2    C5 3793   2.778   0.536  12.922  0.3479 -0.1420  0.3642
  250MPD2     H 3794   2.580   0.663  13.227  0.4764  2.1310 -0.4739
  250MPD2    H1 3795   2.652   0.375  12.910  2.8841  0.8318 -2.1944
  250MPD2    H2 3796   2.890   0.717  12.930 -0.6435  1.6487  0.5845
  250MPD2    H3 3797   2.829   0.512  12.830 -1.2339 -0.7917 -0.3466
  250MPD2     N 3798   2.494   0.437  13.115 -0.1135 -0.2951 -0.3342
  250MPD2    H5 3799   2.477   0.350  13.066 -1.8918  0.2368 -0.6441
  250MPD2    N1 3800   2.780   0.836  13.135 -0.0153 -0.0577 -0.5819
  250MPD2    H7 3801   2.853   0.888  13.087 -0.1243  0.3842 -0.2712
  251TMC3    C1 3802   2.768   1.033  13.239  0.1368 -0.5259  0.0247
  251TMC3    C2 3803   2.680   1.127  13.287 -0.1608 -0.3907 -1.0776
  251TMC3    C3 3804   2.729   1.246  13.328 -0.8261 -0.8275 -0.3984
  251TMC3    C4 3805   2.903   1.049  13.246  0.5388  1.0597  0.0211
  251TMC3    C5 3806   2.949   1.167  13.296  0.2151  0.2121  0.3909
  251TMC3    C6 3807   2.864   1.265  13.333  0.0455  0.7829  0.5525
  251TMC3     C 3808   2.716   0.901  13.234 -0.0894  0.5850  1.0292
  251TMC3     O 3809   2.608   0.875  13.291  0.0850 -0.0221  0.7089
  251TMC3     H 3810   2.574   1.105  13.292 -0.3891  0.5370 -1.8481
  251TMC3    H1 3811   2.972   0.967  13.230 -0.5694  0.1573 -0.1456
  251TMC3    H2 3812   2.897   1.358  13.379  0.6995  0.6645  0.3232
  251TMC3    C7 3813   3.091   1.201  13.276  0.8607  0.4052  0.1651
  251TMC3    C8 3814   2.648   1.339  13.397 -0.1111 -1.1462 -0.3222
  251TMC3    O1 3815   3.163   1.105  13.250 -0.0838  0.2119  0.1076
  251TMC3    O2 3816   2.693   1.403  13.490  0.5026  0.8209 -0.1388
  252TMC3    C1 3817   2.829   1.943   9.447 -0.4947 -0.4207 -0.2948
  252TMC3    C2 3818   2.871   2.064   9.497  0.1412  0.6406 -0.5148
  252TMC3    C3 3819   2.929   2.064   9.624  0.5276 -0.1116 -0.2681
  252TMC3    C4 3820   2.830   1.822   9.514  0.1303 -0.2616  0.5146
  252TMC3    C5 3821   2.887   1.829   9.637  0.4931  0.4502  0.0059
  252TMC3    C6 3822   2.936   1.945   9.696 -0.2461  0.5370 -0.0756
  252TMC3     C 3823   2.774   1.954   9.308  0.3041  0.8242  0.1456
  252TMC3     O 3824   2.738   2.070   9.273  0.1264  0.4878 -0.0360
  252TMC3     H 3825   2.864   2.158   9.443 -0.8577  0.8761  0.0206
  252TMC3    H1 3826   2.773   1.738   9.478 -0.8738  0.4640  0.4037
  252TMC3    H2 3827   2.968   1.942   9.800  1.4721  1.6695 -0.5798
  252TMC3    C7 3828   2.938   1.700   9.682  0.1914  0.0456 -0.5324
  252TMC3    C8 3829   2.992   2.175   9.688  0.2898 -0.7559 -0.5691
  252TMC3    O1 3830   3.056   1.702   9.707 -0.2415  0.1417  0.5531
  252TMC3    O2 3831   3.044   2.156   9.799  0.1965 -0.1381  0.7178
  253MPD2     C 3832   4.272   1.236  15.694 -0.2784 -0.2133  0.5396
  253MPD2    C1 3833   4.154   1.170  15.651  0.6510 -0.4467  0.8850
  253MPD2    C2 3834   4.108   1.063  15.725 -0.8838  0.3637 -0.8166
  253MPD2    C3 3835   4.174   1.018  15.841 -0.0495  0.4132  0.0638
  253MPD2    C4 3836   4.293   1.082  15.872  0.3303 -0.1291  0.0059
  253MPD2    C5 3837   4.342   1.185  15.801 -0.2650  1.7175 -0.0209
  253MPD2     H 3838   4.027   1.003  15.683 -1.3297 -0.3873  1.1092
  253MPD2    H1 3839   4.353   1.044  15.954 -2.8188 -1.7499  1.5492
  253MPD2    H2 3840   4.301   1.329  15.645 -0.1167 -0.8515 -0.5751
  253MPD2    H3 3841   4.433   1.239  15.827 -0.9374  1.7353  2.3027
  253MPD2     N 3842   4.130   0.919  15.927  0.9886 -0.1516 -0.5005
  253MPD2    H5 3843   4.198   0.895  15.998 -0.0560  1.8860  1.1620
  253MPD2    N1 3844   4.082   1.204  15.535 -0.1145  0.4652 -0.2872
  253MPD2    H7 3845   4.014   1.134  15.508 -0.2765  0.8680 -0.9230
  254TMC3    C1 3846   3.965   0.807  16.055  0.2388 -0.4061 -0.5691
  254TMC3    C2 3847   3.823   0.806  16.072  0.2922  0.1522  0.2844
  254TMC3    C3 3848   3.773   0.709  16.151  0.0391 -0.7788 -0.1378
  254TMC3    C4 3849   4.050   0.702  16.104 -0.2333 -0.1976  0.3333
  254TMC3    C5 3850   3.987   0.598  16.171  0.7008  0.3436 -0.0566
  254TMC3    C6 3851   3.851   0.596  16.187  0.4423  0.0032 -0.2373
  254TMC3     C 3852   3.999   0.880  15.937 -0.0771  0.1233 -0.3315
  254TMC3     O 3853   3.907   0.920  15.871  0.7089 -0.2780 -0.2999
  254TMC3     H 3854   3.764   0.888  16.033 -1.2328 -1.0460  0.1121
  254TMC3    H1 3855   4.147   0.685  16.059 -0.2775 -1.1810  0.6149
  254TMC3    H2 3856   3.804   0.528  16.256 -0.5619  0.8047 -0.1185
  254TMC3    C7 3857   4.070   0.533  16.268  0.2974 -0.4306 -0.4661
  254TMC3    C8 3858   3.665   0.732  16.249  0.1020 -0.5682  0.4429
  254TMC3    O1 3859   4.031   0.424  16.312  0.1919 -0.1903  0.1971
  254TMC3    O2 3860   3.659   0.668  16.357  0.0184 -0.1671 -0.1106
  255MPD2     C 3861   1.814   3.523  10.338  0.1344  0.5466  0.1222
  255MPD2    C1 3862   1.939   3.541  10.393  0.2304  0.4180 -0.5165
  255MPD2    C2 3863   2.016   3.428  10.405  0.1198  0.7889 -0.1927
  255MPD2    C3 3864   1.974   3.303  10.358  0.1238  0.4365 -0.3822
  255MPD2    C4 3865   1.846   3.294  10.303 -0.0671  0.1312  0.2146
  255MPD2    C5 3866   1.765   3.404  10.300  0.1632  0.9722 -0.4697
  255MPD2     H 3867   2.119   3.422  10.438  1.4712 -1.1542 -4.8706
  255MPD2    H1 3868   1.802   3.202  10.268 -0.7596  0.8844 -0.8970
  255MPD2    H2 3869   1.753   3.608  10.311 -0.7411 -0.2584 -0.4392
  255MPD2    H3 3870   1.678   3.389  10.236 -0.9111  1.5236  0.8495
  255MPD2     N 3871   2.075   3.210  10.355 -0.0056 -0.2914 -0.1577
  255MPD2    H5 3872   2.163   3.227  10.402 -1.4583 -0.7332  2.7330
  255MPD2    N1 3873   1.985   3.674  10.426  0.3576  0.6566 -0.4560
  255MPD2    H7 3874   1.923   3.754  10.416  0.5259  0.9150  0.5686
  256TMC3    C1 3875   2.149   3.842  10.468 -0.2013  0.4470 -0.1364
  256TMC3    C2 3876   2.280   3.871  10.437  0.6518 -0.0031  0.2368
  256TMC3    C3 3877   2.319   3.997  10.407 -0.4907 -0.0081  0.0742
  256TMC3    C4 3878   2.057   3.940  10.452  0.5311 -0.3074  0.7588
  256TMC3    C5 3879   2.093   4.070  10.417 -0.3912  0.7731 -0.6123
  256TMC3    C6 3880   2.231   4.101  10.400 -0.2707 -0.0500  1.0286
  256TMC3     C 3881   2.113   3.699  10.467 -0.3634  0.1092 -0.5483
  256TMC3     O 3882   2.209   3.625  10.486 -0.0241  0.4313  0.0737
  256TMC3     H 3883   2.352   3.790  10.426 -0.0937 -0.6427  0.0856
  256TMC3    H1 3884   1.956   3.930  10.491  0.1184  1.0673  0.0548
  256TMC3    H2 3885   2.255   4.200  10.364  1.3339 -0.9076 -0.2904
  256TMC3    C7 3886   2.002   4.154  10.338 -0.3881 -0.7539 -0.1297
  256TMC3    C8 3887   2.458   4.028  10.399  0.0057  0.3331  0.1426
  256TMC3    O1 3888   1.895   4.100  10.302 -0.0580 -0.0653  0.1040
  256TMC3    O2 3889   2.522   3.925  10.392 -0.1552 -0.1408  0.1315
  257MPD2     C 3890   1.251   0.654  13.523  0.0496  0.4216  0.7696
  257MPD2    C1 3891   1.308   0.598  13.408 -0.5566 -0.2116  0.5545
  257MPD2    C2 3892   1.330   0.463  13.399 -0.1205 -0.8642 -0.0249
  257MPD2    C3 3893   1.310   0.384  13.510  0.8685 -0.0676  0.0804
  257MPD2    C4 3894   1.258   0.435  13.624  0.3643 -0.1829  0.2328
  257MPD2    C5 3895   1.230   0.566  13.623 -0.7722 -0.5387  0.6215
  257MPD2     H 3896   1.360   0.424  13.302 -0.9742  0.9972 -1.0367
  257MPD2    H1 3897   1.228   0.373  13.708  0.8432  0.0235  0.5531
  257MPD2    H2 3898   1.216   0.756  13.522 -0.6663  0.1577 -0.8399
  257MPD2    H3 3899   1.167   0.593  13.707 -0.5330  4.1033 -0.6865
  257MPD2     N 3900   1.352   0.256  13.497  0.3240 -0.5972  0.1958
  257MPD2    H5 3901   1.393   0.226  13.409  1.3512 -0.9886  0.8054
  257MPD2    N1 3902   1.335   0.688  13.300 -0.5934 -0.8431 -0.1252
  257MPD2    H7 3903   1.299   0.783  13.304  0.9649 -0.3304  1.7001
  258TMC3    C1 3904   1.416   0.040  13.548 -0.8169  0.2375  0.1869
  258TMC3    C2 3905   1.380   4.709  13.422  0.2018  0.6094  0.0341
  258TMC3    C3 3906   1.415   4.588  13.389  0.4182 -0.0388  0.1778
  258TMC3    C4 3907   1.494   4.701  13.633 -0.3800  0.1122 -0.3119
  258TMC3    C5 3908   1.532   4.581  13.595 -0.2114 -0.4716 -0.2727
  258TMC3    C6 3909   1.493   4.521  13.478  0.4435 -0.6594 -0.0254
  258TMC3     C 3910   1.353   0.155  13.598  0.1265  0.9526  0.1792
  258TMC3     O 3911   1.326   0.161  13.717  0.0188  0.2640 -0.3945
  258TMC3     H 3912   1.324   0.048  13.352  2.8214  3.5152  0.4148
  258TMC3    H1 3913   1.519   0.039  13.721 -2.4323 -0.4004  0.6231
  258TMC3    H2 3914   1.525   4.422  13.448  2.2525  1.0937 -3.9618
  258TMC3    C7 3915   1.635   4.515  13.671 -0.8789 -0.4344  0.4329
  258TMC3    C8 3916   1.350   4.516  13.285 -0.4320 -0.6900 -0.1739
  258TMC3    O1 3917   1.665   4.407  13.629 -0.5979 -0.2646  0.4313
  258TMC3    O2 3918   1.412   4.422  13.236  0.5497  0.2697 -0.2348
  259MPD2     C 3919   0.848   2.335   1.029 -0.0136 -0.2916  0.5080
  259MPD2    C1 3920   0.878   2.205   1.050 -0.0591  0.7994  0.6681
  259MPD2    C2 3921   0.947   2.131   0.950  0.8001  0.5068 -0.2858
  259MPD2    C3 3922   0.981   2.190   0.831  0.7867 -0.1270 -0.1233
  259MPD2    C4 3923   0.935   2.318   0.815 -0.1467 -0.2834 -0.9333
  259MPD2    C5 3924   0.867   2.386   0.906  0.4427 -0.0122  0.5782
  259MPD2     H 3925   0.966   2.025   0.961 -1.1084  0.3351  1.3854
  259MPD2    H1 3926   0.957   2.366   0.720  0.7880  0.3581 -0.3928
  259MPD2    H2 3927   0.792   2.391   1.102  1.1997 -1.0275  2.0065
  259MPD2    H3 3928   0.830   2.486   0.887  0.5422 -0.1559 -0.3640
  259MPD2     N 3929   1.072   2.125   0.735 -0.0447 -0.1791  0.4243
  259MPD2    H5 3930   1.108   2.036   0.769 -0.2015 -0.6894 -0.7564
  259MPD2    N1 3931   0.859   2.151   1.174  0.4924 -0.2395 -0.1834
  259MPD2    H7 3932   0.804   2.209   1.236 -1.3766 -1.6516 -0.4980
  260TMC3    C1 3933   1.204   2.077   0.551  0.1685 -0.3184 -0.1782
  260TMC3    C2 3934   1.320   2.123   0.491 -0.0100  0.5079 -0.1261
  260TMC3    C3 3935   1.404   2.030   0.437  0.6757 -0.6770 -0.0774
  260TMC3    C4 3936   1.191   1.939   0.576 -0.0588  0.4877 -0.1845
  260TMC3    C5 3937   1.280   1.853   0.514 -0.7345 -0.4068 -0.4024
  260TMC3    C6 3938   1.393   1.896   0.449  0.1153 -0.3257  1.1556
  260TMC3     C 3939   1.119   2.175   0.612 -0.6916 -0.2432 -0.5007
  260TMC3     O 3940   1.102   2.288   0.560 -0.1210  0.1083 -0.4386
  260TMC3     H 3941   1.342   2.229   0.487  1.1243  0.3569  1.8019
  260TMC3    H1 3942   1.107   1.904   0.634 -0.7307 -0.7762 -1.9476
  260TMC3    H2 3943   1.457   1.818   0.411 -0.2507 -0.0636  0.0166
  260TMC3    C7 3944   1.258   1.703   0.518  0.4323  0.2793  0.1111
  260TMC3    C8 3945   1.545   2.072   0.451 -0.0543  0.6356  0.6622
  260TMC3    O1 3946   1.312   1.638   0.432 -0.5949 -0.1133  0.4989
  260TMC3    O2 3947   1.597   2.172   0.409  0.2368 -0.9731 -0.1206
  261MPD2     C 3948   1.781   0.338  12.888 -0.1222 -0.1473 -0.4294
  261MPD2    C1 3949   1.904   0.400  12.900 -0.1423  0.0591 -0.4365
  261MPD2    C2 3950   1.934   0.508  12.818 -0.3700  0.4665  0.1060
  261MPD2    C3 3951   1.833   0.563  12.735  0.3124 -0.0291 -0.2791
  261MPD2    C4 3952   1.713   0.501  12.724  0.5132  0.5242 -0.3432
  261MPD2    C5 3953   1.696   0.381  12.790  0.0323 -0.4682 -0.6210
  261MPD2     H 3954   2.029   0.559  12.806 -0.1925  0.0250 -0.3724
  261MPD2    H1 3955   1.628   0.532  12.664 -0.0733  0.1191  0.2733
  261MPD2    H2 3956   1.755   0.248  12.943  1.5409 -1.0337 -1.0794
  261MPD2    H3 3957   1.603   0.325  12.785 -0.1315 -0.2900  0.5368
  261MPD2     N 3958   1.867   0.673  12.652 -0.4161  0.1938 -0.1336
  261MPD2    H5 3959   1.960   0.711  12.667  0.2160 -1.4759  0.1151
  261MPD2    N1 3960   1.999   0.357  12.994 -0.6463  0.4220  0.3203
  261MPD2    H7 3961   2.093   0.392  12.979 -1.1850  1.1006 -1.5067
  262TMC3    C1 3962   1.897   0.791  12.449 -0.4433  0.4852 -0.2998
  262TMC3    C2 3963   1.860   0.911  12.399  0.6367 -0.1843  0.7301
  262TMC3    C3 3964   1.948   0.987  12.326  0.4043  0.0351  0.3842
  262TMC3    C4 3965   2.025   0.743  12.436  1.0536  0.4653  0.4220
  262TMC3    C5 3966   2.115   0.824  12.367 -0.6617  0.2686  0.2768
  262TMC3    C6 3967   2.079   0.941  12.308  0.3458 -0.0909 -0.0193
  262TMC3     C 3968   1.802   0.725  12.539 -0.3581  0.2566  0.5655
  262TMC3     O 3969   1.682   0.728  12.514  0.1142  0.0078 -0.1686
  262TMC3     H 3970   1.755   0.938  12.403  1.2970  2.4371  0.3790
  262TMC3    H1 3971   2.056   0.644  12.469 -0.7645  0.0327  0.8321
  262TMC3    H2 3972   2.149   1.011  12.265 -0.4834  0.3712 -0.6082
  262TMC3    C7 3973   2.255   0.777  12.360  0.1009  0.8491  0.2369
  262TMC3    C8 3974   1.912   1.110  12.261 -0.3535  0.0277  0.3496
  262TMC3    O1 3975   2.275   0.667  12.413 -0.7820  0.4304 -0.1050
  262TMC3    O2 3976   2.001   1.185  12.230 -0.1689  0.2423  0.0080
  263MPD2     C 3977   2.967   4.410  11.439 -0.2419 -0.4609  0.5262
  263MPD2    C1 3978   3.043   4.503  11.513  0.0818 -0.3257 -0.4707
  263MPD2    C2 3979   3.115   4.601  11.453  0.4561 -0.1917 -0.1784
  263MPD2    C3 3980   3.117   4.601  11.318  0.0984  0.3818 -0.1791
  263MPD2    C4 3981   3.036   4.509  11.248  0.0556 -0.1373  0.0287
  263MPD2    C5 3982   2.966   4.409  11.304  0.7546  0.3436 -0.1674
  263MPD2     H 3983   3.170   4.673  11.512 -1.7959 -0.8694  2.7948
  263MPD2    H1 3984   3.034   4.506  11.140 -0.1805  0.3104  0.0215
  263MPD2    H2 3985   2.916   4.330  11.491  1.9011 -1.3381  1.3093
  263MPD2    H3 3986   2.903   4.336  11.253  0.8819  2.0729 -2.7919
  263MPD2     N 3987   3.197   4.698  11.250 -0.1649  0.0941 -0.1337
  263MPD2    H5 3988   3.233   0.052  11.308 -0.0726 -0.2224  0.2212
  263MPD2    N1 3989   3.043   4.484  11.650  0.4911 -0.2139  0.2777
  263MPD2    H7 3990   3.003   4.400  11.692 -1.9367  0.9296  0.2641
  264TMC3    C1 3991   3.321   0.091  11.083 -0.4038  0.3910  0.5038
  264TMC3    C2 3992   3.298   0.218  11.124  0.6274  0.0797  0.9536
  264TMC3    C3 3993   3.380   0.320  11.068  0.4560  0.3949 -0.0154
  264TMC3    C4 3994   3.417   0.058  10.995 -0.5263  0.2149 -0.3085
  264TMC3    C5 3995   3.504   0.161  10.947  0.1387 -0.8457  0.0334
  264TMC3    C6 3996   3.483   0.290  10.983  0.4061  0.0260  0.9999
  264TMC3     C 3997   3.235   4.696  11.121 -0.1245 -0.5417  0.1997
  264TMC3     O 3998   3.215   4.615  11.030  0.1738 -0.1149  0.3893
  264TMC3     H 3999   3.218   0.232  11.195 -1.1821  0.5099 -1.1783
  264TMC3    H1 4000   3.439   4.680  10.959  1.2719  0.3230  0.4985
  264TMC3    H2 4001   3.536   0.364  10.923  2.9333 -1.1114  1.8384
  264TMC3    C7 4002   3.615   0.127  10.861  0.6022  0.1505  0.0397
  264TMC3    C8 4003   3.336   0.459  11.099 -0.1866  0.6313  0.1455
  264TMC3    O1 4004   3.645   0.010  10.854  0.2187  0.7584 -0.9617
  264TMC3    O2 4005   3.230   0.477  11.155  0.4707  0.3055  0.1679
  265MPD2     C 4006   0.281   0.745  15.511  0.1524  0.4788  0.4610
  265MPD2    C1 4007   0.416   0.759  15.551 -0.0455 -0.0326 -0.0635
  265MPD2    C2 4008   0.516   0.680  15.500 -0.6427 -0.4958  0.6193
  265MPD2    C3 4009   0.484   0.580  15.405 -0.1258 -0.0781  0.2886
  265MPD2    C4 4010   0.348   0.564  15.372  0.6913 -0.0981 -0.2595
  265MPD2    C5 4011   0.252   0.650  15.414 -0.6244 -0.2384 -0.2498
  265MPD2     H 4012   0.615   0.701  15.538 -0.0364 -3.0496  0.4474
  265MPD2    H1 4013   0.314   0.480  15.313 -1.1008  0.6686 -0.3157
  265MPD2    H2 4014   0.199   0.802  15.553 -0.6476  1.3405 -2.2862
  265MPD2    H3 4015   0.149   0.650  15.381  0.1459  0.0460 -2.6452
  265MPD2     N 4016   0.578   0.500  15.340 -0.5279 -0.2860 -0.5651
  265MPD2    H5 4017   0.542   0.426  15.280 -0.3837 -0.3915 -0.5206
  265MPD2    N1 4018   0.460   0.858  15.637  0.2253 -1.1606 -0.7583
  265MPD2    H7 4019   0.558   0.874  15.659 -0.1005 -0.6497  0.3342
  266TMC3    C1 4020   0.424   1.024  15.805  0.4404 -0.1676  0.1422
  266TMC3    C2 4021   0.556   1.029  15.834 -0.1624 -0.0222 -0.3216
  266TMC3    C3 4022   0.596   1.086  15.951 -0.3259  0.1462 -0.1839
  266TMC3    C4 4023   0.331   1.081  15.882 -0.0088  0.2404  0.0527
  266TMC3    C5 4024   0.380   1.141  15.998  1.6032  0.4941  0.2186
  266TMC3    C6 4025   0.509   1.146  16.036 -0.3831  0.3821  0.1080
  266TMC3     C 4026   0.374   0.958  15.684  0.7280  0.1323 -0.1210
  266TMC3     O 4027   0.258   0.987  15.650 -0.1555  0.9824 -0.1315
  266TMC3     H 4028   0.631   0.985  15.769 -0.7948  0.9329 -1.7101
  266TMC3    H1 4029   0.225   1.071  15.864  0.2534 -4.4729  1.1078
  266TMC3    H2 4030   0.546   1.193  16.126  1.6813 -2.2265  0.5992
  266TMC3    C7 4031   0.274   1.202  16.085  0.3674 -1.0379 -1.1482
  266TMC3    C8 4032   0.726   1.045  16.002  0.0974  0.0073  0.1312
  266TMC3    O1 4033   0.174   1.246  16.028  0.0886  0.1984 -0.0487
  266TMC3    O2 4034   0.801   0.989  15.917  0.5554  0.5263 -0.1504
  267MPD2     C 4035   3.494   1.376   0.204  0.0436  0.6761  0.3005
  267MPD2    C1 4036   3.463   1.508   0.212  0.4720  0.2631  0.3964
  267MPD2    C2 4037   3.353   1.553   0.144  1.4767  0.1833  0.0312
  267MPD2    C3 4038   3.274   1.469   0.067  0.0306  0.6179  0.7029
  267MPD2    C4 4039   3.300   1.335   0.070 -0.1207 -0.1539 -0.1192
  267MPD2    C5 4040   3.413   1.293   0.140  0.0182  0.7182  0.5457
  267MPD2     H 4041   3.339   1.658   0.123 -3.2340 -0.7915 -1.6312
  267MPD2    H1 4042   3.246   1.255   0.022  0.0654 -0.1255 -0.3807
  267MPD2    H2 4043   3.576   1.336   0.262  0.5117  0.3621 -0.5686
  267MPD2    H3 4044   3.426   1.185   0.142  1.7389  0.9019 -0.8597
  267MPD2     N 4045   3.165   1.504  17.668  0.0561 -0.5045  0.3120
  267MPD2    H5 4046   3.115   1.441  17.606 -0.4389  1.5345 -1.3477
  267MPD2    N1 4047   3.560   1.594   0.269  0.8848 -0.4286 -0.1275
  267MPD2    H7 4048   3.632   1.536   0.310  0.2644 -0.5800  0.7340
  268TMC3    C1 4049   3.680   1.802   0.298 -0.5328  0.3718  0.1640
  268TMC3    C2 4050   3.678   1.938   0.317  0.0921 -0.5406 -0.4198
  268TMC3    C3 4051   3.789   1.994   0.377 -0.1594  0.2911  0.3241
  268TMC3    C4 4052   3.794   1.728   0.319 -0.8522  0.4183  0.1158
  268TMC3    C5 4053   3.905   1.798   0.366  0.2119 -0.0996  0.1369
  268TMC3    C6 4054   3.905   1.931   0.396  0.1265 -0.8115  0.2257
  268TMC3     C 4055   3.554   1.735   0.267 -0.1967  0.4042 -0.1605
  268TMC3     O 4056   3.465   1.806   0.222  0.3837  0.1297 -0.2065
  268TMC3     H 4057   3.590   1.985   0.273  1.2141 -1.1820 -3.3217
  268TMC3    H1 4058   3.798   1.622   0.296 -0.8641  0.4718 -0.1298
  268TMC3    H2 4059   3.982   1.983   0.452 -0.0788 -0.3103  0.0406
  268TMC3    C7 4060   3.987   1.720   0.451  0.6351  0.6437 -0.2076
  268TMC3    C8 4061   3.791   2.139   0.402  0.1408  0.2551  0.4513
  268TMC3    O1 4062   3.959   1.601   0.465 -0.3521  0.6677  0.0131
  268TMC3    O2 4063   3.899   2.196   0.410  0.4006  0.0423  0.0576
  269MPD2     C 4064   3.344   1.512  15.588  0.4036  0.4017  0.3311
  269MPD2    C1 4065   3.210   1.485  15.607  1.0430  0.5838 -0.0472
  269MPD2    C2 4066   3.121   1.594  15.617  0.2343 -0.5019  0.7005
  269MPD2    C3 4067   3.161   1.727  15.597 -0.8905 -0.4127 -0.0014
  269MPD2    C4 4068   3.293   1.746  15.563  0.8279 -0.9503 -0.2956
  269MPD2    C5 4069   3.382   1.639  15.556 -0.0324  0.2911 -0.0530
  269MPD2     H 4070   3.019   1.571  15.644 -0.2442  0.6698 -0.0737
  269MPD2    H1 4071   3.335   1.844  15.541 -2.7886  0.9190  1.0714
  269MPD2    H2 4072   3.420   1.435  15.592  0.3017  0.3229  0.7521
  269MPD2    H3 4073   3.479   1.665  15.516 -0.2841 -0.5231 -1.1964
  269MPD2     N 4074   3.075   1.835  15.627  0.1736 -0.2192 -0.4876
  269MPD2    H5 4075   2.982   1.802  15.651  0.7019  0.4884  2.5786
  269MPD2    N1 4076   3.173   1.348  15.626 -0.6563 -0.4687 -0.0230
  269MPD2    H7 4077   3.249   1.281  15.623 -0.1370  0.1338 -0.4401
  270TMC3    C1 4078   3.029   1.159  15.667 -0.6501  0.0091 -0.0378
  270TMC3    C2 4079   2.913   1.095  15.621 -0.5217  0.3239 -0.3980
  270TMC3    C3 4080   2.899   0.965  15.658  0.0397  0.3235  0.1044
  270TMC3    C4 4081   3.132   1.101  15.740  0.7872 -0.0530 -0.0050
  270TMC3    C5 4082   3.114   0.970  15.764 -0.2981 -0.1708  0.2778
  270TMC3    C6 4083   2.997   0.906  15.730 -0.5619  0.5696 -0.3414
  270TMC3     C 4084   3.041   1.299  15.634 -0.5392 -0.5752  0.1078
  270TMC3     O 4085   2.933   1.358  15.630  0.1766  0.2975 -0.1878
  270TMC3     H 4086   2.836   1.146  15.564  1.3476  1.0679 -2.2703
  270TMC3    H1 4087   3.223   1.148  15.774 -0.1518  0.7809  1.3293
  270TMC3    H2 4088   2.987   0.802  15.758 -1.0301  0.4335 -1.0233
  270TMC3    C7 4089   3.224   0.894  15.722 -0.2092  0.3729  0.1595
  270TMC3    C8 4090   2.835   0.874  15.563  0.2428 -0.3023  0.0210
  270TMC3    O1 4091   3.317   0.899  15.801 -0.3985  0.1092 -0.1861
  270TMC3    O2 4092   2.895   0.769  15.545  0.3434 -0.0713  0.6202
  271MPD2     C 4093   2.392   0.627  13.720  0.0379 -0.1351 -0.6254
  271MPD2    C1 4094   2.380   0.723  13.814  0.4825  0.0550 -0.3093
  271MPD2    C2 4095   2.271   0.804  13.819  0.0598  0.6499  0.1804
  271MPD2    C3 4096   2.177   0.800  13.722  0.2202  0.0077 -0.3312
  271MPD2    C4 4097   2.190   0.700  13.620 -0.7366  0.7118  0.1554
  271MPD2    C5 4098   2.295   0.618  13.617 -0.2461 -0.1567 -0.0686
  271MPD2     H 4099   2.272   0.881  13.896  1.8110 -1.0547  1.8771
  271MPD2    H1 4100   2.124   0.686  13.535  0.2682 -0.2142 -0.4781
  271MPD2    H2 4101   2.475   0.558  13.719  1.7069  1.7898  2.6016
  271MPD2    H3 4102   2.311   0.544  13.540 -2.7379 -1.4024  0.5906
  271MPD2     N 4103   2.068   0.883  13.711 -0.0106 -0.2627  0.1584
  271MPD2    H5 4104   2.001   0.869  13.637 -1.7580 -1.9218  2.0822
  271MPD2    N1 4105   2.472   0.748  13.916  0.2166 -0.2986  0.1870
  271MPD2    H7 4106   2.460   0.834  13.970  0.3441 -0.4480  0.4537
  272TMC3    C1 4107   2.631   0.697  14.080  0.3232  0.3232  0.0279
  272TMC3    C2 4108   2.758   0.648  14.101 -0.0119  0.1053  0.1966
  272TMC3    C3 4109   2.805   0.650  14.234 -1.1613 -0.4228  0.1446
  272TMC3    C4 4110   2.561   0.759  14.178 -0.2159  0.3807  0.7997
  272TMC3    C5 4111   2.610   0.756  14.304 -0.6308  0.2262  0.7425
  272TMC3    C6 4112   2.734   0.710  14.337  0.1048  0.4491  0.9405
  272TMC3     C 4113   2.576   0.664  13.952 -0.5938  0.5916 -0.1942
  272TMC3     O 4114   2.634   0.574  13.891 -1.1509 -0.4099 -0.3706
  272TMC3     H 4115   2.820   0.602  14.025  2.4085  0.1449  2.1352
  272TMC3    H1 4116   2.461   0.796  14.159 -0.4033 -0.4522  0.1491
  272TMC3    H2 4117   2.771   0.718  14.439 -0.6606  0.1982  1.2376
  272TMC3    C7 4118   2.518   0.818  14.405  0.3177  0.9463 -0.7730
  272TMC3    C8 4119   2.941   0.619  14.242 -0.4719  0.9040  0.5506
  272TMC3    O1 4120   2.402   0.830  14.371  0.2234 -0.5924 -0.1490
  272TMC3    O2 4121   3.012   0.630  14.140  0.7806 -0.1836  0.4123
  273MPD2     C 4122   3.900   3.410  12.377  0.4964 -0.1064 -0.3448
  273MPD2    C1 4123   3.938   3.533  12.315 -0.0056 -0.6035  0.6283
  273MPD2    C2 4124   3.934   3.535  12.183 -0.6832 -0.1395 -0.7737
  273MPD2    C3 4125   3.889   3.427  12.106  0.0191  0.4421  1.1930
  273MPD2    C4 4126   3.869   3.303  12.164  1.0873  0.0517  0.3717
  273MPD2    C5 4127   3.879   3.295  12.299  0.2573  0.0425  0.2922
  273MPD2     H 4128   3.962   3.627  12.133 -1.6451  1.8650  2.4011
  273MPD2    H1 4129   3.837   3.221  12.100  0.9678  0.9888 -0.7662
  273MPD2    H2 4130   3.905   3.390  12.483  0.3072  0.7834 -0.1692
  273MPD2    H3 4131   3.855   3.202  12.348 -0.2581  1.1246  2.0916
  273MPD2     N 4132   3.863   3.434  11.968 -0.5223  0.4969 -0.3048
  273MPD2    H5 4133   3.843   3.350  11.915 -1.7769 -0.9547  2.4568
  273MPD2    N1 4134   3.957   3.652  12.394  0.2401  0.0782  0.4393
  273MPD2    H7 4135   3.940   3.643  12.494  0.3266 -0.6417  0.3883
  274TMC3    C1 4136   3.796   3.558  11.771 -0.3168 -0.5242 -0.0410
  274TMC3    C2 4137   3.689   3.472  11.756  0.5368  0.1920 -0.4350
  274TMC3    C3 4138   3.571   3.523  11.706  0.2304  0.1302 -0.0387
  274TMC3    C4 4139   3.774   3.694  11.750  0.0858 -0.3114  0.2228
  274TMC3    C5 4140   3.653   3.741  11.715  0.0950 -0.4824 -0.4547
  274TMC3    C6 4141   3.555   3.655  11.673 -0.1595 -0.3247 -0.9183
  274TMC3     C 4142   3.854   3.556  11.904  0.1036  0.2462 -0.9243
  274TMC3     O 4143   3.878   3.671  11.944  0.4116  0.4256  0.0641
  274TMC3     H 4144   3.690   3.373  11.799 -2.9965 -0.3559 -1.6559
  274TMC3    H1 4145   3.854   3.767  11.745 -1.2221  1.0209 -1.2122
  274TMC3    H2 4146   3.460   3.694  11.638 -0.8612 -1.4604 -0.2579
  274TMC3    C7 4147   3.604   3.857  11.784 -0.8037  0.4223 -0.0047
  274TMC3    C8 4148   3.474   3.425  11.658 -0.0064  0.7578 -0.3739
  274TMC3    O1 4149   3.512   3.925  11.741 -0.3578  0.2907  1.0390
  274TMC3    O2 4150   3.498   3.307  11.672 -0.2132 -0.3344 -0.5634
  275MPD2     C 4151   4.082   1.794  14.507  0.4952  0.6846  0.1853
  275MPD2    C1 4152   3.988   1.895  14.509  0.3325  0.2075  0.0331
  275MPD2    C2 4153   3.853   1.871  14.527  0.8952  0.3434 -0.8805
  275MPD2    C3 4154   3.810   1.743  14.553  0.7538 -0.3398 -0.3137
  275MPD2    C4 4155   3.906   1.642  14.554  0.0582  0.1653  0.7446
  275MPD2    C5 4156   4.038   1.666  14.526  0.1216 -0.1743  0.3946
  275MPD2     H 4157   3.786   1.957  14.525  1.0239  0.4334 -1.4587
  275MPD2    H1 4158   3.883   1.538  14.572  0.6892 -0.6902 -3.3416
  275MPD2    H2 4159   4.189   1.810  14.493  0.4675  0.0664 -0.7127
  275MPD2    H3 4160   4.104   1.580  14.520 -0.4044 -0.6748  1.8995
  275MPD2     N 4161   3.674   1.711  14.577  0.1644 -0.6930  0.2071
  275MPD2    H5 4162   3.648   1.613  14.582  0.6437 -0.9508 -2.4984
  275MPD2    N1 4163   4.024   2.038  14.495 -0.4504 -0.1799  0.0130
  275MPD2    H7 4164   3.942   2.096  14.508 -0.3749 -0.2839  1.0079
  276TMC3    C1 4165   4.141   2.218  14.550  0.8640  0.3403  0.3722
  276TMC3    C2 4166   4.012   2.245  14.596  0.0802 -0.4890  0.3209
  276TMC3    C3 4167   3.986   2.250  14.730 -0.0185  0.0793 -0.0883
  276TMC3    C4 4168   4.248   2.228  14.631  0.0054 -1.1432 -0.8736
  276TMC3    C5 4169   4.215   2.238  14.769 -0.0634  0.3453 -0.1621
  276TMC3    C6 4170   4.091   2.248  14.817  0.0324  0.0304 -0.2048
  276TMC3     C 4171   4.149   2.088  14.493 -0.4207 -0.1953 -0.3920
  276TMC3     O 4172   4.262   2.042  14.510 -0.6008  0.4864  1.0283
  276TMC3     H 4173   3.933   2.271  14.525 -1.7545 -2.3062  1.6769
  276TMC3    H1 4174   4.348   2.231  14.589  0.0434 -1.0319 -0.7729
  276TMC3    H2 4175   4.062   2.244  14.922  1.3580  1.1319  0.2137
  276TMC3    C7 4176   4.314   2.217  14.867 -0.4152  0.0439  0.2739
  276TMC3    C8 4177   3.870   2.172  14.773  0.4562  0.3980  0.9776
  276TMC3    O1 4178   4.291   2.236  14.987  0.0918 -0.6015  0.4697
  276TMC3    O2 4179   3.767   2.209  14.720  0.4236 -0.2041  0.2060
  277MPD2     C 4180   1.014   0.468  13.108 -0.2389  0.3681 -0.3528
  277MPD2    C1 4181   0.966   0.530  13.219 -0.0359  0.5600  0.0487
  277MPD2    C2 4182   0.970   0.465  13.342  0.1040  0.4348 -0.2501
  277MPD2    C3 4183   1.014   0.332  13.349 -0.0137  0.1094 -0.3311
  277MPD2    C4 4184   1.066   0.274  13.234  0.5183  0.1759  0.7449
  277MPD2    C5 4185   1.065   0.341  13.116 -0.9614 -0.8955  0.0201
  277MPD2     H 4186   0.912   0.500  13.427 -0.7222  0.3115 -0.7562
  277MPD2    H1 4187   1.102   0.172  13.248  1.3813  0.3315 -0.3816
  277MPD2    H2 4188   1.020   0.511  13.008  1.2666 -2.3734 -1.4250
  277MPD2    H3 4189   1.098   0.294  13.024 -1.8537 -0.8521 -0.3169
  277MPD2     N 4190   0.985   0.263  13.470 -0.0270  0.3231  0.6760
  277MPD2    H5 4191   0.927   0.307  13.540 -0.9874  0.0149  0.0838
  277MPD2    N1 4192   0.912   0.659  13.205 -0.1923 -0.5654 -0.1996
  277MPD2    H7 4193   0.896   0.693  13.110  1.7269  1.2925  0.1191
  278TMC3    C1 4194   0.966   0.072  13.623 -0.3897  0.1355  0.2581
  278TMC3    C2 4195   0.916   4.665  13.631 -0.8450  0.4723 -0.5540
  278TMC3    C3 4196   0.846   4.623  13.740 -0.7984  0.5023 -0.5913
  278TMC3    C4 4197   0.943   0.156  13.730  0.1070  0.2276  0.2749
  278TMC3    C5 4198   0.879   0.119  13.846 -0.0465  0.1685 -0.1773
  278TMC3    C6 4199   0.827   4.713  13.846  0.3499 -0.2046  0.1921
  278TMC3     C 4200   1.014   0.129  13.490 -0.9463 -0.8727  0.0230
  278TMC3     O 4201   1.054   0.043  13.406 -0.1898  0.2036 -0.1312
  278TMC3     H 4202   0.928   4.604  13.542 -4.2386 -1.6307  0.4258
  278TMC3    H1 4203   0.986   0.255  13.736  1.2629 -0.2722  0.2411
  278TMC3    H2 4204   0.770   4.674  13.929 -1.0659  0.0061 -0.6742
  278TMC3    C7 4205   0.815   0.223  13.923 -0.0481  0.1429  0.0232
  278TMC3    C8 4206   0.742   4.522  13.743 -0.7965 -0.0941 -0.8522
  278TMC3    O1 4207   0.872   0.325  13.958 -0.3675  0.7030 -0.0538
  278TMC3    O2 4208   0.652   4.541  13.824  0.1122  0.3662  0.6163
  279MPD2     C 4209   0.474   0.279   0.552 -0.2534  0.3875 -0.1175
  279MPD2    C1 4210   0.470   0.414   0.570 -0.4776 -0.0077  0.0257
  279MPD2    C2 4211   0.389   0.493   0.494 -0.3833 -0.0679 -0.2463
  279MPD2    C3 4212   0.306   0.430   0.410 -0.2120  0.7388 -0.0165
  279MPD2    C4 4213   0.311   0.293   0.391 -0.4443 -0.3062 -0.2087
  279MPD2    C5 4214   0.391   0.217   0.468 -0.0762 -0.4250 -0.4524
  279MPD2     H 4215   0.392   0.601   0.495  1.0952 -0.1173  0.8246
  279MPD2    H1 4216   0.252   0.256   0.308 -1.4225 -1.3361  0.9459
  279MPD2    H2 4217   0.540   0.218   0.613  0.2915  1.0849 -0.0165
  279MPD2    H3 4218   0.377   0.110   0.458 -2.4587 -0.3550  2.1147
  279MPD2     N 4219   0.206   0.494   0.332  1.0015 -0.6650  0.6770
  279MPD2    H5 4220   0.149   0.428   0.279 -1.5752  1.6643  0.5719
  279MPD2    N1 4221   0.551   0.463   0.670 -0.5506 -0.2937  0.3766
  279MPD2    H7 4222   0.614   0.395   0.711  1.0282  0.5468 -0.6758
  280TMC3    C1 4223   0.409   0.658   0.734  0.3383 -0.4101 -0.4015
  280TMC3    C2 4224   0.288   0.591   0.748 -0.2020 -0.0306 -0.0206
  280TMC3    C3 4225   0.171   0.664   0.732  0.5583 -0.2767 -0.1009
  280TMC3    C4 4226   0.410   0.799   0.731  0.3410  0.3821 -0.0275
  280TMC3    C5 4227   0.293   0.866   0.712 -0.4592 -0.1927  0.2959
  280TMC3    C6 4228   0.175   0.801   0.702 -0.9690 -0.1005  0.6734
  280TMC3     C 4229   0.546   0.587   0.728  0.2272 -0.1705 -0.5303
  280TMC3     O 4230   0.631   0.646   0.791 -0.5060  0.3581 -0.0869
  280TMC3     H 4231   0.281   0.483   0.743 -0.3885 -0.0626  0.9631
  280TMC3    H1 4232   0.507   0.848   0.728 -0.3998  1.7688 -1.5595
  280TMC3    H2 4233   0.081   0.855   0.711 -0.9705 -0.3399  2.1139
  280TMC3    C7 4234   0.302   0.997   0.653 -0.0003  0.0999 -0.2015
  280TMC3    C8 4235   0.073   0.591   0.671  0.2115  0.4181 -0.2168
  280TMC3    O1 4236   0.411   1.051   0.658  0.2441 -0.0863 -0.2490
  280TMC3    O2 4237   4.718   0.641   0.585  0.0499 -0.6958 -0.4641
  281TMC3    C1 4238   3.729   1.118  13.622  0.0953 -0.3189 -0.6757
  281TMC3    C2 4239   3.731   1.224  13.540  0.0701 -0.3287  0.1188
  281TMC3    C3 4240   3.787   1.213  13.417 -0.7363  0.5181  0.0348
  281TMC3    C4 4241   3.799   1.004  13.590  0.1685  0.5150 -0.2780
  281TMC3    C5 4242   3.833   0.989  13.459 -0.5173 -0.3789 -0.7840
  281TMC3    C6 4243   3.831   1.093  13.369 -0.8171  0.3725  0.1294
  281TMC3     C 4244   3.591   1.077  13.656  0.6937  0.1885 -0.8774
  281TMC3     O 4245   3.564   0.955  13.634  0.8124 -0.1234 -0.0487
  281TMC3     H 4246   3.689   1.321  13.565 -1.2340 -0.6095 -1.0132
  281TMC3    H1 4247   3.794   0.919  13.657  1.9649  1.0556  0.5641
  281TMC3    H2 4248   3.887   1.093  13.276  3.1709  2.7454  2.5549
  281TMC3    C7 4249   3.861   0.861  13.402  0.0650 -1.1759  0.2716
  281TMC3    C8 4250   3.726   1.298  13.321  0.0969 -0.1373 -0.2038
  281TMC3    O1 4251   3.919   0.851  13.298  0.5571  0.0323 -0.1135
  281TMC3    O2 4252   3.795   1.369  13.251  0.5602 -0.7864  0.6323
  282MPD2     C 4253   0.411   2.446  15.355  0.0480 -0.7086 -0.7107
  282MPD2    C1 4254   0.291   2.499  15.385  0.1216 -0.3207 -0.2068
  282MPD2    C2 4255   0.196   2.510  15.285  0.2735 -0.5782  0.3734
  282MPD2    C3 4256   0.213   2.468  15.158 -0.8057 -0.2000  0.1247
  282MPD2    C4 4257   0.330   2.404  15.129  0.1592  0.2925 -0.1695
  282MPD2    C5 4258   0.426   2.397  15.226  0.8409 -0.3505 -0.9726
  282MPD2     H 4259   0.097   2.542  15.316  1.2782  3.6117 -0.6949
  282MPD2    H1 4260   0.367   2.368  15.033 -0.0740 -2.3998  0.7509
  282MPD2    H2 4261   0.487   2.447  15.432  0.2616  1.4960 -0.9442
  282MPD2    H3 4262   0.517   2.341  15.210  0.4892 -1.3074  0.3536
  282MPD2     N 4263   0.106   2.489  15.072  0.4615 -0.3028  0.0791
  282MPD2    H5 4264   0.033   2.556  15.094 -0.1053 -0.6028 -0.8892
  282MPD2    N1 4265   0.256   2.547  15.517 -0.6076  0.3907  0.3296
  282MPD2    H7 4266   0.179   2.608  15.539 -2.1765 -1.5156  0.1778
  283TMC3    C1 4267   0.239   2.512  15.745  0.2236 -0.2961 -0.6966
  283TMC3    C2 4268   0.201   2.640  15.779 -0.3318  0.6101 -0.0354
  283TMC3    C3 4269   0.115   2.652  15.886 -0.6182 -0.2082  0.1955
  283TMC3    C4 4270   0.186   2.405  15.811 -0.5491  0.4543 -0.9963
  283TMC3    C5 4271   0.110   2.425  15.918  0.5754 -0.0468 -0.8454
  283TMC3    C6 4272   0.070   2.548  15.961 -0.8183  0.3302  0.1640
  283TMC3     C 4273   0.310   2.481  15.629  0.3790  0.1664  0.1164
  283TMC3     O 4274   0.385   2.388  15.640  0.2062 -0.1094  0.6754
  283TMC3     H 4275   0.254   2.721  15.730  1.0070  1.2912  2.5351
  283TMC3    H1 4276   0.203   2.306  15.771 -2.2884  0.0656 -0.7558
  283TMC3    H2 4277   4.714   2.554  16.037 -0.8677  1.4719  0.0274
  283TMC3    C7 4278   0.040   2.314  15.970  0.1490  0.2263 -0.1055
  283TMC3    C8 4279   0.092   2.780  15.955  0.0577  0.1774 -0.2769
  283TMC3    O1 4280   4.645   2.336  16.008 -0.2269  0.0715  0.5335
  283TMC3    O2 4281   0.058   2.777  16.072  0.0300  0.2201 -0.0803
  284MPD2     C 4282   3.930   1.288  11.906 -0.4426  0.5223  0.0189
  284MPD2    C1 4283   3.934   1.287  11.771  0.1084 -0.4533  0.6944
  284MPD2    C2 4284   3.827   1.230  11.703 -0.2605  1.1103 -0.1833
  284MPD2    C3 4285   3.706   1.201  11.767  0.4975  0.2049 -0.1324
  284MPD2    C4 4286   3.697   1.227  11.898 -0.6247 -0.5253 -0.7367
  284MPD2    C5 4287   3.815   1.268  11.969 -1.0761 -0.3341  0.4333
  284MPD2     H 4288   3.818   1.229  11.595 -2.4274  1.7268 -0.0097
  284MPD2    H1 4289   3.607   1.210  11.957 -0.2917  0.1608 -0.0255
  284MPD2    H2 4290   4.012   1.325  11.967 -0.3008 -0.5451  0.4777
  284MPD2    H3 4291   3.817   1.278  12.077  1.0941 -1.2718  0.4716
  284MPD2     N 4292   3.592   1.140  11.702 -0.0738 -0.0072  0.2289
  284MPD2    H5 4293   3.503   1.132  11.752 -1.7329 -2.1023 -3.0435
  284MPD2    N1 4294   4.036   1.337  11.686  0.7288  0.1342  0.4505
  284MPD2    H7 4295   4.012   1.353  11.589  0.3599  0.9593  0.6775
  285TMC3    C1 4296   4.238   1.426  11.618  0.3957 -0.4948  0.2407
  285TMC3    C2 4297   4.199   1.387  11.494 -0.0095 -0.0580  0.0782
  285TMC3    C3 4298   4.209   1.479  11.398  0.0175  0.3619 -1.0207
  285TMC3    C4 4299   4.301   1.542  11.641  0.5190  0.6430  0.4018
  285TMC3    C5 4300   4.306   1.634  11.541 -0.2627 -0.5081 -0.1023
  285TMC3    C6 4301   4.266   1.605  11.417 -0.4527  0.3720 -0.4762
  285TMC3     C 4302   4.154   1.385  11.735  0.0350 -0.3154  0.1197
  285TMC3     O 4303   4.189   1.407  11.850 -0.5976 -0.2840 -0.2710
  285TMC3     H 4304   4.157   1.290  11.471  1.4240 -0.5843 -0.3258
  285TMC3    H1 4305   4.314   1.576  11.743 -0.2473  1.8904  0.0822
  285TMC3    H2 4306   4.251   1.686  11.347 -2.6739 -1.2765 -1.9135
  285TMC3    C7 4307   4.319   1.774  11.573 -0.1807  0.5686  0.1287
  285TMC3    C8 4308   4.197   1.429  11.262 -0.7454  0.0325  0.1791
  285TMC3    O1 4309   4.277   1.809  11.684  0.4604  0.5203 -0.3899
  285TMC3    O2 4310   4.130   1.331  11.233  0.3196 -0.3159 -0.4991
  286MPD2     C 4311   4.046   0.719   1.898  0.4515 -0.4361  0.5800
  286MPD2    C1 4312   4.052   0.705   1.759 -0.0199  0.4088 -0.6489
  286MPD2    C2 4313   4.173   0.692   1.690 -0.1137 -0.1710  0.1554
  286MPD2    C3 4314   4.295   0.688   1.763  0.4739 -0.1653  0.1537
  286MPD2    C4 4315   4.291   0.710   1.900 -0.5850  0.7421 -0.5960
  286MPD2    C5 4316   4.172   0.725   1.963 -0.2828 -0.0853 -0.0432
  286MPD2     H 4317   4.166   0.691   1.582  0.7224 -1.2377  0.1240
  286MPD2    H1 4318   4.381   0.717   1.960  0.9985  1.5841 -3.0735
  286MPD2    H2 4319   3.956   0.733   1.956  0.3598  0.6054  0.1953
  286MPD2    H3 4320   4.182   0.749   2.068  0.9660  0.9209 -0.3955
  286MPD2     N 4321   4.423   0.662   1.700  0.3714  0.5682  0.0243
  286MPD2    H5 4322   4.497   0.653   1.769  1.4178  0.1274 -1.1618
  286MPD2    N1 4323   3.936   0.715   1.676 -0.8500  0.4888  0.3779
  286MPD2    H7 4324   3.951   0.691   1.578 -3.7391 -1.3096  0.3781
  287TMC3    C1 4325   4.580   0.584   1.540  0.5214 -0.2955 -0.5211
  287TMC3    C2 4326   4.603   0.520   1.421  0.1367  0.0535 -0.1263
  287TMC3    C3 4327   4.718   0.462   1.392 -0.9621  0.5065 -0.5016
  287TMC3    C4 4328   4.671   0.568   1.642 -0.3097 -0.5023 -0.1818
  287TMC3    C5 4329   0.072   0.513   1.613  0.4403 -0.0191  0.4910
  287TMC3    C6 4330   0.098   0.458   1.486 -0.7927  0.2977  0.1483
  287TMC3     C 4331   4.443   0.624   1.567 -0.2632 -0.7042 -0.4614
  287TMC3     O 4332   4.358   0.620   1.474 -0.3449 -0.0027 -0.2876
  287TMC3     H 4333   4.523   0.521   1.349  0.5857  0.4148 -0.6266
  287TMC3    H1 4334   4.659   0.603   1.744  1.7054 -3.5554  1.1248
  287TMC3    H2 4335   0.192   0.412   1.458 -1.6656 -1.7488  0.5717
  287TMC3    C7 4336   0.172   0.495   1.717 -0.6103 -0.3637  0.0366
  287TMC3    C8 4337   0.002   0.342   1.306 -0.0451  0.0073 -0.3642
  287TMC3    O1 4338   0.170   0.576   1.807  0.5091 -0.5564 -0.6726
  287TMC3    O2 4339   0.106   0.280   1.308  0.3544  0.3135  0.3261
  288TMC3    C1 4340   1.180   0.381  14.386 -0.0499  0.1159  0.1242
  288TMC3    C2 4341   1.099   0.398  14.498 -0.3518 -0.6937  0.1704
  288TMC3    C3 4342   1.006   0.500  14.485  0.0003  0.5730 -0.2536
  288TMC3    C4 4343   1.159   0.454  14.273 -0.4010  0.3862 -0.0959
  288TMC3    C5 4344   1.064   0.546  14.267 -0.1474 -0.6204 -0.6546
  288TMC3    C6 4345   0.988   0.573  14.373  0.1310  0.4553 -0.1294
  288TMC3     C 4346   1.278   0.277  14.386 -0.3900 -0.3953 -0.5846
  288TMC3     O 4347   1.315   0.240  14.499  0.2585 -0.4060 -0.2131
  288TMC3     H 4348   1.115   0.334  14.584  0.6377 -0.5966  0.0569
  288TMC3    H1 4349   1.212   0.440  14.179 -1.8853  2.3445 -1.2184
  288TMC3    H2 4350   0.942   0.671  14.382  0.5505  0.5895  0.4906
  288TMC3    C7 4351   1.030   0.609  14.139  0.2056 -0.4847 -0.3455
  288TMC3    C8 4352   0.958   0.558  14.604 -0.2113  0.0352 -0.2692
  288TMC3    O1 4353   1.115   0.604  14.054  0.0017 -0.0326 -0.0427
  288TMC3    O2 4354   0.968   0.681  14.616  0.3337 -1.0870 -0.1354
  289MPD2     C 4355   0.873   4.252  14.992  0.0171  0.3149  0.3674
  289MPD2    C1 4356   0.931   4.260  14.865  0.3574 -0.8674 -0.0863
  289MPD2    C2 4357   0.857   4.223  14.754  0.7014  0.0693 -1.1689
  289MPD2    C3 4358   0.724   4.174  14.769  0.1923 -0.6151 -0.3051
  289MPD2    C4 4359   0.671   4.163  14.893  0.5481 -0.7866  0.1555
  289MPD2    C5 4360   0.746   4.201  15.002  0.5509 -0.0207 -0.0296
  289MPD2     H 4361   0.902   4.232  14.656 -0.6150  1.1223 -1.6736
  289MPD2    H1 4362   0.567   4.142  14.916  0.3638 -1.8543 -1.6910
  289MPD2    H2 4363   0.919   4.301  15.077  0.2940  0.4028  0.1676
  289MPD2    H3 4364   0.694   4.203  15.097 -1.6468  2.2207 -1.2419
  289MPD2     N 4365   0.650   4.116  14.662 -0.4048  0.3678  0.2676
  289MPD2    H5 4366   0.562   4.073  14.687  1.2864 -4.3317 -2.0317
  289MPD2    N1 4367   1.068   4.303  14.860 -0.0141  0.1384  0.4468
  289MPD2    H7 4368   1.121   4.301  14.946  1.9025  1.6142 -0.7053
  290TMC3    C1 4369   0.573   4.063  14.446 -0.1843  0.0653 -0.9067
  290TMC3    C2 4370   0.535   4.139  14.340  0.0519 -0.5576  0.0634
  290TMC3    C3 4371   0.416   4.117  14.277  0.6385  0.6147  0.6567
  290TMC3    C4 4372   0.501   3.958  14.499  0.3166  0.0154 -0.4894
  290TMC3    C5 4373   0.383   3.938  14.442  0.5272 -0.1255  0.2399
  290TMC3    C6 4374   0.338   4.021  14.337 -0.0675 -1.0045  0.3909
  290TMC3     C 4375   0.680   4.120  14.525  0.0694  0.2058  0.0884
  290TMC3     O 4376   0.761   4.180  14.458 -0.3198  0.3018  0.5932
  290TMC3     H 4377   0.598   4.216  14.298  2.3373 -1.7326  1.2904
  290TMC3    H1 4378   0.541   3.885  14.569 -0.2028  0.8952  0.7401
  290TMC3    H2 4379   0.237   4.008  14.301 -0.5072  1.4544  0.7184
  290TMC3    C7 4380   0.285   3.853  14.501  0.0168 -0.3268  0.1608
  290TMC3    C8 4381   0.353   4.231  14.211  0.2502  0.2418  0.5433
  290TMC3    O1 4382   0.179   3.909  14.523 -0.1713 -0.2298  0.2797
  290TMC3    O2 4383   0.254   4.206  14.137 -0.2280 -0.1671  0.0545
  291MPD2     C 4384   0.002   3.300   0.694  0.1683  0.5048  0.7168
  291MPD2    C1 4385   0.047   3.222   0.592  0.5477 -0.6407 -1.2533
  291MPD2    C2 4386   0.178   3.173   0.602  0.1591 -0.1289  0.0166
  291MPD2    C3 4387   0.268   3.219   0.700  1.1025 -0.0810  0.4416
  291MPD2    C4 4388   0.216   3.304   0.797  0.3625 -0.0756  0.4039
  291MPD2    C5 4389   0.084   3.345   0.794 -0.2201  0.4229  0.0781
  291MPD2     H 4390   0.229   3.119   0.523  0.4454  0.6449 -0.3223
  291MPD2    H1 4391   0.275   3.344   0.878  0.7171  0.2941 -0.0339
  291MPD2    H2 4392   4.619   3.328   0.706 -0.8864 -2.9083 -0.3616
  291MPD2    H3 4393   0.041   3.386   0.885  0.3779 -0.4128  0.7363
  291MPD2     N 4394   0.407   3.194   0.701 -0.0731  0.2632  0.1880
  291MPD2    H5 4395   0.462   3.265   0.749  1.5190 -1.9815  1.6854
  291MPD2    N1 4396   4.696   3.210   0.474  0.4828  0.2933 -0.3686
  291MPD2    H7 4397   4.619   3.275   0.461 -0.3004 -0.7024 -0.6937
  292TMC3    C1 4398   4.659   3.176   0.250 -0.5113 -0.4117  0.4283
  292TMC3    C2 4399   4.546   3.260   0.256 -0.3284 -0.1524 -0.0708
  292TMC3    C3 4400   4.502   3.296   0.125  0.3431 -0.3597  0.5363
  292TMC3    C4 4401   0.005   3.150   0.132 -0.6478 -0.1914 -0.4358
  292TMC3    C5 4402   4.669   3.187   0.013 -0.2303 -0.1335  1.0055
  292TMC3    C6 4403   4.560   3.264   0.003  0.4194  0.4501 -0.4169
  292TMC3     C 4404   0.011   3.132   0.370  0.0964  0.7770 -0.1421
  292TMC3     O 4405   0.098   3.047   0.354 -0.2130  0.1722 -0.1825
  292TMC3     H 4406   4.477   3.262   0.340 -1.3651 -1.9981 -0.9004
  292TMC3    H1 4407   0.101   3.100   0.130 -1.3854 -1.5278 -2.1879
  292TMC3    H2 4408   4.516   3.291  17.595 -3.1846 -1.4892  0.7143
  292TMC3    C7 4409   0.019   3.135  17.585 -0.5532 -0.3109  0.5382
  292TMC3    C8 4410   4.387   3.387   0.112 -0.4095  0.6222  0.4329
  292TMC3    O1 4411   0.095   3.043  17.600  0.4482 -0.0108 -0.7648
  292TMC3    O2 4412   4.333   3.396  17.687 -0.8281 -0.6809 -0.6992
  293MPD2     C 4413   1.327   0.085  12.938 -0.4810  0.1436  0.3843
  293MPD2    C1 4414   1.339   0.223  12.917  0.1658  0.2602 -0.1299
  293MPD2    C2 4415   1.416   0.301  13.007  0.4061 -0.2908  0.0593
  293MPD2    C3 4416   1.492   0.237  13.103  0.1023 -0.2848  0.0150
  293MPD2    C4 4417   1.481   0.102  13.118 -0.6773 -0.0234  0.0671
  293MPD2    C5 4418   1.402   0.022  13.033  0.0070 -0.4787  0.5521
  293MPD2     H 4419   1.425   0.406  12.982 -2.9649  0.4933  2.0317
  293MPD2    H1 4420   1.536   0.056  13.199 -2.9624  1.3151  2.3915
  293MPD2    H2 4421   1.266   0.023  12.873  1.7152 -1.9879  0.3624
  293MPD2    H3 4422   1.381   4.637  13.045 -1.6907 -0.5257 -2.8910
  293MPD2     N 4423   1.580   0.320  13.180  0.2630 -0.0830 -0.1984
  293MPD2    H5 4424   1.587   0.420  13.164  1.1376 -0.1796 -0.3912
  293MPD2    N1 4425   1.268   0.279  12.801 -0.0127  0.1315  0.2834
  293MPD2    H7 4426   1.217   0.219  12.738 -0.4715 -0.7166  1.4689
  294TMC3    C1 4427   1.201   0.441  12.643  0.8597  1.1085 -0.8227
  294TMC3    C2 4428   1.062   0.414  12.648  0.6879 -0.6660 -0.7196
  294TMC3    C3 4429   0.984   0.491  12.563  0.4809  0.3094  0.2593
  294TMC3    C4 4430   1.261   0.534  12.561 -0.3699  0.1908  0.4608
  294TMC3    C5 4431   1.174   0.608  12.481 -0.0229  0.2869  0.3036
  294TMC3    C6 4432   1.037   0.598  12.488 -0.3895 -0.4407  0.6425
  294TMC3     C 4433   1.277   0.416  12.761 -0.1667 -0.3592 -0.3004
  294TMC3     O 4434   1.348   0.501  12.796  0.1129 -0.3305  0.2809
  294TMC3     H 4435   1.021   0.341  12.717  2.0031  0.1916  0.9709
  294TMC3    H1 4436   1.368   0.550  12.557 -0.2123 -1.6084 -1.8664
  294TMC3    H2 4437   0.969   0.656  12.427  0.4306  1.6069  1.6889
  294TMC3    C7 4438   1.229   0.683  12.367 -0.3646 -0.2476  0.2035
  294TMC3    C8 4439   0.840   0.463  12.538 -0.4833  0.4134  0.0184
  294TMC3    O1 4440   1.146   0.750  12.301  0.4104  0.2520 -0.1815
  294TMC3    O2 4441   0.772   0.562  12.511  0.3606  0.2019 -0.5687
  295MPD2     C 4442   2.024   3.709   0.290 -0.1955  0.1362 -0.0675
  295MPD2    C1 4443   2.128   3.791   0.332 -0.4951 -0.4019 -0.3447
  295MPD2    C2 4444   2.131   3.852   0.459  0.2059 -0.7120 -0.6754
  295MPD2    C3 4445   2.028   3.817   0.548 -0.5990 -0.0286  0.3883
  295MPD2    C4 4446   1.925   3.733   0.511 -0.1058 -0.3324 -0.1082
  295MPD2    C5 4447   1.917   3.693   0.377  0.0810 -0.4015 -0.4370
  295MPD2     H 4448   2.207   3.926   0.478 -1.1109  0.4477  0.0891
  295MPD2    H1 4449   1.850   3.719   0.589  2.1914  0.4011  2.2375
  295MPD2    H2 4450   2.012   3.661   0.193  0.5598 -1.1172  0.4633
  295MPD2    H3 4451   1.837   3.629   0.340  0.4545  0.0424 -2.0128
  295MPD2     N 4452   2.007   3.866   0.684  0.2292  0.3657  0.0330
  295MPD2    H5 4453   1.925   3.834   0.735 -0.1162 -1.2101 -1.5222
  295MPD2    N1 4454   2.229   3.832   0.241  0.8848 -0.1503  0.3955
  295MPD2    H7 4455   2.311   3.872   0.284  1.7298 -0.0055 -1.3421
  296TMC3    C1 4456   2.031   4.023   0.866 -0.3122 -0.5219 -0.4428
  296TMC3    C2 4457   2.078   4.141   0.914 -0.2405  0.4388  0.5976
  296TMC3    C3 4458   2.042   4.182   1.039  0.5339  0.8389 -0.3380
  296TMC3    C4 4459   1.960   3.932   0.943 -0.2560  0.5657  0.6113
  296TMC3    C5 4460   1.932   3.970   1.068  0.8132 -0.9868 -0.0641
  296TMC3    C6 4461   1.968   4.092   1.119  0.2373  0.4487 -0.2133
  296TMC3     C 4462   2.076   3.975   0.738  0.0753 -0.0245 -0.0526
  296TMC3     O 4463   2.161   4.043   0.682  0.3949  0.0847  0.2123
  296TMC3     H 4464   2.117   4.218   0.848 -0.3903 -0.7367 -0.8528
  296TMC3    H1 4465   1.933   3.833   0.908  1.6198  0.4202 -0.3988
  296TMC3    H2 4466   1.922   4.122   1.213  1.5327  0.1262  0.5265
  296TMC3    C7 4467   1.835   3.900   1.149  0.4776 -1.1151 -0.1354
  296TMC3    C8 4468   2.081   4.309   1.083  0.2847  0.0757 -0.0869
  296TMC3    O1 4469   1.756   3.837   1.085  0.2583  0.1919 -1.0318
  296TMC3    O2 4470   2.113   4.386   0.994 -0.2156  0.4792 -0.6400
  297MPD2     C 4471   4.637   1.341  17.086  0.9221 -0.2370  0.1323
  297MPD2    C1 4472   4.581   1.388  16.962 -0.0299  0.1831 -0.3792
  297MPD2    C2 4473   4.655   1.461  16.874  0.5798 -0.1599  0.1912
  297MPD2    C3 4474   0.071   1.480  16.894 -0.2089  0.0253  0.0915
  297MPD2    C4 4475   0.132   1.428  17.007 -0.1109 -0.5485  0.3867
  297MPD2    C5 4476   0.052   1.368  17.103  0.8664  0.3906  0.1573
  297MPD2     H 4477   4.602   1.500  16.788  0.1218  1.1020  1.0429
  297MPD2    H1 4478   0.235   1.435  17.040 -0.1620 -1.4025  0.7465
  297MPD2    H2 4479   4.578   1.298  17.167  1.1723  1.3169  1.1392
  297MPD2    H3 4480   0.110   1.362  17.195  0.1810 -0.8440  0.5149
  297MPD2     N 4481   0.143   1.545  16.793 -0.1187 -0.2179 -0.5375
  297MPD2    H5 4482   0.081   1.584  16.722  1.6069  0.6960 -1.5528
  297MPD2    N1 4483   4.458   1.358  16.920  0.2218 -0.6899  1.0367
  297MPD2    H7 4484   4.434   1.381  16.824  2.8042  0.1548  0.6071
  298TMC3    C1 4485   4.232   1.292  16.914  0.2499 -0.6916  0.7412
  298TMC3    C2 4486   4.238   1.268  16.784  0.0839 -0.4271  0.1672
  298TMC3    C3 4487   4.123   1.251  16.710 -0.0773  0.4647  0.0252
  298TMC3    C4 4488   4.114   1.312  16.978 -0.2357 -0.0001  1.2074
  298TMC3    C5 4489   3.999   1.308  16.904 -0.3537  0.4798  0.3799
  298TMC3    C6 4490   4.003   1.289  16.764 -0.3694  0.3390  0.2535
  298TMC3     C 4491   4.353   1.310  16.995 -0.1340 -0.2472 -0.4777
  298TMC3     O 4492   4.347   1.289  17.114  0.4925 -0.0628  0.3605
  298TMC3     H 4493   4.334   1.248  16.738  0.6302  0.9287  0.7199
  298TMC3    H1 4494   4.122   1.354  17.077 -1.6550  1.1533  0.8336
  298TMC3    H2 4495   3.915   1.278  16.701  1.1276 -1.5067 -1.5290
  298TMC3    C7 4496   3.882   1.343  16.972  0.4756 -0.2762  0.3028
  298TMC3    C8 4497   4.135   1.247  16.566  1.2317 -0.4651 -0.2986
  298TMC3    O1 4498   3.902   1.422  17.066  0.0092  0.1457 -0.1055
  298TMC3    O2 4499   4.241   1.268  16.514 -0.0993  0.1448  0.1223
  299MPD2     C 4500   0.480   0.675   9.838  0.5260  0.6311  0.1346
  299MPD2    C1 4501   0.423   0.805   9.824 -0.0277  0.3129  0.4051
  299MPD2    C2 4502   0.287   0.820   9.790  0.3804  0.0400  0.5528
  299MPD2    C3 4503   0.209   0.706   9.782 -0.7834 -0.8173  0.9843
  299MPD2    C4 4504   0.267   0.583   9.804  0.3726  0.0295  0.9396
  299MPD2    C5 4505   0.405   0.565   9.819 -0.5400 -0.2503 -0.5037
  299MPD2     H 4506   0.244   0.918   9.773  1.6988  0.6333  0.6384
  299MPD2    H1 4507   0.214   0.489   9.812 -0.3509  0.3339 -0.3266
  299MPD2    H2 4508   0.587   0.670   9.859  0.5240  0.0451  0.0080
  299MPD2    H3 4509   0.432   0.462   9.837 -1.6868  0.1326  3.3629
  299MPD2     N 4510   0.066   0.706   9.777 -0.0124  0.0039 -0.4261
  299MPD2    H5 4511   0.014   0.621   9.794  0.2617 -0.5403 -2.3101
  299MPD2    N1 4512   0.505   0.917   9.862 -0.2584  0.0005 -0.2991
  299MPD2    H7 4513   0.600   0.892   9.886 -0.6471 -2.6617 -1.4988
  300TMC3    C1 4514   4.568   0.816   9.752  0.0412  0.5882 -0.2652
  300TMC3    C2 4515   4.502   0.937   9.721 -0.0447  0.3102 -0.2570
  300TMC3    C3 4516   4.371   0.936   9.758 -0.4146  0.3817 -0.2480
  300TMC3    C4 4517   4.504   0.709   9.809 -0.4892 -0.2679  0.0529
  300TMC3    C5 4518   4.367   0.719   9.839 -0.2707 -0.2278  0.1057
  300TMC3    C6 4519   4.298   0.832   9.813  0.2225  1.2002 -0.1761
  300TMC3     C 4520   4.718   0.815   9.729  0.2622  0.4152  0.8047
  300TMC3     O 4521   0.036   0.917   9.670  0.3905 -0.4000 -0.0276
  300TMC3     H 4522   4.560   1.019   9.680  0.6878 -0.9862 -1.8179
  300TMC3    H1 4523   4.571   0.632   9.845 -0.3919 -0.3228 -0.2378
  300TMC3    H2 4524   4.192   0.844   9.833 -0.0018 -0.9052 -0.0532
  300TMC3    C7 4525   4.296   0.637   9.934  0.0507 -0.5303 -0.2327
  300TMC3    C8 4526   4.313   1.063   9.757 -0.0235 -0.0464  0.0023
  300TMC3    O1 4527   4.346   0.527   9.956 -0.0732  0.3528  0.2825
  300TMC3    O2 4528   4.200   1.072   9.703 -0.3530 -0.1478 -0.4139
  301MPD2     C 4529   2.363   2.359   2.030  0.3408  0.6683 -0.2634
  301MPD2    C1 4530   2.233   2.313   2.026  0.2389  0.0811  1.0339
  301MPD2    C2 4531   2.209   2.176   2.022  0.0748  0.0210  0.2701
  301MPD2    C3 4532   2.317   2.085   2.002 -0.8282 -0.5085 -0.4269
  301MPD2    C4 4533   2.445   2.136   2.011 -0.0013 -0.0329  0.4768
  301MPD2    C5 4534   2.469   2.274   2.025 -0.0692  0.0768 -0.0455
  301MPD2     H 4535   2.108   2.139   2.019  0.2024 -0.3170  0.1445
  301MPD2    H1 4536   2.536   2.077   2.011 -0.1432 -0.2795 -1.9989
  301MPD2    H2 4537   2.399   2.461   2.033 -3.3295  1.9133  0.8761
  301MPD2    H3 4538   2.564   2.325   2.016 -0.7233  0.8421 -2.4382
  301MPD2     N 4539   2.306   1.947   1.983 -0.0829  0.7188  0.4043
  301MPD2    H5 4540   2.392   1.895   1.966  0.0776  0.8690  0.7492
  301MPD2    N1 4541   2.119   2.397   2.047  0.1167 -0.3312 -0.2044
  301MPD2    H7 4542   2.031   2.346   2.053  0.7876 -1.2922  1.6062
  302TMC3    C1 4543   2.199   1.747   1.905 -0.5004  0.1232  0.4172
  302TMC3    C2 4544   2.320   1.686   1.872 -0.5596 -0.1351  0.2893
  302TMC3    C3 4545   2.314   1.571   1.803  0.1503 -0.1423 -0.4750
  302TMC3    C4 4546   2.081   1.689   1.864 -0.1217 -0.4370  0.3650
  302TMC3    C5 4547   2.082   1.564   1.805 -0.4885 -0.7548 -0.1154
  302TMC3    C6 4548   2.201   1.499   1.783 -0.1394 -0.0223 -0.6550
  302TMC3     C 4549   2.189   1.877   1.970 -0.4241 -0.6677 -0.3137
  302TMC3     O 4550   2.072   1.913   1.983  0.1813 -0.0406 -0.0751
  302TMC3     H 4551   2.413   1.740   1.886 -1.0080  0.9855 -1.0137
  302TMC3    H1 4552   1.988   1.741   1.881  0.1743  0.5257 -1.0144
  302TMC3    H2 4553   2.209   1.410   1.722  3.1255  0.7481 -1.3438
  302TMC3    C7 4554   1.965   1.519   1.731  0.9431 -0.2603 -0.0104
  302TMC3    C8 4555   2.441   1.491   1.791  1.1092  0.5965  0.4222
  302TMC3    O1 4556   1.975   1.410   1.676  0.5346 -0.4934 -0.8265
  302TMC3    O2 4557   2.435   1.374   1.748  0.1130 -0.3854  0.0426
  303MPD2     C 4558   2.229   0.346  10.710 -0.2081  0.2145  0.0170
  303MPD2    C1 4559   2.191   0.217  10.680  0.2020 -0.1876  0.1108
  303MPD2    C2 4560   2.131   0.176  10.563 -0.9988  0.0735 -0.2745
  303MPD2    C3 4561   2.093   0.284  10.481  0.3275  0.2600  0.5463
  303MPD2    C4 4562   2.126   0.418  10.509 -0.0734 -0.4195 -0.7196
  303MPD2    C5 4563   2.198   0.443  10.619  0.3337 -0.0048 -0.2658
  303MPD2     H 4564   2.100   0.074  10.541 -2.1430  0.5622 -0.8989
  303MPD2    H1 4565   2.099   0.506  10.450 -0.1396 -0.4413 -0.7227
  303MPD2    H2 4566   2.281   0.378  10.800  1.0386  0.8328 -0.9243
  303MPD2    H3 4567   2.220   0.547  10.643 -0.6998  0.4576 -1.3074
  303MPD2     N 4568   2.027   0.257  10.356 -0.3723  0.2880  0.5286
  303MPD2    H5 4569   2.002   0.342  10.306 -0.2454 -0.4915 -0.8505
  303MPD2    N1 4570   2.204   0.127  10.784  0.1357 -0.1696 -0.5413
  303MPD2    H7 4571   2.235   0.168  10.872 -1.3637  1.5642 -0.8345
  304TMC3    C1 4572   2.195   4.644  10.895 -0.3842  0.8101  0.1859
  304TMC3    C2 4573   2.123   4.699  10.994 -0.2434  0.8852  0.0073
  304TMC3    C3 4574   2.134   4.643  11.119 -0.1999 -0.0187  0.2144
  304TMC3    C4 4575   2.276   4.535  10.911 -0.8085 -0.9318 -0.0458
  304TMC3    C5 4576   2.270   4.467  11.033 -0.3118  0.9309  0.3011
  304TMC3    C6 4577   2.202   4.521  11.138 -0.5485  0.3538 -0.5867
  304TMC3     C 4578   2.200   4.711  10.763 -0.4606  0.0669  0.3092
  304TMC3     O 4579   2.229   4.645  10.671 -0.0849 -0.0177 -0.2675
  304TMC3     H 4580   2.067   0.067  10.969 -0.3150  1.3073  1.7131
  304TMC3    H1 4581   2.336   4.498  10.829 -0.2005 -1.0765  0.4603
  304TMC3    H2 4582   2.206   4.481  11.239  0.5240 -0.7416 -1.0706
  304TMC3    C7 4583   2.226   4.328  11.022 -0.1590  0.3785  0.6185
  304TMC3    C8 4584   1.995   4.618  11.167  0.2062 -0.6313 -0.1719
  304TMC3    O1 4585   2.158   4.296  11.121  0.6204 -0.0067  0.6595
  304TMC3    O2 4586   1.902   4.642  11.094  0.3930 -0.1642 -0.3405
  305MPD2     C 4587   0.036   1.925  14.136 -0.1198  0.1901 -0.0094
  305MPD2    C1 4588   0.082   2.051  14.102  0.9498 -0.0630  0.1808
  305MPD2    C2 4589   0.098   2.087  13.966  0.3803 -0.2860 -0.5103
  305MPD2    C3 4590   0.058   1.993  13.867  0.2153 -0.3990 -0.3794
  305MPD2    C4 4591   0.014   1.869  13.906  0.2956 -0.5542  1.3207
  305MPD2    C5 4592   4.718   1.840  14.038  0.1093 -0.7967  0.5922
  305MPD2     H 4593   0.116   2.190  13.938 -2.2731  0.4543  0.5006
  305MPD2    H1 4594   4.686   1.803  13.835 -0.2397  0.9656  0.2845
  305MPD2    H2 4595   0.042   1.880  14.235  0.3137  0.1126 -0.0688
  305MPD2    H3 4596   4.670   1.744  14.057 -1.2274  0.2607  2.5979
  305MPD2     N 4597   0.066   2.029  13.727  0.4888 -0.6583 -0.2672
  305MPD2    H5 4598   0.028   1.951  13.674 -1.3094  0.2304 -0.2689
  305MPD2    N1 4599   0.120   2.125  14.211  0.5014  0.3363  1.0348
  305MPD2    H7 4600   0.098   2.084  14.302 -3.2913 -2.2259 -1.0042
  306TMC3    C1 4601   0.203   2.305  14.343 -0.2915  0.8173 -0.3779
  306TMC3    C2 4602   0.261   2.211  14.425  0.0929  0.9232  0.2846
  306TMC3    C3 4603   0.286   2.245  14.552 -0.4477  0.4731 -0.2030
  306TMC3    C4 4604   0.186   2.437  14.384 -0.5067  0.1501 -0.0315
  306TMC3    C5 4605   0.212   2.466  14.514  0.1932 -0.4854 -0.0540
  306TMC3    C6 4606   0.265   2.375  14.600  0.1419 -0.2621  0.3112
  306TMC3     C 4607   0.154   2.263  14.212 -0.0172  0.1488 -0.1997
  306TMC3     O 4608   0.144   2.340  14.120 -0.1333 -0.0901 -0.6342
  306TMC3     H 4609   0.258   2.105  14.403 -0.4074  0.8731  0.5991
  306TMC3    H1 4610   0.138   2.515  14.327 -0.6966  0.4545  0.5451
  306TMC3    H2 4611   0.297   2.396  14.702 -3.2661  0.8275  1.1784
  306TMC3    C7 4612   0.166   2.589  14.571 -0.4934  0.3271  0.4444
  306TMC3    C8 4613   0.373   2.159  14.638 -0.1158  1.0497  0.2093
  306TMC3    O1 4614   0.065   2.647  14.533  0.2842 -0.1691 -0.1842
  306TMC3    O2 4615   0.460   2.096  14.582 -0.2195 -0.0768 -0.2279
  307MPD2     C 4616   3.098   4.506   0.910 -0.2568 -0.1144  0.0477
  307MPD2    C1 4617   3.073   4.645   0.901  0.0251 -0.1436 -0.1241
  307MPD2    C2 4618   2.953   4.695   0.957  0.4232  0.2591 -0.5387
  307MPD2    C3 4619   2.866   4.611   1.022  0.1426 -0.1799  0.1802
  307MPD2    C4 4620   2.891   4.474   1.026 -0.1528 -1.0110  0.5343
  307MPD2    C5 4621   3.007   4.425   0.970 -0.0159  0.4802  0.2885
  307MPD2     H 4622   2.926   0.079   0.954 -1.5261 -0.2010  1.1068
  307MPD2    H1 4623   2.815   4.405   1.060 -2.9576  1.6953 -0.2313
  307MPD2    H2 4624   3.184   4.449   0.875  2.4229  1.8276  3.5735
  307MPD2    H3 4625   3.022   4.317   0.969 -2.4185  0.1417  0.8436
  307MPD2     N 4626   2.751   4.665   1.079  0.4999  0.1018  0.6121
  307MPD2    H5 4627   2.736   0.044   1.070  0.1897 -0.0547 -0.5984
  307MPD2    N1 4628   3.161   0.015   0.828  0.2386 -0.0336  0.2935
  307MPD2    H7 4629   3.123   0.109   0.818 -0.3797 -0.4398 -1.1834
  308TMC3    C1 4630   2.408   0.130   1.098  0.2515  0.4360 -0.4808
  308TMC3    C2 4631   2.464   0.228   1.184 -1.1625  0.2253 -0.5835
  308TMC3    C3 4632   2.561   0.187   1.271 -0.2383 -0.6629 -0.6585
  308TMC3    C4 4633   2.456   0.003   1.087 -0.1294  0.4311 -0.6804
  308TMC3    C5 4634   2.548   4.691   1.181  0.0683 -0.2403 -0.0588
  308TMC3    C6 4635   2.603   0.061   1.270  0.1529  0.2503 -0.1992
  308TMC3     C 4636   2.303   0.170   1.010  0.1375  0.3744 -0.8158
  308TMC3     O 4637   2.242   0.080   0.953 -0.2299  0.6238 -0.0173
  308TMC3     H 4638   2.407   0.317   1.209 -1.4922  0.5972 -2.7071
  308TMC3    H1 4639   2.412   4.659   1.012  1.7141 -1.1110 -0.4361
  308TMC3    H2 4640   2.685   0.040   1.338 -1.0814 -2.4242  0.4383
  308TMC3    C7 4641   2.645   4.590   1.132 -0.0684  0.8195  0.4919
  308TMC3    C8 4642   2.655   0.295   1.297  0.3296  0.0329  0.0596
  308TMC3    O1 4643   2.624   4.469   1.144 -0.3771  0.6338  0.0082
  308TMC3    O2 4644   2.590   0.395   1.306  0.8321 -0.1514 -0.2488
  309MPD2     C 4645   2.225   0.930  17.380  0.2827  0.4132 -0.6805
  309MPD2    C1 4646   2.195   1.035  17.296  0.4342  0.1454  0.3712
  309MPD2    C2 4647   2.108   1.131  17.340 -0.6335 -0.0251  0.4318
  309MPD2    C3 4648   2.049   1.127  17.470  0.0957  0.5367  0.3377
  309MPD2    C4 4649   2.078   1.028  17.553  0.8922 -0.4718 -0.3251
  309MPD2    C5 4650   2.166   0.932  17.509  0.3097 -0.2855 -0.2318
  309MPD2     H 4651   2.093   1.225  17.289 -1.3523  0.0873  0.8505
  309MPD2    H1 4652   2.032   1.010  17.650 -0.8363  0.4373 -0.9738
  309MPD2    H2 4653   2.286   0.848  17.344 -2.2401  0.0100 -4.0546
  309MPD2    H3 4654   2.178   0.841  17.568  0.3227  0.5940  1.1176
  309MPD2     N 4655   1.954   1.219  17.510 -0.5421  0.3797  0.6920
  309MPD2    H5 4656   1.919   1.213  17.605 -0.9680  2.6896  0.6965
  309MPD2    N1 4657   2.231   1.053  17.162 -0.4519  0.2596  0.9233
  309MPD2    H7 4658   2.197   1.136  17.115 -2.6328 -0.4335  1.2510
  310TMC3    C1 4659   2.349   1.015  16.961 -0.4750  0.6152 -0.1749
  310TMC3    C2 4660   2.290   1.125  16.905  0.0506  0.2734  0.4016
  310TMC3    C3 4661   2.356   1.185  16.803 -0.6391 -0.0549 -0.1958
  310TMC3    C4 4662   2.471   0.960  16.923  0.2329  0.5847  0.5691
  310TMC3    C5 4663   2.525   1.019  16.815 -0.7274 -0.1018  0.5282
  310TMC3    C6 4664   2.470   1.127  16.753 -0.0864  0.4574 -0.2185
  310TMC3     C 4665   2.311   0.963  17.094 -0.2903 -0.4767  0.5883
  310TMC3     O 4666   2.363   0.863  17.138 -0.5500  0.6175  0.8277
  310TMC3     H 4667   2.184   1.135  16.928  0.4892  0.9793  2.1541
  310TMC3    H1 4668   2.501   0.862  16.958 -1.5778 -0.0847  0.2963
  310TMC3    H2 4669   2.535   1.191  16.694  0.2824 -1.1199 -1.5133
  310TMC3    C7 4670   2.661   0.974  16.773  0.3150 -0.0369  0.6461
  310TMC3    C8 4671   2.288   1.277  16.708  0.6762 -0.9320  0.5327
  310TMC3    O1 4672   2.699   1.011  16.665 -0.1431 -0.0110 -0.5525
  310TMC3    O2 4673   2.341   1.276  16.601  0.0112  0.2552 -0.1448
  311MPD2     C 4674   4.224   1.936  12.764 -0.5482  0.9720 -0.0964
  311MPD2    C1 4675   4.193   2.069  12.782  0.0703  0.9503 -0.4448
  311MPD2    C2 4676   4.071   2.106  12.826 -0.3407 -0.7068 -0.7271
  311MPD2    C3 4677   3.978   2.010  12.853 -0.1990 -0.6389  0.3394
  311MPD2    C4 4678   3.998   1.876  12.827 -0.0130  0.5222 -0.0474
  311MPD2    C5 4679   4.127   1.841  12.787  0.3255 -0.0174  0.1960
  311MPD2     H 4680   4.048   2.208  12.857  0.7883 -0.3117 -1.1928
  311MPD2    H1 4681   3.931   1.794  12.853  0.4341 -0.0881 -0.8139
  311MPD2    H2 4682   4.326   1.898  12.755 -0.6926  0.3892  0.7832
  311MPD2    H3 4683   4.158   1.738  12.776 -1.6379 -0.4593 -1.3160
  311MPD2     N 4684   3.850   2.055  12.905  0.0540  0.1744  0.7247
  311MPD2    H5 4685   3.847   2.151  12.939  0.9837 -0.1444  1.7040
  311MPD2    N1 4686   4.279   2.175  12.738  0.3054 -0.6000  0.2623
  311MPD2    H7 4687   4.236   2.267  12.746  1.4044  0.1300 -2.3610
  312TMC3    C1 4688   3.643   2.039  13.014 -0.3785 -0.4084 -0.0476
  312TMC3    C2 4689   3.520   2.017  12.968 -0.0599  0.0698  1.1017
  312TMC3    C3 4690   3.423   2.112  12.999 -0.1178  0.2860  0.2369
  312TMC3    C4 4691   3.684   2.143  13.092 -0.2211  0.2992 -0.2971
  312TMC3    C5 4692   3.585   2.229  13.124  0.5650 -0.4337 -0.4856
  312TMC3    C6 4693   3.453   2.219  13.084  0.1526  0.2870 -0.5628
  312TMC3     C 4694   3.745   1.971  12.929 -0.5049 -0.2330  0.1494
  312TMC3     O 4695   3.711   1.862  12.880 -0.2633  0.4648 -0.1447
  312TMC3     H 4696   3.505   1.944  12.889 -0.6080  0.3389  0.9600
  312TMC3    H1 4697   3.787   2.162  13.119 -0.4299 -0.9785  1.3837
  312TMC3    H2 4698   3.382   2.296  13.111  0.8087  0.7384 -0.1206
  312TMC3    C7 4699   3.623   2.354  13.183 -0.9537  0.2462 -0.4363
  312TMC3    C8 4700   3.285   2.089  12.958 -0.2682  0.0661 -0.0268
  312TMC3    O1 4701   3.531   2.431  13.198  0.2435 -0.0554  0.2979
  312TMC3    O2 4702   3.246   1.974  12.953 -0.2192  0.4821  0.2184
  313MPD2     C 4703   4.282   1.372  10.399 -0.3372 -0.1558  0.8916
  313MPD2    C1 4704   4.148   1.399  10.395  0.1257 -0.5123 -0.1315
  313MPD2    C2 4705   4.071   1.329  10.303 -0.2030  0.0696 -1.0465
  313MPD2    C3 4706   4.134   1.239  10.221 -0.4138 -0.4737  0.7185
  313MPD2    C4 4707   4.268   1.210  10.229  0.0776 -0.7194 -0.3110
  313MPD2    C5 4708   4.339   1.272  10.326  0.4541 -0.8775 -0.0060
  313MPD2     H 4709   3.965   1.347  10.291 -0.1501  0.9427 -0.2571
  313MPD2    H1 4710   4.313   1.131  10.170  0.6820 -0.6889  0.1070
  313MPD2    H2 4711   4.348   1.426  10.466 -2.0308  1.5255  1.2071
  313MPD2    H3 4712   4.445   1.253  10.331  0.6929  0.0590 -1.8996
  313MPD2     N 4713   4.056   1.180  10.114  0.4413  0.0238  0.4254
  313MPD2    H5 4714   3.962   1.218  10.102  0.0506 -1.1026 -0.0210
  313MPD2    N1 4715   4.080   1.495  10.479  0.2913  0.1410  0.4934
  313MPD2    H7 4716   3.980   1.487  10.492  0.3064  0.7475  0.9454
  314TMC3    C1 4717   4.058   1.649  10.658 -0.1370 -0.1503 -0.0986
  314TMC3    C2 4718   4.117   1.664  10.779  0.4933  0.0017  1.0041
  314TMC3    C3 4719   4.033   1.649  10.888  0.0457 -0.0803 -0.6494
  314TMC3    C4 4720   3.923   1.641  10.637  0.4852 -0.0428  0.0418
  314TMC3    C5 4721   3.844   1.631  10.744  0.2423  0.4635  0.0968
  314TMC3    C6 4722   3.898   1.625  10.878  0.1623 -0.8839  0.2438
  314TMC3     C 4723   4.142   1.602  10.551 -0.2144  0.4627 -0.5399
  314TMC3     O 4724   4.261   1.640  10.549  0.1259  0.3240 -0.7941
  314TMC3     H 4725   4.224   1.677  10.779  0.3711  0.9854 -0.9474
  314TMC3    H1 4726   3.865   1.650  10.546  1.6707 -2.9731 -1.0081
  314TMC3    H2 4727   3.825   1.635  10.958  0.0179  4.0057 -0.4815
  314TMC3    C7 4728   3.726   1.711  10.751  0.4654  0.8955 -0.4986
  314TMC3    C8 4729   4.083   1.731  10.995 -0.4799  0.5956  0.4300
  314TMC3    O1 4730   3.644   1.676  10.832  0.1453  0.2597 -0.0811
  314TMC3    O2 4731   4.184   1.792  10.973 -0.4382  0.8725 -0.3868
  315MPD2     C 4732   4.020   0.871   0.145 -0.2645 -0.1521 -0.1404
  315MPD2    C1 4733   4.113   0.916   0.243 -0.8606 -0.1018 -0.3494
  315MPD2    C2 4734   4.207   1.013   0.216  0.0543 -0.6886  0.1812
  315MPD2    C3 4735   4.229   1.067   0.090 -0.3199 -0.0345 -0.4705
  315MPD2    C4 4736   4.145   1.024  17.680  0.7880  0.9627 -0.4268
  315MPD2    C5 4737   4.048   0.925   0.016 -0.4071  0.0504  0.8915
  315MPD2     H 4738   4.273   1.053   0.292 -0.9618 -1.2284  1.3430
  315MPD2    H1 4739   4.147   1.060  17.578 -0.9867 -2.9031 -1.8263
  315MPD2    H2 4740   3.938   0.802   0.157  0.3577 -0.8817 -0.1175
  315MPD2    H3 4741   3.972   0.911  17.628  0.1138  1.5476  0.0753
  315MPD2     N 4742   4.325   1.175   0.079  0.5697  0.4202 -0.1313
  315MPD2    H5 4743   4.368   1.204   0.166 -0.1725  0.1250  0.3350
  315MPD2    N1 4744   4.115   0.862   0.373  0.4289  0.4139 -0.0710
  315MPD2    H7 4745   4.189   0.882   0.440 -0.1684  0.6409  0.5216
  316TMC3    C1 4746   4.387   1.387   0.025  0.0964 -0.5932  0.0949
  316TMC3    C2 4747   4.493   1.380   0.112 -0.3409 -0.0509  0.2441
  316TMC3    C3 4748   4.530   1.492   0.178  0.2142  0.9226  0.0590
  316TMC3    C4 4749   4.300   1.498   0.021 -0.7488 -0.5048 -0.2131
  316TMC3    C5 4750   4.347   1.609   0.094 -0.5196  0.1787  0.6215
  316TMC3    C6 4751   4.465   1.612   0.161 -0.2896 -0.1362 -0.2990
  316TMC3     C 4752   4.323   1.265  17.665  0.1331 -0.3631  0.0127
  316TMC3     O 4753   4.254   1.268  17.564 -0.5533 -0.6141  0.8176
  316TMC3     H 4754   4.546   1.286   0.126 -0.0856  0.1293  0.4926
  316TMC3    H1 4755   4.219   1.496  17.637 -0.2081 -1.5093 -0.7888
  316TMC3    H2 4756   4.500   1.702   0.209  2.8476 -1.1071 -0.7675
  316TMC3    C7 4757   4.269   1.734   0.093  0.2556  0.5229  0.2203
  316TMC3    C8 4758   4.641   1.491   0.268  0.2799 -0.5600  0.6233
  316TMC3    O1 4759   4.327   1.828   0.145 -0.0971 -0.7359  0.5567
  316TMC3    O2 4760   4.694   1.598   0.276 -0.1630 -0.4329 -0.9822
  317MPD2     C 4761   0.266   4.062  12.728 -0.7703  0.8195  0.6942
  317MPD2    C1 4762   0.321   3.935  12.708  0.6396  0.2205 -0.2970
  317MPD2    C2 4763   0.375   3.872  12.813 -0.3101  0.0535  0.3501
  317MPD2    C3 4764   0.364   3.925  12.942  0.1150  0.1053  0.0036
  317MPD2    C4 4765   0.311   4.046  12.962  0.6556 -0.6911  0.1209
  317MPD2    C5 4766   0.265   4.118  12.852  0.2742  0.1915  0.7902
  317MPD2     H 4767   0.424   3.778  12.792 -2.4338 -1.2787  1.2480
  317MPD2    H1 4768   0.321   4.093  13.059 -1.0612  1.1743 -0.6016
  317MPD2    H2 4769   0.231   4.122  12.645  2.8130  0.6904 -0.9112
  317MPD2    H3 4770   0.238   4.223  12.858 -0.6992  0.0173 -0.4601
  317MPD2     N 4771   0.424   3.849  13.049 -0.3597  0.8249 -0.1466
  317MPD2    H5 4772   0.444   3.751  13.032  1.1613  1.0208  0.4830
  317MPD2    N1 4773   0.323   3.874  12.583 -0.1507 -0.6439 -0.0589
  317MPD2    H7 4774   0.362   3.781  12.577 -2.0598 -1.4507  0.0273
  318TMC3    C1 4775   0.532   3.793  13.244 -0.8398 -0.4699 -0.2036
  318TMC3    C2 4776   0.460   3.679  13.256 -0.4472 -0.3657  0.2430
  318TMC3    C3 4777   0.520   3.565  13.317  0.4118  0.3202  0.5545
  318TMC3    C4 4778   0.663   3.799  13.282 -0.4224  0.3207  0.6026
  318TMC3    C5 4779   0.716   3.690  13.342 -0.0998 -0.2921 -0.7350
  318TMC3    C6 4780   0.651   3.570  13.358  1.2464  0.5788 -0.0780
  318TMC3     C 4781   0.474   3.898  13.165  0.8067  0.0375  0.4778
  318TMC3     O 4782   0.476   4.017  13.207  0.4581  0.0338 -0.0382
  318TMC3     H 4783   0.362   3.670  13.210  0.9370 -0.1410 -2.7803
  318TMC3    H1 4784   0.712   3.896  13.278 -0.6143  0.3124 -2.0305
  318TMC3    H2 4785   0.706   3.488  13.402  2.8363  2.7903  2.0560
  318TMC3    C7 4786   0.841   3.712  13.411  0.0207 -0.6393 -0.3282
  318TMC3    C8 4787   0.440   3.448  13.329 -0.0099  0.1254 -0.7449
  318TMC3    O1 4788   0.872   3.828  13.427 -0.1141 -0.5293 -0.1269
  318TMC3    O2 4789   0.501   3.350  13.369  0.2112 -0.0740  0.6064
  319MPD2     C 4790   2.593   0.490  16.277  0.0023 -0.6419  0.4107
  319MPD2    C1 4791   2.479   0.508  16.350  0.1705 -0.3854  0.5449
  319MPD2    C2 4792   2.358   0.517  16.283  0.2886 -0.0041  0.7471
  319MPD2    C3 4793   2.352   0.523  16.145  0.7215 -0.3544 -0.4024
  319MPD2    C4 4794   2.472   0.516  16.080  0.0850  0.0592  0.5596
  319MPD2    C5 4795   2.587   0.501  16.146  0.0984 -0.6110  0.8494
  319MPD2     H 4796   2.267   0.527  16.342  0.7409  1.6179  1.1822
  319MPD2    H1 4797   2.476   0.523  15.972  2.0795 -0.5120  0.6063
  319MPD2    H2 4798   2.693   0.485  16.319  1.1837 -1.6930 -2.4980
  319MPD2    H3 4799   2.678   0.514  16.089  0.0275 -2.4821  0.3038
  319MPD2     N 4800   2.230   0.527  16.075  0.2122 -0.8310 -0.0169
  319MPD2    H5 4801   2.140   0.517  16.121 -0.7315 -0.7268 -1.8442
  319MPD2    N1 4802   2.483   0.512  16.488  0.2342 -0.2833  0.4969
  319MPD2    H7 4803   2.398   0.531  16.540  0.7380 -0.6815  1.4643
  320TMC3    C1 4804   2.089   0.481  15.906 -0.0428  1.2097 -1.5284
  320TMC3    C2 4805   2.012   0.557  15.817 -0.4493  0.1807 -0.1631
  320TMC3    C3 4806   1.881   0.520  15.799 -0.1083 -0.2352  0.3960
  320TMC3    C4 4807   2.034   0.369  15.963  0.7747 -0.2057 -0.3624
  320TMC3    C5 4808   1.912   0.332  15.923 -0.7168  0.1326  0.3022
  320TMC3    C6 4809   1.827   0.408  15.848  0.4974  0.3188 -0.1314
  320TMC3     C 4810   2.219   0.530  15.943 -0.2178  0.1031 -0.3482
  320TMC3     O 4811   2.283   0.588  15.856 -0.1083  0.1405 -0.7833
  320TMC3     H 4812   2.057   0.648  15.778  0.8010 -1.8672 -3.4372
  320TMC3    H1 4813   2.090   0.310  16.034 -1.4977 -2.5067 -0.5188
  320TMC3    H2 4814   1.722   0.383  15.834 -0.3859  3.5604  0.7880
  320TMC3    C7 4815   1.842   0.236  16.002 -0.6334 -1.1512 -0.3602
  320TMC3    C8 4816   1.789   0.627  15.758 -0.4152 -0.0519  0.2165
  320TMC3    O1 4817   1.728   0.272  16.025 -0.6577  0.2076 -0.0204
  320TMC3    O2 4818   1.819   0.744  15.761  0.0761  0.4494 -0.2160
  321TMC3    C1 4819   2.560   0.494  16.704 -0.5587  0.2897  0.1596
  321TMC3    C2 4820   2.424   0.485  16.736 -0.3652 -0.0039  0.1846
  321TMC3    C3 4821   2.384   0.547  16.852  0.9108 -0.4371  0.5888
  321TMC3    C4 4822   2.645   0.545  16.788 -0.4766 -0.0448  0.1657
  321TMC3    C5 4823   2.610   0.594  16.911 -0.0244 -0.2026  0.5275
  321TMC3    C6 4824   2.475   0.607  16.938  0.1627 -0.0410 -0.1378
  321TMC3     C 4825   2.596   0.497  16.567 -0.4192 -0.2704  0.2154
  321TMC3     O 4826   2.711   0.483  16.533  0.5205 -0.1725  0.0740
  321TMC3     H 4827   2.356   0.422  16.680 -1.5275 -0.2698  1.9018
  321TMC3    H1 4828   2.751   0.528  16.772 -0.3743  2.1773 -1.4183
  321TMC3    H2 4829   2.455   0.667  17.025 -2.1745  0.4120 -0.9715
  321TMC3    C7 4830   2.674   0.526  17.026 -0.0686  0.3401 -0.3524
  321TMC3    C8 4831   2.285   0.471  16.933 -1.1577  1.0648  0.8062
  321TMC3    O1 4832   2.608   0.532  17.126  0.2689 -0.2074 -0.0570
  321TMC3    O2 4833   2.199   0.410  16.870 -0.3168 -0.1884  0.4496
  322MPD2     C 4834   0.388   1.792  13.597  0.5053  0.4489  0.1136
  322MPD2    C1 4835   0.406   1.726  13.717 -0.4647 -0.3505  0.0393
  322MPD2    C2 4836   0.444   1.587  13.716 -0.1123  0.3894 -0.3567
  322MPD2    C3 4837   0.472   1.523  13.597  0.2571 -0.1104 -0.0918
  322MPD2    C4 4838   0.446   1.588  13.475 -0.8247 -0.9444  1.0627
  322MPD2    C5 4839   0.413   1.725  13.477 -0.2637 -0.1163 -0.3854
  322MPD2     H 4840   0.472   1.535  13.807 -1.1173  0.5223  0.0313
  322MPD2    H1 4841   0.474   1.533  13.386 -0.2368  0.0317  0.6460
  322MPD2    H2 4842   0.350   1.894  13.599 -0.8331 -0.0351 -0.5681
  322MPD2    H3 4843   0.396   1.779  13.384  1.9701 -0.2232 -0.8492
  322MPD2     N 4844   0.529   1.392  13.608 -0.0646  0.4606  0.2090
  322MPD2    H5 4845   0.550   1.372  13.705 -1.5442  2.9319  1.0611
  322MPD2    N1 4846   0.383   1.793  13.842 -0.1174  0.3888  0.2061
  322MPD2    H7 4847   0.367   1.893  13.844 -2.3482 -0.0098  1.8792
  323TMC3    C1 4848   0.413   1.831  14.079 -0.3960  0.0371 -0.0140
  323TMC3    C2 4849   0.465   1.952  14.044 -0.4717 -0.4786  0.6413
  323TMC3    C3 4850   0.500   2.029  14.149  0.3299  0.0259 -0.0955
  323TMC3    C4 4851   0.422   1.773  14.205 -0.1146  0.2104 -0.7819
  323TMC3    C5 4852   0.455   1.859  14.304 -0.1647  0.3312  0.4571
  323TMC3    C6 4853   0.479   1.988  14.276 -0.1239 -0.3036 -0.1258
  323TMC3     C 4854   0.385   1.735  13.972 -0.4018 -0.3605  0.2117
  323TMC3     O 4855   0.371   1.616  13.997  0.0819  0.6687  0.4148
  323TMC3     H 4856   0.461   1.986  13.942  1.1939 -1.8362  0.1258
  323TMC3    H1 4857   0.407   1.667  14.222 -1.7614  0.1772 -2.4667
  323TMC3    H2 4858   0.491   2.062  14.353 -0.6620 -0.6942  0.3386
  323TMC3    C7 4859   0.550   1.798  14.396  0.3385  0.5788 -0.2369
  323TMC3    C8 4860   0.620   2.107  14.140  1.0467 -0.5020  0.0121
  323TMC3    O1 4861   0.523   1.685  14.444  0.8912 -0.1538 -0.2464
  323TMC3    O2 4862   0.680   2.117  14.245 -0.5675  0.3610 -0.5033
  324MPD2     C 4863   1.826   2.744  13.885  0.1590 -0.0835 -0.5287
  324MPD2    C1 4864   1.781   2.874  13.904 -0.6290 -0.4445  0.0291
  324MPD2    C2 4865   1.649   2.906  13.883 -0.1617 -0.1051  0.1965
  324MPD2    C3 4866   1.560   2.809  13.852  0.1382  0.4115  0.0864
  324MPD2    C4 4867   1.608   2.687  13.816  0.1268 -0.1265  0.0514
  324MPD2    C5 4868   1.741   2.652  13.833 -0.0341  0.0891  0.2101
  324MPD2     H 4869   1.620   3.007  13.911  0.4942  0.2946 -0.5703
  324MPD2    H1 4870   1.540   2.606  13.792 -0.6262  1.7839 -4.1760
  324MPD2    H2 4871   1.931   2.714  13.886 -0.0805 -0.8998  0.5346
  324MPD2    H3 4872   1.778   2.555  13.801 -0.6046  0.2846 -1.0715
  324MPD2     N 4873   1.420   2.825  13.832 -0.2269 -0.1298 -0.2945
  324MPD2    H5 4874   1.371   2.743  13.798 -1.7907  1.4383 -1.7966
  324MPD2    N1 4875   1.873   2.970  13.952  0.2142  0.6668 -0.0670
  324MPD2    H7 4876   1.838   3.066  13.953 -1.4707  0.0439  0.8540
  325TMC3    C1 4877   1.211   2.942  13.826  0.4956  0.2340  0.9801
  325TMC3    C2 4878   1.158   2.862  13.732 -0.1130  0.3243  0.2799
  325TMC3    C3 4879   1.023   2.858  13.705  0.4661 -0.3743  0.5182
  325TMC3    C4 4880   1.127   3.033  13.887 -0.2418  0.0478  0.2237
  325TMC3    C5 4881   0.994   3.044  13.845  0.6837 -0.1258  0.6201
  325TMC3    C6 4882   0.941   2.955  13.754 -0.0538  0.4291 -0.8885
  325TMC3     C 4883   1.351   2.941  13.866  0.2480 -0.7050  1.6458
  325TMC3     O 4884   1.394   3.036  13.934 -0.1163 -0.2073 -0.1320
  325TMC3     H 4885   1.222   2.786  13.687 -1.9937  0.6293 -2.8874
  325TMC3    H1 4886   1.156   3.107  13.960  0.0260  0.9223 -0.7695
  325TMC3    H2 4887   0.839   2.955  13.718 -0.2039  1.9127 -0.4456
  325TMC3    C7 4888   0.954   3.183  13.823 -0.1636  0.1892  0.5572
  325TMC3    C8 4889   0.965   2.776  13.599  1.0796  0.3657  0.7644
  325TMC3    O1 4890   0.893   3.201  13.717 -0.5353  0.2387  0.6703
  325TMC3    O2 4891   1.030   2.783  13.493  0.2380  0.5241 -0.1671
  326MPD2     C 4892   3.051   3.934  11.663 -0.1076 -0.2075 -0.2576
  326MPD2    C1 4893   2.980   3.975  11.552 -0.0981  0.4487  0.2032
  326MPD2    C2 4894   3.053   4.057  11.466  0.8379  0.1481  0.0806
  326MPD2    C3 4895   3.177   4.102  11.487  0.2520 -0.0854 -0.4641
  326MPD2    C4 4896   3.245   4.063  11.605 -0.5603 -0.0011  0.0039
  326MPD2    C5 4897   3.180   3.972  11.687 -0.0570  0.2658 -0.2161
  326MPD2     H 4898   2.994   4.095  11.383  0.4221  0.3523  0.4694
  326MPD2    H1 4899   3.349   4.092  11.619 -1.0865  1.3610  1.0702
  326MPD2    H2 4900   3.011   3.859  11.730  0.9580  0.8088  1.5194
  326MPD2    H3 4901   3.235   3.935  11.773 -0.8726 -1.2406 -0.3437
  326MPD2     N 4902   3.247   4.178  11.392  0.7000 -0.4396 -0.3169
  326MPD2    H5 4903   3.328   4.233  11.420  0.2965 -0.1767  0.3282
  326MPD2    N1 4904   2.859   3.920  11.502  0.4157 -0.0560  0.1828
  326MPD2    H7 4905   2.821   3.966  11.420  1.4056 -0.1709 -0.3445
  327TMC3    C1 4906   2.679   3.757  11.480  0.1654 -0.5682  0.2407
  327TMC3    C2 4907   2.651   3.853  11.387  0.5762  0.2991  0.2551
  327TMC3    C3 4908   2.662   3.811  11.257  0.3917 -0.0629 -0.2708
  327TMC3    C4 4909   2.716   3.626  11.454 -0.4453 -0.5688  0.2588
  327TMC3    C5 4910   2.724   3.594  11.324 -0.4130 -0.0804 -0.0510
  327TMC3    C6 4911   2.711   3.689  11.232  0.0040 -0.3125  0.1599
  327TMC3     C 4912   2.784   3.814  11.560  0.5974 -0.1536 -0.0890
  327TMC3     O 4913   2.812   3.751  11.660 -0.2691 -0.5143  0.1896
  327TMC3     H 4914   2.613   3.951  11.411  1.1377  0.9473 -1.4521
  327TMC3    H1 4915   2.725   3.560  11.540  2.4401  0.3102  0.6281
  327TMC3    H2 4916   2.715   3.654  11.129 -1.9480  2.4210 -0.8463
  327TMC3    C7 4917   2.832   3.500  11.302 -0.3925 -0.2646 -0.4567
  327TMC3    C8 4918   2.690   3.912  11.155  0.2346  0.1633 -0.0148
  327TMC3    O1 4919   2.841   3.428  11.201  0.7925 -0.1341 -0.3336
  327TMC3    O2 4920   2.772   3.887  11.065  0.5213 -0.9348  0.2268
  328MPD2     C 4921   1.379   3.900  17.393  0.6058 -0.2038 -0.3728
  328MPD2    C1 4922   1.296   3.921  17.281 -0.2511  0.0992 -0.4727
  328MPD2    C2 4923   1.280   4.050  17.234  0.3126  0.1869 -0.6596
  328MPD2    C3 4924   1.335   4.155  17.301  0.7115 -0.8130 -0.4745
  328MPD2    C4 4925   1.422   4.129  17.404  0.3242 -0.1144 -0.3709
  328MPD2    C5 4926   1.442   4.002  17.455 -0.6578 -0.5461  0.2849
  328MPD2     H 4927   1.212   4.072  17.152  1.4198  2.3553 -1.0138
  328MPD2    H1 4928   1.453   4.213  17.466 -2.6021  1.6989 -1.3607
  328MPD2    H2 4929   1.400   3.799  17.426  0.7107  1.1171  3.6174
  328MPD2    H3 4930   1.508   3.987  17.540  1.7813 -1.6571 -1.8118
  328MPD2     N 4931   1.306   4.295  17.294 -0.1475  0.4050  0.2665
  328MPD2    H5 4932   1.363   4.354  17.354 -1.9740  1.9650  0.4757
  328MPD2    N1 4933   1.228   3.816  17.221 -0.1556  0.7738  0.1890
  328MPD2    H7 4934   1.247   3.725  17.263  0.7582 -0.1238 -2.2029
  329TMC3    C1 4935   1.052   3.674  17.134 -0.2056  0.0355 -0.0924
  329TMC3    C2 4936   0.917   3.669  17.166  0.7317  0.2370  1.3757
  329TMC3    C3 4937   0.876   3.561  17.242 -0.3884 -0.0698 -0.5882
  329TMC3    C4 4938   1.142   3.581  17.176 -0.4624 -0.7060  0.0134
  329TMC3    C5 4939   1.094   3.476  17.249  0.5140 -0.2133 -0.1625
  329TMC3    C6 4940   0.962   3.468  17.291 -0.2850 -0.0725  0.3802
  329TMC3     C 4941   1.115   3.810  17.138  0.2395 -0.1993 -0.7421
  329TMC3     O 4942   1.039   3.905  17.112  0.3512  0.6320 -0.1593
  329TMC3     H 4943   0.856   3.757  17.146  1.4524  1.1497  3.1659
  329TMC3    H1 4944   1.249   3.578  17.159 -0.7731 -0.4469 -2.0178
  329TMC3    H2 4945   0.928   3.380  17.344 -0.6765 -1.4527 -2.1923
  329TMC3    C7 4946   1.170   3.475  17.375  0.3549  0.1581 -0.8997
  329TMC3    C8 4947   0.758   3.588  17.321 -0.3111 -0.1013 -0.8438
  329TMC3    O1 4948   1.227   3.579  17.402  0.0633  0.1650 -0.2679
  329TMC3    O2 4949   0.677   3.681  17.292  0.0715  0.0076 -0.1124
  330TMC3    C1 4950   3.616   3.507  10.143  0.0730  0.0496  0.2065
  330TMC3    C2 4951   3.589   3.445  10.026  0.0837 -0.7570  0.3317
  330TMC3    C3 4952   3.621   3.313  10.017  0.2368  0.0062  0.0183
  330TMC3    C4 4953   3.680   3.446  10.244 -0.2333  0.0731 -0.1359
  330TMC3    C5 4954   3.730   3.322  10.220 -0.4524 -0.3481  0.1981
  330TMC3    C6 4955   3.686   3.249  10.117 -0.1047 -0.0743 -0.1615
  330TMC3     C 4956   3.589   3.650  10.165  0.2064 -0.4210 -0.7872
  330TMC3     O 4957   3.648   3.694  10.263 -0.3578 -0.0311  0.8402
  330TMC3     H 4958   3.526   3.480   9.946  1.4442  1.9910  0.4376
  330TMC3    H1 4959   3.706   3.492  10.339  1.2542 -0.5915 -0.2190
  330TMC3    H2 4960   3.731   3.153  10.094  1.0965  0.7688 -1.3573
  330TMC3    C7 4961   3.781   3.250  10.336  1.0785 -0.5666 -0.1801
  330TMC3    C8 4962   3.588   3.235   9.908 -0.2370 -0.0723 -0.4085
  330TMC3    O1 4963   3.734   3.274  10.446 -0.1401 -0.2788  0.2804
  330TMC3    O2 4964   3.570   3.300   9.809 -0.2038 -0.4308 -0.2132
  331MPD2     C 4965   1.074   2.358  12.373  0.2900  0.0254 -0.1775
  331MPD2    C1 4966   1.147   2.403  12.263 -0.0095 -0.2150 -0.0114
  331MPD2    C2 4967   1.184   2.306  12.170  0.1937  0.0359  0.2459
  331MPD2    C3 4968   1.171   2.171  12.188  0.4314  0.0600  0.8994
  331MPD2    C4 4969   1.097   2.130  12.294 -0.7064  0.2884 -0.2351
  331MPD2    C5 4970   1.043   2.219  12.382  0.3265 -0.5029 -0.3916
  331MPD2     H 4971   1.244   2.341  12.087  0.4295  0.4180  0.5724
  331MPD2    H1 4972   1.073   2.026  12.314 -1.4102  0.5042  0.0350
  331MPD2    H2 4973   1.034   2.423  12.450  0.4436 -2.5673  2.1482
  331MPD2    H3 4974   0.991   2.174  12.466 -2.1673  0.7900 -1.2507
  331MPD2     N 4975   1.244   2.086  12.104 -0.1401  0.0822 -0.5332
  331MPD2    H5 4976   1.299   2.135  12.035 -0.5232 -0.3551 -1.1570
  331MPD2    N1 4977   1.200   2.531  12.261 -0.1232  0.1617  0.0049
  331MPD2    H7 4978   1.206   2.571  12.354 -1.3222  0.1047  0.1115
  332TMC3    C1 4979   1.394   1.913  12.085  0.5096  1.1153  0.4455
  332TMC3    C2 4980   1.451   2.009  12.005  0.0986 -0.9538  0.3571
  332TMC3    C3 4981   1.588   2.026  12.027  0.4090  0.2552  0.7636
  332TMC3    C4 4982   1.462   1.847  12.186 -0.5383  0.3585 -0.1421
  332TMC3    C5 4983   1.592   1.876  12.210 -0.6605 -0.4228 -0.5172
  332TMC3    C6 4984   1.653   1.965  12.132 -0.2143 -0.1700  0.2500
  332TMC3     C 4985   1.260   1.952  12.122  0.7476  0.0423 -0.0436
  332TMC3     O 4986   1.196   1.878  12.202  0.3395 -0.0817  0.1010
  332TMC3     H 4987   1.405   2.056  11.919  1.9282  0.3660  0.1120
  332TMC3    H1 4988   1.406   1.788  12.258 -0.6638 -0.6450 -1.0726
  332TMC3    H2 4989   1.760   1.978  12.144 -0.1034  0.0219 -0.9635
  332TMC3    C7 4990   1.663   1.777  12.289  0.0203 -0.2399 -0.0790
  332TMC3    C8 4991   1.669   2.122  11.953  0.3419  0.0885  0.2717
  332TMC3    O1 4992   1.599   1.672  12.309 -0.0700 -0.4029 -0.2061
  332TMC3    O2 4993   1.764   2.170  12.012 -0.0701  0.2239  0.5751
  333MPD2     C 4994   1.689   2.481  11.181 -0.6760 -0.0642 -0.3430
  333MPD2    C1 4995   1.731   2.371  11.114 -0.3942 -0.2643 -0.1706
  333MPD2    C2 4996   1.658   2.249  11.131  0.0480 -0.2821 -0.0153
  333MPD2    C3 4997   1.555   2.253  11.219  0.2246 -0.3133 -0.2377
  333MPD2    C4 4998   1.518   2.367  11.283  0.5483  0.3291 -0.1332
  333MPD2    C5 4999   1.585   2.482  11.260 -0.0904  0.2797 -0.6617
  333MPD2     H 5000   1.695   2.152  11.100 -2.0460 -1.4490  1.1727
  333MPD2    H1 5001   1.431   2.379  11.348 -0.0095 -2.3049 -0.4196
  333MPD2    H2 5002   1.740   2.575  11.165 -0.2693 -0.0581  0.9581
  333MPD2    H3 5003   1.575   2.575  11.315 -2.0437 -0.7737  0.7665
  333MPD2     N 5004   1.488   2.134  11.230  0.0856 -0.2346  0.1882
  333MPD2    H5 5005   1.516   2.057  11.169  0.6596  1.6763 -1.9452
  333MPD2    N1 5006   1.845   2.387  11.035  0.5103 -0.5764  0.4851
  333MPD2    H7 5007   1.889   2.478  11.029 -1.5687  0.3966 -0.0887
  334TMC3    C1 5008   2.040   2.329  10.912 -0.3739  0.2168 -0.1633
  334TMC3    C2 5009   2.127   2.238  10.856  0.8471 -0.3892  0.3155
  334TMC3    C3 5010   2.252   2.280  10.806 -0.3691  1.1997 -0.3154
  334TMC3    C4 5011   2.066   2.463  10.900  0.2517  0.3521 -0.6147
  334TMC3    C5 5012   2.194   2.499  10.859 -0.0119  0.3744  0.6490
  334TMC3    C6 5013   2.288   2.410  10.816  0.2940  0.2389  1.1224
  334TMC3     C 5014   1.918   2.284  10.980 -0.7224 -0.4618  0.2843
  334TMC3     O 5015   1.883   2.169  10.963 -0.1363  0.0695  0.3389
  334TMC3     H 5016   2.104   2.132  10.858 -0.7623 -0.0607 -0.1887
  334TMC3    H1 5017   1.994   2.543  10.918 -0.2792 -0.4477  0.8846
  334TMC3    H2 5018   2.374   2.450  10.763  0.3517 -2.0429 -0.5045
  334TMC3    C7 5019   2.211   2.632  10.819  0.1681  0.3939  0.5053
  334TMC3    C8 5020   2.345   2.177  10.774  0.0927  0.6771 -0.2622
  334TMC3    O1 5021   2.307   2.683  10.869  0.3845 -0.4846 -0.4339
  334TMC3    O2 5022   2.301   2.077  10.725  0.3495  0.2207 -0.3615
  335TMC3    C1 5023   2.197   4.244  17.551  0.6499  0.0211 -0.2809
  335TMC3    C2 5024   2.070   4.258  17.494  0.3710  0.1200 -0.3895
  335TMC3    C3 5025   2.068   4.270  17.365  0.1746 -0.1610  0.4772
  335TMC3    C4 5026   2.311   4.242  17.479  0.2586  0.1522 -0.2444
  335TMC3    C5 5027   2.305   4.267  17.348  0.3481 -0.1339  0.8009
  335TMC3    C6 5028   2.181   4.266  17.285  0.1866 -0.3682 -0.2380
  335TMC3     C 5029   2.208   4.258   0.003 -0.4578 -0.6679  0.5647
  335TMC3     O 5030   2.309   4.316   0.042 -0.0841  0.3559 -0.4102
  335TMC3     H 5031   1.978   4.250  17.550 -0.5088 -0.0963 -1.8789
  335TMC3    H1 5032   2.403   4.227  17.535  1.0846 -2.3442 -2.2507
  335TMC3    H2 5033   2.167   4.273  17.178 -2.6486  1.2353  0.2492
  335TMC3    C7 5034   2.419   4.267  17.274 -0.0603 -0.2085 -0.3914
  335TMC3    C8 5035   1.963   4.207  17.293  0.4314 -0.5238  0.3075
  335TMC3    O1 5036   2.408   4.239  17.156  0.2783  0.0564 -0.1478
  335TMC3    O2 5037   1.953   4.229  17.171  0.3195  0.5150 -0.0512
  336MPD2     C 5038   1.485   1.478  16.529  0.0238  0.0348 -0.9249
  336MPD2    C1 5039   1.495   1.467  16.386 -0.3749  0.1575  0.3045
  336MPD2    C2 5040   1.572   1.361  16.337 -0.2837  0.1223 -0.0229
  336MPD2    C3 5041   1.636   1.274  16.418  0.7008 -0.4028  0.1097
  336MPD2    C4 5042   1.619   1.287  16.549  0.1096 -0.0810 -0.3167
  336MPD2    C5 5043   1.555   1.394  16.605 -0.4644  0.0767  0.0087
  336MPD2     H 5044   1.574   1.343  16.230 -0.4454 -0.5900  0.0922
  336MPD2    H1 5045   1.673   1.212  16.606 -2.7409 -0.9698  1.2285
  336MPD2    H2 5046   1.432   1.564  16.567  0.7738 -0.2733  0.7876
  336MPD2    H3 5047   1.568   1.422  16.709  1.4766 -1.0567  0.0696
  336MPD2     N 5048   1.721   1.163  16.379 -0.4199  0.0967 -0.5366
  336MPD2    H5 5049   1.757   1.094  16.444 -0.5557  0.6825  0.1621
  336MPD2    N1 5050   1.424   1.551  16.296 -0.2711 -0.3119 -0.1333
  336MPD2    H7 5051   1.456   1.553  16.200 -0.2290  0.6983 -0.1022
  337TMC3    C1 5052   1.256   1.682  16.214  0.3618 -0.4035 -0.9946
  337TMC3    C2 5053   1.117   1.697  16.214 -0.3867 -0.5124  0.1700
  337TMC3    C3 5054   1.066   1.784  16.123  0.0352 -1.1752 -0.6400
  337TMC3    C4 5055   1.332   1.736  16.113 -0.3548  0.3494  0.1171
  337TMC3    C5 5056   1.274   1.828  16.027 -0.3065  0.6606  0.7222
  337TMC3    C6 5057   1.147   1.860  16.034 -0.2515  0.2398  0.0617
  337TMC3     C 5058   1.306   1.617  16.329  0.1126  0.2531 -0.6325
  337TMC3     O 5059   1.239   1.623  16.431 -0.2946 -0.2954  0.1271
  337TMC3     H 5060   1.049   1.655  16.287  0.4880  0.7946  1.7465
  337TMC3    H1 5061   1.440   1.731  16.120 -0.2938  1.4628 -0.1310
  337TMC3    H2 5062   1.107   1.929  15.960  0.2142  2.1440  1.5935
  337TMC3    C7 5063   1.359   1.898  15.932  0.2094  0.0393  0.3844
  337TMC3    C8 5064   0.921   1.791  16.110 -0.0026 -0.2634  0.4846
  337TMC3    O1 5065   1.462   1.839  15.902 -0.5230 -0.1756  0.1201
  337TMC3    O2 5066   0.860   1.802  16.214  0.2481 -0.2124 -0.2813
  338MPD2     C 5067   2.539   1.245   1.142 -0.6284 -0.2458 -0.2472
  338MPD2    C1 5068   2.439   1.154   1.158  0.1273  0.5977 -0.5813
  338MPD2    C2 5069   2.441   1.081   1.277  0.6489  0.2416  0.1381
  338MPD2    C3 5070   2.531   1.096   1.383  0.0487 -0.3692 -0.2333
  338MPD2    C4 5071   2.641   1.175   1.357 -1.8941  0.1596  0.2126
  338MPD2    C5 5072   2.640   1.247   1.236 -0.5626  0.5351 -0.6287
  338MPD2     H 5073   2.355   1.015   1.289  0.8726  0.2272  1.6897
  338MPD2    H1 5074   2.722   1.181   1.429 -1.0895 -0.0465 -0.6643
  338MPD2    H2 5075   2.549   1.298   1.048 -0.0438 -3.1460 -1.8145
  338MPD2    H3 5076   2.718   1.320   1.217  0.1503 -0.3574 -1.0867
  338MPD2     N 5077   2.514   1.022   1.498 -0.6943 -0.4442  0.1361
  338MPD2    H5 5078   2.436   0.958   1.508 -1.6329  0.7703  0.5681
  338MPD2    N1 5079   2.343   1.119   1.059 -0.3154  0.1884  0.6666
  338MPD2    H7 5080   2.286   1.038   1.082 -0.6828  0.5220  0.9352
  339TMC3    C1 5081   2.507   0.992   1.737  0.0810 -0.0601  0.1181
  339TMC3    C2 5082   2.525   1.072   1.844 -0.3192 -0.3549  0.8425
  339TMC3    C3 5083   2.409   1.091   1.922  0.2624 -0.5967 -0.5027
  339TMC3    C4 5084   2.389   0.936   1.702  0.4400  0.1974  0.3361
  339TMC3    C5 5085   2.276   0.970   1.775  0.0124 -0.3028 -0.2772
  339TMC3    C6 5086   2.285   1.053   1.885  0.0310  0.3263 -0.5644
  339TMC3     C 5087   2.590   1.030   1.614 -1.3137  0.5455 -0.0377
  339TMC3     O 5088   2.693   1.094   1.636 -0.2012 -0.5845  0.3958
  339TMC3     H 5089   2.625   1.111   1.862 -0.1235 -1.1848  1.6011
  339TMC3    H1 5090   2.392   0.847   1.640 -2.5356 -0.9915  1.9229
  339TMC3    H2 5091   2.189   1.066   1.935  0.0011 -0.4675 -0.4209
  339TMC3    C7 5092   2.173   1.005   1.689 -0.0087  0.1463  0.2801
  339TMC3    C8 5093   2.427   1.205   2.003 -0.3724 -0.0771  0.0651
  339TMC3    O1 5094   2.090   1.086   1.732  0.5693 -0.0107 -0.2633
  339TMC3    O2 5095   2.538   1.230   2.040  0.3689  0.2638  0.7169
  340MPD2     C 5096   1.976   4.503   9.967  0.0116 -0.2908  0.2415
  340MPD2    C1 5097   1.893   4.400  10.004  0.2850  0.4249  0.3310
  340MPD2    C2 5098   1.902   4.336  10.127 -0.3582  0.7462  0.2969
  340MPD2    C3 5099   1.997   4.379  10.217  0.2854  0.0372 -0.3612
  340MPD2    C4 5100   2.071   4.492  10.192  0.2180 -0.3657  0.4285
  340MPD2    C5 5101   2.066   4.550  10.059 -0.0700 -0.8872  0.5973
  340MPD2     H 5102   1.824   4.266  10.155 -0.5461  0.4126 -1.0562
  340MPD2    H1 5103   2.142   4.530  10.265  0.4007  2.9753 -1.5185
  340MPD2    H2 5104   1.959   4.551   9.871 -1.8056  0.4084  0.9176
  340MPD2    H3 5105   2.131   4.633  10.033 -0.4457 -0.4177  1.1554
  340MPD2     N 5106   2.037   4.285  10.328  0.2146  0.9671 -0.7539
  340MPD2    H5 5107   2.115   4.302  10.391 -0.6983  1.5398  0.2311
  340MPD2    N1 5108   1.806   4.343   9.907 -0.0478  0.3732  0.2444
  340MPD2    H7 5109   1.785   4.393   9.821  3.3316  3.2382  1.1102
  341TMC3    C1 5110   1.830   4.103   9.969  0.3545  0.3959 -0.2013
  341TMC3    C2 5111   1.760   3.989   9.999 -0.2476  0.1792 -0.1815
  341TMC3    C3 5112   1.837   3.878  10.026  0.7623 -0.1001  0.5019
  341TMC3    C4 5113   1.966   4.105   9.951 -0.3026  0.6534 -0.2710
  341TMC3    C5 5114   2.033   3.998   9.994  0.2559 -0.2820  0.1001
  341TMC3    C6 5115   1.971   3.879  10.033 -0.1311 -0.3418  0.6037
  341TMC3     C 5116   1.758   4.215   9.913  0.2220 -0.1269 -0.5377
  341TMC3     O 5117   1.670   4.182   9.840  0.4898 -0.1110 -0.2384
  341TMC3     H 5118   1.654   3.979   9.980 -0.1753  0.7364 -0.8833
  341TMC3    H1 5119   2.010   4.196   9.912 -1.8967  1.2833 -0.6100
  341TMC3    H2 5120   2.026   3.786  10.047  0.7536  0.2232  0.8750
  341TMC3    C7 5121   2.177   4.006  10.005  0.2119 -0.0042 -0.2344
  341TMC3    C8 5122   1.768   3.746  10.016 -0.1429  0.7059  0.7154
  341TMC3    O1 5123   2.246   3.903   9.993 -0.3837 -0.1111  0.2465
  341TMC3    O2 5124   1.646   3.748  10.033 -0.8696  0.1655  0.0256
  342MPD2     C 5125   0.428   1.982  16.783 -0.1911  0.0394  0.8497
  342MPD2    C1 5126   0.424   1.989  16.921  0.1720  0.3584 -0.7524
  342MPD2    C2 5127   0.415   2.113  16.979  0.3955  0.1379  0.0772
  342MPD2    C3 5128   0.417   2.226  16.906 -0.5988 -0.0015  0.4914
  342MPD2    C4 5129   0.409   2.218  16.771  0.3116  0.2652 -0.2899
  342MPD2    C5 5130   0.406   2.095  16.716 -0.4014  0.4965 -0.2401
  342MPD2     H 5131   0.417   2.118  17.088 -0.8205 -2.6011  0.2322
  342MPD2    H1 5132   0.422   2.306  16.710  0.6022  1.0483  0.9026
  342MPD2    H2 5133   0.450   1.888  16.733  0.9076  0.1999  1.0351
  342MPD2    H3 5134   0.412   2.103  16.608  0.8464 -0.8032 -0.2596
  342MPD2     N 5135   0.428   2.362  16.950 -0.1180 -0.1109  0.2097
  342MPD2    H5 5136   0.444   2.435  16.881  1.6089 -0.2587  0.4535
  342MPD2    N1 5137   0.421   1.872  17.004  0.9166  0.2653  0.2872
  342MPD2    H7 5138   0.410   1.889  17.103 -3.2591 -0.0189 -0.1231
  343TMC3    C1 5139   0.460   1.644  17.078 -0.7575  0.5665 -0.0384
  343TMC3    C2 5140   0.558   1.553  17.072  0.4146  0.3405  0.4235
  343TMC3    C3 5141   0.589   1.481  17.185  0.2561  0.5295 -0.1047
  343TMC3    C4 5142   0.381   1.664  17.186  0.2613 -0.0102  0.0971
  343TMC3    C5 5143   0.411   1.586  17.296  0.2119 -0.1157 -1.2786
  343TMC3    C6 5144   0.513   1.495  17.302  0.1387  0.7064  0.3154
  343TMC3     C 5145   0.467   1.746  16.968  0.3772  0.0585 -0.4103
  343TMC3     O 5146   0.523   1.707  16.868  0.0137  0.0113 -0.3374
  343TMC3     H 5147   0.622   1.546  16.985  0.4686 -0.6654  0.5480
  343TMC3    H1 5148   0.290   1.723  17.191 -0.0852 -0.6137  0.8796
  343TMC3    H2 5149   0.542   1.443  17.392 -0.7781 -0.7190 -0.2060
  343TMC3    C7 5150   0.292   1.546  17.368  1.0492 -0.2536 -0.7502
  343TMC3    C8 5151   0.704   1.403  17.197 -0.6225 -0.4872 -0.2838
  343TMC3    O1 5152   0.189   1.551  17.308  0.0343 -0.0558  0.9573
  343TMC3    O2 5153   0.752   1.402  17.307 -0.0894  0.1721 -0.5025
  344MPD2     C 5154   0.403   1.638   9.657 -0.5738 -0.1043 -0.2280
  344MPD2    C1 5155   0.504   1.638   9.754  0.0056  0.7640 -0.1717
  344MPD2    C2 5156   0.573   1.749   9.767  0.5128  0.5760  0.5667
  344MPD2    C3 5157   0.541   1.866   9.701 -0.1499  0.8243  0.0167
  344MPD2    C4 5158   0.449   1.868   9.595 -0.2418  0.0798  0.7096
  344MPD2    C5 5159   0.369   1.757   9.591  0.8840 -0.2656  0.3149
  344MPD2     H 5160   0.656   1.746   9.837 -0.9319  0.0732  2.2689
  344MPD2    H1 5161   0.433   1.958   9.537 -1.2178 -0.2068  0.5457
  344MPD2    H2 5162   0.331   1.558   9.650  1.3232 -1.7955 -0.5401
  344MPD2    H3 5163   0.283   1.746   9.527  2.0999 -0.9584 -1.2170
  344MPD2     N 5164   0.622   1.982   9.716  0.4831 -0.4628  0.2149
  344MPD2    H5 5165   0.593   2.063   9.663 -1.6211 -2.1484 -1.1738
  344MPD2    N1 5166   0.534   1.514   9.820 -0.2317  0.3645  0.1641
  344MPD2    H7 5167   0.468   1.439   9.802 -0.3910  0.6401 -0.3686
  345TMC3    C1 5168   0.796   2.137   9.780 -0.0440  0.0486 -0.4445
  345TMC3    C2 5169   0.932   2.155   9.800 -0.3596 -0.0570  0.1727
  345TMC3    C3 5170   0.971   2.287   9.794  0.6560  0.1081 -0.1386
  345TMC3    C4 5171   0.707   2.242   9.748  0.0305 -0.4258 -0.2395
  345TMC3    C5 5172   0.760   2.366   9.739  0.3416 -0.2414  0.4845
  345TMC3    C6 5173   0.890   2.396   9.768 -0.3655 -0.6492 -0.1029
  345TMC3     C 5174   0.736   2.004   9.800  0.3564 -0.0162 -0.2169
  345TMC3     O 5175   0.801   1.923   9.863 -0.0873  0.7389  0.4239
  345TMC3     H 5176   0.994   2.074   9.837  0.1586  0.1021 -0.3523
  345TMC3    H1 5177   0.601   2.236   9.770 -0.7737  3.3131 -2.8955
  345TMC3    H2 5178   0.913   2.502   9.770 -1.1465 -0.4761 -0.9432
  345TMC3    C7 5179   0.673   2.484   9.715 -0.2345  0.4058 -0.7790
  345TMC3    C8 5180   1.107   2.328   9.812  0.3213 -0.3016 -0.2822
  345TMC3    O1 5181   0.723   2.591   9.741 -0.8713  0.1274  0.2695
  345TMC3    O2 5182   1.120   2.447   9.827  0.2735  0.3837 -0.4280
  346MPD2     C 5183   0.693   3.091  14.369  0.0391 -0.2408 -0.8225
  346MPD2    C1 5184   0.651   3.212  14.317 -0.2698 -0.1122 -0.5851
  346MPD2    C2 5185   0.652   3.326  14.393 -0.0338 -0.2008 -0.7950
  346MPD2    C3 5186   0.701   3.313  14.518 -0.0368  0.4238  0.5667
  346MPD2    C4 5187   0.750   3.195  14.568  0.3052  0.7678 -0.4538
  346MPD2    C5 5188   0.745   3.082  14.493 -0.3788 -0.0184 -0.1831
  346MPD2     H 5189   0.634   3.424  14.349 -1.1018  1.3297  3.0392
  346MPD2    H1 5190   0.785   3.182  14.669  3.1163  0.1315 -1.5259
  346MPD2    H2 5191   0.696   3.003  14.306  0.2906  0.8584 -2.3601
  346MPD2    H3 5192   0.775   2.984  14.530  3.0840  0.3346 -2.1479
  346MPD2     N 5193   0.712   3.433  14.595 -0.0418  0.4207 -0.1408
  346MPD2    H5 5194   0.754   3.436  14.687  1.3972 -0.3092 -0.7822
  346MPD2    N1 5195   0.609   3.221  14.188 -0.0762 -0.0004  0.6684
  346MPD2    H7 5196   0.567   3.311  14.170  1.5033  0.7198  0.5921
  347TMC3    C1 5197   0.784   3.643  14.571 -0.1274 -0.4293 -0.2258
  347TMC3    C2 5198   0.816   3.699  14.452  0.8706 -0.2227 -0.2756
  347TMC3    C3 5199   0.952   3.707  14.418  0.1360  0.5567  0.1657
  347TMC3    C4 5200   0.879   3.612  14.661 -0.0674 -0.1425 -0.3046
  347TMC3    C5 5201   1.006   3.641  14.633 -0.4546  1.2876  0.6200
  347TMC3    C6 5202   1.044   3.687  14.518  0.2472 -0.2769 -0.4805
  347TMC3     C 5203   0.665   3.561  14.559 -0.0388  0.2976  0.0479
  347TMC3     O 5204   0.583   3.601  14.474  0.1109  0.1386 -0.5459
  347TMC3     H 5205   0.742   3.734  14.381  0.5956  1.3029  0.7577
  347TMC3    H1 5206   0.857   3.561  14.754  0.6024  0.5646  0.2479
  347TMC3    H2 5207   1.147   3.719  14.509 -0.5785  2.7920  0.8030
  347TMC3    C7 5208   1.101   3.566  14.706 -0.6315 -0.2938  0.3145
  347TMC3    C8 5209   0.986   3.631  14.298 -0.1004 -0.2953 -1.0897
  347TMC3    O1 5210   1.088   3.538  14.826  0.0441 -0.7297  0.1412
  347TMC3    O2 5211   1.083   3.557  14.299  0.4341  0.2818  0.0388
  348MPD2     C 5212   4.090   2.661  12.296  0.0946  0.0152  0.2224
  348MPD2    C1 5213   4.199   2.736  12.270  0.0738  0.0359  0.3317
  348MPD2    C2 5214   4.198   2.856  12.204  0.2596  0.1991 -0.1189
  348MPD2    C3 5215   4.076   2.904  12.155  0.8730 -0.1725  0.7702
  348MPD2    C4 5216   3.963   2.830  12.183  0.1015 -0.1083  0.1710
  348MPD2    C5 5217   3.967   2.713  12.258 -0.5473  0.1716 -0.7468
  348MPD2     H 5218   4.292   2.902  12.175  0.5914 -0.7385 -0.5208
  348MPD2    H1 5219   3.864   2.854  12.146  1.4222 -0.9402 -3.9056
  348MPD2    H2 5220   4.085   2.566  12.349  1.5297 -0.1123  0.1449
  348MPD2    H3 5221   3.878   2.652  12.271  1.4320 -1.7551  3.5029
  348MPD2     N 5222   4.059   3.013  12.065  0.8447 -0.3216  0.4390
  348MPD2    H5 5223   3.972   3.025  12.014  0.4295  0.0537  1.2394
  348MPD2    N1 5224   4.324   2.682  12.297 -0.1294 -0.0580 -0.0212
  348MPD2    H7 5225   4.395   2.734  12.246  0.9932 -0.8021  0.7596
  349TMC3    C1 5226   4.501   2.533  12.335  0.2676 -0.5015  0.7338
  349TMC3    C2 5227   4.526   2.396  12.346 -0.4133 -0.6855  0.1086
  349TMC3    C3 5228   4.648   2.351  12.293 -0.1514  0.4781  0.0917
  349TMC3    C4 5229   4.590   2.623  12.275  0.4041 -0.1866  0.0260
  349TMC3    C5 5230   4.702   2.568  12.215 -0.1338 -0.5854 -0.5864
  349TMC3    C6 5231   0.013   2.434  12.217 -0.0485 -0.3083  0.3104
  349TMC3     C 5232   4.365   2.565  12.360 -0.2526 -0.1027 -0.0613
  349TMC3     O 5233   4.304   2.495  12.438  0.6642 -0.1050  0.1152
  349TMC3     H 5234   4.451   2.330  12.389 -1.0547 -1.1409 -1.7033
  349TMC3    H1 5235   4.568   2.729  12.279 -0.7166 -0.4905  2.6450
  349TMC3    H2 5236   0.110   2.404  12.179  0.4265 -0.4174  1.6020
  349TMC3    C7 5237   0.095   2.650  12.165  0.2297 -0.1618 -0.3708
  349TMC3    C8 5238   4.662   2.208  12.288  0.3312 -0.3739  0.6750
  349TMC3    O1 5239   0.206   2.617  12.202  0.3980  0.7843  0.2871
  349TMC3    O2 5240   4.584   2.143  12.361  0.4606  0.0497  0.1364
  350MPD2     C 5241   3.338   1.533   9.973 -0.3351  0.1187  0.0072
  350MPD2    C1 5242   3.314   1.399   9.976 -0.3574 -0.5126 -0.5426
  350MPD2    C2 5243   3.409   1.311   9.934 -0.1983 -0.0346 -0.3425
  350MPD2    C3 5244   3.528   1.354   9.880 -0.4074  0.6703 -0.2384
  350MPD2    C4 5245   3.539   1.484   9.854  0.0951  0.0601 -0.6622
  350MPD2    C5 5246   3.448   1.574   9.905  0.2122 -0.4523  0.1880
  350MPD2     H 5247   3.383   1.205   9.931  1.3058 -0.3567 -1.5838
  350MPD2    H1 5248   3.630   1.525   9.814  0.2484 -0.3076 -0.6858
  350MPD2    H2 5249   3.269   1.609  10.010 -0.0532 -0.0778  0.9301
  350MPD2    H3 5250   3.464   1.681   9.905  1.0004 -0.5786 -1.2690
  350MPD2     N 5251   3.621   1.255   9.848 -0.0067  0.0653  0.5283
  350MPD2    H5 5252   3.600   1.167   9.894 -2.1464 -0.2926 -1.1587
  350MPD2    N1 5253   3.195   1.344  10.028 -0.3969 -0.4486 -0.1491
  350MPD2    H7 5254   3.195   1.242  10.032  2.2755 -0.4962 -1.0903
  351TMC3    C1 5255   2.981   1.304  10.116 -0.4312  0.1280 -0.1448
  351TMC3    C2 5256   3.035   1.203  10.198  0.2820 -0.2925  0.0739
  351TMC3    C3 5257   2.950   1.110  10.258 -0.5189 -0.1514  0.2466
  351TMC3    C4 5258   2.847   1.311  10.084 -0.9064 -0.0907  0.3008
  351TMC3    C5 5259   2.767   1.220  10.147  0.1361 -0.2341 -0.2567
  351TMC3    C6 5260   2.816   1.110  10.221 -0.1068 -0.5962 -0.6328
  351TMC3     C 5261   3.080   1.401  10.067  0.0623  0.3229 -0.0571
  351TMC3     O 5262   3.044   1.516  10.047  0.1061  0.3181  0.2522
  351TMC3     H 5263   3.143   1.201  10.204  0.2989  1.5116  0.3763
  351TMC3    H1 5264   2.814   1.392  10.020  1.3452  0.0454 -0.6583
  351TMC3    H2 5265   2.755   1.029  10.262 -0.7492 -0.4756 -1.3519
  351TMC3    C7 5266   2.635   1.210  10.089 -0.0693  0.2902 -0.4286
  351TMC3    C8 5267   3.020   1.002  10.326 -0.6058  0.2379 -0.8605
  351TMC3    O1 5268   2.594   1.300  10.018 -0.2852  0.2213  0.1169
  351TMC3    O2 5269   3.143   1.000  10.308 -0.0667  0.2866  0.4655
  352MPD2     C 5270   2.176   3.329   1.698 -0.7919  0.0020 -0.0166
  352MPD2    C1 5271   2.057   3.281   1.647 -0.2440 -0.0600  0.2010
  352MPD2    C2 5272   2.011   3.157   1.691 -0.5231 -0.5406 -0.1031
  352MPD2    C3 5273   2.076   3.087   1.789 -0.4406  0.0812  0.0228
  352MPD2    C4 5274   2.191   3.143   1.843 -0.0171  0.3901 -0.4515
  352MPD2    C5 5275   2.233   3.261   1.799  0.5318  0.1310 -0.6654
  352MPD2     H 5276   1.920   3.115   1.650 -0.7179 -0.6570  0.4488
  352MPD2    H1 5277   2.252   3.095   1.918 -0.0563  0.1916 -0.5482
  352MPD2    H2 5278   2.222   3.422   1.667  0.8256 -1.5739 -2.2717
  352MPD2    H3 5279   2.324   3.304   1.840 -0.1861 -0.9553  2.0515
  352MPD2     N 5280   2.033   2.965   1.856  0.2350  0.2079 -0.1782
  352MPD2    H5 5281   2.106   2.919   1.911  1.1996  1.6400 -0.2366
  352MPD2    N1 5282   1.988   3.364   1.552  0.5845 -0.3508 -0.2951
  352MPD2    H7 5283   2.032   3.449   1.519  0.0482 -0.7044 -1.9233
  353TMC3    C1 5284   1.898   2.787   1.914  0.0003  0.3888  0.1809
  353TMC3    C2 5285   1.999   2.727   1.982  0.1926  0.0887 -0.5873
  353TMC3    C3 5286   1.998   2.591   2.005 -0.6684  0.0132 -0.3770
  353TMC3    C4 5287   1.797   2.715   1.864 -0.1946  0.7613 -0.6123
  353TMC3    C5 5288   1.804   2.586   1.866 -0.4664  0.1638 -0.3177
  353TMC3    C6 5289   1.909   2.518   1.929 -0.2426 -1.3114 -0.4628
  353TMC3     C 5290   1.912   2.911   1.841  0.4076  0.2771 -0.0487
  353TMC3     O 5291   1.825   2.939   1.754 -0.8714  0.2647 -0.1143
  353TMC3     H 5292   2.074   2.784   2.035  1.1423 -1.5572 -0.1694
  353TMC3    H1 5293   1.715   2.765   1.813  0.6138  0.1302 -2.5022
  353TMC3    H2 5294   1.914   2.410   1.922  0.5772 -1.3077  0.1417
  353TMC3    C7 5295   1.699   2.505   1.811  0.4445  0.8060 -0.3174
  353TMC3    C8 5296   2.124   2.532   2.048  0.1017 -0.1258 -1.1170
  353TMC3    O1 5297   1.731   2.389   1.784 -0.5010 -0.5743  0.2248
  353TMC3    O2 5298   2.221   2.604   2.064 -0.2660 -0.0052  0.2109
  354TMC3    C1 5299   3.110   3.970  13.905  0.2330 -0.4103  0.1945
  354TMC3    C2 5300   3.123   4.106  13.919  0.4692  0.3056 -0.8195
  354TMC3    C3 5301   3.102   4.180  13.807  0.2681 -0.5056  0.4909
  354TMC3    C4 5302   3.073   3.915  13.791 -0.2985 -0.0423 -0.1413
  354TMC3    C5 5303   3.016   3.999  13.700  0.5813 -0.0277 -0.2891
  354TMC3    C6 5304   3.040   4.133  13.698  0.3227  0.8548 -0.3212
  354TMC3     C 5305   3.090   3.903  14.029 -0.0586 -0.2058  0.0987
  354TMC3     O 5306   3.054   3.969  14.127  0.1202  0.1751 -0.5967
  354TMC3     H 5307   3.163   4.145  14.012  1.5447 -1.2855 -0.6347
  354TMC3    H1 5308   3.038   3.812  13.797  2.3297 -0.9476 -0.5037
  354TMC3    H2 5309   3.002   4.196  13.618  0.7022 -0.6898 -1.7142
  354TMC3    C7 5310   2.994   3.969  13.560 -0.4514  0.0283 -0.3841
  354TMC3    C8 5311   3.204   4.278  13.771  0.5852 -0.1679  0.3587
  354TMC3    O1 5312   2.878   3.985  13.524 -0.5597  0.0448 -0.0614
  354TMC3    O2 5313   3.288   4.300  13.856 -0.1437  0.0068 -0.4170
  355MPD2     C 5314   4.084   0.084  11.751  0.0587  0.2060 -0.2067
  355MPD2    C1 5315   4.031   0.197  11.807  0.6553  0.3401  0.1279
  355MPD2    C2 5316   4.096   0.326  11.809 -0.9798 -0.8356 -1.0274
  355MPD2    C3 5317   4.223   0.330  11.760 -0.2219  0.9269  0.2060
  355MPD2    C4 5318   4.271   0.217  11.696  0.1763  0.0936 -0.2237
  355MPD2    C5 5319   4.202   0.100  11.693  0.2200 -0.3808 -0.4172
  355MPD2     H 5320   4.052   0.414  11.853 -1.2196  0.2142 -3.3685
  355MPD2    H1 5321   4.363   0.216  11.639 -0.9670  2.9834 -2.1250
  355MPD2    H2 5322   4.023   4.715  11.747  1.9597 -1.2003  2.3267
  355MPD2    H3 5323   4.235   0.021  11.627 -0.2896 -0.2386 -0.8469
  355MPD2     N 5324   4.306   0.444  11.752  0.5000 -0.0744 -0.2924
  355MPD2    H5 5325   4.383   0.444  11.686 -0.8313 -0.6727 -1.8422
  355MPD2    N1 5326   3.901   0.196  11.869 -0.2980  0.0905 -0.0968
  355MPD2    H7 5327   3.834   0.127  11.835  0.3259 -1.0986  1.0496
  356TMC3    C1 5328   4.365   0.675  11.790 -0.0795  0.6790 -0.2307
  356TMC3    C2 5329   4.412   0.702  11.659  0.3277  0.4194 -0.0256
  356TMC3    C3 5330   4.495   0.808  11.648 -0.0172  0.1739 -0.0070
  356TMC3    C4 5331   4.386   0.769  11.886  0.3433 -0.1636  0.5421
  356TMC3    C5 5332   4.458   0.883  11.859 -0.3841 -0.0233  0.6321
  356TMC3    C6 5333   4.518   0.911  11.739  0.7177 -0.2114  0.0520
  356TMC3     C 5334   4.278   0.561  11.821  0.3259 -0.2744 -0.4873
  356TMC3     O 5335   4.201   0.576  11.919  0.2631  0.7568  0.2411
  356TMC3     H 5336   4.393   0.640  11.573 -0.7861  2.2628 -1.0895
  356TMC3    H1 5337   4.369   0.736  11.988 -1.0680  0.3883  0.4963
  356TMC3    H2 5338   4.582   0.998  11.731  0.1286  0.1970 -0.2099
  356TMC3    C7 5339   4.462   0.984  11.971  0.8090 -0.2070 -0.4402
  356TMC3    C8 5340   4.535   0.836  11.509  0.0655  0.1920  0.6368
  356TMC3    O1 5341   4.448   0.942  12.089 -0.3600 -0.2125 -0.2399
  356TMC3    O2 5342   4.498   0.761  11.420 -0.1981 -0.0774  0.1101
  357MPD2     C 5343   4.365   0.226   1.551  0.7682 -0.2845  0.1665
  357MPD2    C1 5344   4.494   0.199   1.581  0.0339 -0.1666 -0.4778
  357MPD2    C2 5345   4.537   0.259   1.699 -0.0611 -0.3072  0.2818
  357MPD2    C3 5346   4.455   0.333   1.783  0.1806 -0.4818  0.4761
  357MPD2    C4 5347   4.328   0.361   1.746  0.3171  0.1256  0.1108
  357MPD2    C5 5348   4.288   0.307   1.623 -0.1990  0.2595 -0.2666
  357MPD2     H 5349   4.634   0.229   1.738 -0.3874 -1.6149  0.0876
  357MPD2    H1 5350   4.257   0.425   1.798  0.5952 -0.0983  0.7603
  357MPD2    H2 5351   4.311   0.184   1.468 -0.4866  1.1232  0.2652
  357MPD2    H3 5352   4.189   0.325   1.582  0.2963  0.4680 -1.3549
  357MPD2     N 5353   4.493   0.367   1.916  0.0124 -0.1302  0.4035
  357MPD2    H5 5354   4.410   0.385   1.971  1.0291  0.3862  1.7490
  357MPD2    N1 5355   4.571   0.104   1.510 -0.6047  0.3126  0.0551
  357MPD2    H7 5356   4.520   0.053   1.439  0.4980 -1.0126  0.2234
  358TMC3    C1 5357   0.040   4.674   1.475 -0.1006 -0.7600  0.1199
  358TMC3    C2 5358   4.690   4.588   1.404 -0.3263  0.5458 -0.0700
  358TMC3    C3 5359   0.018   4.459   1.387 -0.5905  0.0027 -0.0245
  358TMC3    C4 5360   0.168   4.644   1.525 -0.2313 -0.2031 -0.2826
  358TMC3    C5 5361   0.220   4.526   1.484  0.3834 -0.2382  0.1873
  358TMC3    C6 5362   0.150   4.437   1.415  0.4360  0.6199  0.4693
  358TMC3     C 5363   4.707   0.076   1.532  0.3711 -0.7505  0.0241
  358TMC3     O 5364   0.065   0.128   1.607  0.4933 -0.1898  0.1805
  358TMC3     H 5365   4.592   4.614   1.366  0.1096 -0.9394 -2.2543
  358TMC3    H1 5366   0.237   4.710   1.577  0.8811 -0.2248 -1.7385
  358TMC3    H2 5367   0.191   4.338   1.430 -3.2842 -1.2017 -1.2847
  358TMC3    C7 5368   0.366   4.517   1.486 -0.2474  0.1480  0.4899
  358TMC3    C8 5369   4.661   4.350   1.326  0.0125 -0.0157 -0.5395
  358TMC3    O1 5370   0.425   4.595   1.564  0.2197 -0.1461  0.1694
  358TMC3    O2 5371   4.571   4.397   1.255 -0.4735  0.6259  0.6723
  359MPD2     C 5372   3.425   4.132  12.461 -0.0511  0.3742 -0.0492
  359MPD2    C1 5373   3.486   4.008  12.492  0.1585 -0.6228 -0.6100
  359MPD2    C2 5374   3.404   3.898  12.499 -0.2607 -0.8837  0.2685
  359MPD2    C3 5375   3.267   3.905  12.463 -0.0114  0.4106  0.0121
  359MPD2    C4 5376   3.209   4.027  12.445  0.3227 -0.0950 -0.2877
  359MPD2    C5 5377   3.288   4.135  12.445  0.7621  0.3925  0.0407
  359MPD2     H 5378   3.446   3.799  12.514  1.0187 -0.4025 -0.0795
  359MPD2    H1 5379   3.104   4.040  12.423  0.4960 -1.0727 -1.6852
  359MPD2    H2 5380   3.480   4.225  12.460  2.8417 -1.2840  3.8962
  359MPD2    H3 5381   3.243   4.234  12.439  0.0134  0.0036 -0.7006
  359MPD2     N 5382   3.193   3.785  12.421 -0.0450  0.5454 -0.6106
  359MPD2    H5 5383   3.104   3.810  12.378 -0.8640 -2.8701 -0.8891
  359MPD2    N1 5384   3.622   3.985  12.520 -0.7385  0.0831 -0.2837
  359MPD2    H7 5385   3.636   3.886  12.539 -0.2849  0.3479  0.7563
  360TMC3    C1 5386   3.858   4.040  12.531  0.3603 -0.6910 -0.1070
  360TMC3    C2 5387   3.948   4.135  12.507  0.3077  0.1749  0.6146
  360TMC3    C3 5388   4.076   4.110  12.445 -0.4355 -0.2512  0.1040
  360TMC3    C4 5389   3.887   3.914  12.479  0.3035  0.0908  0.5797
  360TMC3    C5 5390   4.008   3.882  12.432 -0.0340 -0.0176  1.3731
  360TMC3    C6 5391   4.097   3.976  12.406  0.5521  0.1698 -0.3587
  360TMC3     C 5392   3.719   4.082  12.531 -0.0594  0.4633 -0.6652
  360TMC3     O 5393   3.695   4.199  12.511 -0.5967  0.1844  1.0266
  360TMC3     H 5394   3.926   4.238  12.534  1.7590  0.5385  0.4680
  360TMC3    H1 5395   3.821   3.829  12.495 -2.0595  1.7634 -0.1808
  360TMC3    H2 5396   4.194   3.933  12.384  0.8317 -0.9741  3.0931
  360TMC3    C7 5397   4.023   3.769  12.347  0.7256 -0.1656  0.6445
  360TMC3    C8 5398   4.110   4.201  12.334  0.0175  0.3855  0.6587
  360TMC3    O1 5399   4.087   3.792  12.244 -0.2308 -0.2494 -0.1342
  360TMC3    O2 5400   4.039   4.305  12.334 -0.6132  0.3656  0.6920
  361MPD2     C 5401   0.697   2.895  16.934 -0.4895 -0.3672 -0.2971
  361MPD2    C1 5402   0.718   2.929  17.069  0.6938 -0.2168 -0.8180
  361MPD2    C2 5403   0.785   2.845  17.154 -0.9623 -0.4456 -0.3676
  361MPD2    C3 5404   0.857   2.740  17.103 -0.3733  0.1282  0.5770
  361MPD2    C4 5405   0.846   2.711  16.971 -0.0271 -0.5838 -0.9156
  361MPD2    C5 5406   0.766   2.787  16.885 -0.1947  0.4131 -0.5786
  361MPD2     H 5407   0.781   2.872  17.259  1.5839  2.1636 -0.9413
  361MPD2    H1 5408   0.901   2.631  16.921  0.6925  0.1814 -1.3431
  361MPD2    H2 5409   0.628   2.942  16.866  0.4602  1.0884 -0.2630
  361MPD2    H3 5410   0.750   2.766  16.780  0.3287 -0.2862 -0.5123
  361MPD2     N 5411   0.929   2.640  17.179  0.0229 -0.0995 -0.7761
  361MPD2    H5 5412   0.956   2.556  17.129 -0.3742 -1.4932  1.3562
  361MPD2    N1 5413   0.655   3.040  17.133 -0.1842 -0.5558 -0.2122
  361MPD2    H7 5414   0.679   3.056  17.231  0.2445  0.7834 -0.5404
  362TMC3    C1 5415   0.529   3.243  17.146  0.1729  0.0826  0.1004
  362TMC3    C2 5416   0.489   3.212  17.279  0.1538 -0.1416  0.7370
  362TMC3    C3 5417   0.434   3.306  17.362  0.1262 -0.2159 -0.0136
  362TMC3    C4 5418   0.507   3.360  17.091 -0.4345  0.4262  0.3954
  362TMC3    C5 5419   0.445   3.452  17.174 -0.1103  0.3973 -0.2125
  362TMC3    C6 5420   0.414   3.431  17.311 -0.1837  0.6241  0.5332
  362TMC3     C 5421   0.596   3.146  17.061 -0.5657 -0.3631  0.5828
  362TMC3     O 5422   0.598   3.171  16.942 -0.0730 -0.2581  0.0616
  362TMC3     H 5423   0.499   3.109  17.309 -1.7487 -0.0332  1.6941
  362TMC3    H1 5424   0.545   3.388  16.993 -0.9111 -0.6340 -0.0937
  362TMC3    H2 5425   0.392   3.514  17.377  0.4200 -1.3369  3.1914
  362TMC3    C7 5426   0.399   3.577  17.106  0.5423  0.5830  0.6576
  362TMC3    C8 5427   0.424   3.276  17.503 -0.0923  0.4297 -0.0656
  362TMC3    O1 5428   0.433   3.589  16.989  0.0955 -0.1851  0.0064
  362TMC3    O2 5429   0.491   3.178  17.540  0.2167 -0.6053  0.1515
  363TMC3    C1 5430   4.089   0.689   9.527  0.3104  0.3561  0.3021
  363TMC3    C2 5431   4.079   0.608   9.642 -0.8098 -0.9690  0.0146
  363TMC3    C3 5432   3.963   0.628   9.708  0.1523 -0.3453  0.0801
  363TMC3    C4 5433   3.991   0.782   9.493  0.1853  0.2533  0.1413
  363TMC3    C5 5434   3.872   0.773   9.556  0.0049 -0.1335 -0.1998
  363TMC3    C6 5435   3.854   0.702   9.668  0.5596 -0.5379  0.0554
  363TMC3     C 5436   4.217   0.704   9.467 -0.0960 -0.5788 -0.7729
  363TMC3     O 5437   4.242   0.817   9.431  0.0508  0.3738  0.1319
  363TMC3     H 5438   4.157   0.539   9.673  2.0170  2.3245  0.2335
  363TMC3    H1 5439   4.012   0.847   9.408 -1.5673  0.6738  0.0334
  363TMC3    H2 5440   3.762   0.710   9.723 -0.2232  0.2300 -1.3711
  363TMC3    C7 5441   3.775   0.878   9.531  0.0180 -0.2112 -0.0474
  363TMC3    C8 5442   3.931   0.543   9.819 -0.1511 -0.1853 -0.5491
  363TMC3    O1 5443   3.662   0.852   9.564 -0.3957 -0.2949  0.3730
  363TMC3    O2 5444   3.854   0.593   9.900 -0.4230  1.2042 -0.2554
  364MPD2     C 5445   2.684   4.433  11.037 -0.5546  0.5022  0.1091
  364MPD2    C1 5446   2.769   4.336  10.993 -0.8955  0.0445 -0.1288
  364MPD2    C2 5447   2.757   4.207  11.050  0.8769 -0.6383 -0.4189
  364MPD2    C3 5448   2.652   4.166  11.128 -0.2467 -0.6115  0.7720
  364MPD2    C4 5449   2.566   4.262  11.164  0.2109 -0.3646 -0.2044
  364MPD2    C5 5450   2.585   4.393  11.124 -0.0116  0.1933 -0.0996
  364MPD2     H 5451   2.836   4.135  11.031  0.9800 -0.4307 -0.7632
  364MPD2    H1 5452   2.482   4.232  11.226  0.2736 -1.2514 -0.5423
  364MPD2    H2 5453   2.682   4.537  11.004  2.9197  1.7245  3.8134
  364MPD2    H3 5454   2.511   4.460  11.164 -1.5468 -1.7705  0.3849
  364MPD2     N 5455   2.639   4.039  11.186 -0.1543 -0.2803  0.3017
  364MPD2    H5 5456   2.561   4.034  11.250  2.0842  0.0212  3.0794
  364MPD2    N1 5457   2.871   4.369  10.899  0.2856  0.0752  0.3695
  364MPD2    H7 5458   2.865   4.462  10.860  1.0618  0.0386  0.1481
  365TMC3    C1 5459   3.034   4.335  10.722 -0.3801  0.0644 -0.9083
  365TMC3    C2 5460   3.060   4.255  10.619 -0.1335 -0.2762  0.2315
  365TMC3    C3 5461   3.136   4.304  10.515 -0.9047 -0.2706 -1.1762
  365TMC3    C4 5462   3.096   4.460  10.736  0.1132 -0.5090 -0.4128
  365TMC3    C5 5463   3.171   4.508  10.629 -0.7194 -0.5802  0.0231
  365TMC3    C6 5464   3.179   4.431  10.513 -0.4393  0.4046 -0.0335
  365TMC3     C 5465   2.959   4.279  10.837 -0.2341 -0.3186  0.7452
  365TMC3     O 5466   2.965   4.157  10.845  0.0737  0.5672 -0.1343
  365TMC3     H 5467   3.019   4.154  10.617 -0.5370 -0.1066 -0.1464
  365TMC3    H1 5468   3.114   4.493  10.837 -0.2421  0.1120 -0.5538
  365TMC3    H2 5469   3.230   4.470  10.425  1.3373  1.7740  1.5938
  365TMC3    C7 5470   3.181   4.649  10.617 -0.3445 -0.0568  0.0418
  365TMC3    C8 5471   3.185   4.213  10.413  0.1588 -0.2092  0.1826
  365TMC3    O1 5472   3.236   4.700  10.520 -0.4016  0.4575  0.2254
  365TMC3    O2 5473   3.209   4.258  10.300 -0.0703  0.4669  0.3390
  366MPD2     C 5474   1.413   0.474  15.361  0.1504 -0.9174  0.6611
  366MPD2    C1 5475   1.409   0.578  15.279  0.1632  0.3439 -0.0431
  366MPD2    C2 5476   1.510   0.607  15.192 -0.0466 -0.0757 -0.1412
  366MPD2    C3 5477   1.617   0.524  15.178 -0.2778 -0.3255  0.1761
  366MPD2    C4 5478   1.632   0.416  15.271 -0.8203 -0.0505  0.2232
  366MPD2    C5 5479   1.520   0.392  15.352 -0.2867  0.4923 -0.4175
  366MPD2     H 5480   1.508   0.699  15.134  1.8911 -0.6095 -1.0763
  366MPD2    H1 5481   1.715   0.347  15.279  0.1682  1.0889 -0.1718
  366MPD2    H2 5482   1.337   0.437  15.429  0.1427 -1.5373  0.3150
  366MPD2    H3 5483   1.523   0.310  15.423  0.6913  1.8086  1.0674
  366MPD2     N 5484   1.714   0.562  15.078 -0.5775  0.3193  0.1896
  366MPD2    H5 5485   1.698   0.648  15.025  4.5111  0.9305 -0.4217
  366MPD2    N1 5486   1.304   0.669  15.295 -0.4137 -0.1377 -0.5466
  366MPD2    H7 5487   1.293   0.749  15.234  0.4750 -0.2826 -0.9124
  367TMC3    C1 5488   1.151   0.790  15.405 -0.0687 -0.3864 -0.8191
  367TMC3    C2 5489   1.241   0.888  15.434  0.2300  0.4750  0.2784
  367TMC3    C3 5490   1.195   0.990  15.510  0.1293  0.2003  0.6162
  367TMC3    C4 5491   1.020   0.804  15.435 -0.3520  0.0044  0.3777
  367TMC3    C5 5492   0.982   0.911  15.512  0.3693 -0.1071 -0.2230
  367TMC3    C6 5493   1.065   1.010  15.539  0.8840 -0.5339  0.8813
  367TMC3     C 5494   1.195   0.658  15.378  0.2618 -0.6632 -0.0602
  367TMC3     O 5495   1.135   0.567  15.430 -0.7217 -0.2571 -0.1743
  367TMC3     H 5496   1.348   0.875  15.420  0.5223  1.3717  1.7860
  367TMC3    H1 5497   0.955   0.718  15.425 -0.9253  0.5878 -0.9017
  367TMC3    H2 5498   1.028   1.099  15.588 -1.6826 -1.9724  1.5467
  367TMC3    C7 5499   0.844   0.948  15.523  0.8148  0.3896 -0.5423
  367TMC3    C8 5500   1.297   1.078  15.566 -0.5130 -0.6876  0.4307
  367TMC3    O1 5501   0.809   1.033  15.606 -0.0849 -0.4563 -0.1601
  367TMC3    O2 5502   1.414   1.056  15.547  0.4226 -0.4913 -0.0103
  368MPD2     C 5503   1.866   2.627  13.182 -1.1866  0.2661  0.4618
  368MPD2    C1 5504   1.827   2.748  13.145  0.3225  0.5723 -0.3521
  368MPD2    C2 5505   1.931   2.834  13.093  0.0071  0.2751  0.0304
  368MPD2    C3 5506   2.065   2.791  13.079  0.4629  0.6408 -0.3541
  368MPD2    C4 5507   2.093   2.663  13.123  0.4747 -0.4159 -0.2855
  368MPD2    C5 5508   1.994   2.582  13.176  0.0765 -0.3567 -0.8397
  368MPD2     H 5509   1.901   2.933  13.061  0.3449 -0.5213 -2.7630
  368MPD2    H1 5510   2.191   2.619  13.109  0.9380  1.6184 -3.2780
  368MPD2    H2 5511   1.795   2.551  13.214  0.6793 -1.3702  0.6971
  368MPD2    H3 5512   2.015   2.479  13.202  0.2204 -0.1182 -0.0206
  368MPD2     N 5513   2.173   2.869  13.028  0.3653  0.4209 -0.2337
  368MPD2    H5 5514   2.264   2.824  13.020 -0.6956 -2.0530  1.8422
  368MPD2    N1 5515   1.684   2.780  13.145 -0.0786  0.2002  0.8039
  368MPD2    H7 5516   1.625   2.702  13.171  0.0808 -1.2422 -3.1094
  369TMC3    C1 5517   1.482   2.895  13.117 -0.0148 -0.3212 -0.0852
  369TMC3    C2 5518   1.444   3.028  13.096 -0.3730 -0.0933 -0.0218
  369TMC3    C3 5519   1.339   3.050  13.013  0.7478 -0.0531  0.1391
  369TMC3    C4 5520   1.412   2.794  13.053 -0.5149  0.1938 -0.7828
  369TMC3    C5 5521   1.313   2.821  12.972  0.5354  0.7610  0.0709
  369TMC3    C6 5522   1.266   2.948  12.955  0.7202 -0.9915  0.6172
  369TMC3     C 5523   1.625   2.896  13.108 -0.0709 -0.0700 -0.0064
  369TMC3     O 5524   1.681   3.000  13.075  0.4901 -0.2405  0.0533
  369TMC3     H 5525   1.497   3.111  13.142 -0.7307 -0.5572  1.2414
  369TMC3    H1 5526   1.440   2.693  13.079  0.1492  0.2599 -1.2306
  369TMC3    H2 5527   1.191   2.980  12.884 -0.2045 -0.8474  1.6664
  369TMC3    C7 5528   1.247   2.705  12.908  0.9153  0.2311 -0.5642
  369TMC3    C8 5529   1.360   3.164  12.926  0.8381 -0.2520 -0.5859
  369TMC3    O1 5530   1.304   2.599  12.900  0.3392  0.1962  0.4750
  369TMC3    O2 5531   1.266   3.210  12.859  0.4716 -0.0409 -0.1054
  370TMC3    C1 5532   1.852   3.509  16.426 -0.0555  0.3375  0.4635
  370TMC3    C2 5533   1.841   3.495  16.563 -0.3837  0.3094 -1.0916
  370TMC3    C3 5534   1.721   3.449  16.617 -0.1255 -0.3783 -0.0735
  370TMC3    C4 5535   1.755   3.464  16.336  0.1066  0.3005 -0.1070
  370TMC3    C5 5536   1.642   3.416  16.398 -0.5736  0.6093  0.9255
  370TMC3    C6 5537   1.618   3.410  16.536 -0.6285 -0.4750  0.2496
  370TMC3     C 5538   1.988   3.543  16.378 -0.3048  0.4436 -0.6486
  370TMC3     O 5539   2.076   3.554  16.465 -0.9344 -0.1905 -0.2399
  370TMC3     H 5540   1.926   3.512  16.627  0.4909 -0.3686 -2.0791
  370TMC3    H1 5541   1.763   3.472  16.229  1.6130  2.1727  0.1404
  370TMC3    H2 5542   1.529   3.366  16.579 -0.8614  0.1678  0.4205
  370TMC3    C7 5543   1.574   3.315  16.322  0.3265  0.2634  0.4515
  370TMC3    C8 5544   1.722   3.419  16.755 -0.1153  0.0248  0.7261
  370TMC3    O1 5545   1.452   3.307  16.327 -0.0575 -0.1446  0.5982
  370TMC3    O2 5546   1.649   3.325  16.788  0.2477 -0.2535 -0.0057
  371TMC3    C1 5547   2.986   2.059  15.629 -0.2996  0.1869  0.0777
  371TMC3    C2 5548   2.871   2.004  15.670  0.4180  0.4501 -0.2535
  371TMC3    C3 5549   2.769   2.090  15.687  0.3916  0.1728 -0.4634
  371TMC3    C4 5550   3.011   2.193  15.595  0.1744  0.2087  0.2511
  371TMC3    C5 5551   2.900   2.277  15.612  0.3019  0.4831  0.4143
  371TMC3    C6 5552   2.772   2.225  15.641 -0.0556 -0.6627 -0.0818
  371TMC3     C 5553   3.101   1.971  15.613  0.1548 -0.6287 -0.4246
  371TMC3     O 5554   3.207   2.020  15.585  0.1726  0.3638  0.0841
  371TMC3     H 5555   2.863   1.907  15.718 -0.3809  1.3816  1.4797
  371TMC3    H1 5556   3.110   2.230  15.575 -0.0756  0.1798 -1.0668
  371TMC3    H2 5557   2.679   2.278  15.630 -0.8537 -1.8870  0.7571
  371TMC3    C7 5558   2.899   2.401  15.536 -0.3620 -0.0093  0.2573
  371TMC3    C8 5559   2.639   2.029  15.696  0.1152  0.8053  0.3068
  371TMC3    O1 5560   2.789   2.437  15.498 -0.6398  0.2362  0.0941
  371TMC3    O2 5561   2.623   1.918  15.656 -0.0220  0.0567  0.1429
  372MPD2     C 5562   2.370   3.226  13.268 -0.0088  0.2401 -0.1485
  372MPD2    C1 5563   2.486   3.162  13.321 -0.5528 -0.9647 -0.0386
  372MPD2    C2 5564   2.481   3.028  13.354 -0.5245  0.0488  0.3644
  372MPD2    C3 5565   2.362   2.954  13.346 -0.0428 -0.0986 -0.0194
  372MPD2    C4 5566   2.251   3.020  13.304  1.1270 -0.3076  0.1015
  372MPD2    C5 5567   2.256   3.148  13.264  0.5789 -0.3076  0.7026
  372MPD2     H 5568   2.575   2.981  13.380  0.9634  0.4341 -4.3524
  372MPD2    H1 5569   2.155   2.971  13.297  1.3350 -0.8514  1.0802
  372MPD2    H2 5570   2.361   3.324  13.222 -0.3230 -0.4392 -1.5512
  372MPD2    H3 5571   2.162   3.193  13.233  0.4125  0.0380  1.7336
  372MPD2     N 5572   2.371   2.817  13.380  0.5322  0.1475  0.1929
  372MPD2    H5 5573   2.461   2.784  13.415 -0.9893 -0.7599  3.2624
  372MPD2    N1 5574   2.613   3.230  13.305  0.4315 -0.2872 -0.1758
  372MPD2    H7 5575   2.693   3.180  13.345 -0.6960 -0.4851  1.8012
  373TMC3    C1 5576   2.276   2.614  13.461 -0.5030 -0.0872 -0.0375
  373TMC3    C2 5577   2.181   2.569  13.549  0.2747 -0.5061  0.0471
  373TMC3    C3 5578   2.185   2.439  13.587 -0.3273 -0.6291 -0.5651
  373TMC3    C4 5579   2.387   2.542  13.433 -0.0545  0.2982  1.1056
  373TMC3    C5 5580   2.384   2.416  13.482 -0.1691 -0.5195  0.2870
  373TMC3    C6 5581   2.282   2.349  13.552  0.1657  0.0847 -0.4073
  373TMC3     C 5582   2.257   2.746  13.415 -0.5638 -0.0021 -0.2906
  373TMC3     O 5583   2.143   2.788  13.427  0.5228  0.2087 -0.7669
  373TMC3     H 5584   2.089   2.623  13.568 -0.6009 -1.3296 -1.8144
  373TMC3    H1 5585   2.454   2.575  13.354 -2.5432  0.0192 -1.1289
  373TMC3    H2 5586   2.293   2.245  13.579 -2.4019  0.7391  3.1187
  373TMC3    C7 5587   2.506   2.348  13.485 -0.0523  0.3134  0.2896
  373TMC3    C8 5588   2.140   2.415  13.724 -0.4582  1.2736 -0.2088
  373TMC3    O1 5589   2.498   2.225  13.485 -0.1172 -0.0061  0.9798
  373TMC3    O2 5590   2.130   2.299  13.758 -0.2057 -0.8859  0.0574
  374TMC3    C1 5591   2.835   2.578  10.472 -0.2274 -0.1164  1.0558
  374TMC3    C2 5592   2.916   2.690  10.461 -0.2233 -0.0755 -0.2410
  374TMC3    C3 5593   2.887   2.778  10.358  0.2944 -0.4250 -0.5681
  374TMC3    C4 5594   2.724   2.562  10.397  0.3623 -0.9107 -0.4267
  374TMC3    C5 5595   2.698   2.654  10.302  0.5803  0.7498 -0.4704
  374TMC3    C6 5596   2.781   2.760  10.277 -0.4052 -0.9051  0.1205
  374TMC3     C 5597   2.837   2.506  10.595 -0.5188  0.5865 -0.1577
  374TMC3     O 5598   2.733   2.460  10.638  0.6777  0.0781 -0.1752
  374TMC3     H 5599   2.989   2.724  10.535  0.0065  3.2639 -1.9841
  374TMC3    H1 5600   2.663   2.475  10.419 -2.0801  1.3724  1.7877
  374TMC3    H2 5601   2.769   2.810  10.182  0.8386 -2.7491 -1.0077
  374TMC3    C7 5602   2.579   2.640  10.222  0.1841 -0.0606 -0.6670
  374TMC3    C8 5603   2.982   2.876  10.316 -0.7446  0.8633  0.5233
  374TMC3    O1 5604   2.584   2.690  10.107  0.3936 -0.3396 -0.1613
  374TMC3    O2 5605   2.954   2.959  10.226  0.5121  0.0129 -0.4043
  375MPD2     C 5606   3.209   4.026  16.249  0.1365  0.1510  0.7861
  375MPD2    C1 5607   3.232   3.910  16.318 -0.3417  0.3748  0.1167
  375MPD2    C2 5608   3.295   3.807  16.255 -0.1306 -0.2311 -0.1264
  375MPD2    C3 5609   3.350   3.823  16.128  0.6239  0.4488 -0.1787
  375MPD2    C4 5610   3.315   3.938  16.062  0.0920  0.0703  0.2398
  375MPD2    C5 5611   3.240   4.038  16.116  0.1264  0.0028  0.4497
  375MPD2     H 5612   3.308   3.716  16.314  1.7622  1.1128  1.5351
  375MPD2    H1 5613   3.350   3.938  15.959  0.4128 -0.9399  0.3496
  375MPD2    H2 5614   3.138   4.095  16.294  0.0461  0.2042  0.5640
  375MPD2    H3 5615   3.219   4.128  16.060  1.7542 -0.5702 -1.0800
  375MPD2     N 5616   3.427   3.722  16.063  0.4625  0.1970 -0.5681
  375MPD2    H5 5617   3.468   3.743  15.972 -2.0827 -4.1987 -2.7498
  375MPD2    N1 5618   3.183   3.889  16.446 -0.0445 -0.4521 -0.3422
  375MPD2    H7 5619   3.210   3.804  16.495 -0.6277 -0.3134  0.2172
  376TMC3    C1 5620   3.524   3.521  16.003  0.4909  0.0688  0.1113
  376TMC3    C2 5621   3.610   3.424  16.045 -0.2120  0.9439  0.3980
  376TMC3    C3 5622   3.688   3.367  15.952 -0.6676  0.5108  0.6882
  376TMC3    C4 5623   3.502   3.548  15.866  0.2064 -0.0232  0.3641
  376TMC3    C5 5624   3.573   3.480  15.778 -0.4912  0.5420 -0.7440
  376TMC3    C6 5625   3.666   3.384  15.814 -0.1304 -0.1707  0.3422
  376TMC3     C 5626   3.442   3.593  16.100  0.6365 -0.1706 -0.3887
  376TMC3     O 5627   3.419   3.546  16.211  0.2615 -0.0461  0.4430
  376TMC3     H 5628   3.624   3.396  16.149 -0.8256 -2.0723 -0.3062
  376TMC3    H1 5629   3.419   3.614  15.844 -0.5020 -0.5529  1.4811
  376TMC3    H2 5630   3.746   3.364  15.744 -1.1401  0.7122 -1.0674
  376TMC3    C7 5631   3.547   3.511  15.637 -0.2056  0.0181 -0.4534
  376TMC3    C8 5632   3.825   3.329  15.977  0.3452  0.3099  0.3909
  376TMC3    O1 5633   3.491   3.621  15.623 -0.2033 -0.2034 -0.1302
  376TMC3    O2 5634   3.886   3.265  15.891  0.0783 -0.4700 -0.7079
  377MPD2     C 5635   0.722   3.199  12.363  0.2128  1.4031 -0.1540
  377MPD2    C1 5636   0.806   3.176  12.473  0.3545 -0.0148  0.3464
  377MPD2    C2 5637   0.746   3.162  12.599  0.1334  0.2589 -0.3180
  377MPD2    C3 5638   0.606   3.188  12.617  0.4283  1.0070  0.5220
  377MPD2    C4 5639   0.524   3.203  12.507 -0.4901 -0.4631 -0.5886
  377MPD2    C5 5640   0.582   3.221  12.383 -0.0590  0.5790  0.1127
  377MPD2     H 5641   0.809   3.142  12.685  0.2643  3.6593  0.3929
  377MPD2    H1 5642   0.417   3.217  12.522 -0.2545 -0.9698  1.5277
  377MPD2    H2 5643   0.764   3.215  12.264  0.6056  0.1307 -0.1934
  377MPD2    H3 5644   0.517   3.229  12.297 -0.9335  2.1650  0.9363
  377MPD2     N 5645   0.540   3.188  12.745  0.5877  0.8874  0.2322
  377MPD2    H5 5646   0.445   3.223  12.752 -0.1730 -1.1699  0.2298
  377MPD2    N1 5647   0.942   3.157  12.446 -0.0483  0.5041  0.5146
  377MPD2    H7 5648   0.968   3.173  12.350  1.0950 -1.2157  0.5339
  378TMC3    C1 5649   1.344   3.205  12.407  0.3849  0.3846 -0.6674
  378TMC3    C2 5650   1.208   3.192  12.415 -0.8955  0.1247  0.1044
  378TMC3    C3 5651   1.165   3.090  12.491  0.4167 -0.1035 -0.1362
  378TMC3    C4 5652   1.431   3.121  12.471  0.4541  0.3933  0.5809
  378TMC3    C5 5653   1.375   3.021  12.546 -0.5785 -0.5848  0.5784
  378TMC3    C6 5654   1.240   3.000  12.556 -0.8430  0.4838  0.1361
  378TMC3     C 5655   1.384   3.310  12.310  0.8066  0.1317  0.1979
  378TMC3     O 5656   1.294   3.371  12.246 -0.3880  0.2546 -0.2880
  378TMC3     H 5657   1.145   3.265  12.366 -0.2393  0.3683 -0.3819
  378TMC3    H1 5658   1.535   3.151  12.476  1.0986 -1.7861  0.4383
  378TMC3    H2 5659   1.208   2.919  12.620  0.9015  0.8177  1.4153
  378TMC3    C7 5660   1.462   2.924  12.606 -0.4982  1.1491 -0.6408
  378TMC3    C8 5661   1.025   3.089  12.530 -0.1229 -0.1167  0.6157
  378TMC3    O1 5662   1.400   2.824  12.646 -0.3050 -0.2765 -0.2302
  378TMC3    O2 5663   0.995   3.021  12.628 -0.2717 -0.1881  0.2850
  379MPD2     C 5664   1.887   1.574  16.557 -0.5973 -0.4782  0.0915
  379MPD2    C1 5665   1.988   1.512  16.487 -0.6573  0.7938  0.2864
  379MPD2    C2 5666   2.092   1.438  16.551 -0.1584 -0.1837  0.7917
  379MPD2    C3 5667   2.076   1.410  16.684 -0.3338  0.0201 -0.9357
  379MPD2    C4 5668   1.971   1.469  16.758  0.0486  0.3172 -0.2235
  379MPD2    C5 5669   1.877   1.536  16.689  0.3647  1.0001 -0.1175
  379MPD2     H 5670   2.171   1.397  16.489 -0.1016 -1.7988  1.9307
  379MPD2    H1 5671   1.952   1.433  16.859 -1.1137  2.7786  0.4240
  379MPD2    H2 5672   1.797   1.613  16.511 -0.6490  0.6297  1.1227
  379MPD2    H3 5673   1.791   1.568  16.748  0.9365 -1.5614  2.0671
  379MPD2     N 5674   2.172   1.334  16.761 -0.5363 -0.2095  0.1686
  379MPD2    H5 5675   2.155   1.322  16.861 -0.2145 -0.3647  0.2030
  379MPD2    N1 5676   1.983   1.540  16.345 -0.1122 -0.4935 -0.3252
  379MPD2    H7 5677   1.909   1.604  16.315 -0.0183 -1.2299 -2.1341
  380TMC3    C1 5678   2.007   1.499  16.116 -0.1886  0.9469  0.1664
  380TMC3    C2 5679   2.091   1.492  16.009  0.9270 -0.5200  0.7307
  380TMC3    C3 5680   2.034   1.492  15.886 -0.4046 -0.1013 -0.0753
  380TMC3    C4 5681   1.867   1.486  16.106 -0.2304  0.5224 -1.1982
  380TMC3    C5 5682   1.817   1.472  15.973  0.3575  0.4922  0.4296
  380TMC3    C6 5683   1.898   1.474  15.864  0.0576 -0.0350 -0.5244
  380TMC3     C 5684   2.067   1.483  16.250 -0.0334  0.2000 -0.2702
  380TMC3     O 5685   2.185   1.443  16.253  0.0310 -0.1560 -0.0416
  380TMC3     H 5686   2.196   1.517  16.020  0.7229  1.3723 -1.4847
  380TMC3    H1 5687   1.803   1.471  16.192 -0.8904 -0.5305 -1.8702
  380TMC3    H2 5688   1.858   1.457  15.765 -1.1585 -0.3386  0.0141
  380TMC3    C7 5689   1.670   1.486  15.960  0.0075  0.3617 -0.5829
  380TMC3    C8 5690   2.118   1.476  15.768 -0.5151  0.0350 -0.1897
  380TMC3    O1 5691   1.609   1.521  16.060  0.2503 -0.1564 -0.1798
  380TMC3    O2 5692   2.072   1.508  15.661  0.5423 -0.5096  0.3712
  381TMC3    C1 5693   1.598   2.603  16.598  0.8652  0.2078  0.0513
  381TMC3    C2 5694   1.675   2.703  16.545 -0.6352 -0.0425 -0.4415
  381TMC3    C3 5695   1.723   2.793  16.639 -0.2255  0.1167 -0.2288
  381TMC3    C4 5696   1.561   2.595  16.732 -0.2630  0.4537  0.2394
  381TMC3    C5 5697   1.599   2.700  16.809 -0.3342 -0.2077  0.7304
  381TMC3    C6 5698   1.687   2.796  16.770 -0.5632 -0.0245  0.3211
  381TMC3     C 5699   1.568   2.483  16.517  0.4348  0.6136  0.2295
  381TMC3     O 5700   1.571   2.375  16.575  0.2407 -0.2623 -0.5431
  381TMC3     H 5701   1.696   2.706  16.439 -0.0192 -2.2994 -0.3905
  381TMC3    H1 5702   1.503   2.509  16.765  0.1735 -0.4945 -1.4754
  381TMC3    H2 5703   1.739   2.854  16.845 -0.7048 -0.4859  0.7762
  381TMC3    C7 5704   1.589   2.691  16.950  0.7313  0.1863  1.0314
  381TMC3    C8 5705   1.793   2.906  16.577 -0.3028  0.8731 -0.4664
  381TMC3    O1 5706   1.572   2.575  16.987 -0.1049  0.1397  0.1521
  381TMC3    O2 5707   1.780   2.914  16.457 -0.3886  0.4143 -0.3611
  382MPD2     C 5708   1.786   0.016   0.122 -0.0917 -0.5858 -0.4473
  382MPD2    C1 5709   1.721   0.068   0.010  0.3056 -0.3058 -0.5405
  382MPD2    C2 5710   1.592   0.028  17.675 -0.0116  0.0635 -0.3474
  382MPD2    C3 5711   1.526   4.652   0.062  0.0037 -1.0288  0.4636
  382MPD2    C4 5712   1.593   4.596   0.167 -0.7752 -0.4416 -0.9405
  382MPD2    C5 5713   1.720   4.640   0.199  0.0093 -0.1478  0.5665
  382MPD2     H 5714   1.528   0.071  17.598  0.8692 -0.3559 -1.3021
  382MPD2    H1 5715   1.532   4.540   0.237 -0.7635  0.3610 -0.2954
  382MPD2    H2 5716   1.883   0.045   0.158 -0.8440  0.8232  0.4592
  382MPD2    H3 5717   1.756   4.619   0.299  1.9613 -0.7053 -0.2588
  382MPD2     N 5718   1.387   4.630   0.052  0.1301  0.0513 -0.7675
  382MPD2    H5 5719   1.335   4.677  17.666  1.8076 -0.4346 -2.2628
  382MPD2    N1 5720   1.794   0.162  17.621 -0.0017  0.1156 -0.2967
  382MPD2    H7 5721   1.880   0.196  17.662  0.7699 -0.4430 -1.4488
  383TMC3    C1 5722   1.174   4.562   0.086  0.0211 -0.2351 -0.0042
  383TMC3    C2 5723   1.104   4.480   0.001 -0.1047 -0.5974  0.2512
  383TMC3    C3 5724   0.969   4.515  17.669  0.7503  0.8036  0.3568
  383TMC3    C4 5725   1.119   4.668   0.150  0.5311 -0.2912 -0.6310
  383TMC3    C5 5726   0.983   4.687   0.135  0.7401  0.1772 -0.2065
  383TMC3    C6 5727   0.908   4.620   0.047 -0.3462 -0.5579 -0.7038
  383TMC3     C 5728   1.318   4.531   0.116 -0.2975 -0.2327  0.3216
  383TMC3     O 5729   1.346   4.425   0.171 -0.3153  0.2219 -0.9400
  383TMC3     H 5730   1.151   4.393  17.643 -1.8015 -1.4593  0.1692
  383TMC3    H1 5731   1.187   0.013   0.202  1.9466 -1.9308 -0.3589
  383TMC3    H2 5732   0.800   4.627   0.039 -0.2982 -1.0699 -1.8590
  383TMC3    C7 5733   0.923   0.091   0.185 -0.0603 -0.6368 -0.0704
  383TMC3    C8 5734   0.896   4.459  17.557 -0.0916 -0.2114 -0.6689
  383TMC3    O1 5735   0.823   0.123   0.120 -0.1875  0.4937  0.0934
  383TMC3    O2 5736   0.810   4.522  17.500 -0.3608  0.0939 -0.2622
  384MPD2     C 5737   2.704   1.253  12.511  0.0646 -0.2288 -1.1933
  384MPD2    C1 5738   2.736   1.125  12.552  0.3900 -0.4656 -0.0622
  384MPD2    C2 5739   2.842   1.050  12.497  0.3671  0.0224 -0.1299
  384MPD2    C3 5740   2.914   1.098  12.383  0.1296  0.0871 -0.5362
  384MPD2    C4 5741   2.889   1.230  12.351  0.3167  0.4744  0.0149
  384MPD2    C5 5742   2.786   1.301  12.409  0.0498  0.0791 -0.1603
  384MPD2     H 5743   2.861   0.948  12.530  0.1330 -0.2759 -0.9232
  384MPD2    H1 5744   2.947   1.283  12.277 -0.8955  1.2277 -0.4014
  384MPD2    H2 5745   2.622   1.314  12.547 -2.2721 -1.9143 -3.6543
  384MPD2    H3 5746   2.764   1.399  12.367  0.9895  0.2862 -0.1762
  384MPD2     N 5747   3.018   1.026  12.315 -0.3055 -0.9173 -0.4379
  384MPD2    H5 5748   3.071   1.072  12.241 -2.9376  0.8176 -1.2610
  384MPD2    N1 5749   2.667   1.055  12.656  0.3255  0.4499  0.3122
  384MPD2    H7 5750   2.682   0.954  12.655  0.2090  0.4326 -0.8408
  385TMC3    C1 5751   3.131   0.829  12.237  0.7533 -0.1555  0.2986
  385TMC3    C2 5752   3.117   0.887  12.113  0.5310 -0.3822  0.5249
  385TMC3    C3 5753   3.080   0.796  12.013  0.3537  0.1261  0.6793
  385TMC3    C4 5754   3.137   0.699  12.258 -0.4709  0.1309  0.0568
  385TMC3    C5 5755   3.091   0.625  12.156 -0.5259  0.3308 -0.0528
  385TMC3    C6 5756   3.080   0.662  12.027  0.3100  0.1431 -0.1215
  385TMC3     C 5757   3.049   0.893  12.336 -0.4603 -0.0479  0.3123
  385TMC3     O 5758   3.003   0.810  12.415 -0.2070  0.5045 -0.4773
  385TMC3     H 5759   3.137   0.992  12.099 -1.5705 -0.0755 -0.1446
  385TMC3    H1 5760   3.156   0.666  12.359 -1.8737 -1.3678 -0.1718
  385TMC3    H2 5761   3.053   0.597  11.945  1.2382  0.0302 -0.3439
  385TMC3    C7 5762   2.985   0.531  12.186  0.3274  0.6929  1.0799
  385TMC3    C8 5763   3.084   0.856  11.878  0.9529  0.4953  0.3154
  385TMC3    O1 5764   2.949   0.450  12.105 -0.0286  0.3458 -0.5123
  385TMC3    O2 5765   3.156   0.952  11.860 -0.3002 -0.6478 -0.1902
  386TMC3    C1 5766   2.331   3.418  12.104 -1.1233 -0.3208  0.2982
  386TMC3    C2 5767   2.388   3.419  11.979 -0.1712 -0.1938 -0.0865
  386TMC3    C3 5768   2.351   3.508  11.889 -0.3889 -0.4020  0.3726
  386TMC3    C4 5769   2.237   3.518  12.130  0.7642  0.3027 -0.1976
  386TMC3    C5 5770   2.215   3.620  12.043  0.2656  0.2517 -0.6299
  386TMC3    C6 5771   2.269   3.611  11.918 -0.1083 -0.2632  0.7958
  386TMC3     C 5772   2.358   3.317  12.203 -0.2630  0.2327 -0.5241
  386TMC3     O 5773   2.269   3.288  12.278 -0.5746 -0.3781  0.1853
  386TMC3     H 5774   2.434   3.324  11.952  1.6702  0.6605 -0.0157
  386TMC3    H1 5775   2.182   3.514  12.224  0.8214  0.3271 -0.1627
  386TMC3    H2 5776   2.250   3.676  11.834 -1.0923  0.3247  1.4729
  386TMC3    C7 5777   2.086   3.691  12.069 -0.3684  0.6860  0.7268
  386TMC3    C8 5778   2.434   3.507  11.764 -0.1048  0.2340  0.4907
  386TMC3    O1 5779   2.022   3.668  12.171 -0.2417  0.2532 -0.6875
  386TMC3    O2 5780   2.381   3.570  11.676 -1.2245  0.0287  0.2883
  387MPD2     C 5781   4.680   3.856   9.504 -0.0666  0.5674 -0.6628
  387MPD2    C1 5782   0.009   3.856   9.634 -0.3437  0.2811  0.6219
  387MPD2    C2 5783   0.099   3.752   9.677 -0.3937  0.0203  0.1052
  387MPD2    C3 5784   0.145   3.658   9.587 -0.6843 -1.0948  0.6069
  387MPD2    C4 5785   0.082   3.654   9.459 -0.0575 -0.0492  0.7438
  387MPD2    C5 5786   4.720   3.758   9.415 -0.1269 -0.0646 -0.1953
  387MPD2     H 5787   0.139   3.757   9.778  0.3060 -1.4252 -0.1017
  387MPD2    H1 5788   0.105   3.576   9.388 -1.1035  0.7401 -0.4695
  387MPD2    H2 5789   4.617   3.940   9.477 -0.2930  0.5783 -0.1087
  387MPD2    H3 5790   4.681   3.754   9.314  0.2301 -2.1117 -0.2487
  387MPD2     N 5791   0.241   3.567   9.635 -0.0822 -0.1297 -0.6483
  387MPD2    H5 5792   0.262   3.568   9.734 -1.5524 -0.5825 -0.3334
  387MPD2    N1 5793   4.682   3.939   9.737  0.8396 -0.3616  0.0221
  387MPD2    H7 5794   0.007   3.930   9.826 -1.1968  0.5238  1.1635
  388TMC3    C1 5795   4.536   4.035   9.884 -0.1845 -0.0162 -0.1736
  388TMC3    C2 5796   4.512   4.160   9.939 -0.2692  0.1393  0.0502
  388TMC3    C3 5797   4.506   4.173  10.077 -0.1153  0.6896 -0.3702
  388TMC3    C4 5798   4.557   3.928   9.972 -0.3990 -0.0247 -0.2384
  388TMC3    C5 5799   4.551   3.937  10.103 -0.0890 -0.2776  0.0836
  388TMC3    C6 5800   4.521   4.059  10.152 -0.1773 -0.2632  0.1615
  388TMC3     C 5801   4.564   4.013   9.741 -0.1815 -0.3304 -0.1733
  388TMC3     O 5802   4.507   4.071   9.652  0.4439 -0.0473 -0.2436
  388TMC3     H 5803   4.499   4.246   9.874 -0.3926  0.6757  0.7838
  388TMC3    H1 5804   4.548   3.833   9.921  1.4034 -0.4740  0.2881
  388TMC3    H2 5805   4.530   4.060  10.260 -0.1051 -0.2605  0.1554
  388TMC3    C7 5806   4.626   3.850  10.192 -0.3611 -1.0255  1.0234
  388TMC3    C8 5807   4.446   4.290  10.126  0.1207 -0.3068  0.1456
  388TMC3    O1 5808   4.626   3.851  10.313 -0.1066  0.3499  0.3027
  388TMC3    O2 5809   4.378   4.263  10.226 -0.0544 -0.0030 -0.4323
  389MPD2     C 5810   0.107   1.509  10.930 -0.3203 -0.0142  0.2401
  389MPD2    C1 5811   0.043   1.440  10.832 -0.1552  0.1477 -0.0856
  389MPD2    C2 5812   4.669   1.353  10.870 -0.3386 -0.1930 -0.5454
  389MPD2    C3 5813   4.646   1.322  11.003 -1.0538 -0.2841 -0.3399
  389MPD2    C4 5814   4.702   1.403  11.101 -0.3097 -0.7829  0.0435
  389MPD2    C5 5815   0.066   1.498  11.063  0.4451  0.0403  0.1427
  389MPD2     H 5816   4.614   1.298  10.795  0.0870  0.6662 -1.4922
  389MPD2    H1 5817   4.676   1.393  11.206 -0.1973 -0.1994  0.1273
  389MPD2    H2 5818   0.192   1.573  10.906 -0.1380 -0.2374  0.3006
  389MPD2    H3 5819   0.123   1.552  11.138  1.4498 -0.0432 -0.5537
  389MPD2     N 5820   4.551   1.225  11.038  0.6240 -0.0125  0.3073
  389MPD2    H5 5821   4.525   1.220  11.136  1.5181  1.5558  0.6142
  389MPD2    N1 5822   0.056   1.491  10.702 -0.2507 -0.2829  0.3097
  389MPD2    H7 5823   0.120   1.569  10.697 -0.0057 -0.3748  1.8325
  390TMC3    C1 5824   4.406   1.047  11.047  1.0262  0.6124  0.2919
  390TMC3    C2 5825   4.393   1.072  11.177  0.3569  0.5995 -0.4499
  390TMC3    C3 5826   4.289   1.017  11.245 -0.2133  0.1574  0.1818
  390TMC3    C4 5827   4.306   0.981  10.976 -0.0959 -0.2509  0.6171
  390TMC3    C5 5828   4.189   0.961  11.040 -0.9717  0.3673  0.4214
  390TMC3    C6 5829   4.180   0.977  11.173  0.3652 -0.7736 -0.1217
  390TMC3     C 5830   4.505   1.118  10.968  0.1438 -0.2237  0.7770
  390TMC3     O 5831   4.523   1.077  10.853 -0.0260  0.0418 -0.6953
  390TMC3     H 5832   4.474   1.099  11.245  1.4317 -1.9024 -0.7396
  390TMC3    H1 5833   4.308   0.977  10.868  0.2519 -0.5942  0.6347
  390TMC3    H2 5834   4.094   0.945  11.231  0.7557  0.4463  1.1263
  390TMC3    C7 5835   4.086   0.893  10.963 -0.1211  0.0209 -0.0752
  390TMC3    C8 5836   4.280   1.031  11.386  0.1759 -0.1690 -0.2209
  390TMC3    O1 5837   4.107   0.836  10.856 -0.0667  0.2708 -0.8348
  390TMC3    O2 5838   4.363   1.110  11.431  0.3849 -0.2136 -0.0591
  391MPD2     C 5839   3.927   2.769  11.559 -0.0512 -0.0869 -0.6035
  391MPD2    C1 5840   3.974   2.892  11.516  0.1981  0.3471 -0.4808
  391MPD2    C2 5841   3.936   2.943  11.400 -0.6439 -0.5919  0.3037
  391MPD2    C3 5842   3.859   2.877  11.312  0.0998  0.7165 -0.2261
  391MPD2    C4 5843   3.815   2.750  11.353 -0.2811  0.2922  0.4886
  391MPD2    C5 5844   3.853   2.690  11.470  0.4260  0.5032 -0.1387
  391MPD2     H 5845   3.997   3.024  11.361  1.0041 -1.2568  1.4736
  391MPD2    H1 5846   3.755   2.694  11.283  0.1378 -1.3183  1.4121
  391MPD2    H2 5847   3.959   2.723  11.652 -2.1207  1.1300  0.6845
  391MPD2    H3 5848   3.820   2.595  11.508  1.9930  1.2401  3.0255
  391MPD2     N 5849   3.830   2.943  11.186  0.0439 -0.8212  0.1606
  391MPD2    H5 5850   3.865   3.038  11.184  3.4413 -2.0593  0.9468
  391MPD2    N1 5851   4.063   2.952  11.605 -0.1350 -0.1273 -0.1774
  391MPD2    H7 5852   4.096   2.900  11.686 -0.3197  1.8669  1.1860
  392TMC3    C1 5853   3.750   2.973  10.959 -0.7896 -0.2308 -0.0908
  392TMC3    C2 5854   3.654   2.939  10.866 -0.0706  0.5873  0.7059
  392TMC3    C3 5855   3.628   3.026  10.763  0.0504  0.0862 -0.4531
  392TMC3    C4 5856   3.821   3.093  10.948  0.0596 -0.0100 -0.0139
  392TMC3    C5 5857   3.784   3.176  10.846  0.0448  0.1503  0.1116
  392TMC3    C6 5858   3.692   3.140  10.749 -0.4595 -0.0321 -0.7839
  392TMC3     C 5859   3.766   2.887  11.076 -0.0325 -0.4889 -0.2150
  392TMC3     O 5860   3.697   2.786  11.077  0.5383 -0.1635 -0.1849
  392TMC3     H 5861   3.595   2.848  10.868 -0.4882  0.8342 -0.2938
  392TMC3    H1 5862   3.892   3.130  11.020 -1.6464 -1.3815  2.3625
  392TMC3    H2 5863   3.654   3.210  10.675 -0.0666 -1.1612 -2.0541
  392TMC3    C7 5864   3.814   3.321  10.861  0.3154 -0.0954  0.7408
  392TMC3    C8 5865   3.521   2.984  10.669 -0.5637  0.0232 -0.5435
  392TMC3    O1 5866   3.884   3.359  10.952  0.4091  0.0862 -0.3671
  392TMC3    O2 5867   3.474   2.875  10.689 -0.2460 -0.0894  0.1079
  393TMC3    C1 5868   3.188   1.080  10.629 -0.3961  0.2838  0.0202
  393TMC3    C2 5869   3.080   1.047  10.700  0.0513  0.3916  0.3457
  393TMC3    C3 5870   3.068   0.912  10.741  0.0574  0.2451  0.7312
  393TMC3    C4 5871   3.280   0.990  10.589  0.8947  0.4157 -0.2923
  393TMC3    C5 5872   3.269   0.858  10.629 -0.7842  0.4678  0.1977
  393TMC3    C6 5873   3.157   0.816  10.701 -0.1109  0.0708  0.1862
  393TMC3     C 5874   3.212   1.217  10.594 -0.6249 -0.5207  0.3315
  393TMC3     O 5875   3.329   1.254  10.589  0.0934 -0.4999  0.0321
  393TMC3     H 5876   3.002   1.112  10.738  0.8674  0.2812  2.2513
  393TMC3    H1 5877   3.352   1.022  10.513  1.9989 -1.0797  0.1290
  393TMC3    H2 5878   3.153   0.711  10.728  0.4325  0.0933  0.3680
  393TMC3    C7 5879   3.363   0.761  10.568  0.2759 -0.6917 -0.4683
  393TMC3    C8 5880   2.993   0.867  10.858 -0.4214  0.1522 -0.2298
  393TMC3    O1 5881   3.360   0.656  10.635 -0.2923  0.5208 -0.4738
  393TMC3    O2 5882   2.962   0.750  10.850 -0.3203 -0.0017  0.4367
  394TMC3    C1 5883   4.696   1.561  10.490  0.6140  0.0564 -0.1836
  394TMC3    C2 5884   4.613   1.542  10.382 -0.0839  0.6410 -0.1322
  394TMC3    C3 5885   4.608   1.637  10.283  0.2944  0.1733 -0.4190
  394TMC3    C4 5886   0.054   1.672  10.500  0.2091 -0.2924 -0.1506
  394TMC3    C5 5887   0.043   1.764  10.398 -0.1327 -0.5292  0.6021
  394TMC3    C6 5888   4.681   1.750  10.295 -0.4691  0.6021  1.1690
  394TMC3     C 5889   4.689   1.463  10.596  0.6777  0.8983  0.0158
  394TMC3     O 5890   4.599   1.384  10.582 -0.6382  0.3925  0.3889
  394TMC3     H 5891   4.539   1.463  10.391 -0.2775  0.6759 -1.5054
  394TMC3    H1 5892   0.096   1.706  10.594  2.2222  0.5044 -1.3499
  394TMC3    H2 5893   4.690   1.824  10.217 -0.6402  1.6807  2.1666
  394TMC3    C7 5894   0.163   1.844  10.370 -0.0388  0.3654  0.1842
  394TMC3    C8 5895   4.513   1.622  10.170  0.3596 -0.1876  0.6542
  394TMC3    O1 5896   0.143   1.939  10.296 -0.2607 -0.1975  0.1174
  394TMC3    O2 5897   4.476   1.724  10.112  0.7602  0.1795 -0.2097
  395TMC3    C1 5898   4.458   3.855  14.637  0.1392  0.1983  0.1795
  395TMC3    C2 5899   4.331   3.895  14.663 -0.4181  0.0877  0.5720
  395TMC3    C3 5900   4.313   4.004  14.749  0.1516  0.6972 -0.2456
  395TMC3    C4 5901   4.556   3.943  14.663  0.1484 -0.2995  0.1456
  395TMC3    C5 5902   4.539   4.048  14.746  0.6776  0.0296 -0.7514
  395TMC3    C6 5903   4.416   4.084  14.797  0.3139 -0.2148 -0.0516
  395TMC3     C 5904   4.483   3.722  14.698  0.5156  0.7981 -0.5407
  395TMC3     O 5905   4.537   3.739  14.805  0.3073  0.4123 -0.6975
  395TMC3     H 5906   4.244   3.836  14.636  0.1397 -0.4886  0.0364
  395TMC3    H1 5907   4.658   3.915  14.639  1.2551  1.2421  3.0671
  395TMC3    H2 5908   4.391   4.165  14.864  0.4353 -0.7011  0.5826
  395TMC3    C7 5909   4.649   4.118  14.799 -0.3359 -0.7595 -0.7490
  395TMC3    C8 5910   4.220   3.969  14.856  0.8804 -0.6380  0.7942
  395TMC3    O1 5911   4.632   4.160  14.912 -0.3542 -0.6059  0.5784
  395TMC3    O2 5912   4.181   4.062  14.931  0.5335  0.3005  0.3107
  396MPD2     C 5913   3.824   4.278  17.200 -0.6602 -0.3882 -0.3511
  396MPD2    C1 5914   3.875   4.347  17.300 -0.6495 -0.2331  0.9410
  396MPD2    C2 5915   3.911   4.482  17.281 -0.6522 -0.0106 -0.4743
  396MPD2    C3 5916   3.904   4.537  17.149  0.4311  0.3067 -0.2036
  396MPD2    C4 5917   3.863   4.458  17.041 -0.3976  0.5364  0.0191
  396MPD2    C5 5918   3.822   4.328  17.073  0.2278  0.1008 -0.4698
  396MPD2     H 5919   3.940   4.540  17.367  1.1805  0.8890 -1.7024
  396MPD2    H1 5920   3.867   4.486  16.937  4.1054 -0.9910 -0.2241
  396MPD2    H2 5921   3.791   4.175  17.213 -0.2231 -0.4939 -0.0863
  396MPD2    H3 5922   3.795   4.267  16.988  0.8615 -0.8130 -0.0198
  396MPD2     N 5923   3.964   4.668  17.125  0.1646  0.0711 -0.8157
  396MPD2    H5 5924   4.012   4.708  17.205  0.2046 -0.6312 -0.4922
  396MPD2    N1 5925   3.896   4.284  17.427  0.3727  0.5435 -0.1533
  396MPD2    H7 5926   3.904   4.183  17.433  1.3291  0.7086  1.2188
  397TMC3    C1 5927   4.037   4.268  17.606  0.0353  0.2917 -0.3720
  397TMC3    C2 5928   4.151   4.296  17.535 -0.1146  1.2351  0.5567
  397TMC3    C3 5929   4.263   4.321  17.610 -0.4049  0.0828  0.6054
  397TMC3    C4 5930   4.039   4.268   0.060 -0.1966 -0.2543  0.3551
  397TMC3    C5 5931   4.158   4.273   0.126 -0.2787 -0.0650  1.2394
  397TMC3    C6 5932   4.272   4.302   0.061 -1.3322  0.2244  0.2465
  397TMC3     C 5933   3.932   4.346  17.544 -0.3140  0.2733 -0.5408
  397TMC3     O 5934   3.932   4.463  17.576 -0.3277 -0.2588 -0.1779
  397TMC3     H 5935   4.134   4.334  17.436 -2.4775 -0.6602  0.2403
  397TMC3    H1 5936   3.946   4.256   0.114 -0.2507  0.4314  0.4127
  397TMC3    H2 5937   4.360   4.328   0.118 -1.5128  1.0350  0.1646
  397TMC3    C7 5938   4.165   4.180   0.237  0.3662  0.1927 -0.1947
  397TMC3    C8 5939   4.367   4.395  17.545 -0.6588 -0.4418 -0.5424
  397TMC3    O1 5940   4.073   4.096   0.238 -0.1479 -0.2347  0.0212
  397TMC3    O2 5941   4.457   4.427  17.620 -0.2704  0.2836  0.5521
  398MPD2     C 5942   2.357   0.852   0.564 -0.4343  0.4695 -0.2636
  398MPD2    C1 5943   2.405   0.750   0.651 -0.4612  0.4093  0.2011
  398MPD2    C2 5944   2.480   0.780   0.750 -0.8332 -0.3150 -0.0965
  398MPD2    C3 5945   2.521   0.904   0.778 -1.0096  0.4367 -0.8983
  398MPD2    C4 5946   2.481   1.012   0.700 -0.1302  0.5512 -0.2129
  398MPD2    C5 5947   2.401   0.980   0.593 -0.1789 -0.5828 -0.3625
  398MPD2     H 5948   2.529   0.696   0.798 -3.1088 -1.4416  0.2603
  398MPD2    H1 5949   2.511   1.115   0.715 -0.6043  0.2872  2.5999
  398MPD2    H2 5950   2.305   0.834   0.471 -0.4527 -1.7413  0.1852
  398MPD2    H3 5951   2.376   1.047   0.512  0.4013  0.2168  0.1144
  398MPD2     N 5952   2.622   0.926   0.883  0.3641 -0.6924  0.5364
  398MPD2    H5 5953   2.662   0.848   0.933  0.7506 -0.3683  0.7344
  398MPD2    N1 5954   2.367   0.615   0.629  0.0071 -0.2610  0.2185
  398MPD2    H7 5955   2.417   0.545   0.682  0.3439 -1.7261 -2.0650
  399TMC3    C1 5956   2.262   0.431   0.521 -0.1102 -0.5155 -0.1177
  399TMC3    C2 5957   2.355   0.346   0.587  0.5170  0.0635  0.0791
  399TMC3    C3 5958   2.326   0.210   0.587 -0.1525  0.3944  0.8804
  399TMC3    C4 5959   2.142   0.384   0.477  0.3670 -0.5414  0.1150
  399TMC3    C5 5960   2.114   0.247   0.484  0.2231 -0.0616  0.0949
  399TMC3    C6 5961   2.207   0.156   0.537  0.2819  0.3066 -0.1640
  399TMC3     C 5962   2.264   0.577   0.555 -0.4557 -0.3786  0.2894
  399TMC3     O 5963   2.182   0.639   0.492  0.1349 -0.6723  1.0017
  399TMC3     H 5964   2.452   0.377   0.626 -0.2420  0.9788  1.2358
  399TMC3    H1 5965   2.068   0.455   0.442  2.6825  2.0356  0.4356
  399TMC3    H2 5966   2.189   0.050   0.520 -1.5755  0.4211  1.0210
  399TMC3    C7 5967   1.978   0.197   0.479  0.1738 -0.1074 -0.0853
  399TMC3    C8 5968   2.433   0.120   0.630 -0.0241 -0.2048  0.2274
  399TMC3    O1 5969   1.962   0.100   0.552 -0.1833 -0.5059 -0.5823
  399TMC3    O2 5970   2.543   0.184   0.633 -0.1776  0.5938  0.2734
  400TMC3    C1 5971   1.192   4.492  17.208 -0.1221  0.3880  0.1166
  400TMC3    C2 5972   1.117   4.540  17.098 -0.0247 -0.0610  0.1170
  400TMC3    C3 5973   1.108   4.677  17.085 -0.4586 -0.7081  0.1578
  400TMC3    C4 5974   1.238   4.574  17.307 -0.5957  0.9165 -0.5918
  400TMC3    C5 5975   1.215   4.709  17.294  0.2178 -0.4851 -0.1094
  400TMC3    C6 5976   1.159   0.039  17.179 -0.1340 -0.4515  0.3128
  400TMC3     C 5977   1.218   4.345  17.202 -0.0624 -0.4628 -0.5181
  400TMC3     O 5978   1.165   4.285  17.107 -0.1134  0.3098  0.3703
  400TMC3     H 5979   1.094   4.481  17.009  1.8668  0.2956 -0.5961
  400TMC3    H1 5980   1.278   4.532  17.398  1.7447  1.4219 -1.3772
  400TMC3    H2 5981   1.127   0.142  17.171 -1.6062 -1.0725 -1.7291
  400TMC3    C7 5982   1.229   0.050  17.423  0.6267  0.3615 -0.3773
  400TMC3    C8 5983   1.006   0.011  16.991 -0.9029 -0.3528 -0.4689
  400TMC3    O1 5984   1.239   4.711  17.528  0.2106  0.2920  0.0560
  400TMC3    O2 5985   1.023   0.128  16.956 -0.3095 -0.5884  0.6385
  401MPD2     C 5986   3.661   2.894   0.717  1.0266 -0.2063 -0.1937
  401MPD2    C1 5987   3.788   2.896   0.771  0.3263  0.3350 -0.4206
  401MPD2    C2 5988   3.858   2.774   0.788 -0.4893 -0.2528  0.0393
  401MPD2    C3 5989   3.797   2.650   0.760 -0.0043  0.3477  0.4260
  401MPD2    C4 5990   3.662   2.646   0.715  0.3265 -0.2592  0.1994
  401MPD2    C5 5991   3.601   2.774   0.691 -0.2348 -0.2851 -0.1235
  401MPD2     H 5992   3.956   2.774   0.835  0.3254 -1.3412 -1.6922
  401MPD2    H1 5993   3.598   2.561   0.697 -0.9830  0.2749  2.3989
  401MPD2    H2 5994   3.594   2.978   0.710 -0.1855 -1.1227  0.3936
  401MPD2    H3 5995   3.499   2.763   0.656 -0.1357 -2.0598  0.1591
  401MPD2     N 5996   3.878   2.532   0.769  0.7583  0.2688  0.3685
  401MPD2    H5 5997   3.978   2.548   0.784  1.0434 -0.3225 -0.8922
  401MPD2    N1 5998   3.862   3.010   0.800 -0.0737 -0.5985  0.1262
  401MPD2    H7 5999   3.956   2.994   0.836 -0.1899 -0.2160  0.6027
  402TMC3    C1 6000   3.957   2.315   0.730  0.5424  0.7004  0.0359
  402TMC3    C2 6001   3.950   2.187   0.782  0.0248  0.0494 -0.1126
  402TMC3    C3 6002   4.070   2.114   0.772 -0.2885  0.2277 -0.0320
  402TMC3    C4 6003   4.061   2.373   0.669  0.4137  0.6392  0.3212
  402TMC3    C5 6004   4.168   2.292   0.657  0.2909  0.5444  0.1543
  402TMC3    C6 6005   4.177   2.161   0.703  0.8053  0.2343  0.5834
  402TMC3     C 6006   3.838   2.402   0.753  0.2511 -0.4864  0.1649
  402TMC3     O 6007   3.722   2.354   0.758 -0.0564  0.5980 -0.2465
  402TMC3     H 6008   3.860   2.150   0.829  0.7020 -1.0580  0.2918
  402TMC3    H1 6009   4.048   2.462   0.609  0.1172  1.1733  1.1692
  402TMC3    H2 6010   4.262   2.094   0.704  1.1982  0.7384  0.7876
  402TMC3    C7 6011   4.286   2.352   0.595  0.2134 -0.7782  0.4286
  402TMC3    C8 6012   4.117   2.030   0.880  0.0563  0.6915 -0.6280
  402TMC3    O1 6013   4.264   2.460   0.539 -0.4463 -0.4415 -0.1395
  402TMC3    O2 6014   4.231   2.028   0.918  0.4115  0.3271 -0.2838
  403MPD2     C 6015   2.073   0.719  13.081 -0.6214 -0.2720  0.2875
  403MPD2    C1 6016   2.023   0.762  13.200 -0.3875 -0.5621  0.4658
  403MPD2    C2 6017   2.107   0.838  13.289  0.4016 -0.5521  0.1006
  403MPD2    C3 6018   2.243   0.858  13.256  0.9178  0.8798 -0.2826
  403MPD2    C4 6019   2.288   0.803  13.136 -0.4036  0.5460  0.1398
  403MPD2    C5 6020   2.210   0.726  13.050 -1.2820  0.7707  0.2437
  403MPD2     H 6021   2.064   0.860  13.386  1.2743  0.3851  0.2733
  403MPD2    H1 6022   2.391   0.807  13.105 -0.2981 -2.3350  0.1195
  403MPD2    H2 6023   2.001   0.671  13.016 -0.5556 -0.5775  0.4370
  403MPD2    H3 6024   2.250   0.677  12.963  0.6246  0.9217  1.0331
  403MPD2     N 6025   2.328   0.916  13.350  0.7534 -0.6563 -0.0122
  403MPD2    H5 6026   2.427   0.891  13.343  1.0698 -0.1172  2.7441
  403MPD2    N1 6027   1.898   0.711  13.227 -0.0515 -0.7072 -0.1738
  403MPD2    H7 6028   1.849   0.646  13.165 -2.4076  1.1501 -0.2585
  404TMC3    C1 6029   1.728   0.621  13.381  0.6977  0.0589 -0.3848
  404TMC3    C2 6030   1.681   0.630  13.502  0.3318 -0.2177 -0.1110
  404TMC3    C3 6031   1.639   0.515  13.557  0.7936  0.6633 -0.3145
  404TMC3    C4 6032   1.730   0.503  13.312 -0.0033 -0.0541 -0.1699
  404TMC3    C5 6033   1.688   0.391  13.374  0.0983 -0.8469 -0.5844
  404TMC3    C6 6034   1.640   0.396  13.497 -0.4993 -0.3126 -0.2521
  404TMC3     C 6035   1.846   0.707  13.354 -0.4965 -0.4071 -0.5265
  404TMC3     O 6036   1.878   0.758  13.461  0.7193 -0.0228  0.0268
  404TMC3     H 6037   1.688   0.720  13.562  0.3634 -2.3171  3.0251
  404TMC3    H1 6038   1.780   0.497  13.217  1.6542  0.3687  0.6729
  404TMC3    H2 6039   1.617   0.303  13.547  0.5080  0.7677  2.2740
  404TMC3    C7 6040   1.649   0.274  13.289  0.4211  0.1056 -0.1955
  404TMC3    C8 6041   1.654   0.508  13.702  0.4417  0.8401 -0.2031
  404TMC3    O1 6042   1.645   0.170  13.354 -0.7351 -0.1491 -0.2333
  404TMC3    O2 6043   1.594   0.428  13.770 -0.0531 -0.0145  0.5616
  405MPD2     C 6044   2.627   2.053  14.727  0.6486  0.4400 -0.2955
  405MPD2    C1 6045   2.566   1.953  14.649 -0.5412 -0.7155 -0.6692
  405MPD2    C2 6046   2.459   1.986  14.573 -0.2777 -0.9470 -0.2411
  405MPD2    C3 6047   2.400   2.117  14.584 -0.8221 -0.1487 -0.4197
  405MPD2    C4 6048   2.452   2.204  14.671  0.0150 -0.7944 -0.2198
  405MPD2    C5 6049   2.569   2.179  14.741 -0.2150  0.0776 -0.4108
  405MPD2     H 6050   2.409   1.913  14.509 -2.9854  0.7430 -0.0551
  405MPD2    H1 6051   2.404   2.298  14.696  0.3302 -0.0159 -2.5862
  405MPD2    H2 6052   2.710   2.027  14.791 -0.2148  0.8207  0.9646
  405MPD2    H3 6053   2.613   2.245  14.815 -1.8767 -0.6557  1.2233
  405MPD2     N 6054   2.281   2.142  14.515  0.3265  0.5607  0.0645
  405MPD2    H5 6055   2.257   2.064  14.454 -1.0726  0.3942  0.8248
  405MPD2    N1 6056   2.615   1.816  14.660  0.9476 -0.7317  0.5019
  405MPD2    H7 6057   2.683   1.808  14.735  1.3201 -1.0832  0.1206
  406TMC3    C1 6058   1.832   2.206  14.522  0.1691 -0.2575  0.2113
  406TMC3    C2 6059   1.821   2.073  14.485 -0.2671 -0.1557 -0.8582
  406TMC3    C3 6060   1.930   2.006  14.433  0.8349  0.4540 -0.4225
  406TMC3    C4 6061   1.954   2.273  14.512 -0.3229 -0.7502  1.2695
  406TMC3    C5 6062   2.063   2.203  14.462  0.2019  0.0577  0.5249
  406TMC3    C6 6063   2.050   2.069  14.421 -0.0253  0.4116  0.3950
  406TMC3     C 6064   1.717   2.281  14.572  0.6013  0.1284 -0.5116
  406TMC3     O 6065   1.728   2.404  14.593 -0.1990  0.2812  0.0687
  406TMC3     H 6066   1.723   2.027  14.482 -0.1213 -0.4858 -0.6952
  406TMC3    H1 6067   1.946   2.372  14.555  1.2290  0.5849 -1.5833
  406TMC3    H2 6068   2.129   2.018  14.367 -1.3700 -1.5205  0.2503
  406TMC3    C7 6069   2.189   2.241  14.519  0.1646 -0.0622 -0.5087
  406TMC3    C8 6070   1.930   1.859  14.445 -0.5321  0.1730 -0.0553
  406TMC3    O1 6071   2.196   2.344  14.583 -0.2513 -0.0218  0.5570
  406TMC3    O2 6072   1.839   1.807  14.506 -0.7415  0.2932 -0.2547
  407MPD2     C 6073   4.547   3.244   9.290  0.2308  0.4348  0.1139
  407MPD2    C1 6074   4.665   3.270   9.356  0.0899  0.0296 -0.8244
  407MPD2    C2 6075   4.665   3.290   9.496  0.0208 -0.1583  0.0489
  407MPD2    C3 6076   4.546   3.291   9.568  0.6380  0.3481 -0.2325
  407MPD2    C4 6077   4.432   3.288   9.495 -0.9151 -0.3000 -0.4318
  407MPD2    C5 6078   4.426   3.254   9.361 -0.3793  0.0562  0.5152
  407MPD2     H 6079   0.036   3.291   9.553  0.1263 -0.0397 -0.1256
  407MPD2    H1 6080   4.337   3.293   9.547  0.4891 -0.8317  2.2009
  407MPD2    H2 6081   4.540   3.224   9.184  0.2479  0.9829  0.0114
  407MPD2    H3 6082   4.333   3.239   9.309 -1.4078 -0.0327  2.3688
  407MPD2     N 6083   4.533   3.300   9.709  0.5617  0.1727  0.0635
  407MPD2    H5 6084   4.445   3.280   9.756  0.6602  1.0318  0.6229
  407MPD2    N1 6085   0.068   3.274   9.295 -0.4575  0.3394  0.6396
  407MPD2    H7 6086   0.139   3.322   9.349 -0.1564  0.5797  0.0278
  408TMC3    C1 6087   0.235   3.258   9.123 -0.3108 -0.0295  0.1512
  408TMC3    C2 6088   0.321   3.166   9.069  0.2957 -0.6177  0.6905
  408TMC3    C3 6089   0.445   3.204   9.031  0.1268  0.3186  0.0057
  408TMC3    C4 6090   0.267   3.389   9.128 -0.0736  0.8853 -0.8848
  408TMC3    C5 6091   0.390   3.429   9.082 -0.2476 -0.1663 -0.3633
  408TMC3    C6 6092   0.482   3.337   9.034  0.5078 -0.0375  0.1432
  408TMC3     C 6093   0.105   3.210   9.178 -0.6973 -0.9071  0.1175
  408TMC3     O 6094   0.056   3.108   9.127  0.4915  0.0242  0.2863
  408TMC3     H 6095   0.288   3.062   9.076  0.4292 -0.7181 -0.1649
  408TMC3    H1 6096   0.207   3.463   9.180  0.7091 -0.4391  1.8911
  408TMC3    H2 6097   0.576   3.368   8.990  0.2951 -1.1847 -1.1211
  408TMC3    C7 6098   0.420   3.571   9.090  0.5769  0.1772 -0.0028
  408TMC3    C8 6099   0.550   3.105   9.018  0.2714  0.2404 -1.1309
  408TMC3    O1 6100   0.333   3.651   9.113  0.1431 -0.2913  0.2063
  408TMC3    O2 6101   0.521   2.988   9.003  0.1545 -0.3739 -0.3514
  409MPD2     C 6102   4.395   4.028  17.512  0.1321 -0.0527  0.1821
  409MPD2    C1 6103   4.517   4.030  17.567  0.1556 -0.4713  0.3560
  409MPD2    C2 6104   4.616   4.074  17.492 -0.5565 -0.3016  1.0149
  409MPD2    C3 6105   4.590   4.113  17.365  0.1638 -0.3485 -0.2095
  409MPD2    C4 6106   4.466   4.117  17.313 -0.1434 -0.8564 -0.1635
  409MPD2    C5 6107   4.369   4.065  17.389  0.0433  0.3380 -0.0719
  409MPD2     H 6108   4.711   4.074  17.545  0.5240 -1.7949 -0.9504
  409MPD2    H1 6109   4.451   4.141  17.208 -2.5262 -0.2817  0.3267
  409MPD2    H2 6110   4.305   4.003  17.566  0.2694 -1.1160 -0.0693
  409MPD2    H3 6111   4.268   4.076  17.351  0.1427 -0.5725 -0.6090
  409MPD2     N 6112   4.690   4.152  17.273  0.1744  0.2202 -0.3350
  409MPD2    H5 6113   4.656   4.191  17.186  0.8198  2.6113  0.4867
  409MPD2    N1 6114   4.545   3.989   0.013 -0.2988  0.9239  0.8950
  409MPD2    H7 6115   4.640   3.978   0.047 -0.6615  0.2683  1.6899
  410TMC3    C1 6116   0.184   4.213  17.193  0.8570  0.3844 -0.1021
  410TMC3    C2 6117   0.319   4.199  17.194  0.1392 -0.2447 -0.5939
  410TMC3    C3 6118   0.392   4.308  17.144 -0.6171  0.5351 -0.8233
  410TMC3    C4 6119   0.129   4.326  17.131 -0.1517 -0.4721 -0.2688
  410TMC3    C5 6120   0.200   4.428  17.081  0.3551 -0.2946  0.0957
  410TMC3    C6 6121   0.338   4.424  17.089  0.1890 -0.0216 -0.2590
  410TMC3     C 6122   0.107   4.145  17.296  0.0336 -0.4604 -0.4883
  410TMC3     O 6123   0.159   4.094  17.393 -0.3870  0.3997 -0.7180
  410TMC3     H 6124   0.361   4.122  17.258 -2.1500 -1.5660 -0.6926
  410TMC3    H1 6125   0.023   4.343  17.145  0.1401  0.5280  0.7264
  410TMC3    H2 6126   0.397   4.508  17.055  0.7953 -0.4130 -0.1905
  410TMC3    C7 6127   0.143   4.479  16.960 -0.4697  0.8296  0.0734
  410TMC3    C8 6128   0.530   4.321  17.182  0.7253  0.2445  0.1627
  410TMC3    O1 6129   0.044   4.421  16.936 -0.1587  0.1460 -0.1214
  410TMC3    O2 6130   0.577   4.431  17.204  0.1098 -0.4549  0.7248
  411MPD2     C 6131   0.028   0.438  15.222 -0.1861  0.1391 -0.6513
  411MPD2    C1 6132   0.018   0.492  15.097 -0.7473  0.2300  1.0877
  411MPD2    C2 6133   0.049   0.409  14.992 -0.0113  0.1226 -0.0811
  411MPD2    C3 6134   0.051   0.270  15.007 -0.0210 -0.1332  0.3231
  411MPD2    C4 6135   0.057   0.215  15.135 -0.8336  0.3882 -0.0154
  411MPD2    C5 6136   0.052   0.303  15.239  0.1678 -0.0928  0.2630
  411MPD2     H 6137   0.050   0.451  14.893  0.8028  1.6500  0.5732
  411MPD2    H1 6138   0.059   0.108  15.156  0.6191  0.7589  1.7045
  411MPD2    H2 6139   0.005   0.494  15.312  1.4822  0.0097 -0.1372
  411MPD2    H3 6140   0.046   0.261  15.338 -1.5814 -0.3589  0.0340
  411MPD2     N 6141   0.061   0.200  14.882 -1.0271  0.7908 -0.3585
  411MPD2    H5 6142   0.069   0.253  14.796  0.3034  1.1757 -0.0085
  411MPD2    N1 6143   4.681   0.620  15.089  0.5462 -0.1023  0.0495
  411MPD2    H7 6144   4.662   0.667  15.177  0.1492 -0.3586  0.1014
  412TMC3    C1 6145   0.075   4.718  14.756  0.0147  0.4841 -0.3093
  412TMC3    C2 6146   0.053   4.583  14.755 -0.2154  0.1292 -0.1136
  412TMC3    C3 6147   0.025   4.516  14.637 -0.3929  0.8956  0.8430
  412TMC3    C4 6148   0.058   0.067  14.642  0.2829 -0.0256  0.4106
  412TMC3    C5 6149   0.040   0.000  14.522 -0.0552  0.8570  0.0984
  412TMC3    C6 6150   0.030   4.580  14.518  0.5944 -0.1104 -1.3378
  412TMC3     C 6151   0.046   0.064  14.882 -0.5379  0.1662 -0.5553
  412TMC3     O 6152   0.004   4.715  14.974 -0.9155 -0.2561  0.3072
  412TMC3     H 6153   0.042   4.525  14.846  0.5798 -0.8382 -0.6378
  412TMC3    H1 6154   0.040   0.174  14.644  1.9643  0.2884 -1.6314
  412TMC3    H2 6155   0.029   4.525  14.424 -0.8531  1.8808 -2.4807
  412TMC3    C7 6156   4.659   0.064  14.445 -0.4477  0.7130  0.3915
  412TMC3    C8 6157   4.626   4.441  14.640  0.5885  0.0220  0.1056
  412TMC3    O1 6158   4.662   0.188  14.440 -0.1277 -0.3679  0.1990
  412TMC3    O2 6159   4.595   4.378  14.538  0.1009  0.0409  0.4937
  413MPD2     C 6160   1.196   2.856  15.476 -0.2858  0.3888  0.0211
  413MPD2    C1 6161   1.151   2.739  15.423 -0.6146  1.1018  0.5671
  413MPD2    C2 6162   1.232   2.639  15.388  0.4053 -0.5552 -0.1851
  413MPD2    C3 6163   1.369   2.647  15.408 -0.3491 -0.6366  0.4664
  413MPD2    C4 6164   1.421   2.765  15.466 -0.2559  0.6796  0.1252
  413MPD2    C5 6165   1.333   2.867  15.501  0.0420  0.6317 -0.8457
  413MPD2     H 6166   1.193   2.549  15.342 -0.8364  0.6087 -1.4108
  413MPD2    H1 6167   1.526   2.780  15.486 -0.2658  2.1659 -0.9819
  413MPD2    H2 6168   1.133   2.941  15.498  1.0648  0.8001  2.2665
  413MPD2    H3 6169   1.374   2.959  15.541  0.2202 -0.7468  2.1516
  413MPD2     N 6170   1.448   2.548  15.356 -0.0583  0.3258  0.1656
  413MPD2    H5 6171   1.403   2.467  15.313  2.1510 -1.3696  1.0210
  413MPD2    N1 6172   1.008   2.730  15.423 -0.1426  0.8543  0.3189
  413MPD2    H7 6173   0.949   2.792  15.477 -0.7706  0.4184  0.1302
  414TMC3    C1 6174   1.636   2.416  15.313  0.5651 -0.0690  0.0263
  414TMC3    C2 6175   1.752   2.373  15.370  0.0691 -0.1569 -0.0741
  414TMC3    C3 6176   1.802   2.249  15.342  0.0861  0.1316  0.1428
  414TMC3    C4 6177   1.558   2.336  15.238 -0.5477  0.3512  0.0300
  414TMC3    C5 6178   1.605   2.212  15.208 -0.2934 -0.7100 -0.0579
  414TMC3    C6 6179   1.724   2.163  15.263 -0.2956  0.2652  0.9245
  414TMC3     C 6180   1.587   2.543  15.361  0.0516  0.7819  0.6924
  414TMC3     O 6181   1.661   2.623  15.414 -0.3878 -0.1189 -0.2083
  414TMC3     H 6182   1.820   2.449  15.406 -0.1157 -0.4819  0.9686
  414TMC3    H1 6183   1.477   2.370  15.174 -0.5036 -0.0692 -0.2553
  414TMC3    H2 6184   1.766   2.070  15.227 -1.6512 -0.6901  1.8467
  414TMC3    C7 6185   1.523   2.132  15.116 -0.3997 -0.1773  0.2868
  414TMC3    C8 6186   1.943   2.204  15.342 -0.4295 -0.2801 -0.1303
  414TMC3    O1 6187   1.406   2.112  15.142 -0.0631 -0.0657  0.7568
  414TMC3    O2 6188   1.980   2.107  15.282 -0.0815 -0.0957  0.0744
  415TMC3    C1 6189   1.875   0.147  10.200 -0.1238  0.5638 -0.2980
  415TMC3    C2 6190   1.857   0.261  10.131 -0.3163  0.3808 -0.6618
  415TMC3    C3 6191   1.757   0.256  10.037 -0.3116  0.6379 -0.2373
  415TMC3    C4 6192   1.797   0.041  10.195  0.0066 -0.7431  0.2686
  415TMC3    C5 6193   1.694   0.041  10.103  0.8316 -0.1490  0.0794
  415TMC3    C6 6194   1.686   0.141  10.013  0.3990  0.2342  1.0270
  415TMC3     C 6195   1.986   0.135  10.301 -0.1318  0.4461  0.3312
  415TMC3     O 6196   2.016   0.023  10.334  1.1700  0.1244  0.4122
  415TMC3     H 6197   1.921   0.347  10.147 -0.3312  0.1243  0.7640
  415TMC3    H1 6198   1.833   4.671  10.240 -2.7726 -2.3293 -0.7699
  415TMC3    H2 6199   1.594   0.145   9.956 -1.2306 -1.2866  3.5738
  415TMC3    C7 6200   1.625   4.632  10.083 -0.0163  0.5218 -0.3840
  415TMC3    C8 6201   1.746   0.358   9.931 -0.1346  0.1540 -0.3705
  415TMC3    O1 6202   1.584   4.608   9.971 -0.0301 -0.2587  0.0314
  415TMC3    O2 6203   1.650   0.354   9.857  0.2303 -0.2284 -0.5452
  416MPD2     C 6204   3.628   4.179  12.188 -0.0590  0.6494 -0.0005
  416MPD2    C1 6205   3.537   4.162  12.094  0.5038 -0.5574 -0.9537
  416MPD2    C2 6206   3.549   4.070  11.991 -0.3518 -0.5179  0.1188
  416MPD2    C3 6207   3.669   3.990  11.990 -0.1825  0.5717  0.0905
  416MPD2    C4 6208   3.769   4.015  12.082  0.6275  0.1790  0.3440
  416MPD2    C5 6209   3.738   4.098  12.188  0.3888 -0.0383 -0.5782
  416MPD2     H 6210   3.468   4.040  11.926 -0.4463 -0.5087  0.2314
  416MPD2    H1 6211   3.864   3.964  12.089  0.0359 -0.8358  0.9366
  416MPD2    H2 6212   3.613   4.252  12.267  1.8736  1.8875 -0.7731
  416MPD2    H3 6213   3.814   4.110  12.264 -0.7933  0.2999  0.5404
  416MPD2     N 6214   3.691   3.895  11.892  0.2306 -0.6135 -0.2257
  416MPD2    H5 6215   3.774   3.837  11.892  1.8589  1.7130 -0.1948
  416MPD2    N1 6216   3.428   4.249  12.091 -0.5386  0.5290  0.0530
  416MPD2    H7 6217   3.421   4.298  12.179  0.1528 -0.2014  0.5107
  417TMC3    C1 6218   3.259   4.386  11.988 -0.2964  0.3767 -0.1865
  417TMC3    C2 6219   3.269   4.470  12.095 -0.3210  0.6743  0.6540
  417TMC3    C3 6220   3.194   4.579  12.085 -0.3791 -0.6974  0.1271
  417TMC3    C4 6221   3.187   4.409  11.874 -0.0736  0.3100 -0.5090
  417TMC3    C5 6222   3.129   4.532  11.867 -1.0281 -0.0603 -0.1284
  417TMC3    C6 6223   3.134   4.623  11.972  0.6448 -0.0134  0.2842
  417TMC3     C 6224   3.348   4.270  11.979  0.1359  0.2792  1.0431
  417TMC3     O 6225   3.362   4.236  11.861  0.5568  0.5766  0.3785
  417TMC3     H 6226   3.321   4.436  12.184 -0.8084  0.6982  0.9481
  417TMC3    H1 6227   3.163   4.325  11.810  1.7194 -0.5321 -0.0826
  417TMC3    H2 6228   3.088   4.720  11.958  1.9384  0.6864  0.9098
  417TMC3    C7 6229   3.085   4.583  11.739  0.1804  0.5322  0.6080
  417TMC3    C8 6230   3.209   4.676  12.189  0.2566  0.0388  0.4380
  417TMC3    O1 6231   3.086   4.703  11.720  0.2940  0.0887  0.2178
  417TMC3    O2 6232   3.308   4.669  12.261 -0.1936 -0.2552  0.3540
  418TMC3    C1 6233   3.017   1.050   1.026  0.2365 -0.2735  0.2777
  418TMC3    C2 6234   2.906   1.099   0.964  0.3528  0.1578  0.0447
  418TMC3    C3 6235   2.786   1.042   1.000 -0.6922 -0.5038 -0.2966
  418TMC3    C4 6236   3.003   0.949   1.121  0.1505 -0.4878  0.3487
  418TMC3    C5 6237   2.879   0.917   1.174 -0.1860 -0.4131  1.1315
  418TMC3    C6 6238   2.771   0.957   1.108  0.2694  0.6490 -0.2535
  418TMC3     C 6239   3.134   1.040   0.937 -0.2504 -0.1431 -1.2564
  418TMC3     O 6240   3.183   1.149   0.910  0.3010 -1.1746  0.2590
  418TMC3     H 6241   2.914   1.178   0.889  3.2081 -0.8325 -0.6858
  418TMC3    H1 6242   3.098   0.903   1.143  1.6312  3.5389  2.4288
  418TMC3    H2 6243   2.673   0.935   1.147  1.0382  1.0287  1.9122
  418TMC3    C7 6244   2.864   0.798   1.252 -0.2477 -0.5097  0.5458
  418TMC3    C8 6245   2.684   1.048   0.898  0.3758 -0.3236 -0.2619
  418TMC3    O1 6246   2.751   0.767   1.282  0.3396  0.3705 -0.1867
  418TMC3    O2 6247   2.688   1.151   0.832 -0.0384  0.6776  0.6926
  419MPD2     C 6248   0.666   3.921  12.522  0.3390  0.2613  0.0688
  419MPD2    C1 6249   0.622   4.050  12.543 -0.8617 -0.3021  0.0814
  419MPD2    C2 6250   0.627   4.106  12.667 -1.0904 -0.2749 -0.2256
  419MPD2    C3 6251   0.686   4.033  12.766  0.1900 -0.5544  0.7684
  419MPD2    C4 6252   0.741   3.913  12.746 -0.0693  0.1388  1.1265
  419MPD2    C5 6253   0.732   3.853  12.627 -0.4287  0.1400  0.5390
  419MPD2     H 6254   0.604   4.210  12.687  2.6627  0.9206 -2.2465
  419MPD2    H1 6255   0.796   3.862  12.825 -0.7732  0.1459  1.6172
  419MPD2    H2 6256   0.665   3.864  12.429  3.2056 -0.9744  0.8091
  419MPD2    H3 6257   0.765   3.751  12.607 -0.7362  0.2987 -0.7584
  419MPD2     N 6258   0.696   4.103  12.891  0.3186 -0.5404  0.5466
  419MPD2    H5 6259   0.667   4.200  12.887 -1.4851 -1.1256 -0.7940
  419MPD2    N1 6260   0.585   4.142  12.431 -0.4242  0.4042  0.2604
  419MPD2    H7 6261   0.557   4.238  12.451  0.7052  0.4407  1.6886
  420TMC3    C1 6262   0.763   4.160  13.111 -0.4321  0.1258 -0.2103
  420TMC3    C2 6263   0.652   4.237  13.118 -0.4480 -0.3337  0.2035
  420TMC3    C3 6264   0.655   4.345  13.199 -0.1079  0.0076 -0.3459
  420TMC3    C4 6265   0.873   4.177  13.186 -0.1232 -0.0158 -0.0597
  420TMC3    C5 6266   0.866   4.286  13.272 -0.3311 -0.3322  0.0580
  420TMC3    C6 6267   0.760   4.373  13.282 -0.3590  0.8881 -0.3146
  420TMC3     C 6268   0.764   4.058  13.004 -0.3814 -0.0943  0.1621
  420TMC3     O 6269   0.837   3.962  13.017  0.7649  0.2197  0.2680
  420TMC3     H 6270   0.561   4.218  13.063 -1.3472  1.1335  1.2185
  420TMC3    H1 6271   0.945   4.097  13.172  0.7585  0.9293 -1.0053
  420TMC3    H2 6272   0.758   4.450  13.358  3.7457 -0.3016  1.0396
  420TMC3    C7 6273   0.968   4.314  13.371 -0.2320  0.7485 -0.0669
  420TMC3    C8 6274   0.522   4.408  13.230 -0.3135  0.4565 -0.1571
  420TMC3    O1 6275   0.951   4.403  13.454 -0.0417  0.2053 -0.1398
  420TMC3    O2 6276   0.527   4.526  13.260 -0.3389 -0.4811 -0.3276
  421TMC3    C1 6277   2.371   1.033  13.558  0.2543  0.5504  0.1011
  421TMC3    C2 6278   2.352   1.160  13.617  0.3502  0.0769 -0.2438
  421TMC3    C3 6279   2.448   1.202  13.701 -0.3111  0.4786  0.0387
  421TMC3    C4 6280   2.486   0.956  13.581  0.4200 -0.3382  0.2232
  421TMC3    C5 6281   2.587   1.012  13.657 -0.2563  0.0554 -0.1160
  421TMC3    C6 6282   2.567   1.133  13.723 -1.1443 -1.2153  0.1667
  421TMC3     C 6283   2.279   1.001  13.453 -0.8995 -0.1595 -0.1456
  421TMC3     O 6284   2.173   1.060  13.462  0.5072  0.1605 -0.0340
  421TMC3     H 6285   2.267   1.224  13.596 -0.0988 -0.0035  1.2568
  421TMC3    H1 6286   2.505   0.864  13.527 -0.3781  0.4489 -1.3859
  421TMC3    H2 6287   2.651   1.161  13.786 -2.1245  0.4040  0.7382
  421TMC3    C7 6288   2.729   0.962  13.646  0.0216  0.0831 -0.1365
  421TMC3    C8 6289   2.438   1.317  13.786 -0.8607 -0.5821  0.3250
  421TMC3    O1 6290   2.819   1.029  13.700 -0.4380 -0.2376  0.2242
  421TMC3    O2 6291   2.542   1.354  13.839 -0.3429 -0.0767  0.2514
  422TMC3    C1 6292   4.690   2.402  12.657  0.1587 -0.5697 -0.3876
  422TMC3    C2 6293   4.633   2.522  12.679 -0.0044  0.8889 -0.0444
  422TMC3    C3 6294   4.501   2.518  12.719 -0.0389  0.1831  0.0782
  422TMC3    C4 6295   4.613   2.286  12.642 -0.6355 -0.2820  0.0359
  422TMC3    C5 6296   4.483   2.288  12.684  0.2162  0.4346  0.2109
  422TMC3    C6 6297   4.422   2.403  12.728  0.3733 -1.0221 -0.7055
  422TMC3     C 6298   0.092   2.410  12.579 -0.5383 -0.0992 -0.1588
  422TMC3     O 6299   0.112   2.515  12.519  0.4551  0.0537  0.4785
  422TMC3     H 6300   4.696   2.610  12.685 -0.4721  1.1931  0.4299
  422TMC3    H1 6301   4.662   2.195  12.611 -0.0565 -0.5598  1.8048
  422TMC3    H2 6302   4.331   2.414  12.787  1.5168  0.5054  0.7772
  422TMC3    C7 6303   4.411   2.161  12.697 -0.9250  0.3948 -0.1471
  422TMC3    C8 6304   4.441   2.653  12.732  0.1048  0.0713  0.3151
  422TMC3    O1 6305   4.483   2.062  12.704  0.0620 -0.5042 -0.9664
  422TMC3    O2 6306   4.520   2.748  12.735 -0.3686 -0.2430 -0.7166
  423MPD2     C 6307   2.114   3.606   0.855  0.3587 -0.4004 -0.3205
  423MPD2    C1 6308   1.999   3.535   0.867  0.3537 -0.2996  0.5623
  423MPD2    C2 6309   1.952   3.460   0.762 -1.0608 -0.2420  0.4013
  423MPD2    C3 6310   2.019   3.449   0.641 -0.2395  0.4756  0.0950
  423MPD2    C4 6311   2.137   3.521   0.628 -0.0897 -0.0989  0.1007
  423MPD2    C5 6312   2.179   3.595   0.733  0.5579  0.3512 -0.4724
  423MPD2     H 6313   1.857   3.411   0.779 -2.1211  1.7682  0.2130
  423MPD2    H1 6314   2.189   3.520   0.533 -0.1512 -0.2485  0.0691
  423MPD2    H2 6315   2.171   3.655   0.933  1.5420 -2.6182  0.2176
  423MPD2    H3 6316   2.276   3.643   0.722  0.5437  1.0919  2.6586
  423MPD2     N 6317   1.978   3.376   0.524 -0.3531  0.2798  0.2805
  423MPD2    H5 6318   2.025   3.394   0.436 -0.0146 -1.3810  0.1141
  423MPD2    N1 6319   1.935   3.512   0.997 -0.6688  0.3221 -0.3642
  423MPD2    H7 6320   1.845   3.465   0.990 -1.1026  1.1720 -0.4889
  424TMC3    C1 6321   1.873   3.539   1.216  0.0993 -0.1189 -0.1824
  424TMC3    C2 6322   1.916   3.488   1.332 -0.5686 -1.0148  0.0445
  424TMC3    C3 6323   1.820   3.442   1.410  0.1937  0.1785 -0.2554
  424TMC3    C4 6324   1.743   3.533   1.168  0.3427 -0.3927  0.1819
  424TMC3    C5 6325   1.651   3.490   1.258 -0.4670  0.4534 -0.0980
  424TMC3    C6 6326   1.684   3.438   1.380  0.3476  0.1141 -0.6521
  424TMC3     C 6327   1.981   3.546   1.123  0.0135 -0.1548  0.0840
  424TMC3     O 6328   2.090   3.578   1.168  0.0135  0.1216  0.3289
  424TMC3     H 6329   2.022   3.483   1.350 -0.3479  2.4749 -0.3101
  424TMC3    H1 6330   1.713   3.582   1.076  1.8761 -2.2927 -1.3384
  424TMC3    H2 6331   1.605   3.408   1.448 -0.4786  1.5194 -0.9729
  424TMC3    C7 6332   1.511   3.520   1.222 -0.6057 -0.4509 -0.7114
  424TMC3    C8 6333   1.863   3.345   1.506  0.5549  0.0586  0.2504
  424TMC3    O1 6334   1.498   3.522   1.104  0.1588 -0.4563 -0.3412
  424TMC3    O2 6335   1.786   3.258   1.543  0.1722 -0.2035 -0.9111
  425MPD2     C 6336   0.884   2.492   0.130 -0.4970 -0.6026 -0.4964
  425MPD2    C1 6337   0.869   2.396   0.034  0.1493 -0.8303  0.0878
  425MPD2    C2 6338   0.784   2.421  17.614 -0.0002  0.1237  0.0784
  425MPD2    C3 6339   0.734   2.547  17.587 -0.2764  0.3085 -0.5492
  425MPD2    C4 6340   0.777   2.644  17.674 -0.7427  0.1290 -0.7039
  425MPD2    C5 6341   0.829   2.613   0.104 -0.4799 -0.2672  0.8933
  425MPD2     H 6342   0.769   2.343  17.540 -1.4024  2.2714 -1.8773
  425MPD2    H1 6343   0.757   2.748  17.651  2.5091  0.4459 -2.0748
  425MPD2    H2 6344   0.943   2.472   0.220  1.0752  2.6007 -0.8010
  425MPD2    H3 6345   0.835   2.693   0.177 -1.5509  0.4169  0.2343
  425MPD2     N 6346   0.654   2.566  17.471  0.2272 -0.3695 -0.4345
  425MPD2    H5 6347   0.640   2.482  17.416  0.5179 -0.4608 -0.3709
  425MPD2    N1 6348   0.939   2.279   0.048 -0.0425 -0.1550 -0.2939
  425MPD2    H7 6349   1.008   2.274   0.124 -1.8869 -0.7474  1.3441
  426TMC3    C1 6350   1.028   2.079   0.018 -0.3036  0.4462  0.0426
  426TMC3    C2 6351   1.058   1.996  17.600  1.0179 -0.5044 -0.1971
  426TMC3    C3 6352   1.033   1.858  17.613  0.5209 -0.3315  0.3640
  426TMC3    C4 6353   0.970   2.028   0.128 -0.6238 -0.3320 -0.1257
  426TMC3    C5 6354   0.956   1.892   0.136  0.0335 -0.1677 -0.2413
  426TMC3    C6 6355   0.977   1.808   0.031 -0.0476 -0.3126  0.6185
  426TMC3     C 6356   0.942   2.179  17.649  0.2386  0.4034 -0.5392
  426TMC3     O 6357   0.910   2.164  17.532  0.1555  0.6848  0.6317
  426TMC3     H 6358   1.098   2.035  17.507 -0.7894  2.8329  0.4210
  426TMC3    H1 6359   0.954   2.092   0.214  2.1452 -0.4102  0.4684
  426TMC3    H2 6360   0.935   1.708   0.026 -0.0158 -0.3500  1.1063
  426TMC3    C7 6361   0.925   1.842   0.269  0.3063  0.5050  0.7419
  426TMC3    C8 6362   0.995   1.793  17.494  0.6772 -0.6632  0.2792
  426TMC3    O1 6363   0.958   1.727   0.271 -0.5617 -0.1514 -0.1824
  426TMC3    O2 6364   1.016   1.672  17.486 -0.2488  0.2528 -0.2376
  427MPD2     C 6365   3.678   4.441  14.956  0.3640  0.0915 -0.0734
  427MPD2    C1 6366   3.731   4.526  15.053 -0.4090  0.0794  0.3491
  427MPD2    C2 6367   3.652   4.642  15.078  0.2107 -0.4008 -0.6063
  427MPD2    C3 6368   3.552   4.684  14.985  0.2418  0.8913 -0.4954
  427MPD2    C4 6369   3.517   4.607  14.877 -0.0035  0.4897  0.0940
  427MPD2    C5 6370   3.579   4.483  14.873 -0.5145 -0.2704  0.2091
  427MPD2     H 6371   3.675   4.706  15.162  1.5302 -0.1319 -1.1691
  427MPD2    H1 6372   3.430   4.608  14.813 -0.5218  2.6539  0.8381
  427MPD2    H2 6373   3.713   4.339  14.950  1.1476  0.3930 -0.7827
  427MPD2    H3 6374   3.551   4.398  14.812  1.2250  1.0156 -2.3754
  427MPD2     N 6375   3.489   0.087  14.990  1.1164  0.1143  0.1076
  427MPD2    H5 6376   3.404   0.103  14.937  2.2963 -0.1423 -1.8871
  427MPD2    N1 6377   3.833   4.486  15.146  0.7592 -0.1230 -0.3156
  427MPD2    H7 6378   3.848   4.557  15.217  0.1556 -0.0639 -0.2413
  428TMC3    C1 6379   3.998   4.351  15.254 -0.6318  0.4964 -0.6076
  428TMC3    C2 6380   4.026   4.224  15.288 -0.0061  0.3561 -0.3047
  428TMC3    C3 6381   4.133   4.207  15.363  0.3834  0.0233  0.4512
  428TMC3    C4 6382   4.078   4.452  15.290  0.9781  0.6431 -0.2041
  428TMC3    C5 6383   4.188   4.428  15.362 -0.0674  0.5698 -0.6065
  428TMC3    C6 6384   4.225   4.299  15.385 -0.2149  0.3437 -0.3003
  428TMC3     C 6385   3.902   4.368  15.145 -0.4835 -0.1085 -0.9709
  428TMC3     O 6386   3.884   4.267  15.077  0.3528  0.2038 -0.0796
  428TMC3     H 6387   3.958   4.145  15.257  1.3158 -0.0859 -2.1159
  428TMC3    H1 6388   4.056   4.556  15.267 -1.8298  0.6117  2.3134
  428TMC3    H2 6389   4.313   4.263  15.439  0.6350  1.6452 -0.8128
  428TMC3    C7 6390   4.272   4.534  15.420 -0.4606 -0.1781  0.3832
  428TMC3    C8 6391   4.150   4.072  15.427 -0.7766  0.8527  0.8450
  428TMC3    O1 6392   4.312   4.508  15.529 -0.3641 -0.4349  0.1117
  428TMC3    O2 6393   4.257   4.034  15.469  0.1082  0.1652  0.4968
  429MPD2     C 6394   0.342   0.191   0.043  0.7496  0.2769 -0.2774
  429MPD2    C1 6395   0.468   0.205   0.088  0.5580 -0.1667 -0.3956
  429MPD2    C2 6396   0.543   0.314   0.050  0.5553 -0.5347  0.0112
  429MPD2    C3 6397   0.486   0.409  17.648 -0.0536  0.4729 -0.2013
  429MPD2    C4 6398   0.348   0.399  17.610  0.1848 -0.2207  0.4172
  429MPD2    C5 6399   0.283   0.291  17.656  0.5429 -0.1848  0.1814
  429MPD2     H 6400   0.643   0.316   0.090  0.8564  0.8889 -0.8007
  429MPD2    H1 6401   0.300   0.466  17.540 -1.2652  0.6135  2.2319
  429MPD2    H2 6402   0.282   0.112   0.086  1.0915 -0.5640 -1.3405
  429MPD2    H3 6403   0.175   0.293  17.639  0.6796  0.4886 -0.6415
  429MPD2     N 6404   0.562   0.520  17.608 -0.1376  0.0527  0.8861
  429MPD2    H5 6405   0.660   0.523  17.633  0.1029  0.8609 -0.1560
  429MPD2    N1 6406   0.532   0.116   0.168 -0.0354  0.2146  0.3962
  429MPD2    H7 6407   0.629   0.130   0.194 -0.6879  0.9142  2.4916
  430TMC3    C1 6408   0.613   0.717  17.489 -1.0304  0.1909 -0.3572
  430TMC3    C2 6409   0.573   0.788  17.379 -0.0661 -0.4436 -0.4236
  430TMC3    C3 6410   0.671   0.814  17.286 -0.1585 -0.3090 -0.2556
  430TMC3    C4 6411   0.751   0.696  17.513  0.2480  0.0058  0.7014
  430TMC3    C5 6412   0.837   0.716  17.410  0.8730 -0.2396  0.1758
  430TMC3    C6 6413   0.804   0.781  17.299  0.3107  0.0554  0.5996
  430TMC3     C 6414   0.511   0.630  17.546 -0.5750 -0.2821  0.9511
  430TMC3     O 6415   0.401   0.666  17.508 -0.3041  0.1599 -0.0665
  430TMC3     H 6416   0.469   0.807  17.353 -0.7468 -2.4223  0.8568
  430TMC3    H1 6417   0.786   0.650  17.604  1.5820  0.0991  0.2301
  430TMC3    H2 6418   0.874   0.809  17.220 -0.6242  1.8534  0.4043
  430TMC3    C7 6419   0.947   0.628  17.397  1.0586 -0.2636 -0.1383
  430TMC3    C8 6420   0.635   0.841  17.151  0.0340  0.0986 -0.1042
  430TMC3    O1 6421   0.990   0.601  17.284 -0.2264 -0.0412  0.0702
  430TMC3    O2 6422   0.693   0.779  17.065  0.3932  0.2261 -0.1654
  431MPD2     C 6423   0.582   0.307  12.495  1.0830 -1.0845 -0.0593
  431MPD2    C1 6424   0.710   0.254  12.473  0.2009 -0.6038  0.1115
  431MPD2    C2 6425   0.727   0.128  12.421  0.3394  0.2692 -0.5967
  431MPD2    C3 6426   0.613   0.052  12.374  0.2163  0.4363  0.0778
  431MPD2    C4 6427   0.488   0.102  12.413  0.3080  0.6764  0.1790
  431MPD2    C5 6428   0.479   0.230  12.462  0.0159  0.1129  0.3423
  431MPD2     H 6429   0.829   0.093  12.426  0.3544 -0.0305 -2.6630
  431MPD2    H1 6430   0.401   0.043  12.389 -1.2455  2.4296  1.5351
  431MPD2    H2 6431   0.559   0.397  12.550 -0.4753 -2.0229  0.8243
  431MPD2    H3 6432   0.379   0.265  12.484 -0.4083 -1.2547  0.5912
  431MPD2     N 6433   0.625   4.645  12.317 -0.0652 -0.0922 -0.0065
  431MPD2    H5 6434   0.544   4.585  12.304 -0.8455  1.0073 -0.2036
  431MPD2    N1 6435   0.827   0.329  12.505 -0.0121 -0.2058 -0.1777
  431MPD2    H7 6436   0.914   0.279  12.488  1.3082  2.3395 -0.8735
  432TMC3    C1 6437   0.733   4.449  12.220  0.3773  0.1893 -0.6317
  432TMC3    C2 6438   0.831   4.423  12.134  0.8362  0.3275  0.4758
  432TMC3    C3 6439   0.827   4.295  12.092 -0.1191  0.0877  0.0058
  432TMC3    C4 6440   0.648   4.357  12.279  0.5390 -0.5491  0.0246
  432TMC3    C5 6441   0.642   4.230  12.227 -0.7259  0.1402 -0.0732
  432TMC3    C6 6442   0.734   4.201  12.129 -0.7316 -0.1070  0.0090
  432TMC3     C 6443   0.747   4.594  12.270 -0.9290  0.0111  0.0835
  432TMC3     O 6444   0.853   4.645  12.255  0.1224  0.0741  0.5196
  432TMC3     H 6445   0.891   4.505  12.095 -2.6077  1.3235 -2.8053
  432TMC3    H1 6446   0.575   4.387  12.353 -1.7425  1.1855 -2.9340
  432TMC3    H2 6447   0.750   4.096  12.104  2.1693  0.0177  1.3800
  432TMC3    C7 6448   0.597   4.110  12.295 -0.7299 -0.3032  0.3425
  432TMC3    C8 6449   0.941   4.245  12.030  0.1049  0.4060  0.7515
  432TMC3    O1 6450   0.615   4.003  12.241 -0.0368  0.0926 -0.0337
  432TMC3    O2 6451   0.929   4.146  11.959 -0.0578  1.0612  0.2425
  433MPD2     C 6452   4.216   3.730  10.883  0.5656 -0.0192 -0.7830
  433MPD2    C1 6453   4.226   3.621  10.968 -0.6687 -0.7054  0.6963
  433MPD2    C2 6454   4.274   3.641  11.095 -0.6215  0.1841 -0.4093
  433MPD2    C3 6455   4.312   3.766  11.135  0.1251 -0.8005  0.1982
  433MPD2    C4 6456   4.296   3.875  11.049 -0.0420  0.1478  0.1942
  433MPD2    C5 6457   4.246   3.853  10.920  0.5371 -1.0344  0.0236
  433MPD2     H 6458   4.272   3.569  11.176  3.0676  1.3905  0.7770
  433MPD2    H1 6459   4.335   3.973  11.073 -0.0944  0.3343 -0.5054
  433MPD2    H2 6460   4.184   3.712  10.781 -0.4484 -2.3318 -0.0689
  433MPD2    H3 6461   4.232   3.931  10.845  1.4430 -0.1788  0.7582
  433MPD2     N 6462   4.370   3.784  11.261  0.0983 -0.1518  0.0109
  433MPD2    H5 6463   4.398   3.693  11.297 -0.0478 -0.1833  0.0461
  433MPD2    N1 6464   4.181   3.502  10.916  0.8975 -0.3873 -0.2383
  433MPD2    H7 6465   4.145   3.495  10.821  1.9798  2.6802 -0.8822
  434TMC3    C1 6466   4.172   3.264  10.894  0.2097 -0.6114  0.1476
  434TMC3    C2 6467   4.198   3.142  10.961 -0.5926 -0.4144  0.3156
  434TMC3    C3 6468   4.262   3.047  10.892 -0.2041 -0.1330  0.1635
  434TMC3    C4 6469   4.200   3.277  10.759 -0.0897  0.3835 -0.6183
  434TMC3    C5 6470   4.266   3.175  10.695  0.2871 -0.3890  0.0269
  434TMC3    C6 6471   4.293   3.054  10.760 -0.4558 -0.1988 -0.3382
  434TMC3     C 6472   4.188   3.379  10.982 -0.3297  0.3497  0.1889
  434TMC3     O 6473   4.220   3.350  11.097  0.4509  0.7568  0.1372
  434TMC3     H 6474   4.171   3.126  11.064 -0.9134 -1.5151  0.0538
  434TMC3    H1 6475   4.173   3.359  10.695 -0.6680 -0.7893 -1.8824
  434TMC3    H2 6476   4.377   3.000  10.720 -0.6675 -0.3532 -0.5710
  434TMC3    C7 6477   4.256   3.170  10.547  0.3177 -0.6197  0.4370
  434TMC3    C8 6478   4.351   2.983  10.982  0.6154  0.0332  0.1122
  434TMC3    O1 6479   4.187   3.256  10.492  0.4994 -0.5099 -0.8355
  434TMC3    O2 6480   4.387   3.053  11.075 -0.7280  0.1528  0.2832
  435MPD2     C 6481   1.360   3.229  15.838 -0.5930 -0.2973 -0.4606
  435MPD2    C1 6482   1.419   3.317  15.936  0.2490  0.0518 -0.0498
  435MPD2    C2 6483   1.555   3.319  15.942 -0.4319 -0.8054 -0.2789
  435MPD2    C3 6484   1.632   3.230  15.869 -0.3855 -0.2655  0.6598
  435MPD2    C4 6485   1.581   3.140  15.776 -0.0205 -0.2063 -0.0117
  435MPD2    C5 6486   1.436   3.142  15.765  0.7279 -0.0198  0.7416
  435MPD2     H 6487   1.595   3.395  16.009 -0.2167  0.1131 -1.4328
  435MPD2    H1 6488   1.628   3.061  15.720  0.6195  0.1076  0.0882
  435MPD2    H2 6489   1.253   3.216  15.838 -0.1792 -3.7495 -1.2543
  435MPD2    H3 6490   1.381   3.065  15.712 -0.6638  0.4453  1.5331
  435MPD2     N 6491   1.776   3.236  15.884  0.6337  0.0474 -0.3417
  435MPD2    H5 6492   1.803   3.318  15.937 -1.6286  0.4954  0.1500
  435MPD2    N1 6493   1.344   3.403  16.022  0.6061 -0.3734 -0.2779
  435MPD2    H7 6494   1.403   3.464  16.078 -2.0408  0.1438  1.9647
  436TMC3    C1 6495   1.176   3.648  16.335 -0.1709 -0.6745  0.4882
  436TMC3    C2 6496   1.242   3.565  16.238 -0.2056  0.4048 -0.9213
  436TMC3    C3 6497   1.167   3.530  16.130 -0.0731 -0.6605  0.3106
  436TMC3    C4 6498   1.058   3.716  16.305 -0.0524 -0.5546  0.1674
  436TMC3    C5 6499   0.986   3.665  16.199 -0.3960  0.3706 -0.1273
  436TMC3    C6 6500   1.035   3.570  16.117 -0.0627  0.0995 -0.6060
  436TMC3     C 6501   1.265   3.690  16.439  0.2579 -0.3622  0.2923
  436TMC3     O 6502   1.367   3.627  16.462  0.4730 -0.1599  0.0575
  436TMC3     H 6503   1.338   3.515  16.251  0.3631  1.9416  0.7699
  436TMC3    H1 6504   1.014   3.791  16.369 -1.5759 -1.2137 -0.1051
  436TMC3    H2 6505   0.991   3.541  16.022 -0.7547 -0.3448 -0.1472
  436TMC3    C7 6506   0.885   3.762  16.147 -0.3320 -0.0481  0.7024
  436TMC3    C8 6507   1.206   3.417  16.045  0.1148 -0.1090  0.3612
  436TMC3    O1 6508   0.846   3.841  16.230  0.2438  0.0135  0.1323
  436TMC3    O2 6509   1.119   3.345  16.004 -0.0217  0.1137  0.1822
  437TMC3    C1 6510   0.318   1.092  12.817 -0.6762  0.8901  0.3036
  437TMC3    C2 6511   0.252   1.211  12.790  0.5131  0.1198 -0.6655
  437TMC3    C3 6512   0.312   1.301  12.704 -0.2634  0.4023  0.0883
  437TMC3    C4 6513   0.437   1.059  12.756 -0.2388 -0.2941 -0.1243
  437TMC3    C5 6514   0.478   1.147  12.660 -0.2918  0.9311  0.5701
  437TMC3    C6 6515   0.413   1.262  12.620  0.1487 -0.1398 -0.1575
  437TMC3     C 6516   0.276   1.024  12.935  0.4535 -0.0816 -0.1885
  437TMC3     O 6517   0.217   1.092  13.016 -0.4327  0.0786  0.3147
  437TMC3     H 6518   0.185   1.253  12.863  1.9154  0.4112  0.4669
  437TMC3    H1 6519   0.490   0.965  12.768  0.4555  0.4233  2.3243
  437TMC3    H2 6520   0.467   1.330  12.556 -0.7076  0.5556 -0.1443
  437TMC3    C7 6521   0.594   1.105  12.576 -0.1568 -0.8401 -0.7560
  437TMC3    C8 6522   0.269   1.440  12.727  0.4112  0.2377  0.3661
  437TMC3    O1 6523   0.606   1.163  12.468 -0.5288 -0.6965  0.2993
  437TMC3    O2 6524   0.192   1.467  12.815 -0.1773 -0.1908  0.3464
  438MPD2     C 6525   2.988   0.897  17.278 -0.2975 -0.3509 -0.5499
  438MPD2    C1 6526   3.116   0.837  17.282  0.1217 -0.7076  0.1390
  438MPD2    C2 6527   3.150   0.745  17.377  0.1971  0.0167 -0.0459
  438MPD2    C3 6528   3.064   0.714  17.479  0.2949 -0.6565  0.6103
  438MPD2    C4 6529   2.943   0.781  17.484 -0.3807 -0.1800 -0.6121
  438MPD2    C5 6530   2.905   0.868  17.382 -0.3142 -0.2633  0.0593
  438MPD2     H 6531   3.248   0.698  17.373  0.5454  0.7257  0.2038
  438MPD2    H1 6532   2.883   0.772  17.574  2.1847 -1.8940  0.9081
  438MPD2    H2 6533   2.951   0.959  17.198 -0.4759 -0.0188 -0.2122
  438MPD2    H3 6534   2.807   0.915  17.384 -0.0549  0.1428  3.3434
  438MPD2     N 6535   3.093   0.630  17.583 -0.5573 -0.2792  0.1930
  438MPD2    H5 6536   3.020   0.618  17.651  0.8211  0.8288  1.8627
  438MPD2    N1 6537   3.211   0.874  17.189 -0.0640 -0.2324 -0.9711
  438MPD2    H7 6538   3.297   0.820  17.185 -0.1213 -0.4680  0.7565
  439TMC3    C1 6539   3.336   0.998  17.039 -0.0511  0.4478 -0.3019
  439TMC3    C2 6540   3.335   0.951  16.907  0.1919  0.8690  0.1547
  439TMC3    C3 6541   3.460   0.930  16.855  0.3284  0.0215 -0.0716
  439TMC3    C4 6542   3.442   1.001  17.117  0.1387 -0.3660  0.3376
  439TMC3    C5 6543   3.562   0.973  17.064 -1.0351  0.1000 -0.2101
  439TMC3    C6 6544   3.573   0.934  16.932 -0.1349  0.1535  0.2892
  439TMC3     C 6545   3.209   0.983  17.106  0.4763  0.4520  0.0596
  439TMC3     O 6546   3.120   1.057  17.065 -0.3037  0.4030 -0.4911
  439TMC3     H 6547   3.242   0.938  16.854 -0.0385  3.8292 -0.1513
  439TMC3    H1 6548   3.430   1.034  17.220  0.9756  1.7054 -0.2306
  439TMC3    H2 6549   3.671   0.922  16.886 -0.7067 -0.1205 -0.8608
  439TMC3    C7 6550   3.686   1.017  17.125  0.4550 -0.3394  0.3320
  439TMC3    C8 6551   3.483   0.906  16.711 -0.1719 -0.0086 -1.1178
  439TMC3    O1 6552   3.785   0.956  17.093 -0.1308  0.4949  0.5588
  439TMC3    O2 6553   3.591   0.868  16.677 -0.4473  0.6987  0.3865
  440MPD2     C 6554   1.848   1.683  14.963  0.5414 -0.6704 -0.4502
  440MPD2    C1 6555   1.904   1.752  15.069 -0.3324 -0.1943 -0.4588
  440MPD2    C2 6556   2.043   1.772  15.069  0.4410 -0.2020  0.5378
  440MPD2    C3 6557   2.123   1.712  14.969  0.0296  0.3466 -0.4521
  440MPD2    C4 6558   2.067   1.637  14.865 -0.3562 -0.4017  0.7280
  440MPD2    C5 6559   1.929   1.624  14.865 -0.3280  0.3257  0.4854
  440MPD2     H 6560   2.085   1.834  15.147  0.7498 -0.2003  0.3714
  440MPD2    H1 6561   2.121   1.580  14.789 -0.3559  1.5740 -0.7494
  440MPD2    H2 6562   1.741   1.667  14.950  0.1836  0.5441  1.1290
  440MPD2    H3 6563   1.888   1.556  14.790  1.7400 -1.5207  1.0181
  440MPD2     N 6564   2.264   1.717  14.982 -0.0438  0.1254 -0.4060
  440MPD2    H5 6565   2.310   1.639  14.935  1.1166  0.4963  0.1234
  440MPD2    N1 6566   1.830   1.799  15.180 -0.1943  0.1639 -0.0282
  440MPD2    H7 6567   1.885   1.849  15.249 -2.3806  1.6438  0.6259
  441TMC3    C1 6568   2.476   1.791  15.075  0.0423  0.5195  0.3674
  441TMC3    C2 6569   2.545   1.905  15.097  0.6407 -0.7190 -0.3689
  441TMC3    C3 6570   2.611   1.917  15.216  0.0548 -0.9343  0.5941
  441TMC3    C4 6571   2.505   1.681  15.148  0.0146 -0.1374  0.1092
  441TMC3    C5 6572   2.594   1.688  15.246  0.1185 -0.5493  0.1893
  441TMC3    C6 6573   2.643   1.806  15.288  0.4229  0.3409 -0.5720
  441TMC3     C 6574   2.336   1.813  15.046  0.5046 -0.0050  0.2475
  441TMC3     O 6575   2.297   1.926  15.086  0.0124  0.2815  0.2325
  441TMC3     H 6576   2.514   1.992  15.040 -0.7390  0.0184  1.5289
  441TMC3    H1 6577   2.446   1.591  15.137 -0.6292  0.2591  0.3570
  441TMC3    H2 6578   2.717   1.800  15.367  1.3536  2.9724 -1.2230
  441TMC3    C7 6579   2.605   1.587  15.351 -0.1368  0.5807  0.8097
  441TMC3    C8 6580   2.586   2.040  15.287  0.3552 -0.0588  0.0817
  441TMC3    O1 6581   2.722   1.567  15.386  0.1887 -0.8017  0.3485
  441TMC3    O2 6582   2.681   2.086  15.351 -0.8067 -0.3365  0.3547
  442MPD2     C 6583   0.373   2.331  16.275 -0.8292 -0.2595  0.5918
  442MPD2    C1 6584   0.247   2.281  16.304 -0.3332 -0.2993  0.0201
  442MPD2    C2 6585   0.231   2.147  16.324 -0.5004  0.6185  0.4161
  442MPD2    C3 6586   0.338   2.062  16.325  0.2141  0.7815 -0.1413
  442MPD2    C4 6587   0.465   2.109  16.285  0.8208  0.1882 -0.0744
  442MPD2    C5 6588   0.478   2.243  16.264  0.3211 -0.1381  0.6494
  442MPD2     H 6589   0.135   2.112  16.359  0.7690 -2.1994  1.0471
  442MPD2    H1 6590   0.555   2.049  16.287 -0.7326 -2.1717 -0.7656
  442MPD2    H2 6591   0.398   2.435  16.259 -1.1730 -0.4260 -1.1083
  442MPD2    H3 6592   0.577   2.285  16.248  1.1231 -2.3671 -0.1634
  442MPD2     N 6593   0.344   1.930  16.367 -0.6224  0.0392  0.3754
  442MPD2    H5 6594   0.428   1.873  16.365 -0.3663  0.3503  2.1200
  442MPD2    N1 6595   0.130   2.358  16.310  0.0517  0.8098  0.5717
  442MPD2    H7 6596   0.043   2.312  16.333  1.8705 -3.2383 -0.6771
  443TMC3    C1 6597   4.715   2.537  16.378  0.0496 -0.5200 -0.4768
  443TMC3    C2 6598   4.611   2.480  16.308 -0.1944 -0.4266  0.5113
  443TMC3    C3 6599   4.491   2.511  16.354 -0.0289 -0.4763  0.1445
  443TMC3    C4 6600   4.697   2.605  16.494 -0.1365 -0.7520  0.3301
  443TMC3    C5 6601   4.570   2.644  16.534  0.2073  0.3991  0.1985
  443TMC3    C6 6602   4.462   2.589  16.463 -0.0047  0.9930  0.0720
  443TMC3     C 6603   0.130   2.494  16.347  1.1027 -0.0725  0.1388
  443TMC3     O 6604   0.220   2.573  16.363 -0.1604 -0.5060 -0.7152
  443TMC3     H 6605   4.629   2.414  16.224 -1.4165  0.7358 -0.6717
  443TMC3    H1 6606   0.069   2.642  16.536 -0.5433 -1.3332  1.7562
  443TMC3    H2 6607   4.359   2.616  16.486 -0.0019  1.2750 -0.2501
  443TMC3    C7 6608   4.536   2.648  16.673  0.6219  0.8846 -0.5191
  443TMC3    C8 6609   4.387   2.419  16.313  0.7339  0.1508  0.1546
  443TMC3    O1 6610   4.425   2.596  16.700  0.0906  0.0803  0.1673
  443TMC3    O2 6611   4.435   2.323  16.259 -0.0124  0.8385 -0.0127
  444MPD2     C 6612   0.930   1.196  17.163  0.7735 -0.0236  0.2743
  444MPD2    C1 6613   0.811   1.203  17.087 -0.0507  0.3534 -0.1028
  444MPD2    C2 6614   0.798   1.106  16.987  0.0304 -0.4930  0.1423
  444MPD2    C3 6615   0.895   1.009  16.962  0.0171 -0.0812  0.8112
  444MPD2    C4 6616   1.014   1.005  17.037  0.0630  0.0645  0.4766
  444MPD2    C5 6617   1.026   1.105  17.138 -1.4419 -0.2232 -0.5284
  444MPD2     H 6618   0.714   1.105  16.919 -1.4265  0.0032  1.9407
  444MPD2    H1 6619   1.094   0.932  17.033  0.7994  0.9533 -1.5095
  444MPD2    H2 6620   0.944   1.274  17.237 -0.1453  0.0440  0.3801
  444MPD2    H3 6621   1.110   1.109  17.207  0.1842 -0.4403 -2.4638
  444MPD2     N 6622   0.869   0.935  16.848  0.1317  0.0075  0.2550
  444MPD2    H5 6623   0.772   0.935  16.818 -0.6072  0.0234  2.7077
  444MPD2    N1 6624   0.719   1.309  17.094  0.1334 -0.0987 -0.1099
  444MPD2    H7 6625   0.656   1.306  17.015  0.9568  0.6129 -0.7991
  445TMC3    C1 6626   0.915   0.759  16.685  0.0354  0.1962  0.2925
  445TMC3    C2 6627   0.803   0.792  16.608  0.5455  0.5621 -0.1127
  445TMC3    C3 6628   0.788   0.740  16.480  0.4967 -0.0915 -0.0251
  445TMC3    C4 6629   1.010   0.671  16.642  0.4359 -0.1608 -1.1199
  445TMC3    C5 6630   0.997   0.622  16.513 -0.5227  0.5198  0.6528
  445TMC3    C6 6631   0.890   0.664  16.427 -0.3793 -0.1116 -0.2347
  445TMC3     C 6632   0.963   0.845  16.799 -0.6817 -0.1776 -0.0701
  445TMC3     O 6633   1.082   0.848  16.815 -0.0522 -0.2944 -0.2672
  445TMC3     H 6634   0.723   0.855  16.645  0.0398  0.6062 -1.2800
  445TMC3    H1 6635   1.096   0.650  16.704  1.5781  1.8984 -2.0298
  445TMC3    H2 6636   0.888   0.635  16.323  0.3787 -0.8181 -0.0597
  445TMC3    C7 6637   1.119   0.629  16.444  0.3000  0.1795 -0.4912
  445TMC3    C8 6638   0.673   0.789  16.407 -0.1188  0.1512  0.0008
  445TMC3    O1 6639   1.203   0.698  16.493  0.0424 -0.4347 -0.4880
  445TMC3    O2 6640   0.597   0.871  16.462 -0.2820 -0.6453  0.6150
  446MPD2     C 6641   4.420   2.805  11.554 -0.2717 -1.4992  0.1564
  446MPD2    C1 6642   4.342   2.839  11.446  0.0740  0.7732 -0.3983
  446MPD2    C2 6643   4.367   2.955  11.372  0.3982 -0.0020  0.0638
  446MPD2    C3 6644   4.466   3.045  11.410 -0.1154  0.3999  0.4551
  446MPD2    C4 6645   4.528   3.024  11.532  0.5000 -0.4284 -0.1571
  446MPD2    C5 6646   4.510   2.902  11.594  0.6312  0.0332 -0.0057
  446MPD2     H 6647   4.322   2.983  11.277  0.1429  1.4501  0.6208
  446MPD2    H1 6648   4.603   3.090  11.574  0.6228  0.1127 -1.2060
  446MPD2    H2 6649   4.388   2.725  11.619  1.3687 -0.9713  1.6164
  446MPD2    H3 6650   4.577   2.889  11.679  0.1813 -0.7340  0.2267
  446MPD2     N 6651   4.493   3.150  11.325 -0.5540 -0.0917  0.4468
  446MPD2    H5 6652   4.435   3.161  11.243  1.0293 -2.2280 -0.9727
  446MPD2    N1 6653   4.252   2.759  11.381  0.0783 -0.0937 -0.0248
  446MPD2    H7 6654   4.219   2.787  11.289  0.4203  2.1440  0.5469
  447TMC3    C1 6655   4.616   3.336  11.233 -0.6214  0.0341 -0.0992
  447TMC3    C2 6656   4.533   3.350  11.127 -1.2817 -0.0036  1.2526
  447TMC3    C3 6657   4.555   3.450  11.036  0.0980  0.4340 -0.1610
  447TMC3    C4 6658   4.720   3.430  11.256 -0.5082 -0.0109  0.2764
  447TMC3    C5 6659   0.017   3.533  11.170 -0.3546  0.9769 -0.1297
  447TMC3    C6 6660   4.660   3.537  11.058  0.1549  0.1539  0.5396
  447TMC3     C 6661   4.610   3.228  11.335 -0.4684  0.0663  0.2160
  447TMC3     O 6662   4.716   3.215  11.399  0.2005 -0.5610  0.4009
  447TMC3     H 6663   4.462   3.270  11.107 -0.5646 -0.1152 -0.8810
  447TMC3    H1 6664   0.041   3.425  11.355 -0.4727  0.7234  0.2972
  447TMC3    H2 6665   4.682   3.614  10.985 -1.4540  0.4946  0.4215
  447TMC3    C7 6666   0.154   3.586  11.167 -0.0544 -0.1199 -0.0620
  447TMC3    C8 6667   4.530   3.413  10.899 -0.1329 -0.1392 -0.5039
  447TMC3    O1 6668   0.188   3.643  11.063 -0.2548  0.1566  0.0776
  447TMC3    O2 6669   4.523   3.506  10.819 -0.6543  0.0947  0.9045
  448TMC3    C1 6670   2.979   2.758   0.216 -0.3705  0.0976  0.1271
  448TMC3    C2 6671   2.950   2.639   0.156 -0.5558  0.8362  0.9157
  448TMC3    C3 6672   2.997   2.522   0.207 -0.4622  0.9398  0.3767
  448TMC3    C4 6673   3.075   2.766   0.315  0.0597 -0.0772 -0.1405
  448TMC3    C5 6674   3.130   2.647   0.363  0.5340  0.9820 -0.2237
  448TMC3    C6 6675   3.094   2.526   0.300 -0.5500 -0.2735 -0.5629
  448TMC3     C 6676   2.907   2.879   0.173  0.2271  0.6381 -0.0538
  448TMC3     O 6677   2.946   2.985   0.223 -0.3389 -0.6011 -0.1034
  448TMC3     H 6678   2.874   2.635   0.078 -1.3175  0.9058  1.6498
  448TMC3    H1 6679   3.093   2.863   0.358  0.4077 -0.6178  0.9345
  448TMC3    H2 6680   3.119   2.433   0.349 -0.8525  0.5489  1.1504
  448TMC3    C7 6681   3.277   2.654   0.392 -0.1561  0.3868  0.6273
  448TMC3    C8 6682   3.000   2.412   0.120 -0.1719 -0.2081 -0.2967
  448TMC3    O1 6683   3.334   2.762   0.395  0.3192 -0.0303  0.2561
  448TMC3    O2 6684   3.036   2.310   0.168 -0.1944  0.1173 -0.3494
  449MPD2     C 6685   4.329   0.908  14.474  0.2417 -0.6866  0.1037
  449MPD2    C1 6686   4.351   0.995  14.365 -0.2170  0.4155  0.2339
  449MPD2    C2 6687   4.240   1.045  14.293 -0.1320 -0.3187 -1.0270
  449MPD2    C3 6688   4.111   1.014  14.320  0.4039  0.4081  0.2364
  449MPD2    C4 6689   4.095   0.938  14.436  0.2260 -0.3593 -0.4033
  449MPD2    C5 6690   4.199   0.898  14.514  0.3478  0.1235  0.1544
  449MPD2     H 6691   4.262   1.117  14.215 -0.7397  0.9706 -0.0210
  449MPD2    H1 6692   4.000   0.901  14.473  0.2685  0.5798  0.6501
  449MPD2    H2 6693   4.412   0.869  14.532 -0.7004 -3.5437 -0.4510
  449MPD2    H3 6694   4.172   0.830  14.595  1.8285 -0.2188  0.3472
  449MPD2     N 6695   4.013   1.058  14.232  0.2033 -0.1580  0.2482
  449MPD2    H5 6696   4.044   1.115  14.154 -0.2300  0.1725  0.3202
  449MPD2    N1 6697   4.474   1.044  14.333  0.1958 -0.1667  0.2815
  449MPD2    H7 6698   4.478   1.112  14.258 -0.8358 -1.2433 -0.7532
  450TMC3    C1 6699   4.704   1.066  14.286 -0.0295 -0.1701  0.1291
  450TMC3    C2 6700   0.040   0.977  14.199  0.3825 -0.3261 -0.0963
  450TMC3    C3 6701   0.051   1.011  14.065 -0.1404  0.3400  0.3762
  450TMC3    C4 6702   4.666   1.185  14.229  0.6073  0.0299 -0.6758
  450TMC3    C5 6703   4.668   1.220  14.097  0.2070  0.1528 -0.6646
  450TMC3    C6 6704   4.718   1.126  14.008  1.0519  0.6395 -0.1894
  450TMC3     C 6705   4.601   1.003  14.376 -0.2281  0.1362  0.4773
  450TMC3     O 6706   4.628   0.892  14.426 -0.3026 -0.1377  0.4600
  450TMC3     H 6707   0.054   0.874  14.229 -2.5452  0.1634  2.8512
  450TMC3    H1 6708   4.610   1.245  14.298  0.2911 -2.2779  1.0711
  450TMC3    H2 6709   4.719   1.133  13.900  0.2419  1.4758 -0.1357
  450TMC3    C7 6710   4.539   1.276  14.059 -0.2073  0.4914 -0.4355
  450TMC3    C8 6711   0.074   0.898  13.980  0.3270 -0.0070  0.0155
  450TMC3    O1 6712   4.448   1.245  14.138 -0.1918  0.0280 -0.1272
  450TMC3    O2 6713   0.010   0.797  14.008 -0.1501  0.0503  0.2565
  451MPD2     C 6714   1.823   0.673   1.170  0.2305  1.1266  0.0646
  451MPD2    C1 6715   1.814   0.670   1.306  0.4652  0.1435 -0.3457
  451MPD2    C2 6716   1.833   0.549   1.365 -0.7328  0.1467  0.2733
  451MPD2    C3 6717   1.866   0.438   1.298  0.8999  0.0976 -0.6400
  451MPD2    C4 6718   1.892   0.447   1.164  0.3972 -0.6192 -0.1126
  451MPD2    C5 6719   1.866   0.568   1.100  0.0830 -0.0561  0.4196
  451MPD2     H 6720   1.827   0.543   1.473  2.4627 -0.2888  0.4203
  451MPD2    H1 6721   1.929   0.365   1.102 -0.3066  0.3522 -1.8343
  451MPD2    H2 6722   1.817   0.765   1.114 -2.1772 -0.8225 -2.8468
  451MPD2    H3 6723   1.872   0.598   0.997 -0.6099 -1.3305  0.0080
  451MPD2     N 6724   1.895   0.308   1.354 -0.8276 -0.1361 -0.3373
  451MPD2    H5 6725   1.931   0.243   1.285 -0.9341 -1.5819  0.9601
  451MPD2    N1 6726   1.768   0.785   1.376 -0.0846  0.1537 -0.4416
  451MPD2    H7 6727   1.750   0.870   1.324  2.2637 -0.3929 -2.1846
  452TMC3    C1 6728   1.854   0.115   1.487  0.0850 -0.3603  0.6662
  452TMC3    C2 6729   1.856   0.067   1.612  0.5391 -1.0227 -0.6454
  452TMC3    C3 6730   1.845   4.653   1.627  0.2398 -0.3752  0.1186
  452TMC3    C4 6731   1.817   0.039   1.376 -0.2566 -0.7580 -0.0483
  452TMC3    C5 6732   1.779   4.626   1.408  0.8513 -0.2152  0.1147
  452TMC3    C6 6733   1.805   4.568   1.530  0.3910  0.4639 -0.1061
  452TMC3     C 6734   1.846   0.262   1.477 -0.4902 -0.0628 -0.2167
  452TMC3     O 6735   1.832   0.324   1.584 -0.0188 -0.2660  0.1285
  452TMC3     H 6736   1.883   0.130   1.696 -0.5763  0.6349 -1.5184
  452TMC3    H1 6737   1.795   0.091   1.284 -1.1541 -1.0804 -0.0048
  452TMC3    H2 6738   1.769   4.468   1.554  2.9683 -0.0642  1.5145
  452TMC3    C7 6739   1.732   4.549   1.298  0.9488  0.5768 -0.0311
  452TMC3    C8 6740   1.864   4.588   1.757 -0.2657 -0.1910  0.6516
  452TMC3    O1 6741   1.719   4.626   1.201 -0.1954  0.4624 -0.1816
  452TMC3    O2 6742   1.821   4.474   1.770  0.1279 -0.2624 -0.5002
  453TMC3    C1 6743   2.086   1.821  11.960  0.2492  0.8565  0.0005
  453TMC3    C2 6744   1.982   1.729  11.992 -0.1362  0.3978  0.0166
  453TMC3    C3 6745   1.864   1.748  11.922 -0.1163 -0.6374  0.1082
  453TMC3    C4 6746   2.079   1.917  11.857  0.3271  0.3823 -0.4525
  453TMC3    C5 6747   1.965   1.921  11.787 -0.2149 -0.2615  0.3478
  453TMC3    C6 6748   1.853   1.839  11.820  0.2027  0.1114 -0.0209
  453TMC3     C 6749   2.193   1.835  12.056  1.0587 -0.3364  0.2128
  453TMC3     O 6750   2.261   1.937  12.037 -0.1391  0.1306 -0.0808
  453TMC3     H 6751   1.978   1.675  12.086  1.0652 -0.3479 -0.3617
  453TMC3    H1 6752   2.168   1.977  11.837 -1.6412  2.7119 -2.1382
  453TMC3    H2 6753   1.759   1.854  11.769  0.1923  0.6541  0.1566
  453TMC3    C7 6754   1.971   1.950  11.649  0.4257  0.0413  0.3693
  453TMC3    C8 6755   1.760   1.652  11.934 -0.0939 -0.2435  0.4355
  453TMC3    O1 6756   1.869   1.922  11.589  0.0818 -0.5722  0.3619
  453TMC3    O2 6757   1.654   1.652  11.865 -0.0227 -0.2428  0.2639
  454MPD2     C 6758   1.425   0.953  16.585 -0.4152 -0.8236 -0.2605
  454MPD2    C1 6759   1.365   1.081  16.567 -0.4393 -0.0829  0.0089
  454MPD2    C2 6760   1.331   1.143  16.684  0.0129 -0.0286  0.5072
  454MPD2    C3 6761   1.330   1.085  16.809 -0.1036  0.1406  0.8417
  454MPD2    C4 6762   1.385   0.961  16.820 -0.0603  0.0412  0.2043
  454MPD2    C5 6763   1.429   0.891  16.712 -0.1873 -0.4008  0.7155
  454MPD2     H 6764   1.303   1.247  16.677  2.1966  0.4333 -1.3926
  454MPD2    H1 6765   1.403   0.914  16.917 -1.9026 -0.3604  0.3478
  454MPD2    H2 6766   1.454   0.889  16.503  1.4269 -2.5314  1.7330
  454MPD2    H3 6767   1.479   0.794  16.716 -0.9020 -0.8203 -0.4834
  454MPD2     N 6768   1.300   1.155  16.929 -0.2423 -0.3420 -0.5164
  454MPD2    H5 6769   1.352   1.116  17.007 -1.9419 -4.7281 -1.5518
  454MPD2    N1 6770   1.352   1.150  16.446  0.1120  0.0149  0.1853
  454MPD2    H7 6771   1.340   1.251  16.447 -0.8431 -0.0841 -1.6725
  455TMC3    C1 6772   1.135   1.325  16.844 -0.3956 -0.3451 -0.2295
  455TMC3    C2 6773   1.083   1.449  16.877 -0.9272 -0.1063 -0.2313
  455TMC3    C3 6774   0.956   1.481  16.831 -0.0779  0.2128 -0.1577
  455TMC3    C4 6775   1.051   1.230  16.787  0.3079 -0.1021 -0.1314
  455TMC3    C5 6776   0.930   1.263  16.742  0.0862 -1.0412 -0.0891
  455TMC3    C6 6777   0.881   1.389  16.763  0.7543 -0.5205 -0.1814
  455TMC3     C 6778   1.242   1.278  16.937  0.5244  0.5606  0.5258
  455TMC3     O 6779   1.258   1.351  17.034 -0.3581 -0.3918  0.4264
  455TMC3     H 6780   1.140   1.518  16.938  0.3088 -1.2215 -0.1487
  455TMC3    H1 6781   1.080   1.125  16.783  0.1092 -0.1437 -0.4580
  455TMC3    H2 6782   0.785   1.412  16.719  0.7475  0.0493  0.1406
  455TMC3    C7 6783   0.884   1.193  16.622 -0.1222 -0.6416  0.0834
  455TMC3    C8 6784   0.880   1.589  16.886 -0.0063 -0.1451  0.2233
  455TMC3    O1 6785   0.771   1.223  16.578  0.3827 -0.3066  0.2502
  455TMC3    O2 6786   0.818   1.662  16.811 -0.3243 -0.6246  0.8400
  456MPD2     C 6787   3.529   1.286  16.875 -0.1881 -0.3155  0.5632
  456MPD2    C1 6788   3.637   1.334  16.953  0.1411 -0.3410 -0.5664
  456MPD2    C2 6789   3.613   1.434  17.049 -0.2045 -0.6478 -0.6974
  456MPD2    C3 6790   3.488   1.484  17.079  0.0216  0.3029  0.1855
  456MPD2    C4 6791   3.378   1.430  17.006  0.0889 -0.7046  0.2620
  456MPD2    C5 6792   3.401   1.334  16.910 -0.2179  0.4626  0.3064
  456MPD2     H 6793   3.697   1.459  17.114 -0.6367  1.7332 -1.0752
  456MPD2    H1 6794   3.278   1.470  17.020 -0.2935 -1.4570 -0.2872
  456MPD2    H2 6795   3.542   1.218  16.791 -0.1678  1.4090 -0.8179
  456MPD2    H3 6796   3.317   1.302  16.849  0.2303 -1.0135  0.4573
  456MPD2     N 6797   3.476   1.575  17.188  0.1242  0.4091  0.2108
  456MPD2    H5 6798   3.565   1.610  17.221 -0.0462 -0.3232  1.4318
  456MPD2    N1 6799   3.766   1.300  16.913 -0.1696 -0.5059  0.1490
  456MPD2    H7 6800   3.776   1.245  16.828 -1.4223  1.5166 -1.3119
  457TMC3    C1 6801   3.387   1.715  17.351 -0.6093 -0.2578  0.6932
  457TMC3    C2 6802   3.307   1.817  17.396  0.5497 -0.0159  0.4770
  457TMC3    C3 6803   3.333   1.890  17.511  0.7251  0.1886 -0.0269
  457TMC3    C4 6804   3.497   1.683  17.430 -0.1791  0.6446 -0.6937
  457TMC3    C5 6805   3.522   1.757  17.537  0.1882 -0.4794  0.6314
  457TMC3    C6 6806   3.441   1.864  17.578  0.5221 -0.1373  0.3172
  457TMC3     C 6807   3.362   1.640  17.229  0.2974  0.3843  0.2885
  457TMC3     O 6808   3.248   1.640  17.194 -0.5242 -0.4293 -0.3846
  457TMC3     H 6809   3.221   1.845  17.335  0.8730  0.3404  0.1782
  457TMC3    H1 6810   3.538   1.583  17.426  1.0551  1.1366 -0.2056
  457TMC3    H2 6811   3.451   1.915  17.673  0.1706 -1.2083  0.9253
  457TMC3    C7 6812   3.654   1.750  17.591  0.4076 -0.8185  0.7488
  457TMC3    C8 6813   3.260   2.013  17.547 -0.2921  0.0357 -0.6418
  457TMC3    O1 6814   3.714   1.643  17.583 -0.4308  0.0715  0.4141
  457TMC3    O2 6815   3.298   2.071  17.646  0.5027  0.2163  0.4114
  458MPD2     C 6816   1.085   0.971  12.496 -0.3103 -0.0834  0.2541
  458MPD2    C1 6817   1.056   0.941  12.634  0.1027  0.2877  0.1177
  458MPD2    C2 6818   0.924   0.952  12.678 -0.5678  0.2378  0.6931
  458MPD2    C3 6819   0.822   0.993  12.595  0.0374  0.3868 -0.0168
  458MPD2    C4 6820   0.855   1.004  12.460 -0.0477  0.5405  0.0681
  458MPD2    C5 6821   0.984   1.002  12.414  0.2612  0.3016 -0.3000
  458MPD2     H 6822   0.908   0.937  12.784  1.8350 -2.2937  0.7043
  458MPD2    H1 6823   0.775   1.020  12.388 -1.3772 -1.8351  1.0279
  458MPD2    H2 6824   1.187   0.975  12.462  0.7073  2.4330  3.6630
  458MPD2    H3 6825   0.996   1.027  12.309  0.7571 -1.7035 -0.7319
  458MPD2     N 6826   0.695   1.041  12.649  0.2385  0.3490  0.3615
  458MPD2    H5 6827   0.673   1.017  12.745 -0.6262 -0.3024  0.0077
  458MPD2    N1 6828   1.171   0.916  12.712 -0.7588  0.2382  0.5536
  458MPD2    H7 6829   1.260   0.895  12.667 -1.0261 -0.0273  0.1520
  459TMC3    C1 6830   1.291   0.839  12.907  0.1321  0.2497  0.3081
  459TMC3    C2 6831   1.409   0.886  12.847  0.4457 -0.2733 -0.3593
  459TMC3    C3 6832   1.529   0.844  12.911 -0.5771  0.2292 -0.8943
  459TMC3    C4 6833   1.289   0.769  13.023 -0.5223  0.2440  0.5001
  459TMC3    C5 6834   1.405   0.740  13.084  0.5321  0.4994  0.2783
  459TMC3    C6 6835   1.526   0.769  13.030 -0.0792  0.7804  0.4021
  459TMC3     C 6836   1.165   0.869  12.844  0.1803  0.3032  0.5652
  459TMC3     O 6837   1.074   0.844  12.918  0.0644 -0.1178  0.6109
  459TMC3     H 6838   1.404   0.972  12.781 -2.4444  0.1142  0.3236
  459TMC3    H1 6839   1.196   0.730  13.064 -0.1721 -0.8169  0.2737
  459TMC3    H2 6840   1.615   0.747  13.089 -0.0152 -0.6607 -0.2362
  459TMC3    C7 6841   1.406   0.651  13.190 -1.0620  0.6176 -0.0271
  459TMC3    C8 6842   1.664   0.890  12.876 -0.0839 -0.7298  0.2726
  459TMC3    O1 6843   1.485   0.560  13.178  0.3802  0.3696  0.5299
  459TMC3    O2 6844   1.755   0.826  12.927  0.1785  1.0046  0.3659
  460MPD2     C 6845   4.640   3.087  10.760 -0.4448  0.3486 -0.7820
  460MPD2    C1 6846   4.602   3.220  10.760  0.1441 -0.0397  0.5025
  460MPD2    C2 6847   4.592   3.285  10.635  0.9945 -0.3838 -0.2148
  460MPD2    C3 6848   4.626   3.221  10.521  0.5401  0.2155  0.3564
  460MPD2    C4 6849   4.663   3.089  10.530  0.3724  0.1806 -0.0976
  460MPD2    C5 6850   4.672   3.028  10.647 -0.0162  0.3703 -0.0640
  460MPD2     H 6851   4.564   3.390  10.630  0.1257 -0.6007 -0.0297
  460MPD2    H1 6852   4.688   3.036  10.439  3.7889  0.8601  0.4166
  460MPD2    H2 6853   4.634   3.022  10.847 -0.4836  1.8914  0.3692
  460MPD2    H3 6854   4.688   2.921  10.638 -0.4028  0.2890  0.1803
  460MPD2     N 6855   4.606   3.293  10.398  0.2136  0.1822  0.7091
  460MPD2    H5 6856   4.544   3.373  10.398 -0.4288 -0.3210  1.1164
  460MPD2    N1 6857   4.567   3.282  10.886 -0.0710 -0.1414 -0.2569
  460MPD2    H7 6858   4.599   3.229  10.967  2.2221 -0.9642 -1.6968
  461TMC3    C1 6859   4.633   3.355  10.165  0.4353  0.4568 -0.7520
  461TMC3    C2 6860   4.662   3.303  10.046  0.1559  1.0083  0.4602
  461TMC3    C3 6861   4.593   3.337   9.932  0.0258 -0.1553  0.8696
  461TMC3    C4 6862   4.536   3.449  10.172 -0.1014  0.1984 -0.8001
  461TMC3    C5 6863   4.464   3.482  10.061 -0.9590  0.5503 -0.9619
  461TMC3    C6 6864   4.486   3.423   9.941  0.6665  0.3582  0.2978
  461TMC3     C 6865   4.672   3.270  10.282  0.4718  0.0883  0.4547
  461TMC3     O 6866   0.050   3.198  10.268  0.3028 -0.2238 -0.4767
  461TMC3     H 6867   0.025   3.234  10.042 -0.5024  0.2415 -0.4239
  461TMC3    H1 6868   4.537   3.510  10.262 -2.3859 -0.3228 -0.4312
  461TMC3    H2 6869   4.426   3.457   9.857 -0.3561 -0.9228  0.5090
  461TMC3    C7 6870   4.392   3.607  10.064 -0.0263  0.7773  0.8527
  461TMC3    C8 6871   4.643   3.317   9.798  0.0718 -0.5913 -0.5523
  461TMC3    O1 6872   4.379   3.652   9.954 -0.6580 -0.1702 -0.3800
  461TMC3    O2 6873   0.041   3.314   9.784 -0.7850 -0.2828 -0.0336
  462TMC3    C1 6874   0.780   3.126   0.449  0.0839 -0.5985 -0.1616
  462TMC3    C2 6875   0.790   3.245   0.390 -0.5267  0.5251  0.7053
  462TMC3    C3 6876   0.690   3.332   0.432 -0.0869 -0.6954 -0.2861
  462TMC3    C4 6877   0.704   3.098   0.554  0.0295  0.8821  0.5560
  462TMC3    C5 6878   0.603   3.182   0.576  0.4477 -0.1011 -0.2744
  462TMC3    C6 6879   0.600   3.307   0.527 -0.1472 -0.4287  0.5135
  462TMC3     C 6880   0.893   3.038   0.414  0.0266  0.4599 -0.0713
  462TMC3     O 6881   1.003   3.089   0.389  0.3742  0.0284  0.8708
  462TMC3     H 6882   0.861   3.273   0.313 -0.0793  2.7015  1.9206
  462TMC3    H1 6883   0.691   2.999   0.597  0.0963  0.8930  0.6014
  462TMC3    H2 6884   0.511   3.369   0.532  1.6891  2.4011 -1.7268
  462TMC3    C7 6885   0.478   3.109   0.616  0.1518 -0.5446  0.1266
  462TMC3    C8 6886   0.655   3.440   0.339  0.5432 -0.3985 -0.4377
  462TMC3    O1 6887   0.440   3.015   0.547 -0.3515 -0.2568 -0.5439
  462TMC3    O2 6888   0.592   3.530   0.390 -0.2989 -0.2591  0.1397
  463MPD2     C 6889   1.931   2.770   2.329  0.0581  0.1845 -0.4175
  463MPD2    C1 6890   1.823   2.822   2.264  0.0312 -0.3289  0.5527
  463MPD2    C2 6891   1.831   2.944   2.202  0.0380 -0.4734 -0.8213
  463MPD2    C3 6892   1.952   3.012   2.201 -0.6984  0.1868 -0.1620
  463MPD2    C4 6893   2.058   2.959   2.268  0.0021 -0.2175 -0.3784
  463MPD2    C5 6894   2.047   2.841   2.332 -0.3047 -0.3251  0.1595
  463MPD2     H 6895   1.746   2.980   2.146 -0.5256  0.7668  0.8343
  463MPD2    H1 6896   2.156   3.004   2.260 -0.4204  0.7084 -0.4269
  463MPD2    H2 6897   1.925   2.666   2.361  0.7315 -0.2201 -1.6210
  463MPD2    H3 6898   2.142   2.809   2.373  0.4880  0.7841 -0.8061
  463MPD2     N 6899   1.968   3.136   2.141  0.0677 -0.3134 -0.4996
  463MPD2    H5 6900   2.051   3.190   2.165  1.4103 -2.3451 -0.6029
  463MPD2    N1 6901   1.694   2.751   2.242  0.1102  0.3875 -0.2348
  463MPD2    H7 6902   1.627   2.780   2.173  1.3540 -0.2489 -1.7138
  464TMC3    C1 6903   1.536   2.571   2.252 -0.7619  0.1809  0.0934
  464TMC3    C2 6904   1.445   2.652   2.206 -0.1986 -0.6709 -0.0452
  464TMC3    C3 6905   1.354   2.599   2.126  0.1872  0.4004  0.1251
  464TMC3    C4 6906   1.554   2.441   2.210 -0.2049 -0.8783  0.1629
  464TMC3    C5 6907   1.469   2.399   2.112  0.5869 -0.1195 -0.2876
  464TMC3    C6 6908   1.365   2.478   2.072  0.3004  0.0640 -0.2372
  464TMC3     C 6909   1.656   2.630   2.301  0.2941  0.3494 -0.0473
  464TMC3     O 6910   1.719   2.560   2.377  0.4498  0.2210 -0.6863
  464TMC3     H 6911   1.444   2.752   2.250 -0.5969 -0.0822 -1.3800
  464TMC3    H1 6912   1.644   2.383   2.229 -1.2192 -1.5065  3.0588
  464TMC3    H2 6913   1.292   2.462   1.993  1.0687 -2.3255 -0.4694
  464TMC3    C7 6914   1.498   2.274   2.040  0.1491 -0.3072 -1.2634
  464TMC3    C8 6915   1.257   2.690   2.073 -0.0848  0.2924 -0.0336
  464TMC3    O1 6916   1.611   2.230   2.052 -0.3261 -0.1170  0.1697
  464TMC3    O2 6917   1.292   2.807   2.071  0.3032 -0.7052  0.7899
  465MPD2     C 6918   2.557   1.268  17.190 -0.1360  0.3538  0.0946
  465MPD2    C1 6919   2.461   1.284  17.291  0.8264 -0.0938 -0.3472
  465MPD2    C2 6920   2.362   1.381  17.279  0.3378 -0.7170  0.3255
  465MPD2    C3 6921   2.362   1.467  17.168  0.3072 -0.5636  0.0679
  465MPD2    C4 6922   2.459   1.451  17.075  0.1681 -0.3129  0.5850
  465MPD2    C5 6923   2.558   1.351  17.084 -0.0247  0.4920 -0.3812
  465MPD2     H 6924   2.279   1.400  17.346 -2.0382 -1.7067 -2.3934
  465MPD2    H1 6925   2.471   1.518  16.990  0.4415 -0.3664  0.5830
  465MPD2    H2 6926   2.634   1.194  17.209 -0.0776  1.1019  2.8075
  465MPD2    H3 6927   2.635   1.346  17.008  0.3514 -0.5968  0.0767
  465MPD2     N 6928   2.267   1.570  17.163  0.3159  0.3171  0.1799
  465MPD2    H5 6929   2.220   1.568  17.253 -0.1283  1.3176 -0.0290
  465MPD2    N1 6930   2.454   1.209  17.414  0.4862 -0.3398  0.4515
  465MPD2    H7 6931   2.395   1.245  17.487 -0.4256  0.9039 -0.9039
  466TMC3    C1 6932   1.953   1.796  17.220  0.6374 -0.3144  0.2066
  466TMC3    C2 6933   1.910   1.882  17.121  0.0086 -0.2239 -0.1514
  466TMC3    C3 6934   1.964   1.873  16.999 -0.0692  0.2091  0.5007
  466TMC3    C4 6935   2.052   1.703  17.198 -0.1413  0.0120 -0.2040
  466TMC3    C5 6936   2.109   1.712  17.071  0.2968  0.6398  0.6128
  466TMC3    C6 6937   2.064   1.791  16.966 -0.7957  0.5174  0.2454
  466TMC3     C 6938   1.905   1.817  17.352 -0.1145 -0.4117 -0.1911
  466TMC3     O 6939   1.978   1.778  17.441  0.6109 -0.0653 -0.4994
  466TMC3     H 6940   1.831   1.956  17.137  0.0751 -0.1765 -0.0393
  466TMC3    H1 6941   2.077   1.631  17.275 -3.8738  0.5819  1.5666
  466TMC3    H2 6942   2.127   1.804  16.878 -1.7911 -0.7176 -0.6525
  466TMC3    C7 6943   2.224   1.625  17.046  0.0578 -0.3302  0.2849
  466TMC3    C8 6944   1.951   1.982  16.904 -0.4762  0.3335  0.3363
  466TMC3    O1 6945   2.261   1.610  16.932  0.1239 -0.3201 -0.0607
  466TMC3    O2 6946   1.984   1.962  16.789  0.6367  0.1595 -0.0770
  467TMC3    C1 6947   3.627   4.698  13.812  0.9534 -0.1635 -0.2903
  467TMC3    C2 6948   3.646   0.081  13.721 -0.7782  0.1016  0.2332
  467TMC3    C3 6949   3.559   0.184  13.742  0.0583  0.2417  0.4723
  467TMC3    C4 6950   3.516   4.689  13.888  0.1649 -0.3609  0.5236
  467TMC3    C5 6951   3.427   0.072  13.902 -0.9650  0.1864 -0.4619
  467TMC3    C6 6952   3.451   0.186  13.826  0.0020  0.0617 -0.3753
  467TMC3     C 6953   3.731   4.606  13.837 -0.1304  0.5670 -0.1602
  467TMC3     O 6954   3.697   4.494  13.862 -0.3614  0.0365 -0.3802
  467TMC3     H 6955   3.730   0.085  13.652 -0.3920  1.6345  0.7846
  467TMC3    H1 6956   3.495   4.589  13.925  0.8769 -0.6687  0.0803
  467TMC3    H2 6957   3.399   0.279  13.841 -1.2262 -0.4955 -1.2093
  467TMC3    C7 6958   3.335   0.086  14.013  0.2142 -0.2307  0.2271
  467TMC3    C8 6959   3.607   0.309  13.693  0.3554  0.3953  1.0109
  467TMC3    O1 6960   3.376   0.028  14.113 -0.2678  0.0366  0.2580
  467TMC3    O2 6961   3.592   0.406  13.767 -0.1262 -0.6828  0.4935
  468MPD2     C 6962   1.994   3.073  10.664 -0.9442 -0.5994  0.1699
  468MPD2    C1 6963   2.100   3.045  10.749  0.3570 -0.8987  0.6423
  468MPD2    C2 6964   2.139   2.911  10.768 -0.5855  0.0475 -0.4010
  468MPD2    C3 6965   2.085   2.809  10.694 -0.0615 -0.7932  0.0432
  468MPD2    C4 6966   1.988   2.842  10.604  0.3605 -0.7655 -0.5215
  468MPD2    C5 6967   1.946   2.972  10.594  0.0247  0.4617  0.6897
  468MPD2     H 6968   2.220   2.886  10.835 -1.2367  1.9541  1.0866
  468MPD2    H1 6969   1.932   2.772  10.544 -0.7882  0.2257 -0.5941
  468MPD2    H2 6970   1.959   3.175  10.657 -0.0012 -0.3317 -0.6005
  468MPD2    H3 6971   1.864   2.992  10.525  1.9008 -0.1785 -1.7208
  468MPD2     N 6972   2.114   2.675  10.728  0.3290 -0.4936 -0.2183
  468MPD2    H5 6973   2.047   2.608  10.691 -2.1106  0.7229  2.0324
  468MPD2    N1 6974   2.185   3.142  10.806 -0.1570 -0.0293  0.2609
  468MPD2    H7 6975   2.261   3.102  10.860 -1.1589  0.4737  2.0569
  469TMC3    C1 6976   2.267   3.349  10.890  0.0521  0.2446 -0.0021
  469TMC3    C2 6977   2.364   3.285  10.962  0.2941  0.0945  0.6291
  469TMC3    C3 6978   2.421   3.363  11.060 -0.1480 -0.7201  0.5569
  469TMC3    C4 6979   2.233   3.487  10.906  0.8237 -0.0849  0.1382
  469TMC3    C5 6980   2.300   3.557  11.006  0.0635 -0.4685 -0.1774
  469TMC3    C6 6981   2.396   3.497  11.085 -0.4596 -0.3199  0.4111
  469TMC3     C 6982   2.178   3.277  10.798 -0.3522  0.1819 -0.2086
  469TMC3     O 6983   2.091   3.344  10.746  0.3035  0.1177  0.3113
  469TMC3     H 6984   2.386   3.180  10.957 -0.4576 -0.0079 -0.5650
  469TMC3    H1 6985   2.174   3.547  10.837  1.2203  1.9011  1.5216
  469TMC3    H2 6986   2.437   3.541  11.174 -0.6618  1.4342 -0.3655
  469TMC3    C7 6987   2.239   3.671  11.068  0.5431 -0.6304  0.3443
  469TMC3    C8 6988   2.502   3.291  11.156  0.3383  0.0692 -0.1602
  469TMC3    O1 6989   2.308   3.761  11.112  0.3128 -0.2775  0.6380
  469TMC3    O2 6990   2.558   3.187  11.126  0.0350 -0.1751 -0.4045
  470TMC3    C1 6991   0.751   4.523   0.940  0.2727 -0.6008 -0.9888
  470TMC3    C2 6992   0.732   4.607   1.050 -0.1923 -0.2612 -0.1021
  470TMC3    C3 6993   0.821   4.596   1.155 -0.2043 -0.1413 -0.4442
  470TMC3    C4 6994   0.865   4.450   0.923  0.3786 -0.1768 -0.4774
  470TMC3    C5 6995   0.950   4.437   1.027  0.5497 -0.5170  0.1832
  470TMC3    C6 6996   0.927   4.510   1.145  0.3241 -0.1207 -0.0645
  470TMC3     C 6997   0.637   4.498   0.859 -0.9342  0.4228 -0.5798
  470TMC3     O 6998   0.648   4.398   0.785  0.5290 -0.0617  0.0097
  470TMC3     H 6999   0.641   4.666   1.060  1.1965  1.8761  0.0068
  470TMC3    H1 7000   0.861   4.375   0.844 -2.1516 -0.2685 -0.2921
  470TMC3    H2 7001   0.986   4.485   1.233  3.4417 -1.5802 -2.5484
  470TMC3    C7 7002   1.021   4.310   1.033 -0.2735 -0.4343 -0.2018
  470TMC3    C8 7003   0.815   4.693   1.255  0.6120 -0.0018 -0.3932
  470TMC3    O1 7004   0.960   4.215   0.984 -0.1823  0.3534  0.0382
  470TMC3    O2 7005   0.729   0.053   1.229  0.4529 -0.4523 -0.0026
  471MPD2     C 7006   0.283   0.993  16.831  0.1056  0.1948  0.3120
  471MPD2    C1 7007   0.353   0.880  16.841  0.4503  0.4170 -0.4137
  471MPD2    C2 7008   0.436   0.864  16.951 -0.2808  0.0431 -0.2739
  471MPD2    C3 7009   0.447   0.959  17.051 -0.5995  0.2923 -0.1704
  471MPD2    C4 7010   0.359   1.074  17.045 -0.5512  0.1400  0.2941
  471MPD2    C5 7011   0.290   1.087  16.926  0.1313 -0.7258  0.3259
  471MPD2     H 7012   0.504   0.781  16.940 -1.3921 -0.7059 -1.5328
  471MPD2    H1 7013   0.366   1.161  17.109 -1.6072 -0.1682  0.8329
  471MPD2    H2 7014   0.215   1.013  16.749 -0.3494 -2.6197  0.0191
  471MPD2    H3 7015   0.233   1.176  16.902  0.6433 -0.3274  0.5670
  471MPD2     N 7016   0.543   0.944  17.152 -0.0036  0.1856  0.3069
  471MPD2    H5 7017   0.518   0.989  17.239 -0.0215  0.1869  0.3012
  471MPD2    N1 7018   0.356   0.784  16.741  0.3265 -0.2978 -0.3890
  471MPD2    H7 7019   0.412   0.701  16.757 -0.5237 -0.8971 -0.5033
  472TMC3    C1 7020   0.296   0.654  16.552  0.2923 -0.4971  0.0159
  472TMC3    C2 7021   0.262   0.655  16.419  0.4404  0.1382  0.0060
  472TMC3    C3 7022   0.276   0.538  16.342  0.4501 -0.3265  0.8054
  472TMC3    C4 7023   0.350   0.537  16.606 -0.0645 -0.1708  1.3077
  472TMC3    C5 7024   0.341   0.420  16.539  0.5071 -0.2806  0.8248
  472TMC3    C6 7025   0.300   0.418  16.404 -0.2209 -0.5129 -0.2055
  472TMC3     C 7026   0.277   0.783  16.626 -0.0539 -0.3350 -0.0743
  472TMC3     O 7027   0.207   0.866  16.572  0.3408  0.4253  0.0471
  472TMC3     H 7028   0.235   0.747  16.369 -0.9052  1.4843  3.1997
  472TMC3    H1 7029   0.368   0.537  16.713 -0.1221  0.5294  1.3198
  472TMC3    H2 7030   0.308   0.326  16.348  0.7514 -0.8149  0.4194
  472TMC3    C7 7031   0.332   0.299  16.621 -0.9516  0.1770 -0.8806
  472TMC3    C8 7032   0.159   0.529  16.256 -0.3231 -0.2444 -0.9942
  472TMC3    O1 7033   0.380   0.303  16.736 -0.0204  0.4916 -0.4937
  472TMC3    O2 7034   0.163   0.560  16.136  0.8427  0.1889  0.3075
  473MPD2     C 7035   0.600   2.484  14.102  0.1609 -0.0559  0.1434
  473MPD2    C1 7036   0.504   2.579  14.091  0.4163 -0.4136  0.5800
  473MPD2    C2 7037   0.471   2.648  14.206  0.1595 -0.6539 -0.0168
  473MPD2    C3 7038   0.536   2.630  14.326  0.0106  0.1541  0.3314
  473MPD2    C4 7039   0.642   2.542  14.335  0.0809 -0.1342  0.7481
  473MPD2    C5 7040   0.665   2.469  14.220  0.1023 -0.8930 -0.0465
  473MPD2     H 7041   0.382   2.711  14.206 -0.6965 -1.8692 -0.9788
  473MPD2    H1 7042   0.709   2.535  14.420  1.5904 -1.9241 -0.5905
  473MPD2    H2 7043   0.643   2.430  14.019 -1.2064 -0.6057 -0.1873
  473MPD2    H3 7044   0.752   2.405  14.220  0.5989 -0.2255  0.4018
  473MPD2     N 7045   0.510   2.713  14.437  0.2210 -0.2304 -0.4063
  473MPD2    H5 7046   0.570   2.695  14.517 -1.1147 -1.7449  0.2676
  473MPD2    N1 7047   0.428   2.603  13.977 -0.5050  0.0643  0.8827
  473MPD2    H7 7048   0.358   2.677  13.982  0.7905  1.2529  1.3076
  474TMC3    C1 7049   0.419   2.891  14.561  0.3782  0.5096 -0.2630
  474TMC3    C2 7050   0.354   3.009  14.552  0.0292 -0.6314 -0.0946
  474TMC3    C3 7051   0.371   3.104  14.646 -0.4636  0.1388 -0.2712
  474TMC3    C4 7052   0.498   2.860  14.667  0.3998  0.1385  0.5536
  474TMC3    C5 7053   0.500   2.957  14.767  0.4902  0.4997 -0.2030
  474TMC3    C6 7054   0.442   3.079  14.762  0.4137 -0.5895 -0.0158
  474TMC3     C 7055   0.410   2.810  14.445  0.0708 -0.5170 -0.4232
  474TMC3     O 7056   0.333   2.851  14.356 -0.0349 -0.0259  0.2021
  474TMC3     H 7057   0.303   3.031  14.459 -0.6315 -2.0460 -0.0739
  474TMC3    H1 7058   0.555   2.769  14.685 -0.0145  0.1827  2.0577
  474TMC3    H2 7059   0.454   3.157  14.835  0.3157  0.4964 -1.1635
  474TMC3    C7 7060   0.615   2.952  14.859 -0.1189  0.4821  1.1001
  474TMC3    C8 7061   0.314   3.227  14.618  0.0574 -0.0979  0.0371
  474TMC3    O1 7062   0.724   2.912  14.822  0.1912  0.0053 -0.0019
  474TMC3    O2 7063   0.296   3.269  14.509  0.0882 -0.2747  0.0989
  475MPD2     C 7064   3.728   0.603  10.245 -0.1709  0.1793 -0.5635
  475MPD2    C1 7065   3.690   0.725  10.208 -0.3060 -0.7351  0.0582
  475MPD2    C2 7066   3.586   0.783  10.279  0.8119 -0.0991 -0.1395
  475MPD2    C3 7067   3.525   0.730  10.391  0.0898  0.4498  0.0447
  475MPD2    C4 7068   3.559   0.600  10.419 -0.2298 -0.5111  0.2414
  475MPD2    C5 7069   3.666   0.544  10.348  0.5023 -0.3108  0.5690
  475MPD2     H 7070   3.578   0.889  10.259  0.7984 -0.4588 -2.0548
  475MPD2    H1 7071   3.525   0.543  10.505  0.5415 -2.8407 -0.9936
  475MPD2    H2 7072   3.812   0.544  10.208 -0.0114 -0.2496  0.4793
  475MPD2    H3 7073   3.692   0.445  10.383 -0.7589 -1.0113 -0.4937
  475MPD2     N 7074   3.430   0.806  10.458 -0.2966 -0.0132  0.4716
  475MPD2    H5 7075   3.402   0.892  10.413  1.0761  0.5830  0.7651
  475MPD2    N1 7076   3.753   0.788  10.104  0.2194  0.9581  0.0610
  475MPD2    H7 7077   3.838   0.751  10.063  0.1878  0.4211  0.4947
  476TMC3    C1 7078   3.796   0.930   9.927 -0.1852 -0.0226  0.6793
  476TMC3    C2 7079   3.743   1.028   9.843  0.1609 -0.0687 -1.0601
  476TMC3    C3 7080   3.821   1.141   9.816  0.0769 -0.0749  0.2549
  476TMC3    C4 7081   3.927   0.933   9.967  0.0601  0.2578  0.8571
  476TMC3    C5 7082   3.998   1.042   9.938  0.0636 -0.1503  0.4021
  476TMC3    C6 7083   3.942   1.148   9.874 -0.0494 -0.1291  1.3288
  476TMC3     C 7084   3.703   0.893  10.032  0.2415 -0.5189  0.0564
  476TMC3     O 7085   3.592   0.944  10.026 -0.5982  0.0010 -0.2742
  476TMC3     H 7086   3.642   1.016   9.807  0.6671 -1.7946 -1.9137
  476TMC3    H1 7087   3.970   0.861  10.036  1.4774 -0.7853 -1.1186
  476TMC3    H2 7088   3.994   1.243   9.871  0.0882 -0.2651 -0.5197
  476TMC3    C7 7089   4.097   1.069  10.043  0.3360 -0.0935  0.9832
  476TMC3    C8 7090   3.754   1.268   9.809  0.6353 -0.0569 -1.1275
  476TMC3    O1 7091   4.178   0.979  10.056  0.5428  0.0482  0.6199
  476TMC3    O2 7092   3.823   1.368   9.799 -0.7136 -0.1094  0.2169
  477MPD2     C 7093   0.754   2.929  11.809 -0.5670  0.3297  0.1571
  477MPD2    C1 7094   0.691   2.820  11.758  0.1709 -0.4707 -0.6806
  477MPD2    C2 7095   0.710   2.699  11.811  0.5516  0.1534 -0.3434
  477MPD2    C3 7096   0.803   2.676  11.912 -0.9595  0.0049  0.4634
  477MPD2    C4 7097   0.878   2.787  11.956 -0.2912  0.5172  0.5693
  477MPD2    C5 7098   0.850   2.909  11.905  0.4634 -0.2087 -0.0462
  477MPD2     H 7099   0.653   2.621  11.761  2.0698 -0.9474 -0.3523
  477MPD2    H1 7100   0.939   2.795  12.045  1.4738 -1.0708 -0.4891
  477MPD2    H2 7101   0.737   3.032  11.778 -2.5691 -0.4606 -1.3454
  477MPD2    H3 7102   0.905   2.994  11.944 -0.6607  0.7087 -0.4665
  477MPD2     N 7103   0.813   2.548  11.979  0.0526 -0.1976  0.0573
  477MPD2    H5 7104   0.771   2.467  11.935 -2.3362  0.6036  0.8460
  477MPD2    N1 7105   0.589   2.854  11.666 -0.7186  0.8021  0.1070
  477MPD2    H7 7106   0.567   2.952  11.655 -0.2753  0.7306 -1.5102
  478TMC3    C1 7107   0.401   2.846  11.539 -0.1174 -0.2657 -0.2182
  478TMC3    C2 7108   0.352   2.960  11.610 -0.0572  0.5183  0.2603
  478TMC3    C3 7109   0.231   3.004  11.574  0.0086 -0.0311  0.7782
  478TMC3    C4 7110   0.331   2.782  11.443 -0.2313  0.1190  0.7565
  478TMC3    C5 7111   0.212   2.839  11.410  0.1535  0.0790  0.0728
  478TMC3    C6 7112   0.156   2.942  11.481  0.2477 -0.4321 -0.2086
  478TMC3     C 7113   0.515   2.772  11.591 -0.5992  0.0168 -0.0042
  478TMC3     O 7114   0.550   2.654  11.570  0.0806 -0.2413  0.2424
  478TMC3     H 7115   0.404   3.017  11.686  0.3102 -2.0140  1.9167
  478TMC3    H1 7116   0.368   2.685  11.413  1.1735  0.4023  1.5481
  478TMC3    H2 7117   0.048   2.953  11.473  0.2368 -1.5630 -1.7196
  478TMC3    C7 7118   0.128   2.758  11.330  0.0709 -0.6007 -0.1435
  478TMC3    C8 7119   0.166   3.078  11.684 -0.1900 -0.6859 -0.4928
  478TMC3    O1 7120   0.184   2.653  11.297  0.8132  0.3401 -0.2915
  478TMC3    O2 7121   0.186   3.027  11.793  0.6069  0.5317 -0.8243
  479MPD2     C 7122   4.380   0.133  15.267 -0.5108  0.0364 -1.0794
  479MPD2    C1 7123   4.361   0.034  15.369  0.2265 -0.4244 -0.2078
  479MPD2    C2 7124   4.423   0.060  15.492 -1.1287 -0.2168 -0.5544
  479MPD2    C3 7125   4.487   0.177  15.507 -0.2915 -0.0724  0.1261
  479MPD2    C4 7126   4.512   0.261  15.400 -0.9782  0.9525  0.0368
  479MPD2    C5 7127   4.462   0.235  15.280  0.1004  1.5235  0.0233
  479MPD2     H 7128   4.427   4.706  15.570 -1.9305 -0.2116 -0.5046
  479MPD2    H1 7129   4.571   0.350  15.418  0.3524 -0.2025  1.3410
  479MPD2    H2 7130   4.333   0.113  15.172 -2.2315  0.7026 -0.3570
  479MPD2    H3 7131   4.487   0.295  15.193 -1.7117 -1.2749 -2.4371
  479MPD2     N 7132   4.546   0.230  15.625  0.0597 -0.2054 -0.4963
  479MPD2    H5 7133   4.625   0.293  15.617  0.1688  0.2208  3.6662
  479MPD2    N1 7134   4.286   4.647  15.341  0.5043  0.2085 -0.0467
  479MPD2    H7 7135   4.260   4.643  15.243 -0.5680 -0.0927  0.2549
  480TMC3    C1 7136   4.284   4.650  15.836  0.5234  0.1269  1.0812
  480TMC3    C2 7137   4.169   4.691  15.768  0.3210  0.0774  0.0193
  480TMC3    C3 7138   4.176   0.096  15.712 -0.9050 -1.1492  0.0078
  480TMC3    C4 7139   4.396   0.003  15.849  0.2813 -0.1670 -0.2615
  480TMC3    C5 7140   4.397   0.122  15.785 -0.1424  0.7490 -0.1723
  480TMC3    C6 7141   4.287   0.173  15.729  0.5033 -0.2837 -0.2880
  480TMC3     C 7142   4.281   4.527  15.920 -0.4422  0.9668 -0.8777
  480TMC3     O 7143   4.389   4.470  15.939 -0.0843 -0.5578 -0.0903
  480TMC3     H 7144   4.084   4.626  15.749  2.4667 -2.7849  0.2744
  480TMC3    H1 7145   4.489   4.686  15.890  0.4777  0.5082 -0.0826
  480TMC3    H2 7146   4.300   0.267  15.677 -0.0274  0.4308  0.8755
  480TMC3    C7 7147   4.534   0.174  15.748  0.3518 -0.4426 -0.3878
  480TMC3    C8 7148   4.088   0.138  15.601  0.2765 -0.3058 -0.1189
  480TMC3    O1 7149   4.624   0.184  15.834  0.4063  0.0199 -0.1713
  480TMC3    O2 7150   3.992   0.064  15.576 -0.7275 -0.2763 -0.0617
  481MPD2     C 7151   1.489   3.842  14.248 -0.1140 -0.1509 -0.5448
  481MPD2    C1 7152   1.393   3.897  14.327 -0.2304 -0.2167  0.5065
  481MPD2    C2 7153   1.391   3.870  14.463 -0.5609  0.1653 -0.0559
  481MPD2    C3 7154   1.497   3.801  14.516  0.3449 -0.3245 -0.0400
  481MPD2    C4 7155   1.597   3.758  14.433  0.6258  0.1087  0.1971
  481MPD2    C5 7156   1.600   3.780  14.295  0.4875  0.5790 -0.2545
  481MPD2     H 7157   1.317   3.906  14.533  0.1758 -0.6339  1.1421
  481MPD2    H1 7158   1.679   3.707  14.482 -2.1228 -3.6946  0.8456
  481MPD2    H2 7159   1.484   3.842  14.140 -0.1042 -0.6025 -0.5455
  481MPD2    H3 7160   1.671   3.736  14.225 -0.1227  1.7377 -1.6233
  481MPD2     N 7161   1.511   3.772  14.655 -0.3075 -0.1151 -0.9756
  481MPD2    H5 7162   1.599   3.725  14.674  0.6915  1.5611 -1.4304
  481MPD2    N1 7163   1.286   3.951  14.260  0.7225  0.6454  0.2254
  481MPD2    H7 7164   1.307   3.966  14.162  0.0359 -0.5205 -0.0992
  482TMC3    C1 7165   1.082   4.051  14.212 -0.0587  0.2098 -0.2327
  482TMC3    C2 7166   0.946   4.034  14.244 -0.4036  0.6396  0.4866
  482TMC3    C3 7167   0.848   4.087  14.158 -0.7050 -0.0934 -0.2258
  482TMC3    C4 7168   1.134   4.098  14.096 -0.0201 -0.8396  0.2983
  482TMC3    C5 7169   1.037   4.154  14.030 -0.5525 -0.4105  0.9980
  482TMC3    C6 7170   0.898   4.153  14.050 -0.1006 -0.5502  0.4146
  482TMC3     C 7171   1.177   4.003  14.322 -0.0770 -0.4029 -0.3028
  482TMC3     O 7172   1.130   3.987  14.436 -0.0810  0.0216  0.4869
  482TMC3     H 7173   0.914   3.991  14.338 -0.0317  1.0218  0.7903
  482TMC3    H1 7174   1.235   4.136  14.082  0.3727 -1.9821  0.0413
  482TMC3    H2 7175   0.833   4.192  13.973  0.0646 -0.6893  0.2052
  482TMC3    C7 7176   1.069   4.196  13.893  0.4926 -0.0821 -0.4075
  482TMC3    C8 7177   0.742   3.995  14.133  0.7262  0.4182  0.4596
  482TMC3    O1 7178   0.997   4.280  13.847 -0.3552 -0.1862 -0.4600
  482TMC3    O2 7179   0.752   3.890  14.197  0.3846 -0.8049 -0.5003
  483TMC3    C1 7180   3.907   3.240   0.824  0.7725 -0.8174  0.0896
  483TMC3    C2 7181   3.928   3.343   0.748  0.1536  0.2369 -0.6034
  483TMC3    C3 7182   4.006   3.448   0.783  0.3357  0.7704 -0.4071
  483TMC3    C4 7183   3.952   3.235   0.956 -0.5731 -0.1412  0.6015
  483TMC3    C5 7184   4.036   3.341   0.993  0.9903 -1.0202 -0.4710
  483TMC3    C6 7185   4.063   3.446   0.906  0.3580 -0.0440 -0.1005
  483TMC3     C 7186   3.811   3.140   0.785 -0.4338 -0.3181 -0.5869
  483TMC3     O 7187   3.713   3.181   0.725 -0.2931  0.5421 -0.0348
  483TMC3     H 7188   3.883   3.339   0.650 -1.9737 -1.0647  0.4402
  483TMC3    H1 7189   3.935   3.150   1.020  0.5999 -0.6508  0.2304
  483TMC3    H2 7190   4.132   3.528   0.922  0.5559 -0.4725  1.2817
  483TMC3    C7 7191   4.105   3.334   1.119  0.3263 -0.2023  0.5258
  483TMC3    C8 7192   4.074   3.515   0.680 -0.1247 -0.4139  0.1602
  483TMC3    O1 7193   4.112   3.224   1.180  0.3474  0.2120  0.5385
  483TMC3    O2 7194   4.195   3.536   0.696 -0.0021 -0.2008  0.8838
  484MPD2     C 7195   1.764   1.178  12.662  0.0988  0.0841 -0.0991
  484MPD2    C1 7196   1.781   1.058  12.735 -0.3404 -0.1428 -0.3044
  484MPD2    C2 7197   1.906   1.005  12.750 -0.9069  0.1039 -0.3046
  484MPD2    C3 7198   2.013   1.071  12.688  0.0362  0.7768 -0.3859
  484MPD2    C4 7199   1.994   1.196  12.626 -0.2465  0.0544 -0.0853
  484MPD2    C5 7200   1.867   1.241  12.601 -0.1487 -0.4788 -0.0630
  484MPD2     H 7201   1.923   0.912  12.803 -1.8858  1.2792  2.0657
  484MPD2    H1 7202   2.074   1.254  12.583 -0.0253 -0.4097 -0.3023
  484MPD2    H2 7203   1.668   1.226  12.647 -0.7332 -0.8200  2.4113
  484MPD2    H3 7204   1.859   1.338  12.554  2.8189  0.9499  2.3925
  484MPD2     N 7205   2.144   1.019  12.676  0.4756 -0.2263 -0.0137
  484MPD2    H5 7206   2.217   1.087  12.657 -0.6142  0.0176 -3.4413
  484MPD2    N1 7207   1.665   1.001  12.793 -0.3857  0.2693  0.0308
  484MPD2    H7 7208   1.575   1.036  12.759 -1.1498 -0.6516  1.1015
  485TMC3    C1 7209   2.323   0.897  12.763 -0.6414 -0.5256 -0.3637
  485TMC3    C2 7210   2.391   0.776  12.758 -0.3492  0.4819 -0.1196
  485TMC3    C3 7211   2.525   0.784  12.785  0.3911 -0.0195 -0.3362
  485TMC3    C4 7212   2.380   1.019  12.798 -0.6179 -0.1751 -0.2797
  485TMC3    C5 7213   2.516   1.020  12.822  0.8647  0.3594 -0.0905
  485TMC3    C6 7214   2.581   0.905  12.829  0.9509  0.2997 -0.0719
  485TMC3     C 7215   2.183   0.895  12.722 -0.1331 -0.0278 -0.2175
  485TMC3     O 7216   2.121   0.789  12.708 -0.9919  0.3747 -0.2796
  485TMC3     H 7217   2.350   0.677  12.740 -0.9353  0.5379  0.9305
  485TMC3    H1 7218   2.323   1.112  12.795 -0.7230 -0.2296 -0.0289
  485TMC3    H2 7219   2.680   0.911  12.871  0.7278 -0.3978  0.5495
  485TMC3    C7 7220   2.587   1.117  12.743 -0.3863  0.0451  0.0849
  485TMC3    C8 7221   2.622   0.714  12.694 -0.0732 -0.1187 -0.4783
  485TMC3    O1 7222   2.551   1.230  12.757 -0.0724  0.3560  0.0602
  485TMC3    O2 7223   2.731   0.768  12.689 -0.1402  0.5058  0.2354
  486MPD2     C 7224   3.992   0.043  13.108 -0.1041 -0.1389 -0.1550
  486MPD2    C1 7225   3.861   0.011  13.068  0.1733  0.0569 -0.6394
  486MPD2    C2 7226   3.789   0.091  12.984  0.0612  0.3750  0.4756
  486MPD2    C3 7227   3.846   0.212  12.947 -0.2698 -0.7284  0.3946
  486MPD2    C4 7228   3.976   0.242  12.987 -0.1414 -0.3373  0.2292
  486MPD2    C5 7229   4.051   0.153  13.063  0.1127 -0.4021  0.3795
  486MPD2     H 7230   3.689   0.076  12.943  0.7583 -0.3444 -0.9728
  486MPD2    H1 7231   4.034   0.332  12.971  1.6677 -1.4716  0.4810
  486MPD2    H2 7232   4.035   4.688  13.172  0.4008 -0.8940 -1.4001
  486MPD2    H3 7233   4.155   0.169  13.090  0.6334 -3.1456 -0.0248
  486MPD2     N 7234   3.782   0.302  12.861 -0.0785 -0.2227  0.3543
  486MPD2    H5 7235   3.697   0.271  12.814 -0.5256  0.1108  0.9317
  486MPD2    N1 7236   3.816   4.599  13.112  0.2191 -0.6283 -0.0710
  486MPD2    H7 7237   3.890   4.535  13.138 -1.6853 -2.5739  0.5640
  487TMC3    C1 7238   3.709   4.399  13.153 -0.8509 -0.9963 -0.6769
  487TMC3    C2 7239   3.614   4.305  13.109 -0.5560 -1.2687 -0.7074
  487TMC3    C3 7240   3.638   4.181  13.168  0.0869  0.0830 -0.2969
  487TMC3    C4 7241   3.808   4.380  13.247 -0.4549 -0.5977  0.0827
  487TMC3    C5 7242   3.826   4.247  13.286  0.6140  0.1234 -0.3013
  487TMC3    C6 7243   3.747   4.146  13.238  0.3454 -0.6119  0.0182
  487TMC3     C 7244   3.692   4.538  13.105  0.0411 -0.1889 -0.1524
  487TMC3     O 7245   3.588   4.579  13.057 -0.0227 -0.1469 -0.2134
  487TMC3     H 7246   3.524   4.331  13.054  0.4953  0.3606 -1.6743
  487TMC3    H1 7247   3.859   4.455  13.305 -1.6853 -1.6576  2.5234
  487TMC3    H2 7248   3.761   4.050  13.286 -0.1730 -1.0192 -0.6503
  487TMC3    C7 7249   3.867   4.217  13.423  0.1178  0.5187 -0.4108
  487TMC3    C8 7250   3.520   4.101  13.199 -0.2499 -1.0102  0.5419
  487TMC3    O1 7251   3.860   4.311  13.499  0.1357  0.0187 -0.7470
  487TMC3    O2 7252   3.533   4.003  13.274 -0.9638  0.0663  0.3875
  488MPD2     C 7253   4.104   1.603  16.628  0.1478  0.1410 -0.1254
  488MPD2    C1 7254   4.212   1.665  16.559  0.0038  0.7620  0.6952
  488MPD2    C2 7255   4.318   1.717  16.625 -0.6019  0.7357 -0.4207
  488MPD2    C3 7256   4.325   1.713  16.763  0.8008  0.1272 -0.3326
  488MPD2    C4 7257   4.220   1.646  16.829 -0.1320 -0.4860  0.1465
  488MPD2    C5 7258   4.107   1.608  16.763  0.4904 -0.2440  0.3892
  488MPD2     H 7259   4.400   1.767  16.574 -0.0759  0.1966 -0.1028
  488MPD2    H1 7260   4.220   1.634  16.937 -1.3051  2.8974  0.5460
  488MPD2    H2 7261   4.013   1.571  16.579  1.4607 -0.1556 -2.3209
  488MPD2    H3 7262   4.026   1.569  16.824  0.9665 -0.7458  0.7007
  488MPD2     N 7263   4.434   1.769  16.827  0.1045 -0.3378  0.2483
  488MPD2    H5 7264   4.482   1.834  16.766 -0.4855 -1.7734 -1.7503
  488MPD2    N1 7265   4.221   1.678  16.420 -0.3838  0.1185 -1.0773
  488MPD2    H7 7266   4.305   1.717  16.379  0.2854  0.9915  1.1056
  489TMC3    C1 7267   4.573   1.855  16.982  0.2718  0.1106  0.1675
  489TMC3    C2 7268   4.601   1.957  16.892 -0.1377 -0.2199  0.6516
  489TMC3    C3 7269   4.706   2.041  16.917 -0.0156  0.6083 -0.0607
  489TMC3    C4 7270   4.644   1.840  17.095  0.1245 -0.0996  0.2986
  489TMC3    C5 7271   0.033   1.930  17.114  0.2348  0.8126  0.8091
  489TMC3    C6 7272   0.064   2.032  17.030 -0.4989 -0.5082 -0.3269
  489TMC3     C 7273   4.468   1.768  16.957 -0.4441  0.0268  0.5139
  489TMC3     O 7274   4.412   1.716  17.054 -0.5443  0.3462 -0.0310
  489TMC3     H 7275   4.526   1.981  16.818 -2.6838 -2.2664  2.5361
  489TMC3    H1 7276   4.617   1.756  17.157  1.4339 -1.9374 -1.5953
  489TMC3    H2 7277   0.151   2.095  17.042 -0.4599 -0.5612 -0.3345
  489TMC3    C7 7278   0.120   1.922  17.230  0.3171  0.4050 -0.7538
  489TMC3    C8 7279   4.677   2.182  16.896 -0.2500  0.4195  0.1767
  489TMC3    O1 7280   0.234   1.959  17.218  0.5808 -0.6238  0.6927
  489TMC3    O2 7281   4.610   2.204  16.798 -0.7221  0.1201  0.0512
  490MPD2     C 7282   0.415   1.078  17.491 -0.7607  0.2711  0.2588
  490MPD2    C1 7283   0.416   1.020  17.622 -0.0598  0.4741  0.0437
  490MPD2    C2 7284   0.536   1.010  17.687  0.1887  0.5135 -0.5126
  490MPD2    C3 7285   0.654   1.050  17.625 -0.0997  0.7952 -0.0708
  490MPD2    C4 7286   0.654   1.109  17.496  0.6463 -0.1615  0.0522
  490MPD2    C5 7287   0.531   1.123  17.431 -0.1322  0.5842  0.0792
  490MPD2     H 7288   0.543   0.954   0.092  0.2818 -2.6094 -2.4102
  490MPD2    H1 7289   0.740   1.148  17.443  0.1524 -0.7855 -1.1983
  490MPD2    H2 7290   0.319   1.101  17.447  0.2332  0.3885 -1.8724
  490MPD2    H3 7291   0.533   1.182  17.340  1.0730  0.9405  0.3361
  490MPD2     N 7292   0.782   1.022  17.685  0.4537 -0.1116  0.2027
  490MPD2    H5 7293   0.866   1.047  17.635  0.4463 -0.4082  0.0369
  490MPD2    N1 7294   0.308   0.956   0.005 -0.1240 -0.2084 -0.0024
  490MPD2    H7 7295   0.332   0.911   0.093 -0.1680  1.2955  0.7759
  491TMC3    C1 7296   0.118   0.819   0.017 -0.1167 -0.0943  0.7268
  491TMC3    C2 7297   0.144   0.795   0.153  0.4222  0.1074 -0.5137
  491TMC3    C3 7298   0.114   0.672   0.203 -0.1974  0.4720  0.2906
  491TMC3    C4 7299   0.064   0.717  17.633  0.4778  0.4247 -0.1502
  491TMC3    C5 7300   0.023   0.601   0.006  0.3677 -0.1733  0.1748
  491TMC3    C6 7301   0.051   0.576   0.137 -0.0335  0.5639  0.4840
  491TMC3     C 7302   0.196   0.915  17.624  0.3818 -0.2021  0.3288
  491TMC3     O 7303   0.150   0.952  17.520 -0.2668 -0.8338 -0.6178
  491TMC3     H 7304   0.204   0.866   0.208  0.7719  0.0354 -0.8072
  491TMC3    H1 7305   0.045   0.729  17.527 -1.9911 -2.4452 -0.0361
  491TMC3    H2 7306   0.007   0.489   0.184  0.1267 -0.7164 -1.7470
  491TMC3    C7 7307   4.675   0.509  17.604 -0.3426  0.4580  0.0135
  491TMC3    C8 7308   0.191   0.629   0.323  0.8372 -0.2123 -0.5587
  491TMC3    O1 7309   4.670   0.545  17.483 -0.3099  0.1428 -0.4021
  491TMC3    O2 7310   0.247   0.722   0.382 -0.0791  0.1528  0.7267
  492MPD2     C 7311   1.123   1.257  10.326 -0.6282  1.2475  0.0727
  492MPD2    C1 7312   1.011   1.172  10.319 -0.4156 -0.5998  0.2309
  492MPD2    C2 7313   1.003   1.077  10.414 -0.1005 -0.3688  0.0866
  492MPD2    C3 7314   1.107   1.048  10.501 -0.0671 -0.5625  0.2347
  492MPD2    C4 7315   1.217   1.128  10.501  0.7272 -0.1806  0.3232
  492MPD2    C5 7316   1.227   1.233  10.414  0.1483 -0.2674  0.2594
  492MPD2     H 7317   0.914   1.016  10.411  0.6427 -1.5313  1.5758
  492MPD2    H1 7318   1.303   1.093  10.557  2.7058  1.5613 -1.6342
  492MPD2    H2 7319   1.128   1.334  10.251  0.4051  1.2989  0.1988
  492MPD2    H3 7320   1.321   1.285  10.402 -0.8763  1.8767  1.6456
  492MPD2     N 7321   1.102   0.944  10.601 -0.6196 -0.6788  0.2991
  492MPD2    H5 7322   1.169   0.956  10.677  0.8267  0.1483 -1.1106
  492MPD2    N1 7323   0.910   1.201  10.225  0.0727 -0.3234  0.1986
  492MPD2    H7 7324   0.940   1.273  10.160 -0.8961  1.8013  2.1390
  493TMC3    C1 7325   0.711   1.178  10.088 -0.3514  0.6990  0.2911
  493TMC3    C2 7326   0.718   1.302  10.037  0.3329  0.2723  0.2409
  493TMC3    C3 7327   0.616   1.353   9.961  0.1188 -0.0647  0.0636
  493TMC3    C4 7328   0.614   1.095  10.042 -0.4271 -0.3561  0.3116
  493TMC3    C5 7329   0.544   1.137   9.931 -0.0991 -0.0876 -0.2480
  493TMC3    C6 7330   0.528   1.267   9.902 -0.7581 -0.3165  0.4179
  493TMC3     C 7331   0.783   1.141  10.208  0.6524 -0.5776  0.1271
  493TMC3     O 7332   0.732   1.047  10.266 -0.1946  0.2659  0.1252
  493TMC3     H 7333   0.762   1.380  10.098 -2.2186 -0.8954  3.6028
  493TMC3    H1 7334   0.613   0.995  10.085 -1.1690 -1.1174 -1.4865
  493TMC3    H2 7335   0.455   1.290   9.825 -0.0235 -1.2161 -0.5241
  493TMC3    C7 7336   0.456   1.044   9.865  0.5106  0.3031  0.3473
  493TMC3    C8 7337   0.640   1.487   9.908 -0.8454  0.0495 -0.4186
  493TMC3    O1 7338   0.358   1.102   9.821 -0.2411 -0.2933  0.1003
  493TMC3    O2 7339   0.732   1.552   9.956  0.4157 -0.1581 -0.3783
  494TMC3    C1 7340   1.116   3.037   0.912 -0.0971 -0.3651  0.0756
  494TMC3    C2 7341   1.087   2.907   0.888 -0.3406  0.3116 -0.2880
  494TMC3    C3 7342   1.145   2.843   0.775  0.0939 -0.3437  0.6011
  494TMC3    C4 7343   1.195   3.113   0.833  0.4979  0.4169  0.6319
  494TMC3    C5 7344   1.254   3.041   0.728 -0.1788 -0.0219 -0.1197
  494TMC3    C6 7345   1.222   2.910   0.699 -0.1512 -0.3068 -0.7516
  494TMC3     C 7346   1.097   3.090   1.041  0.8388 -0.0635 -0.2517
  494TMC3     O 7347   0.992   3.054   1.098 -0.3095  0.3777  0.0720
  494TMC3     H 7348   1.017   2.856   0.953 -0.6918 -0.5307 -1.3238
  494TMC3    H1 7349   1.204   3.218   0.855 -0.7609  0.0171  3.0676
  494TMC3    H2 7350   1.259   2.869   0.606 -0.7413 -0.2122 -1.0309
  494TMC3    C7 7351   1.338   3.109   0.633 -0.2711 -0.6378  0.1453
  494TMC3    C8 7352   1.192   2.715   0.818  0.3084 -0.0069 -0.3709
  494TMC3    O1 7353   1.358   3.051   0.529 -0.1762  0.6068 -0.5083
  494TMC3    O2 7354   1.176   2.688   0.937 -0.4010  0.0693  0.5162
  495TMC3    C1 7355   4.505   0.751  14.998 -0.3944 -0.3503 -0.0115
  495TMC3    C2 7356   4.447   0.790  14.880 -0.8053  0.4572  0.0872
  495TMC3    C3 7357   4.310   0.771  14.877 -0.6387 -0.1995  0.1895
  495TMC3    C4 7358   4.440   0.720  15.112 -0.6002  0.4779  0.1529
  495TMC3    C5 7359   4.303   0.729  15.117  0.3528  0.5264  0.6891
  495TMC3    C6 7360   4.235   0.742  14.993 -0.3666  0.4992  0.7045
  495TMC3     C 7361   4.621   0.665  14.977  0.2260  0.5636  0.0521
  495TMC3     O 7362   4.623   0.621  14.860 -0.2766 -0.6061 -0.4309
  495TMC3     H 7363   4.502   0.808  14.788  0.8729  3.9774  1.7891
  495TMC3    H1 7364   4.485   0.681  15.202 -0.1163 -2.5288 -1.4052
  495TMC3    H2 7365   4.132   0.710  14.980 -0.0795 -0.3474  0.5422
  495TMC3    C7 7366   4.247   0.654  15.226  0.9161 -0.1237 -0.4610
  495TMC3    C8 7367   4.274   0.660  14.788 -0.1439  0.1252  0.2895
  495TMC3    O1 7368   4.307   0.658  15.335 -0.2254 -0.0300 -0.0607
  495TMC3    O2 7369   4.154   0.650  14.756  1.0772 -0.4404  0.0565
  496MPD2     C 7370   1.383   0.074  15.252 -0.2230 -0.5949  0.2637
  496MPD2    C1 7371   1.514   0.058  15.302 -0.1238 -0.5280 -0.4072
  496MPD2    C2 7372   1.522   0.028  15.439 -0.3685 -0.4379 -0.6505
  496MPD2    C3 7373   1.410   0.029  15.525  0.3211 -0.0710  0.1199
  496MPD2    C4 7374   1.285   0.057  15.472 -0.0185 -0.3302 -0.5073
  496MPD2    C5 7375   1.274   0.073  15.336  0.4565 -0.0001 -0.0312
  496MPD2     H 7376   1.617   4.718  15.480 -0.4033  2.2682  1.5058
  496MPD2    H1 7377   1.194   0.064  15.529  0.2104  0.2772 -0.2187
  496MPD2    H2 7378   1.350   0.091  15.150 -0.7469  0.4249  0.5993
  496MPD2    H3 7379   1.176   0.092  15.293  0.8769 -0.5112 -1.2355
  496MPD2     N 7380   1.409   4.705  15.654  0.3402 -0.1002 -0.1084
  496MPD2    H5 7381   1.325   4.664  15.691  0.7534  1.3678  2.5038
  496MPD2    N1 7382   1.627   0.060  15.214  0.1866  0.1392 -0.4385
  496MPD2    H7 7383   1.599   0.086  15.120  1.0142  0.0136 -0.7181
  497TMC3    C1 7384   1.516   4.621  15.838 -0.8808  0.7249 -0.0160
  497TMC3    C2 7385   1.404   4.544  15.858 -0.6368  0.0099  0.5264
  497TMC3    C3 7386   1.413   4.443  15.944  0.4328 -0.1098  0.1722
  497TMC3    C4 7387   1.641   4.584  15.890 -0.1889 -0.2610 -0.2564
  497TMC3    C5 7388   1.641   4.467  15.963 -0.1026  0.4479 -0.2085
  497TMC3    C6 7389   1.529   4.401  15.998  0.1383 -0.3644 -0.1813
  497TMC3     C 7390   1.521   4.714  15.726 -0.1989 -0.2385 -0.3917
  497TMC3     O 7391   1.632   0.043  15.700  0.6975 -0.1147 -0.2399
  497TMC3     H 7392   1.308   4.556  15.810  1.0854  0.3537 -2.9091
  497TMC3    H1 7393   1.731   4.641  15.870 -0.9394  0.3479 -1.9498
  497TMC3    H2 7394   1.533   4.306  16.050 -0.6331  0.0128  0.5875
  497TMC3    C7 7395   1.769   4.406  16.003  0.3036  0.0013  0.0081
  497TMC3    C8 7396   1.305   4.346  15.937  0.7091  0.7925 -0.0282
  497TMC3    O1 7397   1.763   4.314  16.083 -0.1517 -0.1647  0.1068
  497TMC3    O2 7398   1.197   4.378  15.891  0.1804  0.1341 -0.0220
  498MPD2     C 7399   1.887   0.775   9.660 -0.4011 -0.1086 -0.4615
  498MPD2    C1 7400   1.993   0.736   9.738 -0.5020  0.0053  0.5765
  498MPD2    C2 7401   1.975   0.637   9.832 -0.3635 -0.5347  0.0315
  498MPD2    C3 7402   1.860   0.566   9.840 -0.1983  0.1146 -0.4690
  498MPD2    C4 7403   1.754   0.603   9.762  0.1822 -0.0708  0.2914
  498MPD2    C5 7404   1.772   0.711   9.673 -0.4571 -0.0824 -0.1229
  498MPD2     H 7405   2.051   0.623   9.908 -0.2025 -0.0330 -0.0354
  498MPD2    H1 7406   1.653   0.565   9.774  0.3208 -0.7230 -0.5807
  498MPD2    H2 7407   1.892   0.851   9.582 -1.3340 -0.4079 -0.8125
  498MPD2    H3 7408   1.686   0.746   9.616 -0.0310  1.6859  0.3464
  498MPD2     N 7409   1.858   0.441   9.915  0.6888  0.0677 -0.4649
  498MPD2    H5 7410   1.931   0.414   9.981 -1.0201  1.4050  1.9707
  498MPD2    N1 7411   2.124   0.785   9.723 -0.2977  0.2988 -0.6997
  498MPD2    H7 7412   2.184   0.738   9.790 -0.9561 -1.0062 -1.0348
  499TMC3    C1 7413   2.315   0.903   9.655  0.1801  0.5330 -0.4265
  499TMC3    C2 7414   2.380   0.786   9.691 -0.1185  0.3204  0.4741
  499TMC3    C3 7415   2.509   0.799   9.716  0.4295  0.2628  0.5446
  499TMC3    C4 7416   2.353   1.036   9.672 -0.2058  0.0429 -0.2052
  499TMC3    C5 7417   2.482   1.041   9.727  0.4548 -0.0712 -0.3062
  499TMC3    C6 7418   2.560   0.926   9.743  0.0668 -0.0416 -0.2172
  499TMC3     C 7419   2.171   0.881   9.638 -0.1733 -0.6028  0.3698
  499TMC3     O 7420   2.119   0.968   9.572 -0.4635 -0.0366  0.2186
  499TMC3     H 7421   2.342   0.687   9.671  1.7793 -0.2771 -0.1548
  499TMC3    H1 7422   2.298   1.121   9.634 -0.6974  0.0816  0.5920
  499TMC3    H2 7423   2.654   0.931   9.796  0.7173 -4.0039 -1.0147
  499TMC3    C7 7424   2.555   1.167   9.701 -0.2048  0.4184  0.0777
  499TMC3    C8 7425   2.571   0.682   9.787  0.1572  0.3422  0.0227
  499TMC3    O1 7426   2.497   1.261   9.650 -0.2887 -0.2514 -0.2635
  499TMC3    O2 7427   2.616   0.703   9.900  0.0153 -0.5519  0.5738
  500MPD2     C 7428   4.366   2.101  10.068  0.4191  0.4046  0.5558
  500MPD2    C1 7429   4.355   2.239  10.071 -0.4244  0.0825 -0.8333
  500MPD2    C2 7430   4.226   2.292  10.081 -0.4300  0.5628  0.5943
  500MPD2    C3 7431   4.113   2.202  10.099  0.4663  0.3955  0.6738
  500MPD2    C4 7432   4.128   2.061  10.101  0.0882 -0.3729  0.3340
  500MPD2    C5 7433   4.259   2.016  10.082  0.2904  0.4994 -0.0835
  500MPD2     H 7434   4.217   2.400  10.088  0.0398  0.6733 -0.6443
  500MPD2    H1 7435   4.043   1.995  10.109  1.1710 -1.4073  3.4056
  500MPD2    H2 7436   4.464   2.057  10.059  0.2382 -0.4023  2.4141
  500MPD2    H3 7437   4.274   1.908  10.085  0.0497  0.4448 -0.7819
  500MPD2     N 7438   3.983   2.248  10.109  0.2650  0.1254 -0.1265
  500MPD2    H5 7439   3.912   2.175  10.111  0.4547 -0.0831 -0.8107
  500MPD2    N1 7440   4.465   2.326  10.062 -0.0792 -0.3181  0.2416
  500MPD2    H7 7441   4.452   2.425  10.041 -1.4596 -0.6913 -0.6562
  501TMC3    C1 7442   4.690   2.402  10.118  0.6830 -0.2135 -1.1693
  501TMC3    C2 7443   4.634   2.524  10.133 -0.1162  0.0055 -0.0128
  501TMC3    C3 7444   4.700   2.613  10.213 -0.2282  0.6217 -0.2166
  501TMC3    C4 7445   0.082   2.362  10.185 -0.8172 -1.1193  0.6968
  501TMC3    C5 7446   0.143   2.451  10.270  0.7757  0.4655  0.8226
  501TMC3    C6 7447   0.083   2.570  10.293  0.0901  1.1284 -0.0512
  501TMC3     C 7448   4.595   2.289  10.096 -0.0120  0.4431  0.0083
  501TMC3     O 7449   4.640   2.179  10.118  0.1565  0.3918 -0.3876
  501TMC3     H 7450   4.547   2.556  10.076  0.0766  0.2103 -0.1937
  501TMC3    H1 7451   0.117   2.260  10.171 -0.3667 -0.9857  0.8238
  501TMC3    H2 7452   0.121   2.635  10.371  1.9942  0.7380 -0.6626
  501TMC3    C7 7453   0.276   2.424  10.326  0.0664  0.6025 -0.9058
  501TMC3    C8 7454   4.630   2.726  10.268 -0.2948  0.3538  0.1596
  501TMC3    O1 7455   0.300   2.304  10.330  0.0323 -0.5716  0.1959
  501TMC3    O2 7456   4.654   2.755  10.384 -0.1762  0.0946 -0.0833
  502TMC3    C1 7457   4.032   1.305  15.320 -0.3828  0.3957  0.0992
  502TMC3    C2 7458   4.031   1.425  15.249  0.8169 -0.5061  0.6694
  502TMC3    C3 7459   3.929   1.450  15.153  0.3500  0.2174  0.6126
  502TMC3    C4 7460   3.931   1.211  15.301  0.7223 -0.2441 -0.3085
  502TMC3    C5 7461   3.838   1.242  15.204  0.6131  0.0508  0.0613
  502TMC3    C6 7462   3.833   1.360  15.135 -0.9228  0.0324 -0.1809
  502TMC3     C 7463   4.107   1.311  15.447  0.0245 -0.3423 -0.6377
  502TMC3     O 7464   4.179   1.409  15.461 -0.2362 -0.2600  0.4226
  502TMC3     H 7465   4.109   1.499  15.258 -0.5620  0.8877  1.0791
  502TMC3    H1 7466   3.922   1.116  15.352  0.2194  0.4499  0.8911
  502TMC3    H2 7467   3.768   1.370  15.049 -0.7245  2.4284 -0.0412
  502TMC3    C7 7468   3.755   1.133  15.169 -0.3828 -0.6993 -0.2374
  502TMC3    C8 7469   3.923   1.576  15.089 -0.9523  0.7623 -1.2436
  502TMC3    O1 7470   3.806   1.023  15.183  0.8602  0.2240  0.0684
  502TMC3    O2 7471   4.031   1.637  15.086 -0.1777  0.7032  0.0407
  503MPD2     C 7472   1.193   1.918  17.144 -0.1518  0.2230 -0.0303
  503MPD2    C1 7473   1.245   1.971  17.263  0.0530 -0.2295  0.6581
  503MPD2    C2 7474   1.332   1.894  17.338  0.3398  0.7624  0.1232
  503MPD2    C3 7475   1.359   1.759  17.302  0.3312 -0.7026 -1.0453
  503MPD2    C4 7476   1.308   1.710  17.185  0.0563 -0.3454 -0.4145
  503MPD2    C5 7477   1.226   1.789  17.106 -0.0154  0.1836 -0.5637
  503MPD2     H 7478   1.362   1.915  17.440  1.8220  1.9584 -0.5576
  503MPD2    H1 7479   1.325   1.606  17.159  2.0576  0.3370 -1.8663
  503MPD2    H2 7480   1.138   1.984  17.078  0.7128  1.2043  0.2376
  503MPD2    H3 7481   1.199   1.736  17.016 -1.0800  1.1281 -0.8022
  503MPD2     N 7482   1.464   1.694  17.379 -0.0786  0.2542 -0.0253
  503MPD2    H5 7483   1.490   1.742  17.465 -1.7346  0.4302  0.3870
  503MPD2    N1 7484   1.233   2.105  17.303 -0.3879  0.7300 -0.3561
  503MPD2    H7 7485   1.292   2.118  17.384  1.5763  0.2160 -1.7193
  504TMC3    C1 7486   1.619   1.528  17.449  0.3886  0.1036 -0.4675
  504TMC3    C2 7487   1.646   1.599  17.563  0.5133 -0.4386 -0.0506
  504TMC3    C3 7488   1.725   1.538  17.652  0.2230 -0.4233  0.7436
  504TMC3    C4 7489   1.681   1.417  17.407 -0.3889  0.2206  0.4518
  504TMC3    C5 7490   1.779   1.372  17.487 -0.1849 -0.3088 -0.0020
  504TMC3    C6 7491   1.794   1.427  17.611 -0.2738  0.3116 -1.0942
  504TMC3     C 7492   1.518   1.568  17.359  0.5489  0.1229 -0.1051
  504TMC3     O 7493   1.480   1.489  17.276  0.7338  0.1172 -0.0835
  504TMC3     H 7494   1.592   1.688  17.592 -1.3083 -2.0610  1.5701
  504TMC3    H1 7495   1.663   1.376  17.308  0.5842 -0.2526  0.4691
  504TMC3    H2 7496   1.868   1.382  17.676 -2.1599 -0.7801  0.3253
  504TMC3    C7 7497   1.886   1.300  17.419 -0.7096 -1.1302  0.1405
  504TMC3    C8 7498   1.749   1.605   0.091 -0.1433 -0.2665  0.6026
  504TMC3    O1 7499   1.899   1.318  17.297  0.5519  0.0043 -0.1927
  504TMC3    O2 7500   1.698   1.719   0.109 -0.9313  0.0763 -0.4617
  505MPD2     C 7501   1.697   4.232  11.338  0.1971 -0.4551  0.9408
  505MPD2    C1 7502   1.730   4.280  11.210 -0.2768 -0.1899 -0.4380
  505MPD2    C2 7503   1.813   4.388  11.187  0.5386  0.0614  0.3990
  505MPD2    C3 7504   1.881   4.447  11.292 -0.2691 -0.3056 -0.1539
  505MPD2    C4 7505   1.857   4.393  11.416 -0.5598  0.4250  0.2968
  505MPD2    C5 7506   1.771   4.290  11.434  0.2098  0.0806  0.0387
  505MPD2     H 7507   1.833   4.408  11.083 -0.1103  1.6804  0.5884
  505MPD2    H1 7508   1.908   4.432  11.503  0.3153  1.9348 -0.9037
  505MPD2    H2 7509   1.640   4.141  11.352 -2.4954  0.6787 -2.8568
  505MPD2    H3 7510   1.759   4.245  11.532  1.9992 -0.9179 -0.2114
  505MPD2     N 7511   1.991   4.538  11.277 -0.4954 -0.1381 -0.8912
  505MPD2    H5 7512   2.067   4.540  11.345 -1.2652 -2.4911  0.0461
  505MPD2    N1 7513   1.673   4.202  11.105 -0.0329 -0.9535  0.1086
  505MPD2    H7 7514   1.626   4.115  11.127  0.4006 -1.5924 -1.4685
  506TMC3    C1 7515   1.639   4.105  10.889 -0.4079 -0.3316 -0.3948
  506TMC3    C2 7516   1.593   4.119  10.759  0.0766 -0.3763 -0.5800
  506TMC3    C3 7517   1.616   4.020  10.665  0.4574  0.6518 -0.3062
  506TMC3    C4 7518   1.687   3.985  10.920 -0.5712  0.3266  0.1427
  506TMC3    C5 7519   1.715   3.889  10.827  0.2801  0.2601  0.6900
  506TMC3    C6 7520   1.673   3.902  10.698 -0.3140  0.4114 -0.2530
  506TMC3     C 7521   1.680   4.224  10.968 -0.1551  0.3901 -0.7227
  506TMC3     O 7522   1.722   4.315  10.900 -0.6644  0.3012  0.0706
  506TMC3     H 7523   1.551   4.214  10.726 -0.1518 -0.4246 -0.4225
  506TMC3    H1 7524   1.725   3.964  11.019 -1.6907  1.1831  0.7502
  506TMC3    H2 7525   1.713   3.839  10.619 -0.7298 -1.0565  0.6993
  506TMC3    C7 7526   1.855   3.853  10.821 -0.1759 -0.4998  0.7417
  506TMC3    C8 7527   1.572   4.046  10.527  0.2945 -0.5278 -0.0689
  506TMC3    O1 7528   1.891   3.763  10.748 -0.2273  0.4652 -0.4423
  506TMC3    O2 7529   1.524   3.954  10.462 -0.0582 -0.0991 -0.0970
  507TMC3    C1 7530   2.550   1.423  14.746 -0.0642  1.4037 -1.0266
  507TMC3    C2 7531   2.555   1.327  14.649 -0.4950  0.1414  0.4744
  507TMC3    C3 7532   2.581   1.378  14.529 -0.6356  0.1406  0.6456
  507TMC3    C4 7533   2.606   1.548  14.733 -0.6919 -0.1919  1.0793
  507TMC3    C5 7534   2.639   1.586  14.606  0.1949  0.6290  0.0229
  507TMC3    C6 7535   2.621   1.499  14.503  0.1940 -0.2166  0.5573
  507TMC3     C 7536   2.436   1.412  14.837 -0.0376 -1.0398  0.0564
  507TMC3     O 7537   2.429   1.481  14.933 -0.2117  0.5581 -0.5079
  507TMC3     H 7538   2.538   1.220  14.653  0.0642 -0.0021 -1.2710
  507TMC3    H1 7539   2.592   1.616  14.816 -3.9723  2.5124 -1.7045
  507TMC3    H2 7540   2.649   1.521  14.401 -1.1873 -0.6138  0.0948
  507TMC3    C7 7541   2.582   1.714  14.576  0.0497 -0.8493  0.0991
  507TMC3    C8 7542   2.465   1.357  14.446  0.5637 -0.5208  0.9586
  507TMC3    O1 7543   2.532   1.725  14.463  0.0470  0.0862  0.2325
  507TMC3    O2 7544   2.415   1.248  14.465 -0.1084  0.2855  0.6072
  508MPD2     C 7545   3.641   3.350  15.324  0.2897  0.3588  0.2779
  508MPD2    C1 7546   3.613   3.453  15.405  0.3098 -0.6788  0.2072
  508MPD2    C2 7547   3.602   3.582  15.359 -1.2699  0.0736 -0.0274
  508MPD2    C3 7548   3.636   3.612  15.221  0.5750  0.2072  0.0093
  508MPD2    C4 7549   3.662   3.506  15.137 -0.1756  0.2000 -0.1168
  508MPD2    C5 7550   3.659   3.376  15.186 -0.0900  0.1725 -0.0033
  508MPD2     H 7551   3.582   3.659  15.433 -0.5762  0.0102  0.2272
  508MPD2    H1 7552   3.703   3.514  15.037 -1.0873 -0.1132 -0.5163
  508MPD2    H2 7553   3.650   3.248  15.361  1.8028  0.3730 -0.0779
  508MPD2    H3 7554   3.692   3.290  15.129  1.6483  1.6633 -1.2219
  508MPD2     N 7555   3.645   3.747  15.180 -0.0073  0.6314 -0.2724
  508MPD2    H5 7556   3.639   3.818  15.253  0.7795  1.4441 -1.0021
  508MPD2    N1 7557   3.602   3.425  15.545 -0.5081 -0.0304 -0.0962
  508MPD2    H7 7558   3.634   3.337  15.584 -3.5533 -0.5306  1.2340
  509TMC3    C1 7559   3.471   4.104  15.035 -0.5957 -0.2491 -0.8308
  509TMC3    C2 7560   3.516   4.161  15.153  0.1792 -0.1805 -0.4559
  509TMC3    C3 7561   3.633   4.107  15.202  0.7861 -0.2692  0.2093
  509TMC3    C4 7562   3.524   3.993  14.980  0.6646  0.3503  0.2471
  509TMC3    C5 7563   3.640   3.938  15.035  0.0320 -0.0699 -1.0028
  509TMC3    C6 7564   3.699   4.000  15.144  0.1693 -0.1377  0.4392
  509TMC3     C 7565   3.357   4.170  14.977 -0.2933 -0.3151  0.3629
  509TMC3     O 7566   3.319   4.114  14.875  0.7567 -0.4218 -0.0699
  509TMC3     H 7567   3.462   4.235  15.211 -0.3322 -0.7490 -0.2084
  509TMC3    H1 7568   3.475   3.932  14.905  0.6876  2.6516 -1.6360
  509TMC3    H2 7569   3.795   3.959  15.174  0.1451 -1.1440 -0.8395
  509TMC3    C7 7570   3.639   3.792  15.046 -0.4603  0.2027  0.8953
  509TMC3    C8 7571   3.677   4.134  15.340 -0.0407  0.1585 -0.3687
  509TMC3    O1 7572   3.633   3.725  14.943 -0.0978 -0.2307  0.0522
  509TMC3    O2 7573   3.761   4.053  15.374  0.9296 -0.2377 -0.2381
  510MPD2     C 7574   1.165   0.689  14.882  0.4325  0.5325  0.4908
  510MPD2    C1 7575   1.179   0.557  14.918 -0.5111 -0.7216  0.3646
  510MPD2    C2 7576   1.286   0.490  14.863  0.2904  1.1802  0.7166
  510MPD2    C3 7577   1.370   0.550  14.772  0.2784  0.3578 -0.3602
  510MPD2    C4 7578   1.362   0.684  14.746  0.7161  0.9657  1.0808
  510MPD2    C5 7579   1.264   0.751  14.806 -0.2176 -0.3278  0.1097
  510MPD2     H 7580   1.303   0.390  14.902 -0.9142  0.8547  0.4129
  510MPD2    H1 7581   1.424   0.734  14.673  3.1646 -3.1361  0.4084
  510MPD2    H2 7582   1.084   0.747  14.926 -0.0865 -0.3121  0.6491
  510MPD2    H3 7583   1.253   0.858  14.795 -2.7099 -0.5826  0.0935
  510MPD2     N 7584   1.466   0.466  14.713 -0.0070  0.0317 -0.3918
  510MPD2    H5 7585   1.448   0.369  14.739 -0.1390  0.0963 -0.2468
  510MPD2    N1 7586   1.092   0.509  15.020  0.7739 -0.0240  1.1233
  510MPD2    H7 7587   1.023   0.577  15.048 -0.1010 -0.4893  0.0844
  511TMC3    C1 7588   0.974   0.351  15.157  0.0295 -0.0497 -0.3649
  511TMC3    C2 7589   0.900   0.453  15.217 -0.0195 -0.2750 -0.5226
  511TMC3    C3 7590   0.789   0.415  15.283 -0.3024 -0.6345  0.3174
  511TMC3    C4 7591   0.941   0.217  15.169  0.7533 -0.4526 -0.4767
  511TMC3    C5 7592   0.827   0.186  15.237  0.2185  0.0370  0.2564
  511TMC3    C6 7593   0.746   0.288  15.291  0.0044 -0.6955 -1.1518
  511TMC3     C 7594   1.085   0.383  15.073 -0.5811 -0.5658 -0.9690
  511TMC3     O 7595   1.145   0.289  15.032  0.3749 -0.2223 -0.7903
  511TMC3     H 7596   0.924   0.558  15.209  0.1714 -0.2404  0.5268
  511TMC3    H1 7597   0.998   0.134  15.129  0.3909 -0.4310 -1.0321
  511TMC3    H2 7598   0.654   0.261  15.341  0.5580  3.5441  2.1083
  511TMC3    C7 7599   0.774   0.055  15.234 -0.3505  0.7992 -0.8938
  511TMC3    C8 7600   0.715   0.519  15.353 -0.8027 -0.2582  0.1381
  511TMC3    O1 7601   0.825   4.708  15.149 -0.3451 -0.2367  0.2357
  511TMC3    O2 7602   0.775   0.610  15.413 -0.2915 -0.4830  0.2645
  512TMC3    C1 7603   4.686   4.471  13.574  0.1280 -0.3740  0.2343
  512TMC3    C2 7604   0.078   4.403  13.581  0.0996  0.1120 -0.6174
  512TMC3    C3 7605   0.078   4.271  13.559 -0.1918  0.4637  0.6950
  512TMC3    C4 7606   4.572   4.410  13.526  0.5666 -0.0814  0.3871
  512TMC3    C5 7607   4.573   4.275  13.506  0.0970  0.1909  0.1446
  512TMC3    C6 7608   4.693   4.206  13.502  0.0612 -0.5881  0.2599
  512TMC3     C 7609   4.689   4.616  13.564  0.0147 -0.1830 -0.0884
  512TMC3     O 7610   4.588   4.669  13.520  0.2111 -0.2376 -0.0139
  512TMC3     H 7611   0.158   4.445  13.642  0.5916  1.4703 -2.2046
  512TMC3    H1 7612   4.480   4.467  13.529  0.1253 -0.7511 -0.5076
  512TMC3    H2 7613   4.700   4.102  13.472 -0.9056 -0.3095 -0.9239
  512TMC3    C7 7614   4.465   4.234  13.413  0.6663 -0.3459  0.2506
  512TMC3    C8 7615   0.200   4.189  13.572  0.1687 -0.4052 -0.9548
  512TMC3    O1 7616   4.404   4.328  13.371  0.0601  0.1927 -0.1664
  512TMC3    O2 7617   0.198   4.081  13.523 -0.0444 -0.4122  0.3256
  513MPD2     C 7618   1.971   0.217  13.523 -0.4180  0.3085  0.4703
  513MPD2    C1 7619   1.983   0.090  13.472 -0.0008  0.0744  0.0438
  513MPD2    C2 7620   2.111   0.036  13.474  0.5549 -0.2109  0.2761
  513MPD2    C3 7621   2.217   0.097  13.535  0.1600  1.0549 -1.4417
  513MPD2    C4 7622   2.197   0.211  13.619  0.3748  0.6158  0.1667
  513MPD2    C5 7623   2.072   0.270  13.602  0.9499 -0.1643  0.1429
  513MPD2     H 7624   2.130   4.666  13.418  0.9159 -0.7064  1.2089
  513MPD2    H1 7625   2.277   0.259  13.674  0.7494  1.5912 -1.2193
  513MPD2    H2 7626   1.880   0.270  13.494 -0.4630 -0.6593 -1.1263
  513MPD2    H3 7627   2.050   0.363  13.654 -1.1368 -1.8738  2.3045
  513MPD2     N 7628   2.338   0.025  13.530 -0.8932 -0.0722 -0.1619
  513MPD2    H5 7629   2.348   4.674  13.459 -2.8224  0.3195 -0.8181
  513MPD2    N1 7630   1.878   0.022  13.402  0.2942 -0.5110 -0.2296
  513MPD2    H7 7631   1.792   0.071  13.384 -0.1192 -0.9247  0.5914
  514TMC3    C1 7632   1.771   4.555  13.289 -0.4662 -0.8244  0.0822
  514TMC3    C2 7633   1.743   4.611  13.166 -0.2883  0.1209 -0.3347
  514TMC3    C3 7634   1.699   4.523  13.070 -0.4139 -0.5523 -0.2861
  514TMC3    C4 7635   1.766   4.419  13.306  1.0028  0.6774  0.2228
  514TMC3    C5 7636   1.741   4.334  13.201  0.4488 -0.6276 -0.2106
  514TMC3    C6 7637   1.701   4.385  13.082  0.1845  0.0565  0.0817
  514TMC3     C 7638   1.877   4.608  13.368 -0.0366  0.8461 -0.6138
  514TMC3     O 7639   1.963   4.524  13.390 -0.4710 -0.1625  0.4740
  514TMC3     H 7640   1.740   4.718  13.154  0.1078  0.3325  1.3880
  514TMC3    H1 7641   1.781   4.369  13.401 -0.9460  1.1554  0.7839
  514TMC3    H2 7642   1.701   4.330  12.989  1.0151  0.9199 -0.4270
  514TMC3    C7 7643   1.854   4.242  13.181 -0.0445  0.6354 -0.0521
  514TMC3    C8 7644   1.723   4.564  12.935 -0.3544 -0.4973 -0.3283
  514TMC3    O1 7645   1.842   4.168  13.085  0.0423  0.0515  0.2703
  514TMC3    O2 7646   1.641   4.520  12.852  0.1626 -0.2128  0.5625
  515MPD2     C 7647   0.219   1.729  14.617  0.1813  0.6731  0.5607
  515MPD2    C1 7648   0.117   1.672  14.687  0.1850  0.8388  0.4292
  515MPD2    C2 7649   0.133   1.642  14.820  0.5109  0.3838  0.3755
  515MPD2    C3 7650   0.248   1.683  14.889  0.7502  0.2499  0.0503
  515MPD2    C4 7651   0.344   1.759  14.822 -0.0210 -0.1179  0.5055
  515MPD2    C5 7652   0.327   1.781  14.687  0.7164  0.0292  0.0737
  515MPD2     H 7653   0.070   1.575  14.876  0.5673  1.1381  1.3634
  515MPD2    H1 7654   0.438   1.795  14.864 -1.5785 -0.2057  4.0349
  515MPD2    H2 7655   0.210   1.749  14.510 -0.0079  1.0318  0.6459
  515MPD2    H3 7656   0.405   1.837  14.638  3.0905 -2.5807  0.8854
  515MPD2     N 7657   0.264   1.632  15.023  0.4533  0.4220  0.1405
  515MPD2    H5 7658   0.188   1.583  15.069 -2.0540  2.9615 -1.2936
  515MPD2    N1 7659   4.716   1.627  14.627 -0.4567  0.3677  0.2551
  515MPD2    H7 7660   4.666   1.563  14.688  1.2560 -0.8615  0.3773
  516TMC3    C1 7661   4.568   1.544  14.478 -0.2630  0.5363  0.3526
  516TMC3    C2 7662   4.488   1.571  14.374  0.2372 -0.2642 -0.0666
  516TMC3    C3 7663   4.382   1.479  14.333 -0.0968  0.0437  0.3044
  516TMC3    C4 7664   4.555   1.432  14.551  0.6491 -0.1053  0.4218
  516TMC3    C5 7665   4.449   1.350  14.516 -0.7069  0.1058 -0.3837
  516TMC3    C6 7666   4.366   1.373  14.413  0.1713 -0.6249  0.3111
  516TMC3     C 7667   4.679   1.633  14.498 -0.1953  0.2072  0.0717
  516TMC3     O 7668   4.716   1.698  14.402 -0.4028 -0.7266  0.1848
  516TMC3     H 7669   4.488   1.669  14.328  0.5223 -0.1970  0.0781
  516TMC3    H1 7670   4.620   1.404  14.632 -0.4082 -1.9209  0.6572
  516TMC3    H2 7671   4.291   1.300  14.385 -0.9223  0.0232  1.5610
  516TMC3    C7 7672   4.418   1.252  14.611 -0.4765  0.1658  0.4935
  516TMC3    C8 7673   4.265   1.543  14.269  0.2716  0.0730  0.3254
  516TMC3    O1 7674   4.509   1.200  14.676  0.0010  0.2834  0.4420
  516TMC3    O2 7675   4.152   1.491  14.272  0.5243 -0.1577 -0.5866
  517MPD2     C 7676   0.162   3.114  17.087  0.2602 -0.0647 -0.1595
  517MPD2    C1 7677   0.179   3.032  17.196  0.5657 -0.6659  0.2318
  517MPD2    C2 7678   0.130   3.065  17.318 -0.3756 -0.0260 -0.1105
  517MPD2    C3 7679   0.057   3.178  17.342 -0.4360  0.0490 -0.1027
  517MPD2    C4 7680   0.036   3.252  17.235 -0.5517 -0.8496  0.1329
  517MPD2    C5 7681   0.091   3.228  17.118 -0.0695  0.8121  0.1509
  517MPD2     H 7682   0.153   2.990  17.393 -0.8471 -1.7531 -1.6903
  517MPD2    H1 7683   4.696   3.342  17.244 -1.1226 -1.1687 -0.5816
  517MPD2    H2 7684   0.207   3.093  16.991  0.7335  0.7033 -0.1004
  517MPD2    H3 7685   0.083   3.297  17.035 -0.0222  2.1591  1.2822
  517MPD2     N 7686   0.008   3.211  17.468 -0.0311  0.3655  0.6584
  517MPD2    H5 7687   4.663   3.287  17.458 -2.8193 -1.9861  1.2996
  517MPD2    N1 7688   0.250   2.905  17.183  0.1314  0.5803 -0.1787
  517MPD2    H7 7689   0.254   2.854  17.270  1.5738  1.2309  0.1466
  518TMC3    C1 7690   0.406   2.747  17.119 -0.0589  0.2470 -0.3903
  518TMC3    C2 7691   0.405   2.631  17.052 -0.8299 -0.3261 -0.5711
  518TMC3    C3 7692   0.486   2.529  17.104  0.4256  0.4808 -0.4543
  518TMC3    C4 7693   0.472   2.772  17.236 -0.2799 -0.3700 -0.0824
  518TMC3    C5 7694   0.526   2.664  17.298 -0.3250 -0.0725  0.2860
  518TMC3    C6 7695   0.543   2.547  17.226  0.2855 -1.0282  0.1087
  518TMC3     C 7696   0.326   2.856  17.080  0.2835  0.1567  0.4867
  518TMC3     O 7697   0.323   2.885  16.959  0.4444  0.2462  0.0423
  518TMC3     H 7698   0.327   2.623  16.976 -1.0732  0.2579 -0.3874
  518TMC3    H1 7699   0.450   2.865  17.287 -0.7544  0.4753 -1.8354
  518TMC3    H2 7700   0.580   2.455  17.271 -1.4053 -2.1973 -0.8926
  518TMC3    C7 7701   0.599   2.681  17.422  0.2566  0.1930 -0.2535
  518TMC3    C8 7702   0.435   2.395  17.081 -0.2543 -0.0990 -0.2029
  518TMC3    O1 7703   0.605   2.796  17.459  0.3515 -0.6115  0.1634
  518TMC3    O2 7704   0.411   2.330  17.185 -0.4862  0.2431 -0.0903
  519MPD2     C 7705   1.570   1.364  14.378  0.4141 -0.3398  0.3493
  519MPD2    C1 7706   1.497   1.407  14.271  0.6307 -0.8876 -0.9399
  519MPD2    C2 7707   1.534   1.372  14.141  0.9122  0.3051  0.3506
  519MPD2    C3 7708   1.657   1.303  14.130 -0.0739  0.1037 -0.3911
  519MPD2    C4 7709   1.728   1.271  14.245  0.1528  0.3798  1.1537
  519MPD2    C5 7710   1.691   1.295  14.372  0.6621  0.3156 -0.1372
  519MPD2     H 7711   1.466   1.397  14.061  0.0486 -0.2768  0.8895
  519MPD2    H1 7712   1.820   1.214  14.234 -0.7459 -1.3199  2.4788
  519MPD2    H2 7713   1.532   1.403  14.472 -0.9385  0.9746 -0.7427
  519MPD2    H3 7714   1.739   1.259  14.462 -0.1757 -0.1972  0.1014
  519MPD2     N 7715   1.718   1.261  14.018 -0.2202 -0.5386  0.5844
  519MPD2    H5 7716   1.795   1.196  14.028  0.3852  0.0895  0.0018
  519MPD2    N1 7717   1.378   1.472  14.314 -0.0681  0.1718  0.2683
  519MPD2    H7 7718   1.359   1.463  14.413 -0.0908 -0.7053  0.1819
  520TMC3    C1 7719   1.769   1.227  13.787  0.4379 -0.4005 -0.2998
  520TMC3    C2 7720   1.714   1.208  13.665  0.1521  0.2117  0.4267
  520TMC3    C3 7721   1.777   1.127  13.576 -0.4553  0.6355 -0.2153
  520TMC3    C4 7722   1.885   1.162  13.822 -0.3790  0.6996  0.0373
  520TMC3    C5 7723   1.934   1.072  13.735  1.4616 -0.3093 -0.6524
  520TMC3    C6 7724   1.878   1.051  13.611  0.0026  0.6419 -0.4440
  520TMC3     C 7725   1.689   1.294  13.891 -0.4580 -0.4256  0.5088
  520TMC3     O 7726   1.593   1.365  13.858 -0.4361 -0.2429  0.2203
  520TMC3     H 7727   1.624   1.259  13.631 -1.3044 -1.1939  2.2047
  520TMC3    H1 7728   1.934   1.167  13.918 -0.3387 -1.7994  0.1556
  520TMC3    H2 7729   1.910   0.979  13.537  0.6265  0.0244  0.4143
  520TMC3    C7 7730   2.053   1.006  13.779  0.3119 -0.0916 -0.6553
  520TMC3    C8 7731   1.691   1.072  13.473  0.2644 -0.3253 -0.0571
  520TMC3    O1 7732   2.130   1.062  13.863  0.3646 -0.3348 -1.0162
  520TMC3    O2 7733   1.745   1.020  13.375  0.2072  0.9532 -0.1434
  521MPD2     C 7734   2.750   4.412  17.327  0.1046 -0.5658 -0.6584
  521MPD2    C1 7735   2.663   4.311  17.286 -0.8259 -0.4554  0.2014
  521MPD2    C2 7736   2.698   4.226  17.185 -0.6505  0.1383 -0.1425
  521MPD2    C3 7737   2.814   4.245  17.115 -0.0401 -0.2459 -0.2530
  521MPD2    C4 7738   2.898   4.354  17.145  0.0705  0.9281  0.9026
  521MPD2    C5 7739   2.860   4.434  17.249 -0.1546 -0.2042 -0.0718
  521MPD2     H 7740   2.634   4.143  17.157 -0.9318 -0.1058  1.1967
  521MPD2    H1 7741   2.994   4.373  17.097 -1.6447  0.1354 -2.8396
  521MPD2    H2 7742   2.731   4.490  17.399  2.0101 -2.6460  2.0823
  521MPD2    H3 7743   2.925   4.516  17.279 -0.0417  0.0465 -1.0086
  521MPD2     N 7744   2.840   4.151  17.013 -0.1200 -0.2175  0.5634
  521MPD2    H5 7745   2.778   4.071  17.014 -0.2430 -0.0887  2.1258
  521MPD2    N1 7746   2.530   4.318  17.339  0.6410  0.0858 -0.5502
  521MPD2    H7 7747   2.516   4.375  17.422  1.0895  1.7019 -1.5848
  522TMC3    C1 7748   2.961   4.048  16.829 -0.6739  0.0985 -0.0778
  522TMC3    C2 7749   3.080   4.041  16.759  0.4695  0.0446  0.8131
  522TMC3    C3 7750   3.093   3.938  16.660  0.0185 -0.9795 -0.0115
  522TMC3    C4 7751   2.868   3.940  16.816  0.4311 -0.5916  0.1751
  522TMC3    C5 7752   2.909   3.831  16.747 -0.3971  0.1068 -0.2962
  522TMC3    C6 7753   3.018   3.824  16.665  0.5408 -0.8290  0.5124
  522TMC3     C 7754   2.944   4.162  16.919  0.0872  0.6531  0.2408
  522TMC3     O 7755   3.022   4.258  16.906  0.4514  0.2677  0.4340
  522TMC3     H 7756   3.141   4.130  16.744 -0.5620  0.6210 -0.0139
  522TMC3    H1 7757   2.781   3.939  16.880 -0.0095  3.3992 -0.3362
  522TMC3    H2 7758   3.037   3.739  16.602  2.3796  0.9891 -1.3975
  522TMC3    C7 7759   2.820   3.718  16.726  0.0032 -0.4778 -0.2572
  522TMC3    C8 7760   3.118   3.981  16.527 -0.3603  0.4106 -0.2737
  522TMC3    O1 7761   2.861   3.611  16.677  0.1900 -0.5348 -0.4930
  522TMC3    O2 7762   3.099   4.099  16.514  0.4968 -0.0919 -0.3815
  523MPD2     C 7763   4.229   3.789  10.337 -0.4675  0.2210 -0.0609
  523MPD2    C1 7764   4.266   3.767  10.207  0.0934  0.0109 -0.2563
  523MPD2    C2 7765   4.222   3.855  10.107 -0.5859  0.4401 -0.1971
  523MPD2    C3 7766   4.154   3.965  10.137 -0.3835 -0.3354  0.0916
  523MPD2    C4 7767   4.114   3.984  10.268  0.1099  0.2685  0.0343
  523MPD2    C5 7768   4.151   3.894  10.361  0.1423 -0.5138  0.8831
  523MPD2     H 7769   4.245   3.838  10.002 -0.7816  1.0865 -0.3460
  523MPD2    H1 7770   4.049   4.066  10.296  0.9598  0.6838  0.7803
  523MPD2    H2 7771   4.247   3.714  10.413  1.3202  1.2255  0.5105
  523MPD2    H3 7772   4.117   3.908  10.463  1.0670 -0.7178  1.2204
  523MPD2     N 7773   4.123   4.067  10.048  0.7288 -0.4020 -0.2822
  523MPD2    H5 7774   4.095   4.157  10.087 -2.2693 -0.7227 -1.7565
  523MPD2    N1 7775   4.340   3.648  10.186 -0.0700 -0.4947 -0.1247
  523MPD2    H7 7776   4.349   3.579  10.260 -0.1036 -0.0082  0.3344
  524TMC3    C1 7777   4.118   4.199   9.862 -1.5589 -0.3500 -0.3792
  524TMC3    C2 7778   4.146   4.215   9.728  0.3187 -1.0230  0.6695
  524TMC3    C3 7779   4.141   4.335   9.672 -0.8814 -0.3129 -0.3463
  524TMC3    C4 7780   4.096   4.307   9.934  0.7862 -0.0584 -0.0616
  524TMC3    C5 7781   4.064   4.426   9.867  0.0266 -0.1581 -0.9177
  524TMC3    C6 7782   4.110   4.445   9.738 -0.9493  0.0986  0.1254
  524TMC3     C 7783   4.146   4.073   9.909 -0.6090 -0.1517 -0.1399
  524TMC3     O 7784   4.171   3.979   9.833  0.2001 -0.3530 -0.1804
  524TMC3     H 7785   4.191   4.132   9.674 -1.6051 -1.1799 -0.7211
  524TMC3    H1 7786   4.069   4.299  10.039  0.9030  0.0956 -0.0207
  524TMC3    H2 7787   4.077   4.528   9.676  0.7771 -0.9154 -2.1761
  524TMC3    C7 7788   4.026   4.536   9.953 -0.0302  0.2894 -0.0055
  524TMC3    C8 7789   4.181   4.342   9.533  0.5919 -0.0757 -0.5705
  524TMC3    O1 7790   3.967   4.508  10.056  0.4126 -0.0199 -0.1320
  524TMC3    O2 7791   4.267   4.262   9.486  0.3303 -0.1092 -0.0747
  525MPD2     C 7792   2.902   1.068  14.463  1.1172 -0.0161 -0.8379
  525MPD2    C1 7793   3.022   1.072  14.539  0.4472  0.5823  0.6102
  525MPD2    C2 7794   3.096   1.189  14.528 -0.0440 -0.3290 -0.3122
  525MPD2    C3 7795   3.052   1.295  14.455 -0.2270 -0.7243  0.2701
  525MPD2    C4 7796   2.941   1.285  14.388 -0.7146  0.0168  0.1427
  525MPD2    C5 7797   2.861   1.178  14.400  0.3997  0.2320  0.2038
  525MPD2     H 7798   3.187   1.185  14.587  1.2198 -0.1054 -2.2639
  525MPD2    H1 7799   2.902   1.368  14.330 -0.0674 -1.0841 -1.8495
  525MPD2    H2 7800   2.843   0.978  14.457  1.6116 -0.5020  1.4536
  525MPD2    H3 7801   2.765   1.183  14.349 -0.2221  1.6584  1.4946
  525MPD2     N 7802   3.123   1.417  14.455 -0.1700  0.3143  0.3063
  525MPD2    H5 7803   3.072   1.500  14.427 -1.3355 -0.9306 -1.2156
  525MPD2    N1 7804   3.066   0.966  14.627  0.4810  0.1678  0.3030
  525MPD2    H7 7805   3.150   0.981  14.682  0.8290 -1.2899  0.1714
  526TMC3    C1 7806   3.047   0.778  14.762  0.4913  0.8451 -0.2259
  526TMC3    C2 7807   2.954   0.741  14.858 -0.6437 -0.3471 -0.2647
  526TMC3    C3 7808   3.009   0.689  14.972  0.3255 -0.0971 -0.3874
  526TMC3    C4 7809   3.178   0.786  14.781 -0.8873  0.6414 -0.4722
  526TMC3    C5 7810   3.229   0.746  14.905  0.0725 -0.3958 -0.0300
  526TMC3    C6 7811   3.144   0.693  14.994  0.7617  0.2864  0.3908
  526TMC3     C 7812   2.987   0.852  14.651  0.2036  0.1671  0.0054
  526TMC3     O 7813   2.879   0.817  14.602  0.6314 -0.3135  0.3597
  526TMC3     H 7814   2.850   0.753  14.830 -0.8643 -0.2381  0.6168
  526TMC3    H1 7815   3.245   0.778  14.696 -1.3823  0.9522 -0.8912
  526TMC3    H2 7816   3.181   0.651  15.086 -1.0009 -0.8172  0.5983
  526TMC3    C7 7817   3.363   0.700  14.895  0.4434 -0.4837 -0.3148
  526TMC3    C8 7818   2.927   0.660  15.088  0.2985  0.0028  0.0134
  526TMC3    O1 7819   3.380   0.597  14.955  0.2893 -0.2269 -0.1458
  526TMC3    O2 7820   2.984   0.632  15.195 -0.2114 -0.5083 -0.5918
  527MPD2     C 7821   1.028   3.619   1.343 -0.3889  0.5846 -0.2170
  527MPD2    C1 7822   1.101   3.617   1.459 -0.4157  0.0393 -0.1996
  527MPD2    C2 7823   1.229   3.572   1.454 -0.1429 -0.6591 -0.5879
  527MPD2    C3 7824   1.287   3.560   1.331  0.3112 -0.8687 -0.4851
  527MPD2    C4 7825   1.223   3.585   1.211  0.9452 -1.0983  0.2380
  527MPD2    C5 7826   1.085   3.594   1.219  0.1903  0.3392  0.3594
  527MPD2     H 7827   1.289   3.572   1.545 -3.1235 -1.7369  1.3651
  527MPD2    H1 7828   1.266   3.556   1.116  2.5668 -2.9692  1.5545
  527MPD2    H2 7829   0.922   3.640   1.337 -0.2363  1.5420  0.4314
  527MPD2    H3 7830   1.031   3.601   1.125 -1.2042  0.4431  1.1615
  527MPD2     N 7831   1.424   3.524   1.338  0.0054 -0.2333 -0.7756
  527MPD2    H5 7832   1.464   3.516   1.431  0.8602 -1.2471 -1.2330
  527MPD2    N1 7833   1.047   3.642   1.583 -0.7164 -0.0902 -1.0898
  527MPD2    H7 7834   1.100   3.622   1.667 -0.6673  2.3359 -0.5436
  528TMC3    C1 7835   0.908   3.743   1.752 -0.0255  0.2576  0.5873
  528TMC3    C2 7836   1.013   3.776   1.820  1.0175  0.4870 -0.0713
  528TMC3    C3 7837   0.995   3.822   1.948 -0.3847 -0.0041 -0.3583
  528TMC3    C4 7838   0.786   3.789   1.792 -0.4481 -0.8607 -0.9147
  528TMC3    C5 7839   0.773   3.836   1.916  0.3829  0.0134  0.6202
  528TMC3    C6 7840   0.871   3.841   2.009  0.7794 -0.2075 -0.0349
  528TMC3     C 7841   0.925   3.695   1.614 -0.6371 -0.1557 -0.2377
  528TMC3     O 7842   0.844   3.746   1.535 -0.0311  0.4967  0.2494
  528TMC3     H 7843   1.112   3.753   1.782  0.7705  0.6072 -0.7829
  528TMC3    H1 7844   0.702   3.767   1.728 -1.8513  0.9274  0.3109
  528TMC3    H2 7845   0.869   3.877   2.111  0.0953 -0.5825  0.0788
  528TMC3    C7 7846   0.646   3.868   1.964 -0.5837 -0.0097  0.4043
  528TMC3    C8 7847   1.108   3.823   2.033 -0.0364 -0.0504  0.6084
  528TMC3    O1 7848   0.653   3.902   2.081 -0.1013  0.2191 -0.6424
  528TMC3    O2 7849   1.214   3.829   1.975 -0.0391 -0.0537  0.3579
  529MPD2     C 7850   4.344   1.696   0.815 -0.0934 -0.3482 -0.4397
  529MPD2    C1 7851   4.219   1.636   0.805 -0.4147 -0.1173  0.2154
  529MPD2    C2 7852   4.142   1.654   0.691  0.0516 -0.5315  0.2276
  529MPD2    C3 7853   4.187   1.744   0.598  0.6316 -0.5509 -0.1087
  529MPD2    C4 7854   4.304   1.808   0.612  0.0338 -0.2221 -0.6267
  529MPD2    C5 7855   4.380   1.782   0.720 -0.2888 -0.3102  0.2005
  529MPD2     H 7856   4.045   1.604   0.689 -0.7770  1.0284  0.8481
  529MPD2    H1 7857   4.328   1.888   0.542  1.5629  0.5207  0.7404
  529MPD2    H2 7858   4.391   1.691   0.913 -1.2147 -1.0614  0.0659
  529MPD2    H3 7859   4.475   1.834   0.727 -1.1122  1.1590  0.3995
  529MPD2     N 7860   4.107   1.781   0.493  0.1034  0.1934  0.5220
  529MPD2    H5 7861   4.136   1.865   0.444 -0.2130  0.5592  0.9553
  529MPD2    N1 7862   4.151   1.569   0.910  0.5167  0.0315 -0.0945
  529MPD2    H7 7863   4.057   1.532   0.901  0.3894  0.5374 -0.8513
  530TMC3    C1 7864   4.110   1.495   1.135  0.1775 -0.7098 -0.2361
  530TMC3    C2 7865   4.152   1.497   1.259 -0.3115 -0.1997  0.4074
  530TMC3    C3 7866   4.068   1.432   1.346  0.2872  0.2606  0.1730
  530TMC3    C4 7867   3.996   1.442   1.092  0.0202  0.5398 -0.2770
  530TMC3    C5 7868   3.911   1.386   1.188 -0.3387  0.4637 -0.0183
  530TMC3    C6 7869   3.950   1.378   1.317 -1.0650 -0.0848  0.5699
  530TMC3     C 7870   4.201   1.556   1.038 -0.1241 -0.4070 -0.7315
  530TMC3     O 7871   4.302   1.604   1.090 -0.2933  0.7792  0.3728
  530TMC3     H 7872   4.246   1.544   1.287  0.5055 -1.4888 -0.1470
  530TMC3    H1 7873   3.949   1.460   0.997 -0.7196 -4.0689 -0.7823
  530TMC3    H2 7874   3.896   1.338   1.402 -0.2434  0.1344  1.2001
  530TMC3    C7 7875   3.798   1.310   1.141 -0.3645 -0.2605  0.5126
  530TMC3    C8 7876   4.106   1.423   1.488 -0.3364  0.6859 -0.1998
  530TMC3    O1 7877   3.765   1.313   1.025  0.0888  0.1900  0.4463
  530TMC3    O2 7878   4.011   1.425   1.566  0.2237  0.6189  0.4242
  531MPD2     C 7879   2.340   4.103  13.224 -0.3095 -0.0991 -0.1183
  531MPD2    C1 7880   2.322   4.222  13.287  0.4285 -0.1753 -0.2165
  531MPD2    C2 7881   2.193   4.268  13.304 -0.0991 -0.2951  0.0722
  531MPD2    C3 7882   2.094   4.213  13.233 -0.1462  0.2248  0.2206
  531MPD2    C4 7883   2.108   4.103  13.158  0.4741  0.0440  0.3557
  531MPD2    C5 7884   2.237   4.051  13.154 -0.6892 -0.3718  0.2518
  531MPD2     H 7885   2.172   4.353  13.367  3.7373  0.4720  0.3313
  531MPD2    H1 7886   2.031   4.049  13.104  1.4151  0.3236 -1.2698
  531MPD2    H2 7887   2.433   4.049  13.220 -0.2495  0.0309 -0.4862
  531MPD2    H3 7888   2.256   3.957  13.103  0.4196 -0.2509  0.4439
  531MPD2     N 7889   1.968   4.276  13.252 -0.2694 -0.1653 -0.0228
  531MPD2    H5 7890   1.968   4.355  13.317 -0.5517  0.2293 -0.5091
  531MPD2    N1 7891   2.434   4.295  13.331 -0.1009 -0.2924 -0.3739
  531MPD2    H7 7892   2.520   4.244  13.347  1.2711  1.6745 -1.4610
  532TMC3    C1 7893   2.540   4.492  13.417  0.3270  0.3173  0.2986
  532TMC3    C2 7894   2.526   4.627  13.435  0.2035 -0.3399 -0.3211
  532TMC3    C3 7895   2.551   4.674  13.560 -0.1194  0.1074  1.0277
  532TMC3    C4 7896   2.589   4.408  13.509 -0.0836 -0.3530 -0.2240
  532TMC3    C5 7897   2.638   4.466  13.622 -0.0609  0.4002 -0.0571
  532TMC3    C6 7898   2.615   4.596  13.654 -0.3716  0.2019 -0.5877
  532TMC3     C 7899   2.435   4.437  13.343 -0.5351  0.0161 -0.2266
  532TMC3     O 7900   2.344   4.514  13.317  0.5679  0.4765 -0.9777
  532TMC3     H 7901   2.512   4.696  13.352  2.9781  0.5839 -0.0473
  532TMC3    H1 7902   2.631   4.312  13.480 -1.6225 -1.1410  0.1460
  532TMC3    H2 7903   2.627   4.631  13.756  0.5252  1.1577 -1.0230
  532TMC3    C7 7904   2.695   4.392  13.734  0.5829 -0.4780 -0.0348
  532TMC3    C8 7905   2.450   0.046  13.601  0.5276 -0.6039 -0.5130
  532TMC3    O1 7906   2.763   4.439  13.824 -0.2100 -0.5041  0.0952
  532TMC3    O2 7907   2.479   0.121  13.695 -0.2945 -0.0661 -0.5105
  533TMC3    C1 7908   3.281   1.585  14.510 -0.3253  0.0490 -0.7908
  533TMC3    C2 7909   3.411   1.611  14.538  0.4810  0.3168  0.1939
  533TMC3    C3 7910   3.445   1.727  14.594 -0.0513  0.7463 -0.2404
  533TMC3    C4 7911   3.183   1.661  14.566 -0.3625 -0.6142  0.6609
  533TMC3    C5 7912   3.220   1.769  14.640 -0.5362 -0.4820 -0.4527
  533TMC3    C6 7913   3.349   1.808  14.641  0.6593 -0.1832 -0.5199
  533TMC3     C 7914   3.252   1.443  14.507  1.0920 -0.1199 -0.1863
  533TMC3     O 7915   3.346   1.369  14.531  0.1016 -0.1891  0.0295
  533TMC3     H 7916   3.476   1.549  14.478 -0.5555 -0.6731  0.0900
  533TMC3    H1 7917   3.080   1.648  14.535 -0.7162  1.3455  1.0241
  533TMC3    H2 7918   3.381   1.897  14.694  1.8966 -0.4678 -0.7957
  533TMC3    C7 7919   3.125   1.788  14.754 -0.1925 -0.0628 -0.2401
  533TMC3    C8 7920   3.573   1.799  14.563  0.1948 -0.4231  0.4588
  533TMC3    O1 7921   3.020   1.730  14.748 -0.1919  0.1040 -0.2654
  533TMC3    O2 7922   3.566   1.918  14.531  0.1528 -0.1767 -0.0013
  534MPD2     C 7923   1.504   2.070   1.840  0.1758 -0.0666  0.3017
  534MPD2    C1 7924   1.400   2.142   1.862 -0.4614  0.4064  0.5728
  534MPD2    C2 7925   1.282   2.113   1.799  0.0014 -0.5380 -0.7228
  534MPD2    C3 7926   1.271   2.002   1.717 -0.2977 -0.1317  0.7017
  534MPD2    C4 7927   1.387   1.926   1.698  0.2854 -0.6691  1.0028
  534MPD2    C5 7928   1.502   1.962   1.762 -0.1242 -0.4574  0.0762
  534MPD2     H 7929   1.192   2.164   1.831  1.1004 -0.1780  1.7877
  534MPD2    H1 7930   1.377   1.839   1.635  2.3949  0.1939 -0.5440
  534MPD2    H2 7931   1.602   2.094   1.881  0.8473 -1.4387 -0.5065
  534MPD2    H3 7932   1.590   1.901   1.750  0.1916  0.5215 -2.5528
  534MPD2     N 7933   1.156   1.972   1.644  0.1619 -0.2496 -0.1261
  534MPD2    H5 7934   1.152   1.886   1.590  3.3780 -0.4792  0.0244
  534MPD2    N1 7935   1.394   2.243   1.957 -0.3025  0.7064  0.4814
  534MPD2    H7 7936   1.305   2.293   1.962 -0.6575  0.2571 -1.4923
  535TMC3    C1 7937   0.934   1.993   1.571 -0.0092 -0.3172 -0.6832
  535TMC3    C2 7938   0.801   2.006   1.615  0.0920  0.1471  0.2199
  535TMC3    C3 7939   0.703   2.015   1.519  0.1266 -0.2017 -0.5467
  535TMC3    C4 7940   0.966   1.997   1.439 -0.0043 -0.3484 -0.0222
  535TMC3    C5 7941   0.867   2.014   1.350 -0.8802 -1.1913  0.2372
  535TMC3    C6 7942   0.733   2.025   1.388  0.4195  0.6510 -0.4955
  535TMC3     C 7943   1.031   2.026   1.665 -1.2247 -0.1094 -0.0664
  535TMC3     O 7944   0.990   2.114   1.742  0.3806  0.3158  0.3656
  535TMC3     H 7945   0.779   1.985   1.719  2.0903  0.5884  0.7186
  535TMC3    H1 7946   1.070   1.997   1.409 -0.2468 -2.8334 -0.8551
  535TMC3    H2 7947   0.657   2.021   1.310 -1.1499 -0.7807  1.1153
  535TMC3    C7 7948   0.903   2.031   1.221 -0.5355  0.4054 -0.3422
  535TMC3    C8 7949   0.570   1.977   1.552  0.3595  0.1813  0.4424
  535TMC3    O1 7950   0.995   1.956   1.185 -0.2421  0.2088 -0.0419
  535TMC3    O2 7951   0.508   1.925   1.458  0.5105 -0.0967 -0.7389
  536MPD2     C 7952   4.443   0.557  16.616  0.3646 -1.0762 -0.1303
  536MPD2    C1 7953   4.326   0.492  16.619 -0.4567 -0.3990 -0.3570
  536MPD2    C2 7954   4.238   0.514  16.513 -0.3891 -0.7729  0.4649
  536MPD2    C3 7955   4.268   0.593  16.405 -0.5862 -0.3229 -0.1789
  536MPD2    C4 7956   4.389   0.660  16.408 -0.2793 -0.1776  0.1008
  536MPD2    C5 7957   4.469   0.639  16.515 -0.0818 -0.3219 -1.4544
  536MPD2     H 7958   4.137   0.474  16.518  0.2895 -2.3894  1.4035
  536MPD2    H1 7959   4.410   0.755  16.360 -4.0639  0.2314 -0.8002
  536MPD2    H2 7960   4.512   0.539  16.698  0.1623 -0.1982  0.2293
  536MPD2    H3 7961   4.566   0.688  16.519 -0.0528 -0.5697  0.5857
  536MPD2     N 7962   4.176   0.615  16.302 -0.0768  0.1660 -0.1579
  536MPD2    H5 7963   4.194   0.697  16.244 -0.9152  0.4587 -0.0038
  536MPD2    N1 7964   4.291   0.420  16.732 -1.1608  0.0654 -0.0556
  536MPD2    H7 7965   4.365   0.415  16.801  1.6531 -0.7905 -3.1753
  537TMC3    C1 7966   4.166   0.296  16.893 -0.4751 -0.0754  0.3453
  537TMC3    C2 7967   4.272   0.313  16.985 -0.5937  0.6668 -0.1641
  537TMC3    C3 7968   4.271   0.226  17.088  0.0176  0.0510 -0.9094
  537TMC3    C4 7969   4.072   0.199  16.908 -0.1726 -0.0410 -0.5631
  537TMC3    C5 7970   4.077   0.115  17.012 -0.3841  0.5157  0.0759
  537TMC3    C6 7971   4.172   0.126  17.105 -0.3853  0.5325 -0.1481
  537TMC3     C 7972   4.172   0.355  16.760  0.5112 -0.0995 -0.2718
  537TMC3     O 7973   4.080   0.321  16.688  0.1296 -0.1759  0.1504
  537TMC3     H 7974   4.356   0.377  16.963  0.9098 -0.8760  1.1493
  537TMC3    H1 7975   3.993   0.186  16.835  0.0848  0.9340 -1.0122
  537TMC3    H2 7976   4.190   0.045  17.175 -1.2228  1.7571  1.4847
  537TMC3    C7 7977   3.988   0.001  17.006  0.0424  0.3062  0.3007
  537TMC3    C8 7978   4.348   0.272  17.201 -0.3007 -0.1358  0.4491
  537TMC3    O1 7979   3.962   4.691  16.890  0.5421 -0.0009 -0.6008
  537TMC3    O2 7980   4.423   0.372  17.182  0.0074 -0.0796 -0.3349
  538TMC3    C1 7981   0.335   4.009  11.425  0.4300 -0.0004 -0.2040
  538TMC3    C2 7982   0.412   3.991  11.313 -0.0239  0.3672  0.6504
  538TMC3    C3 7983   0.342   3.994  11.195  0.3000 -0.0380 -0.0016
  538TMC3    C4 7984   0.198   4.024  11.424  0.1560 -0.2718 -0.1362
  538TMC3    C5 7985   0.138   4.027  11.303  0.4266 -0.4472 -0.6777
  538TMC3    C6 7986   0.206   4.013  11.185  0.4125  0.6665 -0.3947
  538TMC3     C 7987   0.386   3.974  11.555 -0.3906  0.3190 -0.6266
  538TMC3     O 7988   0.303   3.933  11.637  0.1511  0.3837 -0.2210
  538TMC3     H 7989   0.515   3.956  11.314  0.3936  1.5717 -1.0448
  538TMC3    H1 7990   0.142   4.050  11.513  0.0365  0.5057 -0.4350
  538TMC3    H2 7991   0.158   4.015  11.088  0.1440  0.7445 -0.2591
  538TMC3    C7 7992   0.024   4.115  11.285  0.4493 -1.1713  0.4767
  538TMC3    C8 7993   0.411   3.946  11.075  0.9717  0.6226  0.1649
  538TMC3    O1 7994   4.675   4.128  11.382  0.3744  0.1987  0.2818
  538TMC3    O2 7995   0.526   3.975  11.060 -0.2732 -0.8885  0.1807
  539MPD2     C 7996   0.025   3.263  11.863  0.6660 -0.1621 -0.7699
  539MPD2    C1 7997   0.043   3.283  11.725  0.0810 -0.3974 -0.4565
  539MPD2    C2 7998   0.013   3.405  11.675  0.3884 -0.4363  0.6096
  539MPD2    C3 7999   4.706   3.510  11.758  0.5782 -0.3925 -0.4404
  539MPD2    C4 8000   4.671   3.489  11.894 -0.0853 -0.3302  0.3445
  539MPD2    C5 8001   4.690   3.359  11.939 -0.0392  0.3474  0.5992
  539MPD2     H 8002   0.020   3.415  11.567  3.7463  0.8404  0.9614
  539MPD2    H1 8003   4.623   3.564  11.955 -3.1365 -2.6030  0.7327
  539MPD2    H2 8004   0.043   3.170  11.915 -0.9810  0.1754  0.3899
  539MPD2    H3 8005   4.668   3.347  12.044 -0.6711 -0.8552  0.3338
  539MPD2     N 8006   4.689   3.640  11.713  0.3082  0.0735  0.0450
  539MPD2    H5 8007   4.654   3.709  11.779 -0.9374  1.6712 -2.2591
  539MPD2    N1 8008   0.099   3.185  11.641  0.2254  0.0943  0.8686
  539MPD2    H7 8009   0.084   3.200  11.542  0.6998  1.0550  0.9465
  540TMC3    C1 8010   4.639   3.811  11.567  0.5113 -0.3123  0.7645
  540TMC3    C2 8011   4.563   3.808  11.453 -0.4286  0.3202 -0.2110
  540TMC3    C3 8012   4.448   3.887  11.459 -0.2387  0.5568  0.0394
  540TMC3    C4 8013   4.616   3.884  11.679  0.1971 -0.7247 -0.7683
  540TMC3    C5 8014   4.498   3.957  11.682 -0.1115 -0.5608  0.2294
  540TMC3    C6 8015   4.413   3.957  11.569 -0.0500 -0.2977 -0.5356
  540TMC3     C 8016   4.700   3.682  11.585 -0.0866  0.5815  0.0206
  540TMC3     O 8017   0.013   3.621  11.487  0.6506 -0.1179 -0.2052
  540TMC3     H 8018   4.595   3.751  11.367  2.2200  2.4617 -0.6700
  540TMC3    H1 8019   4.674   3.881  11.770 -0.2634  0.0919 -0.4524
  540TMC3    H2 8020   4.315   4.004  11.574  0.3926  0.9390 -3.7186
  540TMC3    C7 8021   4.441   4.005  11.803 -0.0346 -0.3825  0.1042
  540TMC3    C8 8022   4.373   3.897  11.336 -0.0288  0.6782 -0.6547
  540TMC3    O1 8023   4.478   3.958  11.908  0.0103  0.4709  0.3415
  540TMC3    O2 8024   4.330   4.007  11.303  0.8684 -0.7356  0.0813
  541MPD2     C 8025   3.432   4.381  13.630  1.1532  0.4224 -0.0727
  541MPD2    C1 8026   3.307   4.370  13.570  0.2132 -0.3098  0.2018
  541MPD2    C2 8027   3.292   4.417  13.438  0.4982 -0.4440  0.1493
  541MPD2    C3 8028   3.389   4.482  13.374 -0.4491  0.3056  0.4556
  541MPD2    C4 8029   3.513   4.491  13.425  0.2431  0.7003  0.0339
  541MPD2    C5 8030   3.534   4.433  13.548 -0.2518  0.0284  0.1656
  541MPD2     H 8031   3.197   4.407  13.388 -0.0504 -0.5053  1.1957
  541MPD2    H1 8032   3.596   4.550  13.388  1.9248 -0.2520  2.2607
  541MPD2    H2 8033   3.467   4.345  13.727 -2.9876  2.2186  2.0660
  541MPD2    H3 8034   3.635   4.440  13.585  0.3022 -1.1710 -1.1236
  541MPD2     N 8035   3.375   4.553  13.252  0.4682 -0.5955 -0.3034
  541MPD2    H5 8036   3.450   4.609  13.211  1.1029 -0.3791  1.1336
  541MPD2    N1 8037   3.197   4.315  13.638  0.3422  0.0697 -0.0957
  541MPD2    H7 8038   3.109   4.302  13.590 -0.4506  0.6339  1.2008
  542TMC3    C1 8039   3.283   4.659  13.073  0.6360 -0.6461  0.2242
  542TMC3    C2 8040   3.255   4.627  12.941  0.2012 -0.2677  0.0138
  542TMC3    C3 8041   3.319   4.703  12.848  0.1355  0.1631  0.4667
  542TMC3    C4 8042   3.335   0.057  13.107 -0.5809 -0.3923 -0.1244
  542TMC3    C5 8043   3.381   0.145  13.011 -0.0533 -0.0167  0.6181
  542TMC3    C6 8044   3.371   0.113  12.874  0.0131 -0.1935 -0.4894
  542TMC3     C 8045   3.263   4.556  13.172 -0.6072  0.6101 -0.6060
  542TMC3     O 8046   3.156   4.502  13.182  0.4882  0.4890 -0.4719
  542TMC3     H 8047   3.201   4.538  12.909 -1.1115  0.2006  0.9412
  542TMC3    H1 8048   3.344   0.078  13.213  4.3193  0.3864 -0.7077
  542TMC3    H2 8049   3.400   0.177  12.792  3.0708 -1.9633 -0.7773
  542TMC3    C7 8050   3.450   0.263  13.059  0.4401  0.0735 -0.3850
  542TMC3    C8 8051   3.282   4.706  12.712 -0.3604  0.3114 -0.1990
  542TMC3    O1 8052   3.498   0.254  13.170 -0.2938  0.0217  0.4177
  542TMC3    O2 8053   3.325   4.631  12.626  0.4170  0.5949 -0.2915
  543TMC3    C1 8054   3.218   0.496   0.046 -0.0117  0.1884  0.1359
  543TMC3    C2 8055   3.248   0.366   0.051  0.3438 -0.0025 -0.1844
  543TMC3    C3 8056   3.242   0.306   0.173 -0.0928  0.2361 -0.0509
  543TMC3    C4 8057   3.166   0.566   0.154 -0.5363 -0.3393  1.0496
  543TMC3    C5 8058   3.172   0.507   0.277 -0.0743  0.1553 -0.1619
  543TMC3    C6 8059   3.207   0.376   0.278  0.3128  0.7530  0.5222
  543TMC3     C 8060   3.205   0.551  17.598 -0.3078 -0.2247  0.5137
  543TMC3     O 8061   3.302   0.534  17.525 -0.1766 -0.4871  0.1219
  543TMC3     H 8062   3.284   0.308  17.654 -2.2721  0.7550 -1.8441
  543TMC3    H1 8063   3.120   0.663   0.140 -1.9121 -1.3142 -1.0603
  543TMC3    H2 8064   3.196   0.317   0.369  1.9883 -0.3174  0.0236
  543TMC3    C7 8065   3.101   0.558   0.390 -0.5996  0.1415  0.2899
  543TMC3    C8 8066   3.226   0.161   0.183 -0.6427 -0.8553  1.0305
  543TMC3    O1 8067   3.066   0.471   0.468  0.5129 -0.2871  0.7318
  543TMC3    O2 8068   3.251   0.108   0.290 -0.2065  0.2123 -0.3189
  544MPD2     C 8069   2.957   4.474   0.057  0.5597 -0.1795  0.0483
  544MPD2    C1 8070   3.060   4.480   0.148  0.6674 -0.3127  0.7124
  544MPD2    C2 8071   3.120   4.598   0.161  0.3390  0.2685 -0.9221
  544MPD2    C3 8072   3.100   4.701   0.070 -0.2386 -0.0324 -0.6840
  544MPD2    C4 8073   3.008   4.690  17.660 -0.3409 -0.2680 -0.0975
  544MPD2    C5 8074   2.940   4.572  17.651  0.3955 -0.3011 -0.2063
  544MPD2     H 8075   3.184   4.612   0.247 -0.7361 -0.2923 -0.0276
  544MPD2    H1 8076   2.983   0.051  17.594  0.3035  0.8084  0.9946
  544MPD2    H2 8077   2.882   4.396   0.057 -0.3222  0.6682  2.2154
  544MPD2    H3 8078   2.849   4.562  17.593  0.2560 -0.1362 -0.0165
  544MPD2     N 8079   3.152   0.110   0.083  0.6107  0.0148 -0.2383
  544MPD2    H5 8080   3.126   0.175   0.011 -1.2733 -0.7394 -0.2308
  544MPD2    N1 8081   3.086   4.367   0.224  0.3787 -0.0596 -0.2032
  544MPD2    H7 8082   3.022   4.289   0.218 -0.3132  0.5624 -0.9243
  545TMC3    C1 8083   3.191   4.228   0.375 -0.1475 -0.1154  0.0475
  545TMC3    C2 8084   3.073   4.154   0.378 -0.1561  0.1702 -0.5420
  545TMC3    C3 8085   3.079   4.035   0.445 -0.9628  0.3600 -0.1771
  545TMC3    C4 8086   3.304   4.182   0.435 -0.3987  0.2837 -0.4018
  545TMC3    C5 8087   3.306   4.057   0.488 -0.3343  0.8476  0.1374
  545TMC3    C6 8088   3.191   3.988   0.509  0.3440  0.7814 -0.3659
  545TMC3     C 8089   3.195   4.355   0.303 -0.1338 -0.4405  0.4849
  545TMC3     O 8090   3.295   4.424   0.305 -0.2388  0.1266 -0.3293
  545TMC3     H 8091   2.976   4.179   0.339 -0.8374 -0.8292  0.5071
  545TMC3    H1 8092   3.401   4.230   0.425 -0.9545  1.4361 -0.3066
  545TMC3    H2 8093   3.195   3.885   0.545  0.9649  0.8206 -0.3172
  545TMC3    C7 8094   3.434   4.009   0.544  0.4678  0.1575 -0.6945
  545TMC3    C8 8095   2.967   3.952   0.458 -0.1275 -0.4017 -0.0443
  545TMC3    O1 8096   3.537   4.055   0.493 -0.0515  0.4279  0.2019
  545TMC3    O2 8097   2.946   3.903   0.567 -0.2895  0.3100 -0.3395
  546MPD2     C 8098   0.134   1.230   0.059 -0.4504  0.1461 -0.2181
  546MPD2    C1 8099   0.072   1.265  17.629 -0.2289  0.2588  0.0345
  546MPD2    C2 8100   0.125   1.362  17.543 -0.2147 -0.0226  0.5075
  546MPD2    C3 8101   0.251   1.416  17.575 -0.2535 -0.0970 -0.6087
  546MPD2    C4 8102   0.308   1.383   0.007 -0.0719  0.8368 -0.6556
  546MPD2    C5 8103   0.246   1.298   0.091 -0.4884 -0.2900 -0.4113
  546MPD2     H 8104   0.073   1.387  17.451 -0.1065 -4.0490 -0.6179
  546MPD2    H1 8105   0.412   1.407   0.026  0.2641 -1.9070  1.0486
  546MPD2    H2 8106   0.109   1.147   0.123 -2.2242  1.0814  0.3057
  546MPD2    H3 8107   0.287   1.257   0.183 -0.8565  0.2787  0.0022
  546MPD2     N 8108   0.328   1.493  17.490 -0.0154  0.2872 -0.2598
  546MPD2    H5 8109   0.426   1.505  17.516 -0.7045  1.5861  1.7535
  546MPD2    N1 8110   4.680   1.191  17.599  0.0693 -0.0307 -0.4299
  546MPD2    H7 8111   4.674   1.113  17.665 -1.3216 -0.5964 -1.2204
  547TMC3    C1 8112   4.519   1.082  17.461 -0.2111  0.5024 -0.3790
  547TMC3    C2 8113   4.413   1.107  17.375 -0.3107  0.3694  0.1896
  547TMC3    C3 8114   4.320   1.014  17.342  0.2951 -0.2745  0.4641
  547TMC3    C4 8115   4.546   0.960  17.510  0.2856  0.8681  0.1203
  547TMC3    C5 8116   4.448   0.870  17.486  0.0076  0.2009  0.2789
  547TMC3    C6 8117   4.338   0.892  17.410 -0.0510  0.2830 -0.0349
  547TMC3     C 8118   4.607   1.195  17.485 -0.5267  0.5777 -0.2136
  547TMC3     O 8119   4.592   1.290  17.408 -0.2685  0.2096 -0.2433
  547TMC3     H 8120   4.400   1.208  17.338 -1.1600  0.3088  0.3401
  547TMC3    H1 8121   4.625   0.938  17.580 -3.3237 -0.0735  3.8638
  547TMC3    H2 8122   4.258   0.820  17.397  0.8388 -0.6040 -0.6015
  547TMC3    C7 8123   4.434   0.764  17.582 -0.2725 -0.2602  1.1077
  547TMC3    C8 8124   4.188   1.050  17.285 -0.1795  0.1892  0.3690
  547TMC3    O1 8125   4.485   0.776   0.006  0.4612 -0.3349  0.1894
  547TMC3    O2 8126   4.125   0.962  17.229 -0.1461 -0.1704 -0.0488
  548MPD2     C 8127   4.116   2.205  12.330  0.1128 -0.3990  0.2158
  548MPD2    C1 8128   4.131   2.066  12.319 -0.7814  0.3725 -0.3355
  548MPD2    C2 8129   4.216   2.011  12.225 -1.1860 -0.1948  0.2302
  548MPD2    C3 8130   4.275   2.092  12.126 -0.6675 -0.2192 -0.0757
  548MPD2    C4 8131   4.252   2.231  12.126 -0.2577 -0.3271 -0.0804
  548MPD2    C5 8132   4.166   2.280  12.226  0.0363 -0.5657  0.3142
  548MPD2     H 8133   4.240   1.906  12.223 -0.1920  0.0040  1.8900
  548MPD2    H1 8134   4.276   2.301  12.046  0.8014  1.0183  1.4135
  548MPD2    H2 8135   4.057   2.256  12.406 -0.4327  1.8466 -1.7331
  548MPD2    H3 8136   4.140   2.385  12.229  4.0220  0.3898  0.4451
  548MPD2     N 8137   4.362   2.028  12.031 -0.0687  0.0791 -0.3219
  548MPD2    H5 8138   4.371   1.928  12.047  2.0653  0.2719 -0.3040
  548MPD2    N1 8139   4.051   1.994  12.407 -0.7527  0.3056 -0.0757
  548MPD2    H7 8140   3.989   2.048  12.466  0.5220  1.7864 -0.1183
  549TMC3    C1 8141   3.957   1.799  12.512 -0.6835 -0.2373  0.1928
  549TMC3    C2 8142   3.839   1.871  12.524 -0.4278  0.0803 -0.1737
  549TMC3    C3 8143   3.733   1.804  12.580 -0.5511 -0.0727 -0.2205
  549TMC3    C4 8144   3.971   1.664  12.556  0.1321  0.0024 -0.0672
  549TMC3    C5 8145   3.858   1.610  12.607  0.0383  0.5475  0.7816
  549TMC3    C6 8146   3.742   1.679  12.623  0.8208  0.2467 -0.1950
  549TMC3     C 8147   4.062   1.856  12.430 -0.2285  0.1425  0.5803
  549TMC3     O 8148   4.120   1.767  12.365 -0.1519 -0.1516  0.1417
  549TMC3     H 8149   3.832   1.963  12.466 -1.0292 -1.7102 -2.9427
  549TMC3    H1 8150   4.068   1.618  12.545  1.3081  2.3094  0.5177
  549TMC3    H2 8151   3.658   1.633  12.673 -0.6283  1.2679 -1.6607
  549TMC3    C7 8152   3.887   1.495  12.696 -0.9867 -0.8675 -0.2180
  549TMC3    C8 8153   3.603   1.876  12.594  0.1343 -0.1448 -0.4935
  549TMC3    O1 8154   3.961   1.516  12.792  0.1551  0.2436 -0.0277
  549TMC3    O2 8155   3.499   1.813  12.616  0.2433 -0.1523 -0.2403
  550TMC3    C1 8156   2.848   4.557  12.336  0.2729  0.2486  0.2075
  550TMC3    C2 8157   2.806   4.587  12.467 -0.0287  0.3439  0.2308
  550TMC3    C3 8158   2.706   4.673  12.484 -0.0317  0.7975 -0.0738
  550TMC3    C4 8159   2.811   4.639  12.233 -0.1302 -0.4973 -0.5639
  550TMC3    C5 8160   2.717   0.013  12.263  0.0429 -0.5583 -0.1603
  550TMC3    C6 8161   2.660   0.033  12.387  0.6391  0.2721 -0.0391
  550TMC3     C 8162   2.904   4.426  12.319  0.8249  0.1088 -0.0089
  550TMC3     O 8163   2.939   4.368  12.422 -0.2874  0.1384  0.0933
  550TMC3     H 8164   2.842   4.538  12.557 -4.0489  2.2005  2.8560
  550TMC3    H1 8165   2.859   4.639  12.135  1.5963 -1.5587  0.2799
  550TMC3    H2 8166   2.589   0.114  12.393  0.1751 -0.1450  0.1758
  550TMC3    C7 8167   2.653   0.081  12.150  0.8019  0.6074 -0.2984
  550TMC3    C8 8168   2.616   4.674  12.596 -0.6749 -0.3744  0.7029
  550TMC3    O1 8169   2.728   0.121  12.063 -0.0172  0.0123 -0.1528
  550TMC3    O2 8170   2.564   0.058  12.630  0.4706  0.0106 -0.5490
  551TMC3    C1 8171   0.029   2.013  13.339  0.1441  0.2554  0.1753
  551TMC3    C2 8172   0.123   2.072  13.254 -0.5235  0.5292 -0.8080
  551TMC3    C3 8173   0.197   2.174  13.309  0.1577 -0.0393  0.0619
  551TMC3    C4 8174   0.013   2.047  13.469 -0.0801  0.6730 -0.8040
  551TMC3    C5 8175   0.102   2.141  13.521 -0.4854  0.2777  0.0777
  551TMC3    C6 8176   0.196   2.209  13.444  0.0316 -0.6547  0.5757
  551TMC3     C 8177   4.647   1.930  13.285 -0.2586  0.6532 -0.2519
  551TMC3     O 8178   4.543   1.912  13.346 -0.1947  0.2556  0.3161
  551TMC3     H 8179   0.135   2.054  13.147 -1.8440  0.1255 -0.8862
  551TMC3    H1 8180   4.653   2.003  13.526 -0.1211  0.4597 -1.0313
  551TMC3    H2 8181   0.274   2.267  13.492 -0.1163 -0.8764  1.0875
  551TMC3    C7 8182   0.132   2.134  13.665 -0.2777  0.3057  0.3321
  551TMC3    C8 8183   0.323   2.210  13.242  0.3695 -0.4206 -0.3749
  551TMC3    O1 8184   0.221   2.206  13.708  0.1350  0.2638  0.2808
  551TMC3    O2 8185   0.354   2.125  13.157 -0.2174  0.3696 -0.8439
  552MPD2     C 8186   2.489   4.368  14.112 -0.3792  0.0364 -0.0354
  552MPD2    C1 8187   2.483   4.228  14.133  0.5951 -0.3778  0.2911
  552MPD2    C2 8188   2.594   4.172  14.202 -0.1503  0.3741 -0.2266
  552MPD2    C3 8189   2.703   4.257  14.242 -0.9038  0.2278 -0.1733
  552MPD2    C4 8190   2.712   4.389  14.204 -0.4147 -0.2385 -0.3148
  552MPD2    C5 8191   2.599   4.444  14.148  0.2844 -0.0974 -0.9386
  552MPD2     H 8192   2.583   4.067  14.224  2.5681 -0.0261 -0.8044
  552MPD2    H1 8193   2.796   4.453  14.232  0.2104 -0.8224 -0.8330
  552MPD2    H2 8194   2.408   4.424  14.065  0.6342  1.4654 -0.0828
  552MPD2    H3 8195   2.611   4.550  14.129  0.5656 -0.2343 -1.5132
  552MPD2     N 8196   2.809   4.201  14.324 -0.2866  0.1729  0.0455
  552MPD2    H5 8197   2.896   4.252  14.333 -0.5462  0.5069  0.6615
  552MPD2    N1 8198   2.380   4.141  14.095  0.2016 -0.7510 -0.6692
  552MPD2    H7 8199   2.383   4.046  14.131 -1.8708 -0.6095 -0.1476
  553TMC3    C1 8200   2.176   4.063  14.002  0.1514 -0.0539 -0.1845
  553TMC3    C2 8201   2.088   4.077  13.892 -0.3869 -0.0314 -0.6662
  553TMC3    C3 8202   1.984   3.987  13.883  0.1247 -0.3966  0.0002
  553TMC3    C4 8203   2.174   3.962  14.091  0.5113  0.4504  0.3241
  553TMC3    C5 8204   2.063   3.873  14.079  0.1614 -0.2454 -0.5448
  553TMC3    C6 8205   1.966   3.890  13.983 -0.4606 -0.2654  0.0604
  553TMC3     C 8206   2.270   4.175  14.023  0.2180  0.6577 -0.2383
  553TMC3     O 8207   2.252   4.273  13.952 -0.0208  0.1400 -0.1867
  553TMC3     H 8208   2.095   4.163  13.826 -0.7018  0.0616 -0.5803
  553TMC3    H1 8209   2.241   3.968  14.176 -0.3335 -0.9842  1.0971
  553TMC3    H2 8210   1.888   3.816  13.968 -1.6611  1.2137 -0.9706
  553TMC3    C7 8211   2.066   3.750  14.160  0.5480 -0.6846  0.1140
  553TMC3    C8 8212   1.957   3.953  13.745 -0.5341 -0.8809  0.5354
  553TMC3    O1 8213   1.969   3.679  14.160 -0.4416  0.7099 -0.3070
  553TMC3    O2 8214   1.845   3.904  13.732  0.2937  0.1152  0.5341
  554TMC3    C1 8215   4.135   3.190  11.922 -0.0651 -0.9775  0.0253
  554TMC3    C2 8216   4.098   3.111  11.824 -0.2273 -0.1252 -0.1304
  554TMC3    C3 8217   4.175   3.130  11.711 -0.0867 -0.0459  0.5575
  554TMC3    C4 8218   4.217   3.301  11.899 -0.7540 -0.1426 -0.0645
  554TMC3    C5 8219   4.278   3.325  11.781  0.2169 -0.6120  0.0651
  554TMC3    C6 8220   4.257   3.235  11.686 -0.0600 -0.2665 -0.3168
  554TMC3     C 8221   4.150   3.116  12.042  0.6313  0.5298  0.4886
  554TMC3     O 8222   4.250   3.149  12.104  0.5010  0.3131 -0.2518
  554TMC3     H 8223   4.038   3.021  11.832 -0.8565  0.4625  1.7446
  554TMC3    H1 8224   4.236   3.363  11.985  2.2862 -0.8230 -0.2488
  554TMC3    H2 8225   4.299   3.250  11.587  0.0606 -2.4436 -0.5943
  554TMC3    C7 8226   4.278   3.463  11.733 -0.1355  0.5763 -0.0162
  554TMC3    C8 8227   4.113   3.074  11.595  0.1507 -0.0634  0.2385
  554TMC3    O1 8228   4.302   3.476  11.614  0.2181 -0.1555  0.0790
  554TMC3    O2 8229   4.093   3.154  11.503 -0.1880  0.4865 -0.3756
  555TMC3    C1 8230   2.703   3.046  14.905  1.0284 -0.4215  0.8380
  555TMC3    C2 8231   2.603   3.115  14.971  0.2277  0.0452 -0.3675
  555TMC3    C3 8232   2.575   3.081  15.103 -0.2733  0.4547  0.1543
  555TMC3    C4 8233   2.782   2.953  14.967  0.2995 -0.6150  0.0152
  555TMC3    C5 8234   2.747   2.927  15.100 -0.5562  0.3896  0.2545
  555TMC3    C6 8235   2.641   2.980  15.167  0.3857 -0.4383  0.4091
  555TMC3     C 8236   2.755   3.095  14.777  0.2654  0.0133  0.6294
  555TMC3     O 8237   2.874   3.100  14.768  0.3562 -0.0319  0.3040
  555TMC3     H 8238   2.552   3.192  14.914 -0.6583 -0.4376 -0.2355
  555TMC3    H1 8239   2.853   2.899  14.907  2.5634  1.8728  0.4447
  555TMC3    H2 8240   2.629   2.950  15.270 -2.5337 -1.9659 -0.3880
  555TMC3    C7 8241   2.802   2.810  15.170  0.5561 -0.1398  0.2943
  555TMC3    C8 8242   2.490   3.179  15.177 -0.1656 -0.3047 -0.0911
  555TMC3    O1 8243   2.710   2.741  15.213 -0.0334 -0.3029  0.1014
  555TMC3    O2 8244   2.406   3.244  15.117 -0.2355 -0.7096  0.0538
  556MPD2     C 8245   1.400   4.515  10.749 -0.6666 -0.0299  0.0536
  556MPD2    C1 8246   1.357   4.416  10.838 -0.3274  0.0323  0.6810
  556MPD2    C2 8247   1.274   4.318  10.792 -0.0248 -0.4562 -0.3192
  556MPD2    C3 8248   1.233   4.309  10.657 -0.5453  0.3955  0.1466
  556MPD2    C4 8249   1.297   4.397  10.565 -0.2771  0.2356 -0.5655
  556MPD2    C5 8250   1.377   4.500  10.612 -0.1006 -0.0210  0.0955
  556MPD2     H 8251   1.240   4.249  10.868  2.2401 -0.3443  0.7924
  556MPD2    H1 8252   1.270   4.388  10.460 -0.4361 -1.8215 -0.3357
  556MPD2    H2 8253   1.461   4.601  10.773  2.1126 -2.7453  2.7249
  556MPD2    H3 8254   1.418   4.572  10.541  0.3880  0.7700  1.1743
  556MPD2     N 8255   1.152   4.212  10.611  0.0026 -0.3546 -0.1593
  556MPD2    H5 8256   1.106   4.149  10.676 -2.5069  0.4533 -1.1568
  556MPD2    N1 8257   1.395   4.408  10.970  0.0605  0.5004 -0.3062
  556MPD2    H7 8258   1.356   4.328  11.019  1.3486 -0.0203 -0.1400
  557TMC3    C1 8259   1.030   4.075  10.464 -0.0385  0.0776 -1.0269
  557TMC3    C2 8260   1.018   4.027  10.332 -0.3025 -0.2801  0.0793
  557TMC3    C3 8261   0.905   3.955  10.297  0.2968 -0.7977  0.6753
  557TMC3    C4 8262   0.932   4.053  10.566  0.2678  0.5652  0.6818
  557TMC3    C5 8263   0.819   3.990  10.522 -0.5325 -0.1042 -0.0424
  557TMC3    C6 8264   0.805   3.952  10.391 -0.3033  0.2264  0.4122
  557TMC3     C 8265   1.127   4.186  10.479  0.4181  0.0725  0.1022
  557TMC3     O 8266   1.151   4.246  10.372 -0.0872  0.2163 -0.1179
  557TMC3     H 8267   1.104   4.046  10.268  0.7919 -2.7026  0.8503
  557TMC3    H1 8268   0.942   4.079  10.671 -0.5879 -1.4771  1.2697
  557TMC3    H2 8269   0.716   3.897  10.360 -0.6091 -0.6688  2.9008
  557TMC3    C7 8270   0.708   3.984  10.621  0.0966 -0.0880 -0.4658
  557TMC3    C8 8271   0.867   3.951  10.162 -0.1564  0.1914  0.0131
  557TMC3    O1 8272   0.714   4.044  10.727  0.1729 -0.5044 -0.4176
  557TMC3    O2 8273   0.760   3.992  10.122 -0.5118  0.1861  0.1708
  558TMC3    C1 8274   3.802   2.400  10.098 -0.7962  0.1778  0.5575
  558TMC3    C2 8275   3.744   2.326  10.195 -0.3888  0.4126 -0.1376
  558TMC3    C3 8276   3.613   2.349  10.208  0.6534  0.0523  0.4978
  558TMC3    C4 8277   3.735   2.477  10.005  0.7117  0.0468  0.4425
  558TMC3    C5 8278   3.599   2.476  10.009 -0.9963  0.2221  0.8369
  558TMC3    C6 8279   3.533   2.419  10.116 -0.1556 -0.2200  1.2255
  558TMC3     C 8280   3.947   2.379  10.086  0.4639  0.1457  0.3538
  558TMC3     O 8281   4.010   2.465  10.022 -0.3789  0.2960 -0.0926
  558TMC3     H 8282   3.801   2.268  10.266 -0.5648 -0.4233 -0.6783
  558TMC3    H1 8283   3.786   2.510   9.915 -0.4949 -1.8782 -0.9456
  558TMC3    H2 8284   3.427   2.425  10.134 -0.6027  1.4282 -2.0958
  558TMC3    C7 8285   3.525   2.511   9.881 -0.2888 -0.5505  0.0619
  558TMC3    C8 8286   3.539   2.265  10.313 -0.0080 -0.3065  0.4847
  558TMC3    O1 8287   3.586   2.579   9.799  0.3964 -0.3573 -0.1220
  558TMC3    O2 8288   3.417   2.274  10.324 -0.2299 -0.4480 -0.2456
  559MPD2     C 8289   3.625   2.517  10.667 -0.5458 -0.2296  0.5737
  559MPD2    C1 8290   3.634   2.416  10.761  0.1568 -0.2269  0.4520
  559MPD2    C2 8291   3.735   2.428  10.857 -0.2713 -0.1276  0.4701
  559MPD2    C3 8292   3.828   2.535  10.858 -0.3567  0.8501 -0.0620
  559MPD2    C4 8293   3.813   2.634  10.770 -0.5259  0.4258  0.1900
  559MPD2    C5 8294   3.716   2.624  10.669  0.2458  0.5266  0.0483
  559MPD2     H 8295   3.747   2.359  10.939  1.6338  0.2441  0.5074
  559MPD2    H1 8296   3.882   2.716  10.762  0.8030 -0.6120  1.1370
  559MPD2    H2 8297   3.564   2.521  10.578 -0.3979 -1.1782  0.4280
  559MPD2    H3 8298   3.714   2.707  10.599 -0.4506  1.4015  1.0913
  559MPD2     N 8299   3.923   2.528  10.963  0.2546  0.6299  0.2976
  559MPD2    H5 8300   3.927   2.444  11.020 -1.9384 -0.8229 -1.7181
  559MPD2    N1 8301   3.540   2.314  10.763  0.3168 -0.1236  0.6713
  559MPD2    H7 8302   3.463   2.325  10.696  0.9734  0.7297  0.0604
  560TMC3    C1 8303   4.113   2.567  11.085 -0.1117  0.4601  0.1733
  560TMC3    C2 8304   4.138   2.430  11.080 -0.5380  0.0645  0.5277
  560TMC3    C3 8305   4.166   2.368  11.196  0.4133 -0.3165  0.1371
  560TMC3    C4 8306   4.134   2.638  11.199  0.0800 -0.4797 -0.4272
  560TMC3    C5 8307   4.151   2.569  11.314 -0.2045 -1.0184 -0.2211
  560TMC3    C6 8308   4.168   2.435  11.315  0.1558 -0.5858 -0.2965
  560TMC3     C 8309   4.019   2.623  10.988 -0.0653 -0.2700 -0.2407
  560TMC3     O 8310   4.037   2.738  10.949  0.7342 -0.6610 -0.2260
  560TMC3     H 8311   4.125   2.384  10.983  0.4287  0.3706  0.2478
  560TMC3    H1 8312   4.097   2.739  11.205 -0.4516 -0.6462 -1.0155
  560TMC3    H2 8313   4.194   2.378  11.403  1.9714  1.2156  0.3389
  560TMC3    C7 8314   4.215   2.637  11.426 -0.7159 -0.1871 -0.0613
  560TMC3    C8 8315   4.146   2.221  11.187 -0.0963  0.4019  0.3502
  560TMC3    O1 8316   4.235   2.575  11.531 -0.0291 -0.0787 -0.2462
  560TMC3    O2 8317   4.136   2.175  11.074  0.5267  0.1166 -0.0034
  561TMC3    C1 8318   1.363   1.742  11.226  0.0216  0.5041 -0.1136
  561TMC3    C2 8319   1.244   1.710  11.276  0.2129 -0.1487 -0.2663
  561TMC3    C3 8320   1.168   1.808  11.332 -0.0572  0.6059 -0.6158
  561TMC3    C4 8321   1.417   1.867  11.232  0.1212 -0.0960  0.1713
  561TMC3    C5 8322   1.332   1.967  11.271  0.2432  0.4548  0.1833
  561TMC3    C6 8323   1.208   1.939  11.332  0.8502 -0.2094 -0.2737
  561TMC3     C 8324   1.449   1.635  11.177  0.1158 -0.6069  0.3685
  561TMC3     O 8325   1.403   1.533  11.136  0.0211  0.5613 -0.3496
  561TMC3     H 8326   1.216   1.606  11.287 -1.3915  0.3306  0.1931
  561TMC3    H1 8327   1.516   1.885  11.191  0.3380 -2.7049 -0.4228
  561TMC3    H2 8328   1.135   2.012  11.365  0.5313  0.1283 -1.7121
  561TMC3    C7 8329   1.378   2.106  11.294 -0.1852  0.3371 -0.2930
  561TMC3    C8 8330   1.073   1.762  11.440 -0.2785 -0.5119 -0.5843
  561TMC3    O1 8331   1.307   2.179  11.361 -0.6088 -0.3212 -0.1041
  561TMC3    O2 8332   1.015   1.652  11.435  0.3826 -0.6515  0.7009
  562TMC3    C1 8333   3.222   3.073  16.406  0.2529 -0.4461 -0.4018
  562TMC3    C2 8334   3.152   3.194  16.409 -0.5845 -0.3408  0.2738
  562TMC3    C3 8335   3.169   3.277  16.300  0.1378 -0.2131 -0.4085
  562TMC3    C4 8336   3.315   3.047  16.309 -0.0185 -0.8021  0.6998
  562TMC3    C5 8337   3.342   3.145  16.218  0.3822  0.1470  0.5015
  562TMC3    C6 8338   3.260   3.259  16.205  0.1088 -0.8056 -0.4828
  562TMC3     C 8339   3.193   2.973  16.508  0.4809 -0.3064  0.5771
  562TMC3     O 8340   3.110   3.001  16.596  0.0044 -0.7013 -0.1018
  562TMC3     H 8341   3.078   3.215  16.485 -1.9648  1.0312 -1.4572
  562TMC3    H1 8342   3.384   2.963  16.314  3.2359  1.9584  2.4937
  562TMC3    H2 8343   3.280   3.339  16.135 -0.7839 -1.4772 -1.4929
  562TMC3    C7 8344   3.425   3.123  16.103  0.3315 -0.8840 -0.1129
  562TMC3    C8 8345   3.089   3.403  16.306 -0.3797  0.7409 -0.6992
  562TMC3    O1 8346   3.529   3.063  16.116 -0.4844 -0.5135 -0.6251
  562TMC3    O2 8347   3.058   3.447  16.414 -0.3925  0.0998  0.0809
  563MPD2     C 8348   1.027   0.314  15.714 -0.5685 -0.0283  0.0125
  563MPD2    C1 8349   0.927   0.231  15.769 -0.4799  0.0424  0.2835
  563MPD2    C2 8350   0.966   0.130  15.853 -0.7679 -0.3384  0.2322
  563MPD2    C3 8351   1.099   0.112  15.892  0.9925  0.1889  0.2787
  563MPD2    C4 8352   1.201   0.186  15.833  0.4554  0.3557 -0.0264
  563MPD2    C5 8353   1.160   0.281  15.733  0.5448  0.3212 -0.1181
  563MPD2     H 8354   0.898   0.056  15.893 -1.8881  2.3928  3.3146
  563MPD2    H1 8355   1.307   0.175  15.856  0.5142  1.4277  0.2167
  563MPD2    H2 8356   1.002   0.391  15.642  0.8851  0.3387 -0.1006
  563MPD2    H3 8357   1.227   0.354  15.689 -1.0039  0.2915 -2.4926
  563MPD2     N 8358   1.140   0.012  15.984  0.5105  0.1864 -0.1677
  563MPD2    H5 8359   1.067   4.664  15.999 -0.2855  0.3146 -3.4137
  563MPD2    N1 8360   0.794   0.274  15.760 -0.4481 -0.1610  0.1709
  563MPD2    H7 8361   0.779   0.366  15.720  1.0363  0.0911  0.2162
  564TMC3    C1 8362   0.627   0.322  15.909  0.2798 -0.3411 -0.4205
  564TMC3    C2 8363   0.512   0.284  15.973 -0.0405 -0.8323 -0.3150
  564TMC3    C3 8364   0.510   0.295  16.106  0.3918  0.0716 -0.1035
  564TMC3    C4 8365   0.725   0.388  15.981 -0.3318  0.3345 -0.7755
  564TMC3    C5 8366   0.719   0.386  16.123  0.8399 -0.7584  0.3212
  564TMC3    C6 8367   0.608   0.349  16.185  0.5547  0.0497 -0.0227
  564TMC3     C 8368   0.687   0.219  15.827  0.4504 -0.1224  0.1929
  564TMC3     O 8369   0.663   0.108  15.870 -0.3664 -0.0407  0.4857
  564TMC3     H 8370   0.442   0.230  15.911  0.4432 -2.6255  0.6912
  564TMC3    H1 8371   0.813   0.428  15.931  1.1481  0.3623  1.8046
  564TMC3    H2 8372   0.610   0.335  16.293 -1.0022 -0.7341 -0.1030
  564TMC3    C7 8373   0.816   0.300  16.184  0.2986  0.1848  0.1680
  564TMC3    C8 8374   0.440   0.182  16.168  0.3303  0.6449 -0.2081
  564TMC3    O1 8375   0.856   0.340  16.294 -0.2001 -0.0225 -0.3898
  564TMC3    O2 8376   0.484   0.132  16.270 -0.3509 -0.4392  0.1806
  565TMC3    C1 8377   1.149   0.293  10.571  0.6557 -0.0917  0.5305
  565TMC3    C2 8378   1.155   0.266  10.698  0.2619 -0.5074  0.2363
  565TMC3    C3 8379   1.137   0.139  10.748 -0.5005 -0.6618  0.0845
  565TMC3    C4 8380   1.149   0.191  10.481 -0.0078 -0.0449 -0.0208
  565TMC3    C5 8381   1.127   0.062  10.527  1.4602  0.0925 -0.2236
  565TMC3    C6 8382   1.119   0.031  10.664 -0.1820  0.1631  0.2898
  565TMC3     C 8383   1.186   0.416  10.519  0.2785  0.3187 -1.0699
  565TMC3     O 8384   1.173   0.438  10.401  0.5636  0.4547  0.1755
  565TMC3     H 8385   1.177   0.339  10.775 -2.0368  0.5034 -0.0701
  565TMC3    H1 8386   1.156   0.202  10.373  1.1226  1.3629  0.1943
  565TMC3    H2 8387   1.126   4.650  10.698 -0.5394 -0.0412 -0.2543
  565TMC3    C7 8388   1.080   4.680  10.435 -0.1576  0.0395 -0.4490
  565TMC3    C8 8389   1.163   0.130  10.889 -0.2834  0.1971  0.5290
  565TMC3    O1 8390   1.117   4.686  10.318  0.1422  0.2081 -1.3088
  565TMC3    O2 8391   1.190   0.228  10.957  0.1225 -1.0386 -0.6358
  566MPD2     C 8392   2.265   2.522  14.208  0.9731 -0.3585  0.0148
  566MPD2    C1 8393   2.314   2.626  14.132  0.1644 -0.2369  0.6826
  566MPD2    C2 8394   2.296   2.614  13.996 -0.2474 -0.3750 -0.5555
  566MPD2    C3 8395   2.207   2.520  13.943  0.4114 -0.4001 -0.0539
  566MPD2    C4 8396   2.148   2.427  14.025  0.5902 -0.1042  0.1668
  566MPD2    C5 8397   2.182   2.424  14.156 -0.4446  1.2403 -0.5605
  566MPD2     H 8398   2.331   2.683  13.920 -0.3629  0.3664  0.0696
  566MPD2    H1 8399   2.071   2.366  13.979  1.0677 -0.6803  0.1281
  566MPD2    H2 8400   2.275   2.509  14.315 -0.4457 -1.4876  0.0042
  566MPD2    H3 8401   2.143   2.344  14.218 -2.0461  2.9872  0.7291
  566MPD2     N 8402   2.185   2.518  13.804  0.3462 -0.3804  0.6496
  566MPD2    H5 8403   2.228   2.596  13.755  0.6109  0.5779  2.4031
  566MPD2    N1 8404   2.407   2.715  14.189 -0.6477  0.5411 -0.3362
  566MPD2    H7 8405   2.444   2.701  14.282  0.2105  2.7403 -0.3646
  567TMC3    C1 8406   2.593   2.873  14.180 -0.3125  0.7267 -0.2192
  567TMC3    C2 8407   2.651   2.968  14.102 -0.2423 -0.1933  0.8070
  567TMC3    C3 8408   2.779   3.002  14.133  0.0806 -0.0188 -0.3709
  567TMC3    C4 8409   2.652   2.817  14.286 -0.1445 -0.5117 -0.1196
  567TMC3    C5 8410   2.778   2.868  14.322  0.7355 -0.4398 -0.4326
  567TMC3    C6 8411   2.849   2.954  14.243  0.4875  0.7522  0.0339
  567TMC3     C 8412   2.477   2.805  14.116  0.6460  0.3925 -0.4178
  567TMC3     O 8413   2.476   2.837  14.003 -0.5694  0.3487 -0.9008
  567TMC3     H 8414   2.602   3.009  14.015  0.4505  1.3247  1.1308
  567TMC3    H1 8415   2.620   2.719  14.319 -0.6761  0.4238  2.1648
  567TMC3    H2 8416   2.948   2.988  14.271  0.0530 -0.3665  2.9660
  567TMC3    C7 8417   2.848   2.822  14.446  0.2332  0.4715 -0.1358
  567TMC3    C8 8418   2.846   3.061  14.020 -0.5701 -0.2772  0.1229
  567TMC3    O1 8419   2.966   2.845  14.456  0.1899  0.0638  0.5313
  567TMC3    O2 8420   2.806   3.022  13.910 -0.4166 -0.2811 -0.8027
  568MPD2     C 8421   0.078   3.757  17.174  0.3378 -0.1113 -0.6070
  568MPD2    C1 8422   0.200   3.726  17.114 -0.4143  0.2803 -0.4292
  568MPD2    C2 8423   0.236   3.808  17.012  0.2382  0.4856 -0.0343
  568MPD2    C3 8424   0.148   3.903  16.971  0.1400  0.0862 -0.1230
  568MPD2    C4 8425   0.028   3.934  17.036 -0.2730  0.4886 -0.2899
  568MPD2    C5 8426   4.706   3.845  17.131 -0.7773 -0.0374  0.3583
  568MPD2     H 8427   0.329   3.789  16.960 -1.2956 -0.2823 -2.4758
  568MPD2    H1 8428   4.690   4.019  17.007  1.0489  1.6703  0.5099
  568MPD2    H2 8429   0.038   3.697  17.255 -0.7081 -0.1547 -1.1453
  568MPD2    H3 8430   4.615   3.850  17.190 -1.3407  2.1220 -0.6684
  568MPD2     N 8431   0.209   3.986  16.869 -0.2565  0.2220 -0.4432
  568MPD2    H5 8432   0.305   3.965  16.842 -0.0291 -1.8557  1.9686
  568MPD2    N1 8433   0.284   3.631  17.166  0.2186  0.0828  0.1047
  568MPD2    H7 8434   0.258   3.595  17.257 -0.5035  1.0839  0.2924
  569TMC3    C1 8435   0.215   4.162  16.712  0.0681  0.2821  0.4619
  569TMC3    C2 8436   0.337   4.207  16.754  0.2068  0.4797 -0.2675
  569TMC3    C3 8437   0.404   4.306  16.680 -0.3207  0.6629  0.5528
  569TMC3    C4 8438   0.156   4.206  16.597  0.3576 -0.3570  1.4709
  569TMC3    C5 8439   0.229   4.293  16.518  0.2439  0.7152  0.1707
  569TMC3    C6 8440   0.354   4.350  16.562 -0.1313  0.5724 -0.2768
  569TMC3     C 8441   0.134   4.075  16.792  0.6269  0.3231  0.4891
  569TMC3     O 8442   0.014   4.098  16.786 -0.2629 -0.0978 -0.5527
  569TMC3     H 8443   0.380   4.184  16.851 -0.5756 -2.6982 -0.6749
  569TMC3    H1 8444   0.054   4.183  16.569  0.6365  1.1017 -0.8082
  569TMC3    H2 8445   0.419   4.398  16.489  0.1480 -0.1185 -0.4814
  569TMC3    C7 8446   0.159   4.358  16.411 -0.1143 -0.5025 -1.0721
  569TMC3    C8 8447   0.507   4.375  16.750 -0.5715  0.2469 -0.1488
  569TMC3    O1 8448   0.050   4.319  16.376  0.0542 -0.1561  0.3471
  569TMC3    O2 8449   0.568   4.320  16.842  0.4467 -0.3183  0.1980
  570TMC3    C1 8450   4.133   1.692  16.193 -0.0802 -0.8439  0.4696
  570TMC3    C2 8451   4.260   1.733  16.155 -0.3897  0.2868 -0.4710
  570TMC3    C3 8452   4.269   1.829  16.058 -0.3068 -0.4204  0.3031
  570TMC3    C4 8453   4.024   1.756  16.140 -0.5109  1.0184 -0.3123
  570TMC3    C5 8454   4.042   1.858  16.053  0.4458  0.1567  0.1173
  570TMC3    C6 8455   4.165   1.886  15.994  0.4484 -0.1933  0.0010
  570TMC3     C 8456   4.122   1.640  16.331  0.1155 -0.5397 -0.4627
  570TMC3     O 8457   4.011   1.591  16.349  0.3059  0.1150 -0.0148
  570TMC3     H 8458   4.348   1.696  16.206  0.9103  1.1361 -2.0953
  570TMC3    H1 8459   3.926   1.744  16.186 -0.2806  0.7232  0.1051
  570TMC3    H2 8460   4.171   1.973  15.930 -0.3137  1.5328  2.2431
  570TMC3    C7 8461   3.970   1.981  16.094  0.9139  0.3833  0.1468
  570TMC3    C8 8462   4.392   1.905  16.046  0.0474 -0.0836 -0.0535
  570TMC3    O1 8463   3.867   1.954  16.148 -0.9315 -0.1973  0.0843
  570TMC3    O2 8464   4.384   2.029  16.033  0.2008  0.6218 -0.2448
  571MPD2     C 8465   2.365   3.468  17.001 -0.1488  0.3112 -0.2821
  571MPD2    C1 8466   2.490   3.488  17.053 -0.3516 -0.4737 -0.1685
  571MPD2    C2 8467   2.508   3.576  17.161  0.0003 -0.5900 -0.5408
  571MPD2    C3 8468   2.405   3.653  17.208 -0.5541  0.4335  0.8164
  571MPD2    C4 8469   2.279   3.641  17.142  0.9531 -0.2275 -0.4989
  571MPD2    C5 8470   2.258   3.540  17.050  0.6067  0.6505  0.0455
  571MPD2     H 8471   2.607   3.579  17.205 -0.1949 -0.9494 -0.0692
  571MPD2    H1 8472   2.193   3.699  17.174  1.3168  2.3652 -4.2009
  571MPD2    H2 8473   2.349   3.390  16.927  1.9468  0.3252 -0.7644
  571MPD2    H3 8474   2.158   3.529  17.009 -0.4346  0.7870  2.4984
  571MPD2     N 8475   2.403   3.746  17.313 -0.0056  0.6292 -0.8366
  571MPD2    H5 8476   2.313   3.784  17.338 -0.1279  0.4333 -0.9716
  571MPD2    N1 8477   2.596   3.416  17.001  0.2363 -0.2929 -0.0691
  571MPD2    H7 8478   2.568   3.350  16.929  1.6206  0.1222 -0.9802
  572TMC3    C1 8479   2.470   3.851  17.513  0.5095  0.2587 -0.1430
  572TMC3    C2 8480   2.365   3.803  17.586  0.3972  0.5512  0.9140
  572TMC3    C3 8481   2.354   3.850   0.029  0.5297 -0.9120 -0.2142
  572TMC3    C4 8482   2.556   3.947  17.560 -0.5747 -0.1106 -0.4497
  572TMC3    C5 8483   2.540   3.992  17.686 -0.3430  0.4035  0.0975
  572TMC3    C6 8484   2.430   3.950   0.071  0.6889  0.2138  0.2287
  572TMC3     C 8485   2.512   3.780  17.392 -0.4676 -0.4133 -0.2071
  572TMC3     O 8486   2.631   3.777  17.363 -0.1683 -0.3750 -0.6090
  572TMC3     H 8487   2.279   3.761  17.536  1.3236  0.9133 -0.9771
  572TMC3    H1 8488   2.642   3.991  17.511 -0.5948  0.6860  0.2341
  572TMC3    H2 8489   2.400   3.995   0.165  2.5361 -2.0936  1.8981
  572TMC3    C7 8490   2.597   4.120   0.041 -0.8547  0.1035  0.2952
  572TMC3    C8 8491   2.224   3.813   0.100 -0.1256 -0.3861 -0.0263
  572TMC3    O1 8492   2.628   4.201  17.640 -0.2951 -0.1071 -0.2099
  572TMC3    O2 8493   2.141   3.751   0.030 -0.1658 -0.6382  0.2098
  573MPD2     C 8494   4.705   3.987   1.311 -0.3272  0.0695 -0.2993
  573MPD2    C1 8495   4.647   4.108   1.282 -0.0816  0.9181 -0.2215
  573MPD2    C2 8496   4.541   4.109   1.195  0.6733  0.5879  0.3659
  573MPD2    C3 8497   4.510   3.997   1.119  0.3384 -0.7024  0.3146
  573MPD2    C4 8498   4.577   3.878   1.146  0.0164 -0.2386 -0.2022
  573MPD2    C5 8499   4.660   3.866   1.252  0.2792  0.3320  0.5368
  573MPD2     H 8500   4.492   4.205   1.183 -0.1619  0.2545  1.0505
  573MPD2    H1 8501   4.564   3.785   1.093 -1.3474 -0.1403 -0.0327
  573MPD2    H2 8502   0.060   3.971   1.387 -0.3856  2.1700  0.2252
  573MPD2    H3 8503   4.708   3.772   1.279 -0.5158 -0.2072  0.0579
  573MPD2     N 8504   4.411   4.001   1.015  0.5062 -0.6029  0.0150
  573MPD2    H5 8505   4.395   3.914   0.966 -1.2130  0.0277 -0.5184
  573MPD2    N1 8506   4.702   4.216   1.348 -0.0219  0.5453  0.0375
  573MPD2    H7 8507   0.059   4.207   1.412 -0.1637 -0.1629  0.1102
  574TMC3    C1 8508   4.250   4.097   0.869 -0.5006 -0.3082  0.6973
  574TMC3    C2 8509   4.188   3.976   0.855 -0.5104 -0.1358 -0.0817
  574TMC3    C3 8510   4.107   3.961   0.751  0.3598 -0.8009  0.3967
  574TMC3    C4 8511   4.223   4.204   0.788  0.0410 -0.4409 -0.5450
  574TMC3    C5 8512   4.138   4.184   0.678  0.1087 -0.2093 -0.0746
  574TMC3    C6 8513   4.073   4.063   0.669 -0.1377  0.0215  0.2190
  574TMC3     C 8514   4.349   4.118   0.971  0.2138 -0.4178  0.5670
  574TMC3     O 8515   4.380   4.236   0.988 -0.1331  0.3074 -0.5711
  574TMC3     H 8516   4.206   3.896   0.925  1.4358 -0.0475 -0.4621
  574TMC3    H1 8517   4.250   4.306   0.814 -3.1893 -0.0024  1.1843
  574TMC3    H2 8518   4.010   4.047   0.582  0.1188 -0.5898  0.1529
  574TMC3    C7 8519   4.087   4.300   0.612  0.7909 -1.1010 -0.3491
  574TMC3    C8 8520   3.994   3.868   0.793 -0.4522 -0.6642  0.1667
  574TMC3    O1 8521   4.140   4.408   0.635  0.0620  0.6279  0.1694
  574TMC3    O2 8522   4.016   3.797   0.891  0.1010 -0.3475  0.0855
  575TMC3    C1 8523   1.548   0.367  11.607  1.0229  0.6711  0.6602
  575TMC3    C2 8524   1.553   0.296  11.722  0.6935  0.3673 -0.5927
  575TMC3    C3 8525   1.456   0.199  11.747 -0.1171  0.6296 -0.2955
  575TMC3    C4 8526   1.473   0.328  11.500 -0.1174 -0.0027  0.0649
  575TMC3    C5 8527   1.394   0.217  11.520  0.3520  0.5976  0.3066
  575TMC3    C6 8528   1.377   0.157  11.642  0.5011  0.0273  0.8855
  575TMC3     C 8529   1.625   0.491  11.595 -0.7360 -1.4192  0.1088
  575TMC3     O 8530   1.691   0.518  11.696  0.5854 -0.4854  0.5352
  575TMC3     H 8531   1.621   0.329  11.799 -0.9735  2.7732 -0.1426
  575TMC3    H1 8532   1.457   0.376  11.404 -1.9892 -0.6634  0.0452
  575TMC3    H2 8533   1.306   0.076  11.655 -1.1011  1.3863  0.7152
  575TMC3    C7 8534   1.356   0.151  11.393  0.7193 -0.0606  0.4903
  575TMC3    C8 8535   1.430   0.148  11.887  0.0385  0.0660  0.3354
  575TMC3    O1 8536   1.433   0.161  11.298 -0.1549 -0.2060  0.5059
  575TMC3    O2 8537   1.357   0.051  11.899 -0.6190  0.5628 -0.0254
  576MPD2     C 8538   0.503   2.294  12.708  0.2103 -0.1460  0.3640
  576MPD2    C1 8539   0.522   2.403  12.623 -0.0259  0.1311 -0.1195
  576MPD2    C2 8540   0.458   2.522  12.644 -0.3573 -0.2893 -0.0923
  576MPD2    C3 8541   0.362   2.533  12.739 -0.0520 -0.1933 -0.0089
  576MPD2    C4 8542   0.347   2.431  12.829 -0.2894 -0.1726 -0.9754
  576MPD2    C5 8543   0.418   2.312  12.814 -0.2905 -0.4011 -0.2131
  576MPD2     H 8544   0.467   2.597  12.567 -1.6564  0.2774  0.3062
  576MPD2    H1 8545   0.282   2.432  12.916  0.2090 -0.7225 -0.5932
  576MPD2    H2 8546   0.559   2.202  12.701  2.3561  1.1394  0.3934
  576MPD2    H3 8547   0.416   2.244  12.898 -2.3303  0.3065  0.3268
  576MPD2     N 8548   0.298   2.653  12.760  0.4072 -0.1803  0.5023
  576MPD2    H5 8549   0.341   2.726  12.703  1.2028 -1.3379 -0.3904
  576MPD2    N1 8550   0.600   2.391  12.502 -0.7909 -1.0825 -0.0900
  576MPD2    H7 8551   0.614   2.475  12.447 -0.5088 -2.0287 -1.4617
  577TMC3    C1 8552   0.711   2.285  12.321 -0.0767 -0.0992  0.1113
  577TMC3    C2 8553   0.737   2.168  12.262 -0.2500  0.1314 -0.5098
  577TMC3    C3 8554   0.792   2.172  12.138 -0.1057 -0.5770 -0.3694
  577TMC3    C4 8555   0.733   2.408  12.263  0.4498 -0.0138 -0.5646
  577TMC3    C5 8556   0.814   2.407  12.155  0.8295  0.5108 -0.1580
  577TMC3    C6 8557   0.844   2.291  12.090 -0.1570  0.4486 -0.2412
  577TMC3     C 8558   0.643   2.276  12.450 -0.6796  0.4783  0.0920
  577TMC3     O 8559   0.638   2.158  12.490 -0.1987  0.2208 -0.5613
  577TMC3     H 8560   0.695   2.077  12.304  1.3153 -0.2719  0.1656
  577TMC3    H1 8561   0.703   2.503  12.307 -1.2691 -0.6513 -0.3615
  577TMC3    H2 8562   0.911   2.281  12.006 -1.5563 -1.4268 -1.1536
  577TMC3    C7 8563   0.859   2.533  12.106  0.4039 -0.1273 -0.5921
  577TMC3    C8 8564   0.837   2.047  12.087 -0.4733 -0.0618  0.0644
  577TMC3    O1 8565   0.886   2.615  12.191 -0.1233 -0.7375  0.0073
  577TMC3    O2 8566   0.841   1.956  12.172 -0.0634 -0.3116 -0.3638
  578MPD2     C 8567   3.893   1.849   1.122  0.2536  0.0874  1.4294
  578MPD2    C1 8568   4.010   1.904   1.073 -0.1880 -0.2891  0.8928
  578MPD2    C2 8569   4.124   1.899   1.149 -0.1593  0.2172 -0.2224
  578MPD2    C3 8570   4.125   1.842   1.276 -0.1339  0.4245  0.1669
  578MPD2    C4 8571   4.009   1.777   1.316 -0.0257  1.1025  0.2482
  578MPD2    C5 8572   3.896   1.777   1.240 -0.1366 -0.0338  0.1474
  578MPD2     H 8573   4.219   1.943   1.120  0.7766 -1.5351  0.2017
  578MPD2    H1 8574   4.005   1.731   1.414 -1.7016 -1.7409 -1.1487
  578MPD2    H2 8575   3.791   1.860   1.088  1.1201 -0.4369 -1.3045
  578MPD2    H3 8576   3.806   1.728   1.275  0.7601 -1.5270  0.3646
  578MPD2     N 8577   4.254   1.825   1.338 -0.1270 -0.1925 -0.4199
  578MPD2    H5 8578   4.335   1.860   1.287 -0.4211  2.6230  1.0012
  578MPD2    N1 8579   4.009   1.967   0.944  0.4334 -0.2531 -0.2025
  578MPD2    H7 8580   3.920   1.975   0.896  0.6860  1.4797 -0.4002
  579TMC3    C1 8581   4.425   1.750   1.473  0.1843  0.3231  0.1999
  579TMC3    C2 8582   4.479   1.746   1.596 -0.1730  0.2385 -0.0466
  579TMC3    C3 8583   4.612   1.717   1.600 -0.5898 -0.6182  0.0843
  579TMC3    C4 8584   4.483   1.704   1.362 -0.2477 -0.4551 -0.3233
  579TMC3    C5 8585   4.610   1.669   1.371 -0.3246  0.6732  0.4593
  579TMC3    C6 8586   4.687   1.683   1.481 -0.4104 -0.6556 -0.0388
  579TMC3     C 8587   4.284   1.768   1.460 -0.1121 -0.0379 -0.1414
  579TMC3     O 8588   4.212   1.745   1.560  0.1199  0.1470  0.0492
  579TMC3     H 8589   4.428   1.797   1.677 -2.6303 -3.8422  0.9424
  579TMC3    H1 8590   4.426   1.686   1.271  0.4809  2.6984 -1.4013
  579TMC3    H2 8591   0.065   1.641   1.483  0.1681  0.7596  1.0496
  579TMC3    C7 8592   4.686   1.612   1.258 -0.0749 -0.7184 -0.4350
  579TMC3    C8 8593   4.678   1.781   1.708 -0.0033  0.3465 -0.6965
  579TMC3    O1 8594   0.086   1.602   1.262  0.2758 -0.1739 -0.0177
  579TMC3    O2 8595   4.619   1.799   1.815 -0.7181 -0.1632  0.2121
  580TMC3    C1 8596   3.492   0.977  11.580 -0.1343 -0.0965 -0.4567
  580TMC3    C2 8597   3.484   0.902  11.469 -0.1756  0.4230 -0.7098
  580TMC3    C3 8598   3.455   0.767  11.476 -0.0296  0.1806  0.8824
  580TMC3    C4 8599   3.455   0.924  11.705  0.1658  0.0435  0.8552
  580TMC3    C5 8600   3.426   0.786  11.710  0.3691  0.2658 -0.5852
  580TMC3    C6 8601   3.435   0.709  11.599  0.6885 -0.3692  0.0213
  580TMC3     C 8602   3.608   1.061  11.594 -0.1042  0.3138  0.4575
  580TMC3     O 8603   3.692   1.036  11.511 -0.4132  0.0532  0.4205
  580TMC3     H 8604   3.504   0.946  11.372 -0.4719  0.6691 -0.6578
  580TMC3    H1 8605   3.471   0.965  11.804 -1.0873 -0.0710  1.1150
  580TMC3    H2 8606   3.449   0.603  11.617 -0.4207 -0.5628 -0.2518
  580TMC3    C7 8607   3.448   0.730  11.846 -0.1994 -0.0299 -0.6748
  580TMC3    C8 8608   3.535   0.679  11.394 -0.9949 -0.2108  0.6819
  580TMC3    O1 8609   3.514   0.792  11.928 -0.2287 -0.3689 -0.2543
  580TMC3    O2 8610   3.522   0.558  11.409  0.2522  0.2468 -0.3869
  581MPD2     C 8611   1.630   0.909  14.539 -0.2754  0.6048  0.1385
  581MPD2    C1 8612   1.647   0.944  14.669  0.5409  0.8324 -0.4620
  581MPD2    C2 8613   1.552   1.024  14.727 -0.3890 -0.2416 -0.9296
  581MPD2    C3 8614   1.439   1.060  14.653 -0.1343 -0.3231 -0.3827
  581MPD2    C4 8615   1.436   1.036  14.520  0.7445 -0.0070  0.1833
  581MPD2    C5 8616   1.526   0.952  14.464 -0.1543 -0.0253  0.8335
  581MPD2     H 8617   1.552   1.043  14.833  0.5283  1.4590 -1.2365
  581MPD2    H1 8618   1.362   1.080  14.454  1.2277  3.0422  1.6731
  581MPD2    H2 8619   1.704   0.846  14.492  0.4843  1.5882  0.0372
  581MPD2    H3 8620   1.526   0.928  14.358  1.6749 -0.7512  0.9939
  581MPD2     N 8621   1.340   1.126  14.727  0.0462 -0.2655 -0.5312
  581MPD2    H5 8622   1.347   1.125  14.828  0.1901  0.1899 -0.5349
  581MPD2    N1 8623   1.757   0.887  14.747  0.3020  0.1508  0.6917
  581MPD2    H7 8624   1.822   0.826  14.697 -1.2405  0.0929 -1.2535
  582TMC3    C1 8625   1.899   0.848  14.923  0.5147 -0.0147  0.0639
  582TMC3    C2 8626   1.964   0.911  15.024  0.6600  0.0501  0.2607
  582TMC3    C3 8627   2.011   0.840  15.131  0.7430  0.2460  0.6161
  582TMC3    C4 8628   1.880   0.714  14.931  0.0186  0.5812 -0.0636
  582TMC3    C5 8629   1.931   0.644  15.036  0.0884  0.2573  0.1409
  582TMC3    C6 8630   2.003   0.702  15.137  0.3394 -0.3863  0.0083
  582TMC3     C 8631   1.782   0.919  14.878  0.0104  0.1855 -0.1315
  582TMC3     O 8632   1.744   1.003  14.957  0.4805 -0.2576  0.3128
  582TMC3     H 8633   1.973   1.019  15.024  0.9000  0.0298  0.3046
  582TMC3    H1 8634   1.830   0.665  14.849 -1.4323  1.2752  0.4203
  582TMC3    H2 8635   2.046   0.641  15.216  1.6287  0.0824 -0.3255
  582TMC3    C7 8636   1.850   0.529  15.088 -0.5036 -0.3273  0.0849
  582TMC3    C8 8637   2.091   0.913  15.225  1.0063  0.1790  0.1215
  582TMC3    O1 8638   1.907   0.463  15.172 -0.4687  0.4239  0.1551
  582TMC3    O2 8639   2.148   1.015  15.185  0.1988 -0.1268  0.4868
  583MPD2     C 8640   1.529   2.710  17.235 -0.1227 -0.1883 -0.9507
  583MPD2    C1 8641   1.540   2.824  17.155 -0.0690 -0.8462  0.5881
  583MPD2    C2 8642   1.524   2.951  17.210  0.3081  0.5400 -0.5260
  583MPD2    C3 8643   1.515   2.955  17.344  0.0981  0.3315  0.5198
  583MPD2    C4 8644   1.523   2.844  17.424 -0.1398  0.6518  0.5595
  583MPD2    C5 8645   1.531   2.719  17.370 -1.0658 -0.5809  0.1022
  583MPD2     H 8646   1.506   3.041  17.152 -1.2067  2.5170  3.0601
  583MPD2    H1 8647   1.525   2.848  17.532  1.0801 -2.2221  0.6625
  583MPD2    H2 8648   1.541   2.607  17.204 -2.1874 -1.1566  1.4561
  583MPD2    H3 8649   1.533   2.631  17.433 -0.4412 -0.2557  0.5325
  583MPD2     N 8650   1.508   3.080  17.401 -0.0059 -0.2973  0.0530
  583MPD2    H5 8651   1.471   3.159  17.350  0.9108  0.3339  0.3671
  583MPD2    N1 8652   1.561   2.813  17.014 -0.3141 -0.1940  0.3496
  583MPD2    H7 8653   1.562   2.900  16.960 -0.8576 -0.0830  0.5156
  584TMC3    C1 8654   1.547   3.258  17.559  0.7866  0.4254  0.4003
  584TMC3    C2 8655   1.554   3.351  17.456 -0.1036  0.0539 -0.2456
  584TMC3    C3 8656   1.594   3.473  17.489 -0.3171 -0.5310 -0.0426
  584TMC3    C4 8657   1.557   3.293   0.007 -0.1815 -0.7541 -0.0176
  584TMC3    C5 8658   1.593   3.422   0.034  0.1983 -0.0206  0.2844
  584TMC3    C6 8659   1.607   3.515  17.620 -0.4564 -0.1771 -0.1358
  584TMC3     C 8660   1.544   3.113  17.534  0.2472 -0.1617  0.1378
  584TMC3     O 8661   1.582   3.040  17.624 -0.3986  0.6663  0.0840
  584TMC3     H 8662   1.541   3.321  17.353 -1.6266  2.1799 -0.6604
  584TMC3    H1 8663   1.547   3.221   0.087 -0.2560  1.5884  2.0789
  584TMC3    H2 8664   1.632   3.618  17.642  2.1426 -0.4443 -1.7314
  584TMC3    C7 8665   1.604   3.473   0.167  0.3137 -0.4528 -0.6363
  584TMC3    C8 8666   1.597   3.560  17.366 -0.4134 -0.1607 -0.3875
  584TMC3    O1 8667   1.626   3.592   0.172  0.0294 -0.0996  0.0451
  584TMC3    O2 8668   1.557   3.519  17.253  0.1663 -0.3190  0.2969
  585MPD2     C 8669   1.082   1.511   0.794 -0.3873  0.3612 -0.4446
  585MPD2    C1 8670   1.130   1.535   0.665 -0.5293  0.4552 -0.0007
  585MPD2    C2 8671   1.126   1.436   0.569  0.0159  0.1165 -0.3434
  585MPD2    C3 8672   1.072   1.311   0.596 -0.0320 -0.0075  0.1853
  585MPD2    C4 8673   1.015   1.294   0.726 -0.4435  0.0986  0.4849
  585MPD2    C5 8674   1.031   1.387   0.831  0.1371 -0.4352 -0.4230
  585MPD2     H 8675   1.150   1.471   0.470  0.9281 -0.5915 -0.3669
  585MPD2    H1 8676   0.970   1.200   0.757 -0.8468  0.6265  1.5036
  585MPD2    H2 8677   1.105   1.576   0.878 -2.0254  0.9451 -0.4637
  585MPD2    H3 8678   0.997   1.356   0.929 -2.1330 -2.2531 -1.8025
  585MPD2     N 8679   1.057   1.207   0.496 -0.5427 -0.3828  0.2854
  585MPD2    H5 8680   0.984   1.138   0.510 -2.3471  1.4882  0.3107
  585MPD2    N1 8681   1.180   1.667   0.627  0.0881  0.1727 -0.1520
  585MPD2    H7 8682   1.172   1.736   0.701  0.2641 -1.5116  1.4287
  586TMC3    C1 8683   1.117   1.088   0.303  0.5496 -0.4158  0.3048
  586TMC3    C2 8684   1.215   1.042   0.218 -0.0061 -0.3530  0.4136
  586TMC3    C3 8685   1.181   0.990   0.092 -0.2122  0.2832 -0.0623
  586TMC3    C4 8686   0.985   1.064   0.272 -0.0290  0.3336  0.5627
  586TMC3    C5 8687   0.953   0.998   0.154  0.3965  0.1269 -0.2776
  586TMC3    C6 8688   1.050   0.971   0.064  0.7973 -0.2747 -0.4291
  586TMC3     C 8689   1.143   1.200   0.392  0.6436 -0.4949  0.0454
  586TMC3     O 8690   1.237   1.273   0.384  0.9456  0.5988  0.0738
  586TMC3     H 8691   1.319   1.061   0.241  0.9273 -1.0069 -3.3263
  586TMC3    H1 8692   0.902   1.103   0.329  1.2841  1.6610  1.5628
  586TMC3    H2 8693   1.021   0.894  17.679 -0.9614  0.3285 -0.3772
  586TMC3    C7 8694   0.813   0.978   0.126  0.2120 -0.3247  0.0965
  586TMC3    C8 8695   1.281   0.936   0.009 -0.1428  1.0197 -0.0039
  586TMC3    O1 8696   0.740   0.965   0.222 -0.4669  0.4275 -0.5367
  586TMC3    O2 8697   1.389   0.911   0.056 -0.0987  0.3535 -0.2563
  587TMC3    C1 8698   3.140   0.683  16.184  1.0004  0.8094  0.3766
  587TMC3    C2 8699   3.114   0.693  16.313  0.0899 -0.4126  0.2413
  587TMC3    C3 8700   3.189   0.617  16.407  0.4105  0.0120 -0.4061
  587TMC3    C4 8701   3.242   0.599  16.145  0.9224  0.8082 -0.6602
  587TMC3    C5 8702   3.300   0.512  16.230 -0.3927 -0.6793 -0.3482
  587TMC3    C6 8703   3.274   0.517  16.366  0.1804  0.0855  0.3378
  587TMC3     C 8704   3.030   0.705  16.082 -0.5008 -0.0481 -0.0173
  587TMC3     O 8705   2.981   0.812  16.085  0.4255  0.2438  0.4098
  587TMC3     H 8706   3.023   0.745  16.341 -0.3662 -1.2408  0.2837
  587TMC3    H1 8707   3.258   0.588  16.038  0.6583 -0.9987 -0.5235
  587TMC3    H2 8708   3.336   0.462  16.435  0.4555 -0.4009 -0.2991
  587TMC3    C7 8709   3.412   0.433  16.185 -0.6447 -0.5072 -0.3549
  587TMC3    C8 8710   3.167   0.633  16.551 -0.0343 -0.5858 -0.3426
  587TMC3    O1 8711   3.475   0.471  16.088 -0.1525  0.1237  0.1124
  587TMC3    O2 8712   3.245   0.570  16.619 -0.0421  0.6078  0.3113
  588TMC3    C1 8713   0.359   3.370   9.636  0.3759 -0.7320 -0.6405
  588TMC3    C2 8714   0.331   3.241   9.594 -0.6209  0.1275  0.3968
  588TMC3    C3 8715   0.344   3.140   9.688 -0.2640 -1.0206 -0.6818
  588TMC3    C4 8716   0.392   3.398   9.769 -0.6497  0.0968 -0.1169
  588TMC3    C5 8717   0.402   3.290   9.854  0.4229 -0.1514 -0.3396
  588TMC3    C6 8718   0.369   3.165   9.819 -0.1938  0.3769 -0.5458
  588TMC3     C 8719   0.300   3.473   9.553  0.2641  0.6143  0.9469
  588TMC3     O 8720   0.269   3.442   9.440  0.6807  0.1759  0.0127
  588TMC3     H 8721   0.284   3.223   9.498  0.1971  0.8644 -0.1437
  588TMC3    H1 8722   0.421   3.498   9.798  3.1900 -0.9380 -0.3580
  588TMC3    H2 8723   0.358   3.087   9.893 -0.1586  1.1151  0.2409
  588TMC3    C7 8724   0.365   3.320   9.992 -0.3348 -0.1955  0.2388
  588TMC3    C8 8725   0.288   3.012   9.645  0.2374 -0.2355  0.0175
  588TMC3    O1 8726   0.419   3.265  10.091 -0.0563  0.4677 -0.4568
  588TMC3    O2 8727   0.195   3.010   9.565 -0.3860  0.0119 -0.3519
  589TMC3    C1 8728   0.445   0.699   1.540  0.4595  0.1385 -1.0738
  589TMC3    C2 8729   0.513   0.781   1.625  0.0921 -0.2634 -1.2136
  589TMC3    C3 8730   0.637   0.747   1.669 -0.5402 -0.3930  0.5882
  589TMC3    C4 8731   0.512   0.601   1.477  0.5814  1.2174 -0.2868
  589TMC3    C5 8732   0.635   0.562   1.524  0.2557  0.5668 -0.2339
  589TMC3    C6 8733   0.696   0.632   1.630 -0.2472  0.5729 -0.0217
  589TMC3     C 8734   0.323   0.751   1.472  0.5051 -0.4512 -0.0984
  589TMC3     O 8735   0.308   0.715   1.354  0.3370 -0.4330  0.0895
  589TMC3     H 8736   0.464   0.873   1.652 -1.1234 -1.0742 -0.6476
  589TMC3    H1 8737   0.472   0.554   1.388 -0.1315 -1.3830  1.3895
  589TMC3    H2 8738   0.779   0.598   1.691 -0.7212  0.7272  0.7100
  589TMC3    C7 8739   0.704   0.441   1.465  0.3674  0.2182 -0.6505
  589TMC3    C8 8740   0.707   0.845   1.752 -0.5379 -0.1747 -0.5265
  589TMC3    O1 8741   0.637   0.367   1.396 -0.0315  0.2557  0.1321
  589TMC3    O2 8742   0.647   0.934   1.810  0.4376 -0.1073  0.2654
  590MPD2     C 8743   4.075   3.256  16.112 -0.3629  0.3154 -0.7699
  590MPD2    C1 8744   4.011   3.373  16.138 -0.1058  0.1948 -0.2762
  590MPD2    C2 8745   4.061   3.455  16.236 -0.6454  0.3843 -0.7503
  590MPD2    C3 8746   4.184   3.428  16.299 -0.4852 -0.9058  0.0221
  590MPD2    C4 8747   4.242   3.303  16.273  0.3175 -0.7029 -0.6670
  590MPD2    C5 8748   4.177   3.214  16.193 -0.0999  0.0579  0.5222
  590MPD2     H 8749   4.010   3.550  16.249 -1.0437 -0.1054  1.1929
  590MPD2    H1 8750   4.331   3.271  16.326  0.5202 -0.5541 -0.9246
  590MPD2    H2 8751   4.040   3.176  16.048  0.3204 -0.0100 -0.7321
  590MPD2    H3 8752   4.211   3.112  16.182  0.7645  0.1305  2.5226
  590MPD2     N 8753   4.240   3.534  16.372  0.7382  0.5708 -0.8292
  590MPD2    H5 8754   4.188   3.622  16.375 -0.2893 -0.0523 -0.4740
  590MPD2    N1 8755   3.878   3.396  16.086  0.1578  0.0775  0.3261
  590MPD2    H7 8756   3.822   3.476  16.112  1.3315  0.4002  1.9037
  591TMC3    C1 8757   4.433   3.686  16.398  0.5303  0.4053 -0.5997
  591TMC3    C2 8758   4.556   3.683  16.339  0.8999  0.0292 -0.2402
  591TMC3    C3 8759   4.591   3.787  16.256 -0.1406  0.0224  0.1437
  591TMC3    C4 8760   4.350   3.798  16.376  0.0372 -0.3382  0.1105
  591TMC3    C5 8761   4.390   3.894  16.290  0.4150  0.0053 -1.0654
  591TMC3    C6 8762   4.503   3.884  16.219 -0.4786 -0.2439  0.3696
  591TMC3     C 8763   4.378   3.543  16.403  0.6963  0.2399  0.6702
  591TMC3     O 8764   4.462   3.452  16.406 -0.1369  0.4951 -0.6025
  591TMC3     H 8765   4.618   3.595  16.348  1.8162  0.7993  0.9179
  591TMC3    H1 8766   4.255   3.817  16.423  0.3405 -1.8103  1.2917
  591TMC3    H2 8767   4.524   3.960  16.145 -2.1759  0.0453  0.1867
  591TMC3    C7 8768   4.278   3.948  16.216  0.5702 -0.5063  0.3238
  591TMC3    C8 8769   4.650   3.720  16.138 -0.3807  0.2604  0.0312
  591TMC3    O1 8770   4.185   3.874  16.189  0.7092 -0.4582 -0.4254
  591TMC3    O2 8771   4.596   3.616  16.099  0.5279  0.2040 -0.3005
  592MPD2     C 8772   0.119   1.074  11.175  0.3760 -0.2985  0.1828
  592MPD2    C1 8773   0.120   1.139  11.294 -0.4516  0.2335  0.4427
  592MPD2    C2 8774   0.052   1.086  11.399 -0.1528  0.1719  0.0853
  592MPD2    C3 8775   4.695   0.976  11.385  0.0569 -0.1527  0.3431
  592MPD2    C4 8776   4.680   0.919  11.253  0.2629 -0.1368 -0.5478
  592MPD2    C5 8777   0.028   0.977  11.150  0.3603 -0.0115 -0.2282
  592MPD2     H 8778   0.062   1.133  11.496  2.9825 -1.5711  0.5996
  592MPD2    H1 8779   4.615   0.835  11.231  2.0468 -1.2834 -1.4366
  592MPD2    H2 8780   0.170   1.111  11.086  1.1270  0.0521  0.7574
  592MPD2    H3 8781   0.008   0.939  11.050 -0.3977 -0.9628  0.2828
  592MPD2     N 8782   4.637   0.926  11.499  0.0663  0.5027 -0.2397
  592MPD2    H5 8783   4.663   0.976  11.584 -1.4234  2.7363 -1.1130
  592MPD2    N1 8784   0.199   1.256  11.299 -0.0107  0.8306  0.4975
  592MPD2    H7 8785   0.262   1.269  11.221 -0.0582 -1.3263  0.0713
  593TMC3    C1 8786   0.315   1.449  11.379  0.0156 -0.5007 -0.0286
  593TMC3    C2 8787   0.344   1.524  11.491  0.2567  0.5206  0.4616
  593TMC3    C3 8788   0.391   1.649  11.468 -0.7337 -0.3933 -0.1842
  593TMC3    C4 8789   0.330   1.493  11.253 -0.2458  0.0729 -0.7296
  593TMC3    C5 8790   0.384   1.612  11.239  0.5133  0.4660 -0.9000
  593TMC3    C6 8791   0.410   1.699  11.340  0.5522  1.0372 -0.3337
  593TMC3     C 8792   0.216   1.342  11.401 -0.2257 -0.2973  0.2849
  593TMC3     O 8793   0.156   1.335  11.507 -0.0620 -0.5309  0.0688
  593TMC3     H 8794   0.319   1.491  11.591  1.2673  0.6030  0.7362
  593TMC3    H1 8795   0.302   1.423  11.175  0.4982 -0.9401 -0.0850
  593TMC3    H2 8796   0.451   1.799  11.325 -0.2077  1.2401 -1.0490
  593TMC3    C7 8797   0.439   1.647  11.112 -0.0538 -0.6512 -0.0791
  593TMC3    C8 8798   0.418   1.738  11.572 -0.5873  0.4074 -0.0341
  593TMC3    O1 8799   0.454   1.768  11.098  0.4291  0.0718 -0.1609
  593TMC3    O2 8800   0.427   1.859  11.537 -0.1032  0.2290 -0.5931
  594MPD2     C 8801   3.594   4.132  14.524 -0.4130  0.4184  0.5262
  594MPD2    C1 8802   3.492   4.220  14.524 -0.1123 -0.2820 -0.0505
  594MPD2    C2 8803   3.526   4.360  14.535 -0.2002 -0.0093  0.0701
  594MPD2    C3 8804   3.660   4.396  14.541  0.4232  0.0826 -0.1824
  594MPD2    C4 8805   3.753   4.303  14.510 -0.0564  0.7636  0.5170
  594MPD2    C5 8806   3.721   4.172  14.500 -0.6082  0.3267 -0.0833
  594MPD2     H 8807   3.449   4.437  14.532 -0.2064  0.0163  0.8407
  594MPD2    H1 8808   3.859   4.323  14.508 -0.0874  0.9141  0.3490
  594MPD2    H2 8809   3.570   4.027  14.513 -2.8127  0.9260  0.8203
  594MPD2    H3 8810   3.806   4.104  14.491 -0.1561  0.8612  0.1723
  594MPD2     N 8811   3.693   4.531  14.543 -0.1527  0.4837 -0.3476
  594MPD2    H5 8812   3.621   4.598  14.521 -0.0915  1.1937  1.7023
  594MPD2    N1 8813   3.360   4.165  14.517 -0.1699  0.2769  0.2756
  594MPD2    H7 8814   3.342   4.067  14.537 -1.3258 -0.1906 -3.0214
  595TMC3    C1 8815   3.936   0.187  14.468 -0.2574 -0.5941 -0.4716
  595TMC3    C2 8816   3.941   0.058  14.494  0.7891 -0.0247  0.1308
  595TMC3    C3 8817   3.830   0.002  14.560 -0.0403  0.0680  0.1664
  595TMC3    C4 8818   3.825   0.266  14.484  0.3018  0.5705  0.3437
  595TMC3    C5 8819   3.734   0.214  14.568  0.0397 -0.1182 -0.7032
  595TMC3    C6 8820   3.725   0.079  14.606 -0.3816  0.5916  0.2397
  595TMC3     C 8821   4.056   0.260  14.498 -0.2545  0.2824 -0.0974
  595TMC3     O 8822   4.044   0.380  14.480  0.2973  0.3066  0.3384
  595TMC3     H 8823   4.024   4.713  14.471 -0.6046 -1.7422  0.0517
  595TMC3    H1 8824   3.813   0.361  14.433  0.1172  0.5408  0.3348
  595TMC3    H2 8825   3.645   0.043  14.669  0.7416  0.1081  1.3857
  595TMC3    C7 8826   3.675   0.315  14.656  0.1783  0.7518 -0.1170
  595TMC3    C8 8827   3.822   4.579  14.572 -0.8852  0.0064  0.0782
  595TMC3    O1 8828   3.563   0.294  14.709 -0.2620  0.3213  0.1801
  595TMC3    O2 8829   3.925   4.517  14.593 -0.2533 -0.2460 -0.1681
  596MPD2     C 8830   2.301   2.391  16.811 -0.3909  0.0700  0.2636
  596MPD2    C1 8831   2.260   2.512  16.760  0.0551 -0.3868  0.1677
  596MPD2    C2 8832   2.184   2.502  16.643 -0.1400  0.2419 -0.4445
  596MPD2    C3 8833   2.155   2.384  16.578 -0.3312 -0.7905 -0.3826
  596MPD2    C4 8834   2.185   2.269  16.643 -0.9694  0.6053  1.3736
  596MPD2    C5 8835   2.259   2.278  16.758  1.0218  0.2701 -0.4097
  596MPD2     H 8836   2.150   2.599  16.610 -1.8694 -0.5083 -0.8440
  596MPD2    H1 8837   2.158   2.176  16.594 -1.5966  1.7854 -0.5464
  596MPD2    H2 8838   2.353   2.385  16.905 -0.8806 -1.5688  0.4196
  596MPD2    H3 8839   2.293   2.190  16.811  0.6049  0.6376  0.4548
  596MPD2     N 8840   2.089   2.370  16.457 -0.6083 -0.2420 -0.0924
  596MPD2    H5 8841   2.069   2.281  16.413 -1.8184 -0.1607  0.2956
  596MPD2    N1 8842   2.286   2.637  16.827  0.2764 -0.2407 -0.5054
  596MPD2    H7 8843   2.271   2.724  16.777  0.1157 -0.7556 -1.3429
  597TMC3    C1 8844   2.354   2.794  16.973 -0.4361  0.3321  0.0081
  597TMC3    C2 8845   2.425   2.862  16.887 -0.8609 -0.0655 -0.4801
  597TMC3    C3 8846   2.434   2.993  16.903  0.7900  0.0578 -0.6661
  597TMC3    C4 8847   2.292   2.846  17.077 -0.6792  0.4893 -0.2052
  597TMC3    C5 8848   2.307   2.980  17.095  0.2782 -0.5798 -0.7167
  597TMC3    C6 8849   2.384   3.058  17.016 -0.3730 -0.2027  0.6424
  597TMC3     C 8850   2.334   2.654  16.955 -0.0107  0.5475 -0.1367
  597TMC3     O 8851   2.345   2.570  17.045  0.5398 -0.2096 -0.0830
  597TMC3     H 8852   2.483   2.807  16.814 -0.9432  1.8531 -2.0151
  597TMC3    H1 8853   2.241   2.781  17.147  0.7133 -0.5320 -0.1375
  597TMC3    H2 8854   2.394   3.165  17.028  0.7456 -0.3603  1.0597
  597TMC3    C7 8855   2.238   3.037  17.215 -0.3282  0.8280  0.4413
  597TMC3    C8 8856   2.500   3.079  16.805 -0.4202  0.7626  0.3618
  597TMC3    O1 8857   2.158   2.963  17.266 -0.2892  0.0212  0.0032
  597TMC3    O2 8858   2.497   3.198  16.825 -0.9580  0.1273  1.3355
  598TMC3    C1 8859   0.327   4.337  16.008  0.1439 -0.3653 -0.1070
  598TMC3    C2 8860   0.209   4.281  16.035  0.5356 -0.2558 -0.3015
  598TMC3    C3 8861   0.115   4.279  15.929  0.1951 -0.2824  1.1063
  598TMC3    C4 8862   0.372   4.377  15.883  0.2373 -0.0973 -0.3081
  598TMC3    C5 8863   0.287   4.358  15.776  0.7488 -0.6969 -0.0492
  598TMC3    C6 8864   0.161   4.300  15.796  0.4293  0.1216  0.1725
  598TMC3     C 8865   0.437   4.311  16.095  0.1444 -0.6448  0.2372
  598TMC3     O 8866   0.547   4.355  16.062  0.0310 -0.0127  0.1253
  598TMC3     H 8867   0.171   4.276  16.136 -1.2100  1.3108 -0.8900
  598TMC3    H1 8868   0.471   4.417  15.861  0.8829 -1.8984 -0.7418
  598TMC3    H2 8869   0.091   4.292  15.715  1.3565 -2.9036 -0.3202
  598TMC3    C7 8870   0.345   4.350  15.641  0.7613  0.3931  0.2940
  598TMC3    C8 8871   0.027   4.168  15.938 -0.0260 -0.0883 -0.1040
  598TMC3    O1 8872   0.284   4.278  15.563  1.0057 -0.5010  0.3355
  598TMC3    O2 8873   0.043   4.083  16.024 -0.1509  0.2177 -0.1555
  599MPD2     C 8874   0.751   1.431  15.894  0.3255 -0.4499  0.5659
  599MPD2    C1 8875   0.802   1.395  16.016 -0.5370  0.2189 -0.4902
  599MPD2    C2 8876   0.720   1.409  16.127 -0.1633  0.0890 -0.2063
  599MPD2    C3 8877   0.598   1.471  16.112  0.1010 -0.3112 -0.5618
  599MPD2    C4 8878   0.544   1.510  15.990  1.1605  0.3115 -0.1096
  599MPD2    C5 8879   0.628   1.486  15.879 -0.7910 -0.8130  0.1101
  599MPD2     H 8880   0.756   1.374  16.223 -1.1326 -2.1773 -0.6619
  599MPD2    H1 8881   0.449   1.559  15.974  1.0483  0.2722  0.4201
  599MPD2    H2 8882   0.814   1.442  15.807  1.1970  2.5130  1.5735
  599MPD2    H3 8883   0.600   1.517  15.778 -0.8506  0.7052  0.5878
  599MPD2     N 8884   0.512   1.495  16.218  0.5513  0.2414  0.7144
  599MPD2    H5 8885   0.421   1.531  16.192  0.3377  0.1697  1.3562
  599MPD2    N1 8886   0.938   1.345  16.028 -0.0672  0.0685  0.1660
  599MPD2    H7 8887   0.971   1.304  15.940 -1.1792  2.5542 -1.4133
  600TMC3    C1 8888   0.424   1.534  16.433 -0.3725 -0.3256  0.4704
  600TMC3    C2 8889   0.386   1.491  16.556  0.3938  0.4838  0.2842
  600TMC3    C3 8890   0.313   1.572  16.636  0.1994  0.1137  0.0957
  600TMC3    C4 8891   0.367   1.654  16.380  0.0717  0.3638 -0.0789
  600TMC3    C5 8892   0.293   1.733  16.471  0.1818 -0.3481  0.0772
  600TMC3    C6 8893   0.266   1.696  16.600 -0.6587  0.1101 -1.3801
  600TMC3     C 8894   0.527   1.466  16.350  0.3342  0.4957  0.3143
  600TMC3     O 8895   0.618   1.412  16.407  0.6250  0.9135 -0.0555
  600TMC3     H 8896   0.436   1.404  16.596  1.2186 -0.9946 -3.8863
  600TMC3    H1 8897   0.373   1.691  16.279 -1.7398 -0.7635 -0.6085
  600TMC3    H2 8898   0.213   1.754  16.675  1.3918  0.4255 -0.1633
  600TMC3    C7 8899   0.241   1.859  16.426  0.0412 -0.1596  0.7851
  600TMC3    C8 8900   0.279   1.526  16.769 -0.9321 -0.0505  0.0368
  600TMC3    O1 8901   0.139   1.896  16.484  0.1330  0.8737 -0.0015
  600TMC3    O2 8902   0.352   1.446  16.818 -0.4636 -0.2004  0.0230
  601MPD2     C 8903   2.742   4.475   0.383 -0.6106  0.5390 -0.1404
  601MPD2    C1 8904   2.704   4.486   0.251 -1.1639 -0.6468 -0.1057
  601MPD2    C2 8905   2.645   4.374   0.188 -0.4802 -0.0471 -0.3381
  601MPD2    C3 8906   2.655   4.250   0.247  0.9402  0.3595 -0.0569
  601MPD2    C4 8907   2.709   4.241   0.373 -0.1369 -0.0096  0.6796
  601MPD2    C5 8908   2.738   4.352   0.445  0.0385 -0.2925  0.0650
  601MPD2     H 8909   2.589   4.381   0.096  0.4971  0.9895 -0.8450
  601MPD2    H1 8910   2.716   4.149   0.430 -1.8942  0.3646  1.4962
  601MPD2    H2 8911   2.767   4.557   0.449  0.9768 -0.4072  0.4404
  601MPD2    H3 8912   2.761   4.340   0.550  3.7326 -1.6419 -0.8799
  601MPD2     N 8913   2.623   4.128   0.174 -0.0832 -0.3569 -0.4811
  601MPD2    H5 8914   2.612   4.053   0.243 -0.5911 -2.8593 -3.2767
  601MPD2    N1 8915   2.690   4.617   0.180 -0.2553  0.1256 -0.3544
  601MPD2    H7 8916   2.631   4.621   0.098 -0.1475  1.1050 -0.3768
  602TMC3    C1 8917   2.715   0.119   0.116  0.5992 -0.6352  0.2772
  602TMC3    C2 8918   2.803   0.217   0.081 -0.2370  0.2957  0.4882
  602TMC3    C3 8919   2.773   0.283  17.648  0.0683  0.3116  0.4544
  602TMC3    C4 8920   2.609   0.085   0.041  0.1329 -0.3181 -0.1629
  602TMC3    C5 8921   2.581   0.148  17.613 -0.9148  0.2567 -0.2137
  602TMC3    C6 8922   2.670   0.240  17.566  0.0011  0.3710  0.1128
  602TMC3     C 8923   2.749   0.013   0.216 -0.3923 -0.5912 -0.0274
  602TMC3     O 8924   2.824   0.046   0.306 -0.8920 -0.3186 -0.7540
  602TMC3     H 8925   2.880   0.244   0.153 -0.1300 -1.2575  0.9562
  602TMC3    H1 8926   2.525   0.027   0.076  1.0550 -1.1389  0.6807
  602TMC3    H2 8927   2.680   0.264  17.461  0.7643 -2.2840 -0.4041
  602TMC3    C7 8928   2.447   0.152  17.554 -0.1293  0.3717  0.3868
  602TMC3    C8 8929   2.886   0.335  17.579  0.1751 -0.9866 -0.3909
  602TMC3    O1 8930   2.361   0.094  17.617 -0.2735  0.0251 -0.7477
  602TMC3    O2 8931   2.998   0.307  17.622  0.2500  0.0640 -0.2225
  603TMC3    C1 8932   0.737   0.062  11.128 -0.3616  0.9857 -0.0755
  603TMC3    C2 8933   0.781   0.126  11.238 -0.0986 -0.2196  0.1938
  603TMC3    C3 8934   0.860   0.238  11.210  0.3461  0.3091 -0.0917
  603TMC3    C4 8935   0.738   0.114  11.000  0.0341  0.4260  0.6186
  603TMC3    C5 8936   0.788   0.240  10.984 -0.3148  0.0965 -0.3433
  603TMC3    C6 8937   0.862   0.299  11.085 -0.1676 -0.5850 -1.3048
  603TMC3     C 8938   0.722   4.642  11.131  0.0110 -0.4262 -0.7384
  603TMC3     O 8939   0.713   4.587  11.022 -0.3480  0.2093  0.1512
  603TMC3     H 8940   0.772   0.087  11.339 -0.7686  0.5622  0.4462
  603TMC3    H1 8941   0.694   0.061  10.916  0.6335  1.1116 -0.1322
  603TMC3    H2 8942   0.892   0.403  11.083  0.3518 -0.7286 -0.9645
  603TMC3    C7 8943   0.809   0.291  10.851 -0.0688  0.2952 -0.4550
  603TMC3    C8 8944   0.911   0.297  11.338 -0.6934  0.2973 -0.7299
  603TMC3    O1 8945   0.896   0.377  10.837  0.1571 -0.0364 -0.8454
  603TMC3    O2 8946   0.872   0.243  11.442 -0.0373  0.2858  0.0085
  604MPD2     C 8947   1.353   3.985  16.848 -0.6660  0.4167  0.4619
  604MPD2    C1 8948   1.279   4.061  16.751 -0.2586 -0.5150  0.2007
  604MPD2    C2 8949   1.256   4.002  16.628  0.4507 -0.3103 -0.0513
  604MPD2    C3 8950   1.271   3.866  16.609  0.2900 -0.4121  0.0082
  604MPD2    C4 8951   1.336   3.790  16.707 -0.2999  0.2704  0.4821
  604MPD2    C5 8952   1.378   3.854  16.823  1.0398 -0.2927  0.8022
  604MPD2     H 8953   1.208   4.060  16.550 -0.1611 -1.0168 -0.1948
  604MPD2    H1 8954   1.349   3.683  16.701 -0.9179  0.2198  0.0704
  604MPD2    H2 8955   1.392   4.027  16.940 -0.9893  1.7368  0.0010
  604MPD2    H3 8956   1.418   3.786  16.896  2.2206  1.5719  1.8822
  604MPD2     N 8957   1.228   3.809  16.491 -0.1418  0.1999 -0.2704
  604MPD2    H5 8958   1.166   3.866  16.436 -1.2391  0.1765  0.9254
  604MPD2    N1 8959   1.251   4.194  16.779 -0.2459  0.4225  0.1465
  604MPD2    H7 8960   1.296   4.242  16.856 -2.1243 -0.2596  1.6662
  605TMC3    C1 8961   1.163   4.410  16.755 -0.7247 -0.1122 -0.0322
  605TMC3    C2 8962   1.286   4.456  16.790  0.3209  0.3776 -0.4535
  605TMC3    C3 8963   1.319   4.589  16.766  0.0683  0.1977  0.2953
  605TMC3    C4 8964   1.069   4.494  16.692 -0.1501  0.3325  0.2514
  605TMC3    C5 8965   1.104   4.629  16.683  0.4486 -0.5188  0.4515
  605TMC3    C6 8966   1.227   4.676  16.723  0.4448 -0.2339 -0.2949
  605TMC3     C 8967   1.166   4.275  16.712  0.4477 -0.9476 -0.8856
  605TMC3     O 8968   1.085   4.247  16.624 -1.0029  0.0907  0.5955
  605TMC3     H 8969   1.362   4.382  16.813 -0.1451  0.1696  0.4005
  605TMC3    H1 8970   0.974   4.445  16.678 -0.0255 -0.1750  1.1747
  605TMC3    H2 8971   1.250   0.059  16.703 -2.1210  0.2050 -0.9812
  605TMC3    C7 8972   1.039   4.695  16.572  0.2665 -0.2900 -0.0671
  605TMC3    C8 8973   1.459   4.630  16.773 -0.5514  0.4113  0.1851
  605TMC3    O1 8974   1.065   0.090  16.546  0.4515 -0.6566  0.2088
  605TMC3    O2 8975   1.470   0.026  16.810  0.0329 -0.0449 -0.0603
  606TMC3    C1 8976   2.963   1.587  17.322  0.5030 -0.2358  0.8538
  606TMC3    C2 8977   3.028   1.547  17.439  0.6615 -0.9520 -0.5037
  606TMC3    C3 8978   3.019   1.636  17.544  0.1111 -0.3983  0.3095
  606TMC3    C4 8979   2.903   1.711  17.312 -0.0886  0.4919  0.1063
  606TMC3    C5 8980   2.911   1.798  17.423 -0.0687 -0.0485 -0.2683
  606TMC3    C6 8981   2.964   1.761  17.541 -0.7038 -0.3131 -0.4040
  606TMC3     C 8982   2.965   1.492  17.217 -0.0460  0.3767 -0.0888
  606TMC3     O 8983   2.974   1.377  17.254 -0.3012  0.4621  0.4656
  606TMC3     H 8984   3.093   1.461  17.447  0.4554 -1.1013 -0.4543
  606TMC3    H1 8985   2.860   1.732  17.215 -1.2280  0.7542  0.6650
  606TMC3    H2 8986   2.967   1.829  17.625 -0.6710 -1.0316  0.1667
  606TMC3    C7 8987   2.822   1.909  17.421 -0.3100 -0.0990 -0.3242
  606TMC3    C8 8988   3.117   1.626  17.656 -0.4142  0.7076 -0.1039
  606TMC3    O1 8989   2.812   1.959  17.309 -0.4266  0.3218  0.2829
  606TMC3    O2 8990   3.136   1.718   0.048  0.0301 -0.2196 -0.3850
  607MPD2     C 8991   0.423   0.730  11.020 -0.1735  0.6359 -0.7117
  607MPD2    C1 8992   0.542   0.786  11.060  0.7180  0.7699  0.0342
  607MPD2    C2 8993   0.541   0.870  11.167 -0.0319  1.1174 -0.0145
  607MPD2    C3 8994   0.431   0.887  11.242 -0.3549 -0.5381  0.7602
  607MPD2    C4 8995   0.314   0.824  11.211 -0.0366 -0.2858  0.2792
  607MPD2    C5 8996   0.314   0.744  11.102 -0.7121 -0.0307  0.1064
  607MPD2     H 8997   0.635   0.921  11.188  0.3884 -0.4021  1.7727
  607MPD2    H1 8998   0.219   0.853  11.256 -0.4695 -2.6137  0.8502
  607MPD2    H2 8999   0.424   0.664  10.934  1.6827 -1.3838  0.8642
  607MPD2    H3 9000   0.221   0.703  11.063 -0.6190 -1.9247  1.8572
  607MPD2     N 9001   0.449   0.967  11.354 -0.0673  0.3837 -0.0945
  607MPD2    H5 9002   0.539   1.015  11.355 -1.4014  2.8636  0.5361
  607MPD2    N1 9003   0.671   0.770  11.002 -0.0008  0.5522 -0.1499
  607MPD2    H7 9004   0.744   0.825  11.046 -0.0252 -0.5634  1.2724
  608TMC3    C1 9005   0.844   0.700  10.870  0.2610 -0.7017  0.0939
  608TMC3    C2 9006   0.934   0.720  10.971  0.1303 -0.0272 -0.6148
  608TMC3    C3 9007   1.062   0.763  10.943 -0.2107  0.0077  0.8775
  608TMC3    C4 9008   0.876   0.722  10.741 -0.2892  0.4485  1.0818
  608TMC3    C5 9009   1.001   0.771  10.714 -0.0999  0.2887 -0.4626
  608TMC3    C6 9010   1.096   0.788  10.813  0.4636  0.1146  0.3346
  608TMC3     C 9011   0.705   0.682  10.896  0.4720  0.4282 -0.5081
  608TMC3     O 9012   0.633   0.620  10.818  0.1398  0.3705 -0.4233
  608TMC3     H 9013   0.907   0.684  11.070  0.6996  3.0524  0.6760
  608TMC3    H1 9014   0.803   0.717  10.661  0.2265  2.7583  0.4789
  608TMC3    H2 9015   1.200   0.809  10.794  0.6524 -1.3439 -0.2182
  608TMC3    C7 9016   1.024   0.835  10.587 -0.0158 -0.7403 -0.6392
  608TMC3    C8 9017   1.144   0.805  11.050 -0.6617 -0.0779  0.1641
  608TMC3    O1 9018   0.951   0.795  10.494 -0.2371 -0.0165  0.2149
  608TMC3    O2 9019   1.258   0.827  11.018  0.4715  0.2024 -0.2321
  609TMC3    C1 9020   3.293   0.194   9.574  0.2756 -0.2052 -0.1239
  609TMC3    C2 9021   3.307   0.270   9.462  0.5321  0.5747 -0.4901
  609TMC3    C3 9022   3.368   0.212   9.350  0.4881 -0.0874 -0.3222
  609TMC3    C4 9023   3.357   0.071   9.579  0.5321  0.2073 -0.2150
  609TMC3    C5 9024   3.422   0.023   9.471  0.4287  0.4358  0.0205
  609TMC3    C6 9025   3.427   0.091   9.349  0.4415  0.1361  0.0315
  609TMC3     C 9026   3.236   0.244   9.696 -0.7346 -0.3371  0.3093
  609TMC3     O 9027   3.258   0.173   9.792 -0.3945 -0.4350 -0.1052
  609TMC3     H 9028   3.244   0.358   9.455  0.3602  0.5370  0.7327
  609TMC3    H1 9029   3.341   0.010   9.667  1.3003  0.6602  0.2429
  609TMC3    H2 9030   3.476   0.046   9.264  0.9930 -3.0174  2.0420
  609TMC3    C7 9031   3.501   4.626   9.486  0.1318  0.3417  0.9256
  609TMC3    C8 9032   3.336   0.278   9.221  0.1450  0.4102  0.0580
  609TMC3    O1 9033   3.532   4.601   9.603  0.5738  0.1656  0.0672
  609TMC3    O2 9034   3.302   0.395   9.241  0.1582  0.2782  0.1199
  610TMC3    C1 9035   4.549   0.254  13.274 -0.3200  0.8145 -0.0929
  610TMC3    C2 9036   4.581   0.366  13.211 -0.0339  0.6109  0.6976
  610TMC3    C3 9037   4.696   0.377  13.140  0.0441 -0.3211 -0.5228
  610TMC3    C4 9038   4.632   0.140  13.265 -0.1111 -0.5607  0.3225
  610TMC3    C5 9039   0.019   0.152  13.187 -0.1920  0.2264  0.1554
  610TMC3    C6 9040   0.063   0.272  13.137 -0.3505  0.5805  0.0204
  610TMC3     C 9041   4.426   0.243  13.345 -0.1521  0.1541  0.2239
  610TMC3     O 9042   4.380   0.349  13.373 -0.5524  0.0499  0.5812
  610TMC3     H 9043   4.505   0.443  13.201 -0.5563  0.0163  0.0902
  610TMC3    H1 9044   4.616   0.047  13.318  2.1920  0.1698  2.3186
  610TMC3    H2 9045   0.148   0.268  13.070 -1.6712 -4.1704 -1.3463
  610TMC3    C7 9046   0.103   0.036  13.173  0.0564 -0.2637  0.0002
  610TMC3    C8 9047   4.702   0.465  13.028 -0.6004 -0.0032  0.2319
  610TMC3    O1 9048   0.220   0.060  13.143  0.0072  0.0869 -0.3493
  610TMC3    O2 9049   0.038   0.422  12.929 -0.6540  0.1293  0.2453
  611MPD2     C 9050   0.009   4.088  10.456  0.8501  0.0402 -0.4607
  611MPD2    C1 9051   4.704   4.219  10.435 -0.2638 -0.7918  0.7048
  611MPD2    C2 9052   0.089   4.296  10.390  0.3423  0.8070 -0.6948
  611MPD2    C3 9053   0.209   4.240  10.351 -1.0235 -0.3715 -0.1679
  611MPD2    C4 9054   0.236   4.105  10.375  0.4955 -0.1065 -0.0573
  611MPD2    C5 9055   0.134   4.034  10.423 -0.5859  0.1982  0.9991
  611MPD2     H 9056   0.073   4.399  10.359 -0.9078  0.9867  0.5455
  611MPD2    H1 9057   0.325   4.052  10.340  1.4028  1.9729 -0.9316
  611MPD2    H2 9058   4.655   4.019  10.494  0.7932  0.3977  0.0739
  611MPD2    H3 9059   0.144   3.926  10.435 -2.1730 -0.3359 -2.4630
  611MPD2     N 9060   0.302   4.311  10.275 -0.4249 -0.1309  0.2296
  611MPD2    H5 9061   0.379   4.263  10.229 -0.3516  1.4113 -1.2734
  611MPD2    N1 9062   4.592   4.276  10.486 -0.4252 -0.6152  0.5886
  611MPD2    H7 9063   4.527   4.215  10.534 -2.0488  0.3867 -0.3289
  612TMC3    C1 9064   0.411   4.487  10.183  0.6920  0.6914 -0.2292
  612TMC3    C2 9065   0.464   4.609  10.215 -0.5859  0.6035 -0.0462
  612TMC3    C3 9066   0.575   4.648  10.146  0.0675  0.3191  0.7406
  612TMC3    C4 9067   0.436   4.418  10.065 -0.1941  0.9624 -0.4724
  612TMC3    C5 9068   0.540   4.468   9.990  0.0470 -0.1588  0.0178
  612TMC3    C6 9069   0.609   4.580  10.031 -0.1607  0.5310  0.0206
  612TMC3     C 9070   0.302   4.448  10.271  0.6032  1.0023  0.1559
  612TMC3     O 9071   0.236   4.536  10.331  0.5424  0.2203 -0.4065
  612TMC3     H 9072   0.439   4.657  10.309  1.0474  1.3131  0.0208
  612TMC3    H1 9073   0.379   4.332  10.030  0.8335 -0.3657  1.1075
  612TMC3    H2 9074   0.700   4.614   9.982 -0.5969 -1.6836 -2.2959
  612TMC3    C7 9075   0.585   4.400   9.868 -0.1285 -0.0249 -0.5465
  612TMC3    C8 9076   0.670   0.025  10.198  0.0409  0.0165 -0.5776
  612TMC3    O1 9077   0.686   4.454   9.821 -0.3896  0.1055 -0.0409
  612TMC3    O2 9078   0.735   0.084  10.117  0.1156 -0.2292 -0.0283
  613MPD2     C 9079   2.604   3.715  15.496  0.1966  0.4150 -0.4706
  613MPD2    C1 9080   2.682   3.632  15.566 -1.4127 -0.2498 -0.3086
  613MPD2    C2 9081   2.784   3.561  15.507 -0.0900  0.2911 -0.3204
  613MPD2    C3 9082   2.793   3.568  15.368  0.7344 -0.2196  0.0352
  613MPD2    C4 9083   2.699   3.637  15.298 -0.2666 -0.0018  0.1018
  613MPD2    C5 9084   2.607   3.714  15.363  0.2284  0.3545 -0.0491
  613MPD2     H 9085   2.857   3.507  15.566 -0.6577 -1.8067 -1.5267
  613MPD2    H1 9086   2.699   3.632  15.189  2.1466 -1.9143  0.1983
  613MPD2    H2 9087   2.532   3.772  15.552  0.6755 -0.5776  1.1407
  613MPD2    H3 9088   2.533   3.768  15.306 -0.8772 -0.8225  0.2777
  613MPD2     N 9089   2.889   3.491  15.303  0.3452  0.7354 -0.1994
  613MPD2    H5 9090   2.864   3.472  15.206 -0.5005  1.5285 -0.1439
  613MPD2    N1 9091   2.669   3.632  15.704 -0.1324  0.2454 -0.0710
  613MPD2    H7 9092   2.609   3.702  15.745 -0.4062  0.1830 -0.3663
  614TMC3    C1 9093   2.663   3.524  15.915 -0.2027 -0.1033  0.5311
  614TMC3    C2 9094   2.716   3.418  15.980 -0.4545 -0.0456 -0.7202
  614TMC3    C3 9095   2.636   3.329  16.049  0.9448  0.2966 -0.2346
  614TMC3    C4 9096   2.526   3.534  15.909  0.7854  0.0634 -0.6445
  614TMC3    C5 9097   2.453   3.431  15.958  0.4176 -0.3364 -0.2600
  614TMC3    C6 9098   2.502   3.328  16.036  0.3482  0.2835  0.8256
  614TMC3     C 9099   2.719   3.529  15.784  0.4914 -0.0832 -0.4424
  614TMC3     O 9100   2.775   3.423  15.759 -0.5527  0.3776 -0.2394
  614TMC3     H 9101   2.824   3.427  15.985 -0.4489  0.0437 -0.9777
  614TMC3    H1 9102   2.484   3.621  15.858  0.7566 -0.3261 -1.2918
  614TMC3    H2 9103   2.452   3.233  16.044  0.9281 -0.3628 -3.4073
  614TMC3    C7 9104   2.352   3.379  15.861  0.3356  0.1359  0.6329
  614TMC3    C8 9105   2.690   3.200  16.027 -0.4556 -0.2643 -0.0327
  614TMC3    O1 9106   2.251   3.445  15.865 -0.0647 -0.2105  0.6094
  614TMC3    O2 9107   2.685   3.120  16.118  0.4682 -0.5694 -0.3677
  615MPD2     C 9108   3.368   4.010  15.490  0.4975  0.4726 -0.7371
  615MPD2    C1 9109   3.340   4.142  15.521  0.1361  0.6980  0.2183
  615MPD2    C2 9110   3.259   4.211  15.438  0.3870  0.3430 -0.2191
  615MPD2    C3 9111   3.198   4.151  15.327  0.2944 -0.9576  0.1657
  615MPD2    C4 9112   3.241   4.023  15.292  0.9969  0.4296  0.5683
  615MPD2    C5 9113   3.321   3.954  15.377 -0.0478  0.1365 -0.2600
  615MPD2     H 9114   3.238   4.313  15.468 -1.4121  0.7753 -2.9363
  615MPD2    H1 9115   3.205   3.968  15.206 -1.0333  1.9753  0.4163
  615MPD2    H2 9116   3.433   3.947  15.549  1.2976  0.9179 -1.1319
  615MPD2    H3 9117   3.335   3.850  15.351 -2.0812  0.0840 -1.1577
  615MPD2     N 9118   3.096   4.207  15.246  0.0738  0.0062 -0.1454
  615MPD2    H5 9119   3.052   4.148  15.177 -1.2726 -0.2717  0.9399
  615MPD2    N1 9120   3.373   4.210  15.641 -0.4008 -0.0886 -0.7990
  615MPD2    H7 9121   3.312   4.290  15.652 -0.3478  0.0014 -1.1605
  616TMC3    C1 9122   3.472   4.265  15.848 -0.2326 -0.3031  0.2389
  616TMC3    C2 9123   3.523   4.217  15.971  0.0703 -0.2214 -0.7198
  616TMC3    C3 9124   3.540   4.311  16.067 -0.1960  0.6038  0.4177
  616TMC3    C4 9125   3.444   4.401  15.817 -0.4200  0.0124  0.3604
  616TMC3    C5 9126   3.456   4.483  15.923 -0.5342 -0.6461  0.4587
  616TMC3    C6 9127   3.504   4.443  16.046 -0.1905 -0.5021  0.1797
  616TMC3     C 9128   3.452   4.166  15.745  0.0030  0.0894 -0.0986
  616TMC3     O 9129   3.504   4.054  15.758  0.5478 -0.2058  0.3791
  616TMC3     H 9130   3.540   4.112  15.994  0.0508 -0.2990 -1.0630
  616TMC3    H1 9131   3.435   4.437  15.715 -0.5820 -0.8861  0.0562
  616TMC3    H2 9132   3.500   4.512  16.129 -2.9116 -0.4344 -0.0123
  616TMC3    C7 9133   3.443   4.630  15.908  0.1223 -0.3784  0.3746
  616TMC3    C8 9134   3.581   4.266  16.204 -0.5713  0.3251 -0.4425
  616TMC3    O1 9135   3.502   4.706  15.982  0.1951 -0.8757 -0.6563
  616TMC3    O2 9136   3.543   4.158  16.244 -0.3394  0.7336  0.0487
  617MPD2     C 9137   1.025   2.314  13.895 -0.4866 -0.5404 -0.1435
  617MPD2    C1 9138   1.005   2.296  14.029 -0.2094  0.4570  0.8120
  617MPD2    C2 9139   0.889   2.231  14.071 -0.1841 -0.1986 -0.6275
  617MPD2    C3 9140   0.787   2.207  13.985  0.2723 -0.9274  0.1061
  617MPD2    C4 9141   0.809   2.235  13.850  0.7107  0.5780  0.2685
  617MPD2    C5 9142   0.927   2.284  13.804 -0.1820  0.5371 -0.0507
  617MPD2     H 9143   0.874   2.211  14.176  3.3698 -1.7679 -0.4016
  617MPD2    H1 9144   0.731   2.229  13.774  1.3796  0.5969 -0.4248
  617MPD2    H2 9145   1.121   2.340  13.852  0.2304  0.4593  2.0761
  617MPD2    H3 9146   0.948   2.300  13.699 -0.2115 -0.5823 -0.2239
  617MPD2     N 9147   0.659   2.152  14.016 -0.0517 -0.0864  0.5680
  617MPD2    H5 9148   0.586   2.151  13.946  1.8594 -0.9431 -1.4147
  617MPD2    N1 9149   1.104   2.347  14.109 -0.5262  0.5539 -0.5488
  617MPD2    H7 9150   1.191   2.370  14.061 -0.1880  3.1393  1.3023
  618TMC3    C1 9151   1.239   2.363  14.287  0.1127 -0.0821 -0.3535
  618TMC3    C2 9152   1.296   2.257  14.355 -0.0537  0.5775 -0.8066
  618TMC3    C3 9153   1.426   2.246  14.334 -0.3723 -0.2037  0.5506
  618TMC3    C4 9154   1.306   2.451  14.216  0.3394  0.3390  0.1107
  618TMC3    C5 9155   1.445   2.443  14.207 -0.0289  1.2288  0.9048
  618TMC3    C6 9156   1.503   2.340  14.265 -0.0770 -0.3778 -0.6923
  618TMC3     C 9157   1.102   2.339  14.248 -0.7368  0.7861 -0.1501
  618TMC3     O 9158   1.029   2.285  14.329 -0.0044 -0.1443  0.1862
  618TMC3     H 9159   1.236   2.178  14.397  1.4890  1.2205  2.5945
  618TMC3    H1 9160   1.263   2.537  14.166  1.9174  1.1204  0.1122
  618TMC3    H2 9161   1.609   2.334  14.291  0.4135  0.3014 -2.5247
  618TMC3    C7 9162   1.472   2.434  14.067 -0.3736  0.5012  0.5110
  618TMC3    C8 9163   1.474   2.108  14.331  0.7717 -0.8604  0.4217
  618TMC3    O1 9164   1.378   2.385  14.001  0.2776 -0.2099  0.2118
  618TMC3    O2 9165   1.424   2.025  14.403  0.6081 -0.0054 -0.1909
  619MPD2     C 9166   2.347   3.066  13.684  0.4946 -0.8525 -0.2458
  619MPD2    C1 9167   2.284   3.180  13.632 -0.5197 -0.4823  0.1143
  619MPD2    C2 9168   2.149   3.180  13.616 -0.2099 -0.0313  0.1584
  619MPD2    C3 9169   2.073   3.071  13.647 -0.1969 -0.2246  0.1950
  619MPD2    C4 9170   2.129   2.966  13.709  0.2291  0.5469 -0.0792
  619MPD2    C5 9171   2.267   2.965  13.729  0.2207  1.1342  0.0514
  619MPD2     H 9172   2.110   3.273  13.576  1.0288  0.6132  0.4472
  619MPD2    H1 9173   2.072   2.881  13.745  2.9662 -2.7243 -3.5461
  619MPD2    H2 9174   2.453   3.046  13.692  0.9663  1.4123 -0.7938
  619MPD2    H3 9175   2.315   2.887  13.787 -1.1591  0.1095 -0.1873
  619MPD2     N 9176   1.938   3.068  13.632  0.1386  0.3800 -0.7776
  619MPD2    H5 9177   1.895   2.977  13.647  0.2914  0.4427  0.0327
  619MPD2    N1 9178   2.357   3.294  13.583 -0.9350  0.0869 -0.0058
  619MPD2    H7 9179   2.310   3.352  13.514 -0.7250  1.0605  0.6668
  620TMC3    C1 9180   2.544   3.448  13.574  0.3021 -0.3119 -0.0499
  620TMC3    C2 9181   2.489   3.524  13.476  0.1048 -0.0873  0.3204
  620TMC3    C3 9182   2.559   3.640  13.433 -0.0466  0.4012 -0.5424
  620TMC3    C4 9183   2.652   3.494  13.643 -0.0071  0.1707  0.7149
  620TMC3    C5 9184   2.711   3.612  13.602 -0.1563 -0.1483 -0.2691
  620TMC3    C6 9185   2.666   3.683  13.492  0.0200 -0.1394  0.5257
  620TMC3     C 9186   2.483   3.328  13.631 -0.5759  0.1429 -0.4317
  620TMC3     O 9187   2.538   3.271  13.726 -0.3258  0.0654 -0.0360
  620TMC3     H 9188   2.391   3.499  13.436  0.6938 -1.3231 -0.3418
  620TMC3    H1 9189   2.676   3.453  13.740 -1.7305  0.0261  1.0933
  620TMC3    H2 9190   2.711   3.776  13.458  0.7059 -0.1168  1.4726
  620TMC3    C7 9191   2.754   3.696  13.709 -0.4251 -0.1521 -0.4121
  620TMC3    C8 9192   2.466   3.750  13.414  0.1540  0.0584  0.4099
  620TMC3    O1 9193   2.808   3.651  13.806 -0.2725 -0.0357  0.0897
  620TMC3    O2 9194   2.488   3.850  13.481  0.2294 -0.1803  0.2910
  621MPD2     C 9195   2.680   2.834  10.699 -0.3100 -0.2150 -0.4174
  621MPD2    C1 9196   2.686   2.929  10.598  0.3652  0.0941 -0.3211
  621MPD2    C2 9197   2.804   2.995  10.573 -0.3845 -0.0114  0.6561
  621MPD2    C3 9198   2.910   2.982  10.667 -0.1333  0.7670  0.0282
  621MPD2    C4 9199   2.906   2.890  10.766 -0.1568 -0.1516  0.4686
  621MPD2    C5 9200   2.790   2.816  10.778  0.4345 -0.1436 -1.0063
  621MPD2     H 9201   2.812   3.058  10.485  1.8916  1.6222  2.0388
  621MPD2    H1 9202   2.983   2.868  10.839  2.6628 -1.6720 -2.9446
  621MPD2    H2 9203   2.595   2.771  10.720 -0.2617 -0.7472 -1.8549
  621MPD2    H3 9204   2.792   2.735  10.850  0.6350 -0.0763 -0.9341
  621MPD2     N 9205   3.031   3.055  10.650  0.1014  0.7555  0.0527
  621MPD2    H5 9206   3.113   3.044  10.709 -0.4879  2.6833  1.2214
  621MPD2    N1 9207   2.588   2.953  10.507 -0.4983 -0.4078 -0.1140
  621MPD2    H7 9208   2.609   3.013  10.428 -3.7968  2.0672  0.8918
  622TMC3    C1 9209   2.399   2.962  10.394  0.0751 -0.0903 -0.0262
  622TMC3    C2 9210   2.263   2.988  10.395  0.2758  0.1490  0.3767
  622TMC3    C3 9211   2.201   3.024  10.278 -0.6015  0.3160 -0.1542
  622TMC3    C4 9212   2.471   2.969  10.277  0.9590 -0.2039  0.1045
  622TMC3    C5 9213   2.400   2.990  10.161  0.9650 -0.4407  0.0672
  622TMC3    C6 9214   2.270   3.027  10.155  0.3394 -0.0911  0.9184
  622TMC3     C 9215   2.459   2.903  10.509 -0.3136 -0.7219 -0.6703
  622TMC3     O 9216   2.393   2.845  10.596 -0.2881  0.3220  0.6260
  622TMC3     H 9217   2.209   2.981  10.489 -2.6500 -1.9391 -1.5122
  622TMC3    H1 9218   2.573   2.931  10.274  0.6477 -0.9608 -1.0688
  622TMC3    H2 9219   2.231   3.073  10.065 -1.4028 -3.2621  0.0138
  622TMC3    C7 9220   2.468   3.008  10.038 -0.5064 -0.4532 -0.0012
  622TMC3    C8 9221   2.080   3.102  10.270  0.0569  0.0689  0.7015
  622TMC3    O1 9222   2.397   2.988   9.937  0.6661  0.0743  0.2389
  622TMC3    O2 9223   2.000   3.068  10.186 -0.3865  0.4433 -0.1084
  623MPD2     C 9224   1.319   4.035  16.226  0.0268  0.5731 -0.0089
  623MPD2    C1 9225   1.389   4.145  16.263 -0.0002  0.2615 -0.3770
  623MPD2    C2 9226   1.523   4.140  16.291  0.1025 -1.1381  0.0348
  623MPD2    C3 9227   1.590   4.020  16.281 -1.0367  0.6979  1.0235
  623MPD2    C4 9228   1.519   3.904  16.249  0.6617  0.2862  0.3489
  623MPD2    C5 9229   1.391   3.919  16.222 -0.9419  0.1042  0.3060
  623MPD2     H 9230   1.565   4.235  16.324 -0.4708 -0.4299 -1.2488
  623MPD2    H1 9231   1.565   3.807  16.247 -1.4770 -0.7600  1.1534
  623MPD2    H2 9232   1.218   4.044  16.188 -1.5592 -1.5567  3.6553
  623MPD2    H3 9233   1.343   3.827  16.191 -0.0572  0.2773 -1.6010
  623MPD2     N 9234   1.727   4.022  16.311  0.3498 -0.1513  0.4128
  623MPD2    H5 9235   1.762   4.116  16.329 -4.1456  1.6515 -0.3361
  623MPD2    N1 9236   1.328   4.264  16.273  0.2860  0.1657  0.2728
  623MPD2    H7 9237   1.389   4.341  16.301  2.0966 -0.7932 -1.0348
  624TMC3    C1 9238   2.124   3.976  16.517 -0.2256 -0.0089 -0.4861
  624TMC3    C2 9239   2.119   4.117  16.519 -0.5047  0.7303 -0.1283
  624TMC3    C3 9240   2.025   4.184  16.441 -0.1452 -0.2646  0.3974
  624TMC3    C4 9241   2.036   3.913  16.434  0.2466 -0.3186 -0.4003
  624TMC3    C5 9242   1.949   3.981  16.352 -0.1175  0.8855 -0.8219
  624TMC3    C6 9243   1.952   4.120  16.345 -0.7488 -0.3897 -0.3964
  624TMC3     C 9244   2.237   3.920  16.593 -0.1709 -0.1364 -0.5403
  624TMC3     O 9245   2.304   3.989  16.666 -0.1930  0.2247  0.9882
  624TMC3     H 9246   2.172   4.183  16.587  1.5561 -1.6895  0.6290
  624TMC3    H1 9247   2.034   3.804  16.427 -1.7008 -0.4617  2.3851
  624TMC3    H2 9248   1.889   4.188  16.288  1.6813  1.5846 -0.7210
  624TMC3    C7 9249   1.820   3.917  16.320  0.2992 -0.4836  0.0049
  624TMC3    C8 9250   1.924   4.268  16.513 -0.4345 -0.1694  0.3448
  624TMC3    O1 9251   1.804   3.797  16.336 -0.2043 -0.3004 -0.6715
  624TMC3    O2 9252   1.808   4.233  16.496  0.2116  0.2470  0.0133
  625MPD2     C 9253   1.975   0.516   0.787  0.6804  1.0248  0.2640
  625MPD2    C1 9254   2.076   0.579   0.850 -0.5684 -0.1270  0.1280
  625MPD2    C2 9255   2.174   0.507   0.912 -0.0784  0.0698  0.0225
  625MPD2    C3 9256   2.185   0.367   0.914  0.2232 -0.1856 -0.0418
  625MPD2    C4 9257   2.086   0.302   0.843  1.1748  0.2964  0.2827
  625MPD2    C5 9258   1.983   0.379   0.783 -0.2874  0.5615  1.0857
  625MPD2     H 9259   2.245   0.568   0.967 -1.5717  2.3270 -0.5516
  625MPD2    H1 9260   2.085   0.194   0.830  1.1876  0.5411 -1.6439
  625MPD2    H2 9261   1.896   0.565   0.731  2.8586  0.5646 -3.1974
  625MPD2    H3 9262   1.909   0.314   0.737  0.0446  0.6088  0.4890
  625MPD2     N 9263   2.288   0.308   0.995  0.3552 -0.1819 -0.6701
  625MPD2    H5 9264   2.364   0.361   1.037  0.3206  0.2508 -1.1508
  625MPD2    N1 9265   2.083   0.723   0.861  0.5615  0.0073  0.1997
  625MPD2    H7 9266   2.163   0.754   0.916 -0.2388 -0.0141  1.3743
  626TMC3    C1 9267   2.059   0.958   0.798  0.3194 -0.2228  0.0111
  626TMC3    C2 9268   2.025   1.036   0.695 -0.0599 -0.0889  0.7001
  626TMC3    C3 9269   2.078   1.166   0.682 -0.5840  0.4808 -0.3360
  626TMC3    C4 9270   2.155   1.010   0.892  0.2521  0.4215  0.0704
  626TMC3    C5 9271   2.208   1.142   0.876  0.2221 -0.0269  0.3596
  626TMC3    C6 9272   2.170   1.219   0.771 -0.3475  0.0708 -0.0052
  626TMC3     C 9273   2.002   0.819   0.801  0.8565 -0.0623 -0.5386
  626TMC3     O 9274   1.910   0.794   0.721 -0.2290 -0.8779  0.9374
  626TMC3     H 9275   1.949   1.005   0.625  0.2184  0.4346  0.1627
  626TMC3    H1 9276   2.185   0.954   0.980  1.5778  0.9074 -0.0604
  626TMC3    H2 9277   2.207   1.320   0.767  0.6123 -0.1637  3.5897
  626TMC3    C7 9278   2.323   1.189   0.950 -0.0023  0.2488  0.5562
  626TMC3    C8 9279   2.036   1.238   0.571 -0.2433  0.1631  0.7920
  626TMC3    O1 9280   2.369   1.300   0.918  0.0569 -0.6646 -0.5848
  626TMC3    O2 9281   1.997   1.178   0.473  0.4129  0.0290  0.2040
  627MPD2     C 9282   0.718   1.069  14.465 -0.0318 -0.0281  0.4398
  627MPD2    C1 9283   0.709   1.018  14.595  0.1937  0.1111 -0.4261
  627MPD2    C2 9284   0.682   0.886  14.617  0.1526 -0.2473 -0.5019
  627MPD2    C3 9285   0.662   0.804  14.506 -0.4728 -0.1355  0.6266
  627MPD2    C4 9286   0.678   0.848  14.377 -0.5823  0.3910 -0.2205
  627MPD2    C5 9287   0.705   0.983  14.356  1.2025 -0.7661  0.3984
  627MPD2     H 9288   0.684   0.848  14.718  0.3147 -0.3095 -0.5286
  627MPD2    H1 9289   0.676   0.789  14.286  1.1088 -1.1663  0.7552
  627MPD2    H2 9290   0.746   1.172  14.449 -2.2140  0.4038 -0.6257
  627MPD2    H3 9291   0.713   1.032  14.259  0.5292  0.4728  0.9713
  627MPD2     N 9292   0.619   0.671  14.534  0.0519  0.1936  0.4050
  627MPD2    H5 9293   0.594   0.650  14.630 -0.3849 -2.8231 -0.3676
  627MPD2    N1 9294   0.749   1.097  14.706 -0.7311  0.1965 -0.1904
  627MPD2    H7 9295   0.766   1.041  14.789 -0.2258  0.0295 -0.4042
  628TMC3    C1 9296   0.902   1.254  14.782  0.0077  0.0351  0.5544
  628TMC3    C2 9297   1.008   1.171  14.754 -0.3716  0.4074  0.5704
  628TMC3    C3 9298   1.130   1.224  14.771 -0.7747  0.2593 -0.2525
  628TMC3    C4 9299   0.910   1.384  14.820 -0.0658  0.5608  0.2912
  628TMC3    C5 9300   1.035   1.431  14.829  0.2678  0.8722  0.2507
  628TMC3    C6 9301   1.151   1.354  14.812  0.4834  0.3744 -0.4020
  628TMC3     C 9302   0.785   1.227  14.700 -0.3909 -0.0358 -0.1808
  628TMC3     O 9303   0.734   1.321  14.639 -0.1614 -0.5555 -0.6663
  628TMC3     H 9304   0.995   1.084  14.690  1.4360  0.6036 -0.0667
  628TMC3    H1 9305   0.823   1.436  14.858 -1.0484  0.3481 -1.7166
  628TMC3    H2 9306   1.246   1.403  14.791  0.6786  0.0188 -0.3522
  628TMC3    C7 9307   1.048   1.569  14.778  0.0195 -0.0617  0.2786
  628TMC3    C8 9308   1.227   1.183  14.679  0.4304  0.1880  0.4127
  628TMC3    O1 9309   1.154   1.631  14.788  0.1266  0.1376 -0.1042
  628TMC3    O2 9310   1.200   1.213  14.565 -0.2350 -0.0294 -0.3747
  629MPD2     C 9311   3.787   4.371  16.658  0.5289 -0.0751 -0.2086
  629MPD2    C1 9312   3.853   4.438  16.565  0.3329  0.3210  0.2141
  629MPD2    C2 9313   3.818   4.433  16.432 -0.2115 -0.4439 -0.3100
  629MPD2    C3 9314   3.724   4.342  16.396 -0.1319  0.4813  0.4174
  629MPD2    C4 9315   3.667   4.262  16.494  0.2200 -0.3093  0.4963
  629MPD2    C5 9316   3.695   4.281  16.628  0.4007  0.1981  0.5823
  629MPD2     H 9317   3.855   4.498  16.353  1.3184 -0.0143  0.7677
  629MPD2    H1 9318   3.583   4.199  16.468 -0.6636  0.7094  0.8882
  629MPD2    H2 9319   3.818   4.384  16.761  0.6610 -0.7209 -0.1682
  629MPD2    H3 9320   3.641   4.235  16.710 -0.4956  1.2291  0.5703
  629MPD2     N 9321   3.671   4.352  16.266  0.6621  0.2190  0.2991
  629MPD2    H5 9322   3.709   4.427  16.208  1.0916  0.3709  0.7743
  629MPD2    N1 9323   3.961   4.513  16.614  0.1483  0.1759  0.0491
  629MPD2    H7 9324   3.979   4.506  16.714 -0.1827 -0.4732  0.0629
  630TMC3    C1 9325   4.155   4.662  16.600 -1.0764 -0.4699  0.0284
  630TMC3    C2 9326   4.218   0.050  16.549  0.8114 -0.2354 -0.1800
  630TMC3    C3 9327   4.335   0.077  16.620 -0.2089  0.5069 -1.1484
  630TMC3    C4 9328   4.194   4.598  16.719  0.1247 -0.5971 -0.4043
  630TMC3    C5 9329   4.321   4.619  16.775 -0.0114  0.2106 -1.0819
  630TMC3    C6 9330   4.388   0.012  16.731 -0.2960 -0.1571 -0.4552
  630TMC3     C 9331   4.039   4.596  16.534  0.4677 -0.3211 -0.6152
  630TMC3     O 9332   4.032   4.624  16.417 -0.3152 -0.3675  0.6897
  630TMC3     H 9333   4.172   0.107  16.469 -1.3088  0.8707  1.8210
  630TMC3    H1 9334   4.151   4.500  16.735 -0.7340 -0.2710 -0.7592
  630TMC3    H2 9335   4.485   0.033  16.774 -1.0708  0.3263  1.0739
  630TMC3    C7 9336   4.334   4.563  16.912  0.0744  0.1816 -0.4233
  630TMC3    C8 9337   4.433   0.155  16.548  0.2014 -0.5646 -1.3232
  630TMC3    O1 9338   4.254   4.474  16.942  0.2816 -0.3136 -0.0324
  630TMC3    O2 9339   4.545   0.171  16.602  0.5209 -0.1037 -0.0472
  631MPD2     C 9340   2.146   4.237  15.221 -0.4832  0.1369 -0.0788
  631MPD2    C1 9341   2.172   4.313  15.115 -0.0402 -0.1547 -0.0205
  631MPD2    C2 9342   2.295   4.313  15.056 -0.9356 -0.2396  0.1701
  631MPD2    C3 9343   2.395   4.232  15.107  0.5584  0.7179 -0.1607
  631MPD2    C4 9344   2.374   4.142  15.209  0.2551  0.4654  0.2941
  631MPD2    C5 9345   2.242   4.143  15.265 -0.5976 -0.4070  0.1210
  631MPD2     H 9346   2.312   4.377  14.970 -1.4462 -1.5853 -0.9255
  631MPD2    H1 9347   2.441   4.066  15.245 -0.2744 -0.6065 -0.9985
  631MPD2    H2 9348   2.057   4.241  15.283 -0.9683  3.2985 -0.9971
  631MPD2    H3 9349   2.218   4.072  15.343 -0.6928  0.8544  1.2427
  631MPD2     N 9350   2.520   4.253  15.048  0.1984  0.0932  0.1181
  631MPD2    H5 9351   2.526   4.308  14.962  0.2301 -0.8715 -0.5024
  631MPD2    N1 9352   2.070   4.407  15.082 -0.0593 -0.3756 -0.0091
  631MPD2    H7 9353   1.987   4.393  15.138  0.2134 -1.1011  0.2142
  632TMC3    C1 9354   1.981   4.614  15.004 -0.7514  0.3111 -0.3828
  632TMC3    C2 9355   1.900   4.618  15.116  0.0174 -0.2506 -0.0653
  632TMC3    C3 9356   1.838   0.015  15.136 -0.4748  0.1064  0.2302
  632TMC3    C4 9357   1.988   4.718  14.912 -0.1644 -0.3243 -0.5419
  632TMC3    C5 9358   1.922   0.112  14.941 -0.0007  0.2869  0.5688
  632TMC3    C6 9359   1.843   0.127  15.051  1.2576  0.2320 -0.0728
  632TMC3     C 9360   2.079   4.511  14.992  0.3715 -0.2698  0.5934
  632TMC3     O 9361   2.155   4.522  14.896 -0.6484 -0.1796 -0.3092
  632TMC3     H 9362   1.888   4.540  15.190  1.2591 -0.2875  0.1063
  632TMC3    H1 9363   2.039   4.706  14.817  0.5775  2.5101 -0.4897
  632TMC3    H2 9364   1.794   0.216  15.089 -3.4402 -1.1042 -3.0527
  632TMC3    C7 9365   1.937   0.227  14.849  0.1081 -0.5686  0.7742
  632TMC3    C8 9366   1.754   0.022  15.250  0.3543  0.5741  0.1846
  632TMC3    O1 9367   1.867   0.325  14.866 -0.2033 -0.3789 -0.3511
  632TMC3    O2 9368   1.796   4.692  15.353  0.5104 -0.3220 -0.1431
  633MPD2     C 9369   2.037   2.864   0.143  0.0137  0.0866  0.2277
  633MPD2    C1 9370   1.971   2.752   0.080 -0.0488  0.5436 -0.1377
  633MPD2    C2 9371   1.949   2.635   0.151  0.1241 -0.4565  0.4778
  633MPD2    C3 9372   2.003   2.626   0.283 -0.2048 -0.8313 -0.2910
  633MPD2    C4 9373   2.053   2.736   0.343 -0.3953 -0.5924  0.9407
  633MPD2    C5 9374   2.070   2.851   0.275 -0.1761  0.8038  0.4405
  633MPD2     H 9375   1.901   2.552   0.100  0.3237  0.3875 -1.0971
  633MPD2    H1 9376   2.070   2.733   0.450  1.1472 -3.2531  0.6089
  633MPD2    H2 9377   2.050   2.960   0.096  0.8352 -1.5214 -2.8193
  633MPD2    H3 9378   2.124   2.934   0.321 -1.4638  1.2400  1.1518
  633MPD2     N 9379   2.008   2.502   0.363  0.2575  0.2919  0.1477
  633MPD2    H5 9380   2.078   2.496   0.437 -1.4421  0.4269  1.7542
  633MPD2    N1 9381   1.925   2.755  17.633 -0.1953  0.0165 -0.3459
  633MPD2    H7 9382   1.886   2.667  17.600 -3.1648  1.4681 -0.7366
  634TMC3    C1 9383   1.870   2.831  17.407  0.1033 -0.1765 -0.7210
  634TMC3    C2 9384   1.922   2.717  17.347  0.5350  0.0438  0.7513
  634TMC3    C3 9385   1.941   2.713  17.209  0.3113  0.0190 -0.2998
  634TMC3    C4 9386   1.845   2.946  17.334 -0.4874  0.3292 -0.3305
  634TMC3    C5 9387   1.865   2.939  17.197  0.2956 -0.1603 -0.0721
  634TMC3    C6 9388   1.903   2.822  17.129 -0.2208  0.0808 -0.3533
  634TMC3     C 9389   1.917   2.861  17.542  0.9857  0.4313  0.1594
  634TMC3     O 9390   1.938   2.972  17.574 -0.4880 -0.1856  0.3617
  634TMC3     H 9391   1.969   2.640  17.406  0.6768 -0.5809 -0.1883
  634TMC3    H1 9392   1.803   3.035  17.379  0.8399  0.7371  0.1150
  634TMC3    H2 9393   1.918   2.834  17.022 -0.7496 -0.2568 -0.4621
  634TMC3    C7 9394   1.841   3.062  17.126  0.3298  0.3089 -0.3291
  634TMC3    C8 9395   1.947   2.578  17.151 -0.3872  0.3481 -0.2033
  634TMC3    O1 9396   1.827   3.044  17.005  0.1222 -0.1111  0.2716
  634TMC3    O2 9397   1.969   2.489  17.235  0.1073  0.8009  0.4128
  635TMC3    C1 9398   2.818   3.340  16.961 -0.2318 -0.0685  0.9798
  635TMC3    C2 9399   2.937   3.377  16.902  0.0590 -0.0679  0.3411
  635TMC3    C3 9400   3.016   3.285  16.843 -0.0907 -0.1731  0.5178
  635TMC3    C4 9401   2.770   3.219  16.955 -0.1825 -0.1149  0.7817
  635TMC3    C5 9402   2.852   3.120  16.896 -0.2042 -0.1722 -0.2190
  635TMC3    C6 9403   2.975   3.153  16.837  0.4403  0.2877  0.5016
  635TMC3     C 9404   2.730   3.444  17.017 -0.0068 -0.6980  0.4697
  635TMC3     O 9405   2.794   3.531  17.074  0.0650 -0.1438 -0.5473
  635TMC3     H 9406   2.963   3.482  16.896 -0.4388  0.0015 -0.6412
  635TMC3    H1 9407   2.686   3.179  17.010  0.3881  0.2127  1.8813
  635TMC3    H2 9408   3.050   3.078  16.812  0.8007  1.0679 -0.7236
  635TMC3    C7 9409   2.801   2.978  16.885 -0.2205  0.4858  0.2132
  635TMC3    C8 9410   3.144   3.323  16.798  0.5035 -0.1805  0.2036
  635TMC3    O1 9411   2.726   2.945  16.975  0.4872  0.0265  0.4693
  635TMC3    O2 9412   3.172   3.443  16.808  0.1993  0.2895  0.2834
  636MPD2     C 9413   3.544   3.084  15.831 -0.1869 -0.8125  0.8791
  636MPD2    C1 9414   3.415   3.118  15.856 -0.3483 -0.1377  0.6707
  636MPD2    C2 9415   3.333   3.141  15.750  0.1825  0.1425 -0.2034
  636MPD2    C3 9416   3.385   3.133  15.619 -0.0469 -1.0689  1.1840
  636MPD2    C4 9417   3.523   3.100  15.595 -0.6362 -0.3442  0.4387
  636MPD2    C5 9418   3.595   3.070  15.706 -0.4785  0.6921  0.2865
  636MPD2     H 9419   3.230   3.166  15.775 -0.2996  0.0025 -2.0320
  636MPD2    H1 9420   3.564   3.106  15.495  2.9220 -0.1374  1.9238
  636MPD2    H2 9421   3.603   3.056  15.918  0.8727 -2.4430 -0.3586
  636MPD2    H3 9422   3.694   3.028  15.691  0.3589  2.0993  1.8846
  636MPD2     N 9423   3.307   3.166  15.513 -0.0551  0.8598 -0.8128
  636MPD2    H5 9424   3.209   3.190  15.529  0.5530  1.6639  1.7879
  636MPD2    N1 9425   3.359   3.143  15.984 -0.0135 -0.1921 -0.0072
  636MPD2    H7 9426   3.269   3.189  15.988  0.6749  1.3222 -2.0522
  637TMC3    C1 9427   3.219   3.162  15.308 -0.1383  0.4890  0.1250
  637TMC3    C2 9428   3.181   3.294  15.293 -0.5953 -0.4338 -0.7721
  637TMC3    C3 9429   3.043   3.319  15.279 -0.0058 -0.2685  0.5026
  637TMC3    C4 9430   3.129   3.073  15.336  0.5894  0.4761  0.4594
  637TMC3    C5 9431   2.992   3.096  15.332 -0.0182  0.0982 -0.5653
  637TMC3    C6 9432   2.951   3.216  15.287 -0.0804 -0.3350  0.0650
  637TMC3     C 9433   3.340   3.155  15.385  0.1812  0.6466 -0.4092
  637TMC3     O 9434   3.433   3.110  15.316 -0.3091  0.8995 -0.8360
  637TMC3     H 9435   3.253   3.373  15.307 -0.8588 -0.1171 -1.1946
  637TMC3    H1 9436   3.154   2.968  15.343 -1.8287 -0.0222  1.4775
  637TMC3    H2 9437   2.850   3.254  15.296 -0.6893 -1.5702 -1.6332
  637TMC3    C7 9438   2.916   3.056  15.450  0.3541  0.1772 -0.1936
  637TMC3    C8 9439   3.002   3.441  15.352 -0.0238 -0.3574  0.0289
  637TMC3    O1 9440   2.804   3.101  15.455  0.2468  0.0084 -0.2001
  637TMC3    O2 9441   3.050   3.450  15.464  0.1751 -0.3147 -0.2212
  638MPD2     C 9442   3.166   1.925  15.099  0.4019  0.1571  0.5841
  638MPD2    C1 9443   3.130   1.841  14.991  0.6033  0.0872 -0.1609
  638MPD2    C2 9444   3.068   1.728  15.032 -0.0833  0.2105  0.0705
  638MPD2    C3 9445   3.016   1.713  15.159 -0.3109 -0.5502 -0.7881
  638MPD2    C4 9446   3.033   1.809  15.256  0.1358  0.4384  0.2276
  638MPD2    C5 9447   3.115   1.917  15.226  0.1239 -0.0474  0.2545
  638MPD2     H 9448   3.061   1.651  14.956  0.6736  1.6722 -1.4679
  638MPD2    H1 9449   3.001   1.798  15.359 -0.9951  0.0268 -0.1643
  638MPD2    H2 9450   3.215   2.021  15.087 -0.6835  0.8879  1.9954
  638MPD2    H3 9451   3.127   1.995  15.301 -0.1064  1.3827 -1.2028
  638MPD2     N 9452   2.942   1.595  15.197  0.1246 -0.3586  0.3736
  638MPD2    H5 9453   2.920   1.583  15.295  2.4428 -3.7326  0.4665
  638MPD2    N1 9454   3.176   1.858  14.864 -0.3665  0.4224 -0.0556
  638MPD2    H7 9455   3.247   1.931  14.853  0.3035 -0.1530  0.4615
  639TMC3    C1 9456   2.843   1.382  15.162 -0.0635 -0.6854  0.0834
  639TMC3    C2 9457   2.743   1.323  15.092 -0.0165 -0.3240  0.1858
  639TMC3    C3 9458   2.748   1.181  15.097  0.4993  0.1816 -0.6703
  639TMC3    C4 9459   2.930   1.320  15.246  0.1154  0.5925 -0.4243
  639TMC3    C5 9460   2.914   1.183  15.259 -0.4360 -0.1763  0.7266
  639TMC3    C6 9461   2.832   1.116  15.181 -0.2596  0.4441  0.9397
  639TMC3     C 9462   2.891   1.504  15.106 -0.0162  0.7193 -0.3815
  639TMC3     O 9463   2.878   1.506  14.982  0.0166 -0.2344  0.5570
  639TMC3     H 9464   2.692   1.376  15.013  0.1066  1.4377  1.2861
  639TMC3    H1 9465   3.008   1.370  15.301  0.9903 -0.2535 -0.9013
  639TMC3    H2 9466   2.858   1.012  15.168  1.1553  0.6756  1.9587
  639TMC3    C7 9467   3.037   1.099  15.275  1.0953 -0.0690 -0.6270
  639TMC3    C8 9468   2.722   1.118  14.972  0.1556  0.3853 -0.5029
  639TMC3    O1 9469   3.028   0.988  15.325 -0.0881 -0.2821  0.0782
  639TMC3    O2 9470   2.824   1.081  14.918  1.0339 -0.4065  0.2204
  640MPD2     C 9471   3.035   0.505  10.480  0.2741 -0.3772  0.4614
  640MPD2    C1 9472   3.112   0.574  10.387  0.9651 -0.4083  0.1205
  640MPD2    C2 9473   3.081   0.714  10.362  0.1387 -0.1295  0.5021
  640MPD2    C3 9474   2.979   0.780  10.426  0.0217  0.5121 -0.5221
  640MPD2    C4 9475   2.911   0.712  10.521  0.4045  0.7298  0.4138
  640MPD2    C5 9476   2.951   0.585  10.560  0.2469 -0.6463 -0.2126
  640MPD2     H 9477   3.136   0.768  10.287  3.3770  0.8484  3.5920
  640MPD2    H1 9478   2.829   0.751  10.579  0.4657  0.3652  0.7490
  640MPD2    H2 9479   3.056   0.400  10.496  0.6079 -0.4851 -0.7292
  640MPD2    H3 9480   2.916   0.541  10.653  0.6108 -1.9828 -0.7079
  640MPD2     N 9481   2.939   0.915  10.396 -0.5272 -0.2488 -0.4613
  640MPD2    H5 9482   2.844   0.949  10.411  0.0487  1.1117  0.0628
  640MPD2    N1 9483   3.208   0.501  10.300 -0.3805  0.1248  0.3866
  640MPD2    H7 9484   3.236   0.406  10.326  0.6899  0.9341  2.2466
  641TMC3    C1 9485   3.350   0.462  10.105  0.3844 -0.4705 -0.7420
  641TMC3    C2 9486   3.418   0.358  10.168 -0.4407 -1.0082 -0.7542
  641TMC3    C3 9487   3.523   0.299  10.096 -0.4696  0.8789  0.2200
  641TMC3    C4 9488   3.391   0.515   9.985  0.5848 -0.0161  0.2170
  641TMC3    C5 9489   3.482   0.441   9.916  0.3353  0.2888  0.8510
  641TMC3    C6 9490   3.554   0.340   9.971  0.5041 -0.7927 -0.0897
  641TMC3     C 9491   3.244   0.539  10.173 -0.1689  0.5943  0.0658
  641TMC3     O 9492   3.196   0.633  10.108  0.8311 -0.0980 -0.0249
  641TMC3     H 9493   3.364   0.303  10.244  1.5858 -2.5677 -0.4309
  641TMC3    H1 9494   3.329   0.591   9.939 -0.0610  0.2887  1.5934
  641TMC3    H2 9495   3.638   0.295   9.920  1.6883 -2.3694  3.2544
  641TMC3    C7 9496   3.486   0.452   9.768 -0.3214 -0.2582 -0.3761
  641TMC3    C8 9497   3.552   0.158  10.116 -0.1062  0.1991 -0.7004
  641TMC3    O1 9498   3.418   0.539   9.719  0.2714  0.0475  0.6108
  641TMC3    O2 9499   3.557   0.089  10.014 -0.0820 -0.2209  0.3754
  642TMC3    C1 9500   4.527   1.983  11.862 -0.3554 -0.5240 -0.2392
  642TMC3    C2 9501   4.618   2.027  11.769 -0.0221 -0.0622 -0.2819
  642TMC3    C3 9502   4.701   1.929  11.713  0.7669  0.5560 -0.2710
  642TMC3    C4 9503   4.521   1.854  11.901 -0.0651  0.3591  0.3221
  642TMC3    C5 9504   4.616   1.761  11.854 -0.1990 -0.1220 -0.1110
  642TMC3    C6 9505   4.705   1.796  11.752  0.1080  0.7379 -0.8296
  642TMC3     C 9506   4.442   2.085  11.934 -0.0764 -0.0599 -0.1313
  642TMC3     O 9507   4.450   2.202  11.901  0.1476  0.5171  0.2542
  642TMC3     H 9508   4.634   2.132  11.752 -0.4055  0.1900  0.9176
  642TMC3    H1 9509   4.433   1.818  11.954  1.2148 -2.0285  0.8020
  642TMC3    H2 9510   0.048   1.718  11.713 -0.9575 -0.2051 -0.7285
  642TMC3    C7 9511   4.599   1.621  11.877 -0.2214 -0.6895 -0.2270
  642TMC3    C8 9512   0.040   1.952  11.581 -0.4674  0.0297 -0.6835
  642TMC3    O1 9513   4.640   1.545  11.788 -0.4937  0.1757 -0.3377
  642TMC3    O2 9514   0.088   1.850  11.531  0.2033  0.2760  0.0167
  643TMC3    C1 9515   4.267   0.693   0.648  0.1976  0.3373  0.0012
  643TMC3    C2 9516   4.148   0.749   0.615  0.1977  0.6512 -0.1280
  643TMC3    C3 9517   4.069   0.680   0.523  0.1449  0.0341  0.4451
  643TMC3    C4 9518   4.319   0.585   0.587 -0.0877  0.1069 -0.3897
  643TMC3    C5 9519   4.245   0.526   0.489  0.5817  0.0472 -0.1910
  643TMC3    C6 9520   4.115   0.566   0.463  0.2245 -0.0152 -0.4570
  643TMC3     C 9521   4.354   0.771   0.724 -0.2611 -0.7702 -0.0885
  643TMC3     O 9522   4.338   0.892   0.719 -0.5692 -0.0157 -0.4033
  643TMC3     H 9523   4.119   0.846   0.654 -0.4915 -0.0988  1.2400
  643TMC3    H1 9524   4.420   0.549   0.596 -0.6538 -1.3844  0.0651
  643TMC3    H2 9525   4.061   0.515   0.384 -2.6751 -0.8808  2.1147
  643TMC3    C7 9526   4.322   0.506   0.370  0.7471  0.8265  0.0551
  643TMC3    C8 9527   4.018   0.773   0.426  0.8283 -0.4641  0.0738
  643TMC3    O1 9528   4.423   0.577   0.361 -0.2075  0.1648  0.1423
  643TMC3    O2 9529   3.933   0.717   0.361  0.0473 -0.3201  0.5186
  644MPD2     C 9530   3.864   1.234   9.479  0.8995 -0.0445 -0.1099
  644MPD2    C1 9531   3.779   1.126   9.487 -0.4657 -0.6840 -0.1604
  644MPD2    C2 9532   3.647   1.141   9.484 -0.2737 -0.1764  0.3537
  644MPD2    C3 9533   3.600   1.270   9.461 -0.2190 -0.5417  0.2673
  644MPD2    C4 9534   3.680   1.379   9.465  0.0628  0.7335 -0.1854
  644MPD2    C5 9535   3.814   1.359   9.459  0.1315  0.1763 -0.8196
  644MPD2     H 9536   3.579   1.057   9.488 -1.1085  0.5597  1.4997
  644MPD2    H1 9537   3.651   1.480   9.438  0.8810  0.9824 -0.1213
  644MPD2    H2 9538   3.972   1.226   9.484  0.8141 -0.5965  0.7990
  644MPD2    H3 9539   3.883   1.443   9.461  3.3769 -2.4686 -2.1178
  644MPD2     N 9540   3.459   1.302   9.440 -0.1447 -0.1320  0.5522
  644MPD2    H5 9541   3.439   1.402   9.437  3.3925  0.4664 -2.6403
  644MPD2    N1 9542   3.840   0.996   9.506 -0.0344  0.2540 -0.0367
  644MPD2    H7 9543   3.941   0.995   9.502 -0.0270  0.4630  0.1138
  645TMC3    C1 9544   3.236   1.262   9.396  0.6795 -0.5897  0.3850
  645TMC3    C2 9545   3.220   1.399   9.389  0.4556  0.1668 -0.0258
  645TMC3    C3 9546   3.093   1.448   9.375 -0.7484 -0.1227  0.8782
  645TMC3    C4 9547   3.129   1.182   9.400  0.2726 -0.1940  0.2040
  645TMC3    C5 9548   3.001   1.237   9.402  0.2204  0.4986 -0.4601
  645TMC3    C6 9549   2.983   1.369   9.391  0.6139 -0.2442 -0.2429
  645TMC3     C 9550   3.364   1.207   9.412  0.1806  0.0743 -0.4483
  645TMC3     O 9551   3.374   1.083   9.421 -0.0129 -0.2750 -0.2113
  645TMC3     H 9552   3.299   1.472   9.377  1.0680 -0.7695 -1.7721
  645TMC3    H1 9553   3.146   1.074   9.403  1.0551 -0.0790 -0.0780
  645TMC3    H2 9554   2.885   1.416   9.389 -1.2131 -4.0507  1.3654
  645TMC3    C7 9555   2.884   1.159   9.383  0.0887 -0.0376  0.4166
  645TMC3    C8 9556   3.070   1.585   9.325  0.0455 -0.8106 -0.5080
  645TMC3    O1 9557   2.790   1.214   9.333 -0.4153 -0.1114 -0.4593
  645TMC3    O2 9558   2.977   1.613   9.253 -0.3148 -0.2303  0.3263
  646MPD2     C 9559   3.346   0.489  14.526 -0.1232  0.4032  0.1735
  646MPD2    C1 9560   3.231   0.471  14.597 -0.1680  0.7078  0.1994
  646MPD2    C2 9561   3.113   0.527  14.557  0.0494  0.5240  0.0944
  646MPD2    C3 9562   3.103   0.570  14.429  0.2649  0.2250 -0.0455
  646MPD2    C4 9563   3.219   0.589  14.353 -0.8854  0.3268  0.5520
  646MPD2    C5 9564   3.336   0.551  14.404  0.6245 -0.3887 -0.3947
  646MPD2     H 9565   3.024   0.509  14.616 -1.4315 -1.7070 -2.7695
  646MPD2    H1 9566   3.220   0.625  14.251 -1.8479 -1.9194 -0.2543
  646MPD2    H2 9567   3.445   0.455  14.556 -0.9142 -0.5260  1.7412
  646MPD2    H3 9568   3.425   0.553  14.343  1.6981 -0.1472  1.1974
  646MPD2     N 9569   2.968   0.592  14.375 -0.5134  0.8228  0.7366
  646MPD2    H5 9570   2.885   0.587  14.433 -0.9462 -2.5515 -0.2016
  646MPD2    N1 9571   3.254   0.406  14.725 -0.5539 -0.4880 -0.0714
  646MPD2    H7 9572   3.351   0.386  14.748 -0.7089 -1.8078 -0.5473
  647TMC3    C1 9573   3.215   0.306  14.943  0.4971 -0.3082 -0.0980
  647TMC3    C2 9574   3.129   0.259  15.039 -0.7135  0.2576  0.5311
  647TMC3    C3 9575   3.190   0.191  15.146  0.4245  0.4165 -0.2466
  647TMC3    C4 9576   3.348   0.301  14.960 -0.0417  0.6202 -0.6203
  647TMC3    C5 9577   3.397   0.280  15.087  0.4206  0.2739  0.7428
  647TMC3    C6 9578   3.319   0.230  15.186  0.1454 -0.8701 -0.2696
  647TMC3     C 9579   3.161   0.368  14.819  0.5009 -0.2446  0.3260
  647TMC3     O 9580   3.041   0.380  14.815 -0.6708  0.1824 -0.0230
  647TMC3     H 9581   3.028   0.240  15.004  0.1828 -0.2581 -1.8212
  647TMC3    H1 9582   3.414   0.342  14.885  2.3158  1.1354  1.7060
  647TMC3    H2 9583   3.362   0.180  15.273 -0.8939 -0.5562  0.4158
  647TMC3    C7 9584   3.515   0.194  15.078 -0.1961  0.1433  0.3604
  647TMC3    C8 9585   3.185   0.044  15.140  0.7607  0.8762  0.0416
  647TMC3    O1 9586   3.588   0.201  15.178  0.6364  0.2512 -0.2740
  647TMC3    O2 9587   3.260   4.717  15.228 -0.1160  0.4297  0.3959
  648TMC3    C1 9588   1.948   2.450  16.274 -0.4148 -0.6608 -0.3615
  648TMC3    C2 9589   1.987   2.345  16.190 -0.2448  0.3598  0.6701
  648TMC3    C3 9590   1.949   2.352  16.056  0.0547 -0.2329  0.4020
  648TMC3    C4 9591   1.863   2.550  16.235  0.0014 -0.0003  0.3876
  648TMC3    C5 9592   1.829   2.555  16.101 -0.3125  0.3520 -0.4629
  648TMC3    C6 9593   1.876   2.460  16.016 -0.8160  0.1385 -0.1988
  648TMC3     C 9594   2.018   2.479  16.398  0.2712 -0.2165 -0.4456
  648TMC3     O 9595   2.012   2.592  16.440 -0.6820 -0.5880 -0.7458
  648TMC3     H 9596   2.068   2.277  16.211 -1.2756 -0.7634  1.0197
  648TMC3    H1 9597   1.829   2.623  16.308 -0.7674  0.5994 -0.5711
  648TMC3    H2 9598   1.849   2.469  15.912 -2.4340 -1.1441  0.1093
  648TMC3    C7 9599   1.741   2.652  16.046  0.4674  0.0906 -0.3039
  648TMC3    C8 9600   2.002   2.268  15.950 -0.2379 -0.7222  0.7998
  648TMC3    O1 9601   1.677   2.629  15.945 -0.5041 -0.0412 -0.2610
  648TMC3    O2 9602   1.930   2.262  15.854 -0.3241 -0.0574 -0.3144
  649TMC3    C1 9603   1.028   3.420  12.796  0.4481  0.0191 -0.0843
  649TMC3    C2 9604   1.122   3.511  12.843 -0.9081  0.1038 -0.1926
  649TMC3    C3 9605   1.155   3.511  12.979 -0.3770  0.5340  0.3719
  649TMC3    C4 9606   0.980   3.329  12.890  0.1612  1.0822  0.3183
  649TMC3    C5 9607   1.009   3.336  13.017  0.4186 -0.6907  0.5226
  649TMC3    C6 9608   1.092   3.434  13.074  0.2555 -0.0945  0.1483
  649TMC3     C 9609   0.931   3.467  12.697  0.8806  0.6142 -1.2259
  649TMC3     O 9610   0.817   3.491  12.731  0.1142  0.4741 -0.4993
  649TMC3     H 9611   1.167   3.585  12.778  0.6012 -0.7141 -0.0636
  649TMC3    H1 9612   0.897   3.263  12.866  1.0855  0.9445 -2.4058
  649TMC3    H2 9613   1.118   3.438  13.179  2.4223  1.2469 -0.4515
  649TMC3    C7 9614   0.914   3.287  13.118  0.3101  0.9923  0.3043
  649TMC3    C8 9615   1.241   3.618  13.022  0.0978 -0.4078  0.0444
  649TMC3    O1 9616   0.899   3.356  13.221  0.0146  0.7362 -0.4761
  649TMC3    O2 9617   1.225   3.720  12.956  0.5326  0.1771 -0.0803
  650TMC3    C1 9618   3.737   0.504  12.735  0.0498 -0.3274  0.6965
  650TMC3    C2 9619   3.777   0.631  12.707 -0.2277  0.5155 -0.2566
  650TMC3    C3 9620   3.716   0.705  12.615  0.2034  0.1617 -0.1639
  650TMC3    C4 9621   3.639   0.446  12.661 -0.1854  0.0201 -0.0332
  650TMC3    C5 9622   3.598   0.520  12.550 -0.2054 -0.3757 -0.1255
  650TMC3    C6 9623   3.627   0.652  12.534  0.2112 -0.2153  0.3324
  650TMC3     C 9624   3.818   0.431  12.834  0.2266 -0.1183  0.2342
  650TMC3     O 9625   3.903   0.502  12.889 -0.3030 -0.2068 -0.1050
  650TMC3     H 9626   3.848   0.686  12.768 -0.8913  0.4821  0.5592
  650TMC3    H1 9627   3.616   0.340  12.671 -0.9878  0.2065  0.1404
  650TMC3    H2 9628   3.576   0.711  12.460 -3.0707 -1.4723  1.5681
  650TMC3    C7 9629   3.501   0.461  12.451  0.2371 -0.4921 -0.3019
  650TMC3    C8 9630   3.735   0.850  12.611  0.0402 -0.0081 -0.2753
  650TMC3    O1 9631   3.448   0.355  12.491  0.1670  0.9254  0.2186
  650TMC3    O2 9632   3.718   0.909  12.504 -0.1409  0.1403 -0.1749
  651MPD2     C 9633   2.582   2.024  10.660  0.1823  0.1962  0.4486
  651MPD2    C1 9634   2.597   2.122  10.753  0.5550  0.8262 -0.0387
  651MPD2    C2 9635   2.720   2.155  10.804 -0.9859  0.3682  0.2873
  651MPD2    C3 9636   2.835   2.085  10.762  0.1212 -0.0988  0.1117
  651MPD2    C4 9637   2.813   1.976  10.681  0.0868  1.1486 -0.0913
  651MPD2    C5 9638   2.690   1.954  10.623 -0.3524  0.1120 -0.7128
  651MPD2     H 9639   2.734   2.244  10.864 -1.9338 -1.1174  2.6842
  651MPD2    H1 9640   2.896   1.919  10.639 -0.5337 -2.3681  3.4443
  651MPD2    H2 9641   2.489   1.994  10.612  1.5799 -3.4595  0.0425
  651MPD2    H3 9642   2.690   1.875  10.548  0.6227 -0.2981 -0.2742
  651MPD2     N 9643   2.958   2.126  10.821 -0.1098  0.6809  0.5349
  651MPD2    H5 9644   2.954   2.200  10.890  1.4853  0.8576  0.4378
  651MPD2    N1 9645   2.483   2.201  10.798  0.2466 -0.1482  0.0769
  651MPD2    H7 9646   2.506   2.288  10.845 -2.8573  1.4692 -1.3475
  652TMC3    C1 9647   3.419   2.157  10.900  0.3089 -0.3059 -0.7255
  652TMC3    C2 9648   3.316   2.142  10.811  0.1349 -0.3015 -0.0841
  652TMC3    C3 9649   3.190   2.130  10.868  0.1141 -0.2019 -0.6689
  652TMC3    C4 9650   3.400   2.162  11.030 -0.4420  0.0380 -0.9481
  652TMC3    C5 9651   3.273   2.152  11.084 -0.9367  0.3511  0.3065
  652TMC3    C6 9652   3.169   2.131  11.005  0.0821  0.0575  0.0306
  652TMC3     C 9653   3.546   2.209  10.851 -0.7000 -0.4562  0.6078
  652TMC3     O 9654   3.639   2.170  10.919 -0.3788  0.1818  0.0963
  652TMC3     H 9655   3.334   2.162  10.706  0.4760  0.5836  0.1510
  652TMC3    H1 9656   3.492   2.167  11.087 -0.6945  4.0022 -0.9101
  652TMC3    H2 9657   3.069   2.130  11.047  0.3112 -0.8528  0.5499
  652TMC3    C7 9658   3.248   2.173  11.218  0.0724  0.3953 -0.6912
  652TMC3    C8 9659   3.080   2.077  10.785  0.3534  0.2234 -0.0983
  652TMC3    O1 9660   3.159   2.102  11.267 -0.1669  0.3319  0.8059
  652TMC3    O2 9661   3.103   1.990  10.699  0.0552 -0.0959 -0.6696
  653MPD2     C 9662   1.623   2.621   0.268  0.2768 -0.1313  0.0982
  653MPD2    C1 9663   1.589   2.720   0.183 -0.0696  0.2496  0.3214
  653MPD2    C2 9664   1.491   2.696   0.080 -0.3684  0.5019 -0.0033
  653MPD2    C3 9665   1.420   2.580   0.077 -0.2700  0.3199 -0.3923
  653MPD2    C4 9666   1.463   2.479   0.158 -0.4402  0.7608  0.4675
  653MPD2    C5 9667   1.560   2.500   0.255  0.2558  0.9150 -0.6117
  653MPD2     H 9668   1.468   2.775   0.010 -0.4967  0.7621  0.3301
  653MPD2    H1 9669   1.400   2.392   0.172 -0.2385  0.6559  0.7338
  653MPD2    H2 9670   1.708   2.624   0.335 -0.4550 -0.3865  1.0373
  653MPD2    H3 9671   1.570   2.433   0.339 -2.9130 -0.2338 -1.1608
  653MPD2     N 9672   1.316   2.569  17.667  0.0850  0.0689 -0.3330
  653MPD2    H5 9673   1.307   2.651  17.608 -3.8040 -1.4613 -1.8371
  653MPD2    N1 9674   1.643   2.850   0.182 -0.3770  0.2064  0.1455
  653MPD2    H7 9675   1.613   2.912   0.108 -0.4840  2.3394  1.9730
  654TMC3    C1 9676   1.168   2.444  17.527  0.2193 -0.1152  0.0572
  654TMC3    C2 9677   1.098   2.552  17.480  0.4833 -0.2208  0.9795
  654TMC3    C3 9678   1.037   2.542  17.359 -0.2806 -1.1323 -0.2148
  654TMC3    C4 9679   1.173   2.319  17.466 -0.2035 -0.1454 -0.3665
  654TMC3    C5 9680   1.115   2.317  17.342 -0.2326  0.5184  0.6269
  654TMC3    C6 9681   1.037   2.421  17.295 -0.2803  0.1000  0.0045
  654TMC3     C 9682   1.240   2.454  17.651  0.0637 -0.0600 -0.5814
  654TMC3     O 9683   1.250   2.351   0.027  0.2925 -0.2515 -0.4968
  654TMC3     H 9684   1.085   2.647  17.530 -1.8884 -0.4243  0.7562
  654TMC3    H1 9685   1.243   2.248  17.510  1.0557  0.1323 -1.9369
  654TMC3    H2 9686   1.007   2.408  17.192  0.6106 -1.6172 -0.0504
  654TMC3    C7 9687   1.130   2.194  17.261  0.0129  0.1275  0.0350
  654TMC3    C8 9688   0.982   2.663  17.301 -0.5811  0.0318  0.1329
  654TMC3    O1 9689   1.051   2.183  17.169 -0.2492  0.5281  0.7087
  654TMC3    O2 9690   0.987   2.770  17.363 -0.3849 -0.4615  0.2354
  655MPD2     C 9691   2.522   2.875  15.720 -0.4307 -0.0500 -0.8218
  655MPD2    C1 9692   2.400   2.908  15.667 -0.0610  0.5277 -0.0416
  655MPD2    C2 9693   2.368   2.868  15.540 -0.0465  0.0287  0.1016
  655MPD2    C3 9694   2.451   2.776  15.469 -0.7595  0.2151 -0.0277
  655MPD2    C4 9695   2.581   2.750  15.518  0.2056 -0.4268 -1.0330
  655MPD2    C5 9696   2.607   2.805  15.640  0.1092  0.7584 -0.2518
  655MPD2     H 9697   2.267   2.890  15.509  0.3466 -0.0967 -1.2718
  655MPD2    H1 9698   2.652   2.688  15.465  0.2346 -1.0557 -0.2526
  655MPD2    H2 9699   2.549   2.902  15.822 -1.7574 -0.0452 -0.4634
  655MPD2    H3 9700   2.699   2.781  15.693 -0.6783  1.2557  1.3532
  655MPD2     N 9701   2.406   2.711  15.349  0.6804 -0.1291  0.2494
  655MPD2    H5 9702   2.482   2.667  15.298  1.2288 -1.4820  2.2267
  655MPD2    N1 9703   2.296   2.959  15.747  0.1096  0.1244 -0.1016
  655MPD2    H7 9704   2.208   2.975  15.700  0.5717  1.3111 -0.5617
  656TMC3    C1 9705   2.188   3.067  15.931 -0.2355  0.1117  0.5133
  656TMC3    C2 9706   2.197   3.107  16.064 -0.0621 -0.3666 -0.1908
  656TMC3    C3 9707   2.103   3.201  16.101 -0.0760  0.0874 -0.8219
  656TMC3    C4 9708   2.099   3.116  15.836  0.7520  0.0826 -0.5327
  656TMC3    C5 9709   1.999   3.197  15.885  0.1268  0.3129  0.9052
  656TMC3    C6 9710   2.013   3.245  16.014 -0.0794 -0.4101 -0.3106
  656TMC3     C 9711   2.302   2.987  15.885  0.6245  0.0934 -0.4264
  656TMC3     O 9712   2.396   2.978  15.960  0.3394  0.0133 -0.0748
  656TMC3     H 9713   2.257   3.043  16.127  0.0021 -2.1861 -2.0762
  656TMC3    H1 9714   2.100   3.094  15.730 -2.7568  1.4101 -0.8329
  656TMC3    H2 9715   1.943   3.322  16.044 -2.0778 -1.8436 -1.3216
  656TMC3    C7 9716   1.874   3.150  15.838 -0.0125  0.3887 -0.2244
  656TMC3    C8 9717   2.052   3.188  16.231 -0.2348  0.4549 -0.0639
  656TMC3    O1 9718   1.871   3.063  15.748 -0.1195  0.0234 -0.3454
  656TMC3    O2 9719   1.939   3.229  16.250 -0.3698  0.3975 -0.3339
  657TMC3    C1 9720   1.657   1.783  15.338 -0.5053  0.1288 -0.5674
  657TMC3    C2 9721   1.739   1.760  15.441 -0.9240  0.0671 -0.3542
  657TMC3    C3 9722   1.683   1.764  15.565  0.2169 -0.4468 -0.3677
  657TMC3    C4 9723   1.526   1.817  15.360  0.1315 -0.7161 -0.1712
  657TMC3    C5 9724   1.470   1.814  15.488 -0.9229 -0.0952 -0.7567
  657TMC3    C6 9725   1.551   1.782  15.593 -0.1015 -0.2978  0.5599
  657TMC3     C 9726   1.696   1.766  15.202  0.3728  0.3969  0.0859
  657TMC3     O 9727   1.609   1.715  15.133  0.0239  0.1924  0.6605
  657TMC3     H 9728   1.844   1.739  15.430 -0.6322  0.6765  1.1992
  657TMC3    H1 9729   1.462   1.841  15.276  0.2411 -0.5826 -0.2165
  657TMC3    H2 9730   1.506   1.768  15.690  0.5742 -2.7312  0.5135
  657TMC3    C7 9731   1.331   1.842  15.510 -0.0509  0.1701 -0.1426
  657TMC3    C8 9732   1.776   1.809  15.673 -0.0779  0.3233  1.1219
  657TMC3    O1 9733   1.279   1.803  15.613 -0.2549 -0.2463  0.2517
  657TMC3    O2 9734   1.877   1.860  15.629 -0.3909 -0.1559 -0.0051
  658MPD2     C 9735   2.812   2.594  14.897  0.4546  0.0777  0.1872
  658MPD2    C1 9736   2.688   2.599  14.846  1.6180  0.4904 -0.4553
  658MPD2    C2 9737   2.668   2.662  14.731 -0.0914  0.2952  0.3141
  658MPD2    C3 9738   2.770   2.722  14.661 -0.2170 -0.4042  0.3697
  658MPD2    C4 9739   2.898   2.700  14.713  0.2575 -0.5575  0.3224
  658MPD2    C5 9740   2.916   2.643  14.831  0.3870 -0.4183 -0.2743
  658MPD2     H 9741   2.570   2.687  14.692 -0.2376  0.8567  1.0351
  658MPD2    H1 9742   2.987   2.738  14.663 -0.1461  0.6812  0.5398
  658MPD2    H2 9743   2.832   2.549  14.994  1.1335  0.1432  0.0737
  658MPD2    H3 9744   3.014   2.635  14.877  0.8508  2.2425 -0.7908
  658MPD2     N 9745   2.750   2.773  14.533  0.4093 -0.2774  0.4181
  658MPD2    H5 9746   2.652   2.792  14.517  0.2609 -1.4367 -0.1014
  658MPD2    N1 9747   2.578   2.553  14.927 -0.1536  0.6256  0.0047
  658MPD2    H7 9748   2.602   2.518  15.020  0.6632  0.8030 -0.1435
  659TMC3    C1 9749   2.352   2.499  14.979 -0.1377 -0.1502 -0.7801
  659TMC3    C2 9750   2.370   2.563  15.109 -0.2017  0.1430 -0.1987
  659TMC3    C3 9751   2.260   2.590  15.194  0.9578 -0.0338  0.3253
  659TMC3    C4 9752   2.224   2.462  14.942 -0.2206  0.3950  0.5202
  659TMC3    C5 9753   2.121   2.489  15.028 -0.2844  0.5547 -0.1828
  659TMC3    C6 9754   2.136   2.550  15.154 -0.5057  0.3482 -0.1953
  659TMC3     C 9755   2.444   2.533  14.879  0.6845  0.0535 -0.2030
  659TMC3     O 9756   2.409   2.537  14.760  0.3694 -0.1285 -0.3228
  659TMC3     H 9757   2.471   2.591  15.134 -0.8458  2.0687  0.1907
  659TMC3    H1 9758   2.197   2.435  14.841  0.8127  0.5401  0.2070
  659TMC3    H2 9759   2.049   2.559  15.218  1.3562  0.2736  2.3205
  659TMC3    C7 9760   1.995   2.407  15.017 -0.1560 -0.7380 -0.5252
  659TMC3    C8 9761   2.276   2.682  15.313 -0.5373 -0.0432  0.6085
  659TMC3    O1 9762   1.911   2.436  15.100 -0.4330 -0.2890 -0.1345
  659TMC3    O2 9763   2.172   2.716  15.374  0.6053 -0.0657  0.7023
  660MPD2     C 9764   0.606   1.575  12.861 -0.2635 -0.1264 -0.0745
  660MPD2    C1 9765   0.678   1.469  12.806  0.3725 -0.2887 -0.3359
  660MPD2    C2 9766   0.672   1.348  12.870 -0.1336  0.1655 -0.2445
  660MPD2    C3 9767   0.609   1.325  12.995  0.1800  0.2092  0.2670
  660MPD2    C4 9768   0.543   1.437  13.047 -0.7399  0.3526  0.4301
  660MPD2    C5 9769   0.545   1.563  12.981  0.2545  0.4167  0.6158
  660MPD2     H 9770   0.711   1.264  12.814 -0.4175 -0.5650  0.6395
  660MPD2    H1 9771   0.495   1.432  13.144 -1.2184  0.1755  0.1837
  660MPD2    H2 9772   0.611   1.670  12.809  0.8325 -0.9146 -1.4093
  660MPD2    H3 9773   0.499   1.651  13.024 -5.8393 -1.8345 -1.1953
  660MPD2     N 9774   0.601   1.204  13.073 -0.0278  0.1013  0.8461
  660MPD2    H5 9775   0.562   1.220  13.166  0.3897 -3.7950  1.6937
  660MPD2    N1 9776   0.740   1.491  12.687  0.4157  0.4536 -0.2625
  660MPD2    H7 9777   0.729   1.577  12.634  0.8486  1.0877  0.6746
  661TMC3    C1 9778   0.834   1.451  12.477  0.3530 -0.1383  0.5304
  661TMC3    C2 9779   0.929   1.388  12.398 -0.2292  0.1693 -0.2943
  661TMC3    C3 9780   0.913   1.396  12.258 -0.2616 -0.0916 -0.2530
  661TMC3    C4 9781   0.735   1.532  12.427 -0.0149 -0.0736  0.2412
  661TMC3    C5 9782   0.733   1.548  12.289 -0.5083 -0.2915 -0.2518
  661TMC3    C6 9783   0.817   1.482  12.205 -0.4474  0.3494 -0.3302
  661TMC3     C 9784   0.816   1.404  12.616  0.3680  0.7246  0.1955
  661TMC3     O 9785   0.885   1.314  12.665 -0.1668 -0.3389 -0.0214
  661TMC3     H 9786   0.996   1.308  12.427 -0.7923 -0.1780  0.0471
  661TMC3    H1 9787   0.648   1.565  12.483 -0.1881  1.5790 -1.0045
  661TMC3    H2 9788   0.812   1.502  12.098 -0.5981 -1.2671 -0.6225
  661TMC3    C7 9789   0.642   1.645  12.233 -0.3434  0.2417 -0.2097
  661TMC3    C8 9790   1.027   1.383  12.176 -0.6309  0.2994 -0.4125
  661TMC3    O1 9791   0.598   1.727  12.320  0.3645  0.0610 -0.1736
  661TMC3    O2 9792   1.076   1.270  12.166 -0.3141 -0.0781  0.2250
  662MPD2     C 9793   1.424   0.760  17.245  0.9438 -0.2693 -0.4972
  662MPD2    C1 9794   1.479   0.741  17.374  0.5284 -0.1166  0.3574
  662MPD2    C2 9795   1.417   0.800  17.484  0.2154  0.1656  0.3661
  662MPD2    C3 9796   1.297   0.865  17.465 -0.1236 -0.8512  0.0526
  662MPD2    C4 9797   1.245   0.881  17.344 -0.3455  0.0739 -0.3337
  662MPD2    C5 9798   1.313   0.837  17.235  0.3756 -0.1485  0.2481
  662MPD2     H 9799   1.462   0.791  17.582 -1.1310  2.0264  1.1555
  662MPD2    H1 9800   1.156   0.942  17.334 -0.7506 -0.0639  2.4643
  662MPD2    H2 9801   1.465   0.722  17.152  1.1326  0.4771 -0.7186
  662MPD2    H3 9802   1.265   0.854  17.139 -1.1314 -0.9552  0.8619
  662MPD2     N 9803   1.236   0.939  17.566 -0.6019 -0.3156 -0.8386
  662MPD2    H5 9804   1.147   0.984  17.548 -0.4855 -0.4730 -1.8500
  662MPD2    N1 9805   1.602   0.676  17.395  0.2343 -0.5549  0.3322
  662MPD2    H7 9806   1.639   0.687  17.489 -1.0859 -0.0138  0.7813
  663TMC3    C1 9807   1.774   0.540  17.365  0.0666  0.0611 -0.0683
  663TMC3    C2 9808   1.869   0.595  17.441  0.2447 -0.2948  0.0209
  663TMC3    C3 9809   1.960   0.510  17.500 -0.2816 -0.0825  0.3181
  663TMC3    C4 9810   1.754   0.404  17.361  0.3874  0.1276 -0.5786
  663TMC3    C5 9811   1.822   0.331  17.449  0.2963 -0.0559 -0.4409
  663TMC3    C6 9812   1.926   0.385  17.522 -0.1510 -0.5675 -0.8213
  663TMC3     C 9813   1.667   0.608  17.302  0.6164 -0.1888  1.0332
  663TMC3     O 9814   1.617   0.561  17.202 -0.0174 -0.0990  0.4077
  663TMC3     H 9815   1.885   0.703  17.439 -1.3105 -0.0742 -0.4630
  663TMC3    H1 9816   1.667   0.371  17.306 -1.3019  1.7526  1.0801
  663TMC3    H2 9817   1.974   0.340  17.608  0.0396  1.9251  0.3648
  663TMC3    C7 9818   1.748   0.215  17.501 -0.1018 -0.3373  0.1650
  663TMC3    C8 9819   2.033   0.566  17.611  0.6019 -0.5589  0.1102
  663TMC3    O1 9820   1.650   0.181  17.434 -0.0279  0.4354 -0.0436
  663TMC3    O2 9821   2.138   0.524  17.651 -0.0145  0.0767  0.0267
  664MPD2     C 9822   4.291   3.963   0.428 -0.3909 -0.0907  0.0336
  664MPD2    C1 9823   4.330   4.097   0.417 -0.5278 -0.0476 -0.2390
  664MPD2    C2 9824   4.431   4.142   0.500  0.5413  0.2115  0.3868
  664MPD2    C3 9825   4.485   4.055   0.593 -0.4654 -0.7024  0.7578
  664MPD2    C4 9826   4.434   3.924   0.612 -0.0804  0.3748  0.9205
  664MPD2    C5 9827   4.336   3.879   0.528  1.1412  0.4166  0.9404
  664MPD2     H 9828   4.456   4.247   0.488  0.4073  0.1245 -0.6558
  664MPD2    H1 9829   4.468   3.855   0.689  0.5974  0.1407  0.4083
  664MPD2    H2 9830   4.220   3.927   0.355  2.1995 -2.1194 -1.4580
  664MPD2    H3 9831   4.306   3.775   0.531 -2.2417  1.3856  0.4757
  664MPD2     N 9832   4.573   4.117   0.676 -0.2526 -0.5364 -0.1986
  664MPD2    H5 9833   4.584   4.217   0.663 -4.0674 -0.3592 -1.9911
  664MPD2    N1 9834   4.280   4.189   0.319  0.0291 -0.1366  0.4901
  664MPD2    H7 9835   4.328   4.279   0.316  1.0356 -0.6338  1.6117
  665TMC3    C1 9836   4.700   4.165   0.855 -0.9963 -0.5691 -0.1117
  665TMC3    C2 9837   0.083   4.136   0.933  0.3208 -0.0166 -0.3473
  665TMC3    C3 9838   0.150   4.241   1.000 -0.1669  0.2537  0.2272
  665TMC3    C4 9839   4.648   4.288   0.844  0.4986  0.1340 -0.5199
  665TMC3    C5 9840   4.721   4.390   0.907  0.7396 -0.2435  0.2540
  665TMC3    C6 9841   0.116   4.372   0.980 -0.7581 -0.4162 -0.0518
  665TMC3     C 9842   4.644   4.057   0.776  0.4265 -0.0106  0.4417
  665TMC3     O 9843   4.669   3.944   0.792 -0.0578 -0.1426  0.3389
  665TMC3     H 9844   0.098   4.029   0.934  0.5015  0.0145  0.3854
  665TMC3    H1 9845   4.549   4.319   0.814  0.3537  0.2876  0.1200
  665TMC3    H2 9846   0.168   4.446   1.040 -2.0074  1.1921 -0.9516
  665TMC3    C7 9847   4.647   4.525   0.907 -0.2387  0.8199  0.3355
  665TMC3    C8 9848   0.241   4.212   1.106  0.9277  0.1111 -0.6950
  665TMC3    O1 9849   4.551   4.528   0.826 -0.3803 -0.0679  0.1866
  665TMC3    O2 9850   0.256   4.304   1.188 -0.1079 -0.2034  0.0849
  666TMC3    C1 9851   3.166   3.247  10.613  0.4891  0.1603 -0.8028
  666TMC3    C2 9852   3.241   3.211  10.721 -0.2622  0.1938  1.3593
  666TMC3    C3 9853   3.338   3.304  10.759 -0.2772  0.3375  0.1026
  666TMC3    C4 9854   3.191   3.358  10.538 -0.4824  0.2159  0.1554
  666TMC3    C5 9855   3.271   3.453  10.588  0.1814  0.4184 -0.3638
  666TMC3    C6 9856   3.353   3.428  10.697 -0.1891  0.0837 -0.1716
  666TMC3     C 9857   3.046   3.165  10.573 -0.6779 -0.6674  0.3939
  666TMC3     O 9858   2.977   3.211  10.483 -0.0574  0.0189 -0.0279
  666TMC3     H 9859   3.250   3.109  10.756  0.0725  0.1134  1.0410
  666TMC3    H1 9860   3.111   3.379  10.468  1.0959 -2.8196 -2.5541
  666TMC3    H2 9861   3.446   3.482  10.717  0.6677 -0.9305 -1.3817
  666TMC3    C7 9862   3.277   3.583  10.536  0.0762  0.8586 -0.2139
  666TMC3    C8 9863   3.409   3.286  10.887  0.3851  0.4308  0.0034
  666TMC3    O1 9864   3.330   3.653  10.619  0.4563  0.2405 -0.0381
  666TMC3    O2 9865   3.409   3.174  10.933 -0.0045  0.4888 -0.2500
  667MPD2     C 9866   0.384   4.346  14.748 -0.6345  0.1209 -1.0180
  667MPD2    C1 9867   0.307   4.345  14.860  0.3167 -0.1198  0.8548
  667MPD2    C2 9868   0.191   4.267  14.851 -0.3293 -0.6905  0.3923
  667MPD2    C3 9869   0.149   4.197  14.741  0.1370 -0.4065 -0.7066
  667MPD2    C4 9870   0.239   4.194  14.636 -0.4183 -0.6357 -0.1576
  667MPD2    C5 9871   0.351   4.272  14.642 -0.4658 -0.3151  0.1855
  667MPD2     H 9872   0.138   4.262  14.946 -0.0140 -1.3660  0.5323
  667MPD2    H1 9873   0.221   4.135  14.547 -0.1356  0.2552 -0.8056
  667MPD2    H2 9874   0.478   4.399  14.743  0.0695 -0.8924  1.3464
  667MPD2    H3 9875   0.419   4.265  14.557  0.3933  1.2647  0.7470
  667MPD2     N 9876   0.031   4.131  14.713  0.6406  0.8832  0.2147
  667MPD2    H5 9877   0.016   4.097  14.619 -1.6184 -0.8753  1.2125
  667MPD2    N1 9878   0.323   4.438  14.965  0.2944 -0.1111 -0.5051
  667MPD2    H7 9879   0.249   4.451  15.034 -0.0530 -0.2778 -0.8477
  668TMC3    C1 9880   0.386   4.636  15.063 -0.6561 -0.4944 -0.1645
  668TMC3    C2 9881   0.449   0.032  15.035 -0.2656 -0.1970 -0.5748
  668TMC3    C3 9882   0.429   0.137  15.108  0.1638 -0.3897 -0.0835
  668TMC3    C4 9883   0.303   4.622  15.172 -0.6013 -0.0500 -0.2076
  668TMC3    C5 9884   0.283   0.017  15.246 -0.6042 -0.2034 -0.3568
  668TMC3    C6 9885   0.350   0.133  15.216  0.5987 -0.3832  0.1689
  668TMC3     C 9886   0.423   4.530  14.977  0.2734  0.2953  0.0459
  668TMC3     O 9887   0.522   4.546  14.909 -0.5313 -0.2640  0.4003
  668TMC3     H 9888   0.524   0.041  14.957  1.2233 -2.1919  0.6249
  668TMC3    H1 9889   0.266   4.524  15.200 -1.0154 -0.0303 -0.6834
  668TMC3    H2 9890   0.337   0.211  15.291 -0.6874  1.5347 -2.0597
  668TMC3    C7 9891   0.233   0.010  15.384  0.1772  0.1706 -0.3809
  668TMC3    C8 9892   0.484   0.265  15.075 -0.0820 -0.0163 -0.4554
  668TMC3    O1 9893   0.288   0.094  15.453  0.7071  0.1159  0.2891
  668TMC3    O2 9894   0.446   0.349  15.154  0.8226  0.3854  0.0251
  669TMC3    C1 9895   3.048   3.938  14.619  0.3898  0.7111 -0.3273
  669TMC3    C2 9896   2.935   3.948  14.544  0.5733  0.0276 -0.3889
  669TMC3    C3 9897   2.933   4.055  14.460  0.3553 -0.9057  0.8520
  669TMC3    C4 9898   3.150   4.026  14.621 -0.3607 -0.3058 -1.1660
  669TMC3    C5 9899   3.134   4.135  14.541 -0.3063  0.0990 -0.5949
  669TMC3    C6 9900   3.035   4.152  14.451  0.3173 -0.5887  0.5887
  669TMC3     C 9901   3.038   3.847  14.738 -0.3320 -0.1000 -0.8045
  669TMC3     O 9902   2.922   3.832  14.780  0.1810 -0.1779 -0.4201
  669TMC3     H 9903   2.843   3.894  14.565  0.7071  0.5636  1.6106
  669TMC3    H1 9904   3.235   4.014  14.687 -0.1660  1.9370 -1.0223
  669TMC3    H2 9905   3.045   4.226  14.373  0.6327  0.9175  2.0558
  669TMC3    C7 9906   3.245   4.231  14.526  0.8239  0.5689  0.3205
  669TMC3    C8 9907   2.800   4.080  14.401 -0.7343 -0.2740 -0.4158
  669TMC3    O1 9908   3.213   4.345  14.491 -0.0870 -0.7914  0.2140
  669TMC3    O2 9909   2.710   4.002  14.419  0.2476 -0.0439  0.0796
  670MPD2     C 9910   0.830   1.934  13.649 -0.7141  0.0662  0.0799
  670MPD2    C1 9911   0.962   1.947  13.685 -0.2738 -0.0589  0.0629
  670MPD2    C2 9912   0.993   1.911  13.816 -0.5812 -0.9280 -0.2206
  670MPD2    C3 9913   0.900   1.848  13.899 -0.0700 -0.7648  0.2283
  670MPD2    C4 9914   0.775   1.819  13.848  0.0795 -0.4599  0.2414
  670MPD2    C5 9915   0.741   1.875  13.730 -0.1091 -0.7680 -0.2102
  670MPD2     H 9916   1.095   1.923  13.850 -0.7233  1.5501 -0.6574
  670MPD2    H1 9917   0.692   1.768  13.897  0.0535 -1.6198 -0.9891
  670MPD2    H2 9918   0.793   1.964  13.552 -3.1512 -0.4180  0.8482
  670MPD2    H3 9919   0.638   1.858  13.699 -0.3042 -0.9513  0.5472
  670MPD2     N 9920   0.949   1.798  14.026 -0.1850  0.2325 -0.1287
  670MPD2    H5 9921   1.041   1.826  14.056 -0.8480  0.4057  1.7304
  670MPD2    N1 9922   1.063   2.013  13.605  0.6041  0.2702  0.2932
  670MPD2    H7 9923   1.151   2.041  13.647  0.0323  1.2119  0.8642
  671TMC3    C1 9924   0.954   1.683  14.228  0.6353 -0.8268 -0.8087
  671TMC3    C2 9925   1.087   1.678  14.220 -0.7807 -0.2666 -0.5450
  671TMC3    C3 9926   1.161   1.583  14.296  0.7713 -0.0014  0.0432
  671TMC3    C4 9927   0.890   1.582  14.300 -0.2093  0.2400  0.0402
  671TMC3    C5 9928   0.964   1.483  14.365 -0.9187 -0.0628 -0.1869
  671TMC3    C6 9929   1.101   1.486  14.376  0.1306  0.4659 -1.0665
  671TMC3     C 9930   0.877   1.724  14.112 -0.3406  0.1369  0.2303
  671TMC3     O 9931   0.758   1.693  14.106  0.2310 -0.7815  0.3319
  671TMC3     H 9932   1.145   1.753  14.169 -0.2068 -0.8260 -0.7159
  671TMC3    H1 9933   0.782   1.595  14.311  0.0593  2.8827 -0.5120
  671TMC3    H2 9934   1.160   1.423  14.442  0.0448  1.3074 -0.1842
  671TMC3    C7 9935   0.917   1.359  14.309 -0.5598  0.7189  0.0328
  671TMC3    C8 9936   1.291   1.540  14.231 -0.1149  0.3794 -0.4234
  671TMC3    O1 9937   0.820   1.372  14.235  0.2765  0.0626  0.2228
  671TMC3    O2 9938   1.302   1.572  14.114  0.3903 -0.3216 -0.1394
  672MPD2     C 9939   1.226   2.448   1.609 -0.3816  0.4967 -0.1441
  672MPD2    C1 9940   1.337   2.364   1.595  0.0213  0.3487  0.0335
  672MPD2    C2 9941   1.446   2.401   1.672 -0.0172  0.3670  0.4373
  672MPD2    C3 9942   1.455   2.518   1.744  0.8690  0.4556  0.0439
  672MPD2    C4 9943   1.348   2.591   1.764  0.8872 -0.8994  0.0567
  672MPD2    C5 9944   1.234   2.551   1.699 -0.3084  0.0589 -0.2384
  672MPD2     H 9945   1.537   2.341   1.670  0.1744  0.6736  0.0419
  672MPD2    H1 9946   1.352   2.684   1.819 -2.7372 -0.2054 -0.8572
  672MPD2    H2 9947   1.131   2.429   1.560  1.1437 -0.7783 -2.5748
  672MPD2    H3 9948   1.142   2.603   1.725  0.2925  0.2050  1.6262
  672MPD2     N 9949   1.574   2.565   1.809 -0.1348 -0.1008  0.0262
  672MPD2    H5 9950   1.577   2.656   1.853 -1.5862 -0.6046  1.1490
  672MPD2    N1 9951   1.342   2.255   1.507  0.9363  0.4158 -0.0601
  672MPD2    H7 9952   1.419   2.190   1.519  0.0117 -0.8202 -0.8698
  673TMC3    C1 9953   1.290   2.116   1.318 -0.3217  0.3533 -0.0010
  673TMC3    C2 9954   1.378   2.028   1.369 -0.2537  0.3426 -0.2843
  673TMC3    C3 9955   1.448   1.955   1.275 -0.0690 -0.3092  0.0255
  673TMC3    C4 9956   1.280   2.136   1.189  0.0519 -0.1804  0.1184
  673TMC3    C5 9957   1.348   2.057   1.099  0.4248  0.2138 -0.4093
  673TMC3    C6 9958   1.438   1.963   1.142 -0.7000  0.0507 -0.0581
  673TMC3     C 9959   1.255   2.232   1.400  1.0766  0.8510 -0.3726
  673TMC3     O 9960   1.159   2.298   1.365  0.2354  0.0064 -0.0487
  673TMC3     H 9961   1.394   2.014   1.476 -0.3466  0.8427 -0.2047
  673TMC3    H1 9962   1.217   2.218   1.156  0.1897 -0.6558 -1.2981
  673TMC3    H2 9963   1.479   1.885   1.079  1.0306  1.9017 -1.2215
  673TMC3    C7 9964   1.360   2.097   0.955  1.1981  0.0911  0.2800
  673TMC3    C8 9965   1.471   1.818   1.315  1.1491 -0.8937  0.2929
  673TMC3    O1 9966   1.418   2.020   0.881  0.1836  0.2888  0.8053
  673TMC3    O2 9967   1.419   1.734   1.243 -0.0797 -0.4235 -0.0503
  674MPD2     C 9968   1.901   2.055   0.819 -0.3763  0.2307  0.1547
  674MPD2    C1 9969   1.815   1.954   0.838 -0.1894 -0.2863 -0.2600
  674MPD2    C2 9970   1.710   1.929   0.742  0.7021 -0.4914 -0.2776
  674MPD2    C3 9971   1.702   2.017   0.635  1.5170  0.6461  0.1871
  674MPD2    C4 9972   1.789   2.121   0.623  0.4581  0.6913  0.3654
  674MPD2    C5 9973   1.885   2.139   0.713  0.3905 -0.5475 -0.0484
  674MPD2     H 9974   1.643   1.844   0.737  0.0989 -0.2372  3.7427
  674MPD2    H1 9975   1.771   2.203   0.554  1.1861  1.1521  0.7172
  674MPD2    H2 9976   1.994   2.061   0.874 -0.3240  0.1176  0.0771
  674MPD2    H3 9977   1.954   2.220   0.692 -2.4202  1.7399 -0.3806
  674MPD2     N 9978   1.590   1.993   0.555  0.7768 -0.5639  0.0623
  674MPD2    H5 9979   1.530   1.912   0.569  0.3014 -0.1322  0.5037
  674MPD2    N1 9980   1.834   1.870   0.955 -0.2331 -0.7332  0.7239
  674MPD2    H7 9981   1.907   1.902   1.018  1.2991 -1.0997 -0.8526
  675TMC3    C1 9982   1.808   1.693   1.101  0.3208 -0.3699  0.3859
  675TMC3    C2 9983   1.816   1.559   1.106 -0.3839 -0.5317  0.2354
  675TMC3    C3 9984   1.887   1.507   1.209 -1.0965 -0.4271 -0.6895
  675TMC3    C4 9985   1.867   1.771   1.199 -0.1657 -0.0611  0.3141
  675TMC3    C5 9986   1.928   1.719   1.310  0.3754 -0.0999  1.0067
  675TMC3    C6 9987   1.951   1.582   1.307 -0.3311  0.3866  0.6594
  675TMC3     C 9988   1.774   1.747   0.976 -0.1775  0.0614  0.0095
  675TMC3     O 9989   1.698   1.688   0.900 -0.2574 -0.3259  0.4509
  675TMC3     H 9990   1.754   1.500   1.038  0.1567 -1.4640  0.5443
  675TMC3    H1 9991   1.846   1.877   1.200 -1.3655 -0.3043  0.5172
  675TMC3    H2 9992   2.010   1.547   1.391 -0.1601 -0.8441  0.0356
  675TMC3    C7 9993   1.994   1.808   1.401  1.0317  0.2402  0.5200
  675TMC3    C8 9994   1.905   1.365   1.208 -0.5755  0.9951 -0.0359
  675TMC3    O1 9995   1.938   1.916   1.404 -0.8506  0.5468 -0.2759
  675TMC3    O2 9996   1.853   1.311   1.114  0.0637  0.0704  0.4558
  676MPD2     C 9997   3.828   0.290  11.285  0.9192  0.3590 -0.5434
  676MPD2    C1 9998   3.733   0.226  11.371  0.5505 -0.1033  0.5294
  676MPD2    C2 9999   3.681   0.102  11.344 -0.2976  0.2428  0.1556
  676MPD2    C310000   3.713   0.035  11.226  0.3151  0.2462  0.3719
  676MPD2    C410001   3.803   0.099  11.136 -0.2338  0.5904  0.1688
  676MPD2    C510002   3.856   0.222  11.164  0.0746 -0.0999 -0.8137
  676MPD2     H10003   3.621   0.045  11.414 -2.1362 -1.2253 -2.6102
  676MPD2    H110004   3.838   0.043  11.050 -0.4428  0.6804  0.0228
  676MPD2    H210005   3.870   0.388  11.308  0.0765 -0.2373  3.4888
  676MPD2    H310006   3.933   0.264  11.100  1.8453 -1.2709  0.5832
  676MPD2     N10007   3.665   4.626  11.196 -0.0601 -0.0737 -0.3559
  676MPD2    H510008   3.691   4.585  11.107 -1.7010  1.1180 -1.3840
  676MPD2    N110009   3.698   0.281  11.499 -0.0324 -0.5986 -0.3995
  676MPD2    H710010   3.628   0.228  11.551  1.0016 -0.4296  1.1489
  677TMC3    C110011   3.710   0.415  11.686 -0.1143 -0.1277  0.0558
  677TMC3    C210012   3.706   0.318  11.779  0.0691  0.6665  0.6006
  677TMC3    C310013   3.733   0.353  11.912  0.8555 -0.3587 -0.1534
  677TMC3    C410014   3.726   0.546  11.711  0.9564 -0.0634  0.4359
  677TMC3    C510015   3.741   0.581  11.840 -0.1592  0.5714  0.5249
  677TMC3    C610016   3.740   0.490  11.942  0.7355 -0.0930  0.4038
  677TMC3     C10017   3.763   0.384  11.556  0.6628 -0.1772 -0.1357
  677TMC3     O10018   3.859   0.448  11.523 -0.4413  1.2570 -0.1744
  677TMC3     H10019   3.692   0.213  11.754 -0.8002  0.5125  1.6889
  677TMC3    H110020   3.722   0.620  11.631 -1.7730 -0.4801  0.2000
  677TMC3    H210021   3.774   0.526  12.038 -1.6079  1.3018  0.7120
  677TMC3    C710022   3.830   0.697  11.860  0.1702 -0.5228 -0.5305
  677TMC3    C810023   3.860   0.288  11.963 -0.2273  0.1461  0.4108
  677TMC3    O110024   3.847   0.745  11.971 -0.1989 -0.5654  0.3170
  677TMC3    O210025   3.934   0.355  12.035 -0.4123 -0.4520 -0.0708
  678MPD2     C10026   1.113   1.144   1.803 -0.2634  0.1356  0.4253
  678MPD2    C110027   1.151   1.027   1.738 -0.1978  0.3328  0.4112
  678MPD2    C210028   1.066   0.924   1.727  0.3156 -0.0481  0.6542
  678MPD2    C310029   0.937   0.932   1.780 -0.5357 -0.0882  0.5540
  678MPD2    C410030   0.904   1.047   1.855  0.6104 -0.7858 -0.0216
  678MPD2    C510031   0.994   1.141   1.868  0.6827 -0.5318 -0.3915
  678MPD2     H10032   1.094   0.848   1.654  2.0327 -0.9401  2.2301
  678MPD2    H110033   0.818   1.047   1.921  1.2210 -0.7454  0.7768
  678MPD2    H210034   1.177   1.232   1.806  0.2796 -0.1907 -1.5926
  678MPD2    H310035   0.966   1.224   1.933  1.7696 -1.1927  0.9283
  678MPD2     N10036   0.842   0.837   1.734 -0.0105  0.0927 -0.1023
  678MPD2    H510037   0.884   0.782   1.660  0.6771 -0.1919  0.5033
  678MPD2    N110038   1.272   1.034   1.669 -1.0084 -0.1271  0.2857
  678MPD2    H710039   1.330   1.117   1.667  1.0492 -1.6394 -1.9601
  679TMC3    C110040   1.700   0.925   1.537  0.1856  0.4124 -0.2877
  679TMC3    C210041   1.584   0.893   1.601  0.1772  0.4007 -0.3174
  679TMC3    C310042   1.475   0.962   1.568  0.1055  0.3403 -0.1073
  679TMC3    C410043   1.706   1.008   1.432 -0.4246  0.4659 -0.0637
  679TMC3    C510044   1.585   1.066   1.395 -0.3344  0.6443 -0.0849
  679TMC3    C610045   1.470   1.055   1.473 -0.3718 -0.6253 -0.2973
  679TMC3     C10046   1.777   0.804   1.514  0.2277  0.2100  0.0873
  679TMC3     O10047   1.798   0.712   1.596  0.4787  0.0408 -0.1002
  679TMC3     H10048   1.579   0.822   1.683  0.7854  2.4551  1.4921
  679TMC3    H110049   1.802   1.029   1.386 -0.9487  2.9207 -0.0799
  679TMC3    H210050   1.377   1.101   1.442  0.2547  0.4939 -0.5065
  679TMC3    C710051   1.593   1.132   1.260  0.1917  1.4504 -0.3229
  679TMC3    C810052   1.350   0.922   1.642 -0.0357  0.5864  0.2907
  679TMC3    O110053   1.684   1.101   1.184  0.0173 -0.1061  0.1794
  679TMC3    O210054   1.336   0.802   1.651 -0.6214 -0.0226  0.1014
  680MPD2     C10055   0.427   3.794  13.791  0.4019 -0.2506 -0.5939
  680MPD2    C110056   0.515   3.731  13.877 -0.4278 -0.5566  0.0458
  680MPD2    C210057   0.583   3.817  13.969  0.6985  0.2014  0.1118
  680MPD2    C310058   0.568   3.951  13.971 -1.1666  0.5646 -0.1363
  680MPD2    C410059   0.488   4.006  13.887  0.0381 -0.3794 -0.2548
  680MPD2    C510060   0.412   3.936  13.798  0.4006  0.6365  0.2592
  680MPD2     H10061   0.656   3.772  14.036  0.5552 -1.6177 -0.9538
  680MPD2    H110062   0.479   4.114  13.890 -1.1148 -0.4935  0.5281
  680MPD2    H210063   0.362   3.750  13.716  0.3411 -1.2186  0.0302
  680MPD2    H310064   0.341   3.988  13.735 -0.6930 -2.2162 -0.8976
  680MPD2     N10065   0.649   4.039  14.044 -0.1313 -0.0689 -0.6192
  680MPD2    H510066   0.636   4.138  14.028  1.7005  0.3972  0.8795
  680MPD2    N110067   0.526   3.592  13.885  0.2729  0.3543  0.4993
  680MPD2    H710068   0.541   3.557  13.979  0.3505 -1.3937 -0.1576
  681TMC3    C110069   0.508   3.361  13.815  0.1702  0.8141 -0.5866
  681TMC3    C210070   0.545   3.316  13.943 -0.0854  0.4868 -0.1888
  681TMC3    C310071   0.579   3.182  13.957 -0.1995  0.0112  0.0866
  681TMC3    C410072   0.499   3.283  13.711 -1.0374  0.1374  0.7991
  681TMC3    C510073   0.523   3.153  13.732 -0.1003 -0.5256  0.0633
  681TMC3    C610074   0.570   3.095  13.850  0.6348 -0.4609  0.1946
  681TMC3     C10075   0.500   3.505  13.782 -0.8845  0.2939 -0.1404
  681TMC3     O10076   0.493   3.541  13.667  0.3254  0.4492  0.2299
  681TMC3     H10077   0.553   3.385  14.026 -0.7415 -0.1729  0.4158
  681TMC3    H110078   0.445   3.320  13.624 -0.2022 -1.1203 -0.2539
  681TMC3    H210079   0.600   2.991  13.857 -0.2920 -0.8344 -1.4057
  681TMC3    C710080   0.545   3.069  13.619  0.2978 -0.5309 -0.0666
  681TMC3    C810081   0.644   3.141  14.083 -0.0817  0.9695  0.1130
  681TMC3    O110082   0.526   2.950  13.636  0.3318 -0.0490 -0.1721
  681TMC3    O210083   0.692   3.030  14.083 -0.7722 -0.4080 -0.0534
  682MPD2     C10084   3.172   0.233  10.694  0.0623  1.0716  0.3696
  682MPD2    C110085   3.108   0.127  10.762  0.3078  0.1019  0.0006
  682MPD2    C210086   3.027   0.151  10.876 -0.3902  0.6576 -0.0807
  682MPD2    C310087   3.011   0.281  10.923  0.0205 -0.2133  0.3993
  682MPD2    C410088   3.071   0.382  10.853  0.2751  0.0632  0.2049
  682MPD2    C510089   3.168   0.359  10.753 -0.2389  0.2838 -0.1045
  682MPD2     H10090   2.993   0.073  10.943 -0.3195  0.3912 -0.3526
  682MPD2    H110091   3.053   0.485  10.883  0.0750  1.1282 -3.4881
  682MPD2    H210092   3.238   0.225  10.608  0.9270 -0.4398  1.1699
  682MPD2    H310093   3.221   0.439  10.704  1.2759  0.1654  1.3284
  682MPD2     N10094   2.918   0.315  11.026 -0.4755 -0.3751 -0.9299
  682MPD2    H510095   2.910   0.416  11.037  0.2433 -0.3931 -0.2651
  682MPD2    N110096   3.118   4.708  10.728  0.1136 -0.2688  0.1141
  682MPD2    H710097   3.063   4.647  10.788  0.2596 -1.6187 -1.1425
  683TMC3    C110098   2.680   0.485  11.314  0.4331 -0.0365 -0.1574
  683TMC3    C210099   2.554   0.439  11.330 -0.3287 -0.6584 -0.0949
  683TMC3    C310100   2.525   0.321  11.265  0.0556 -0.1434 -0.6004
  683TMC3    C410101   2.771   0.415  11.233  0.0672 -0.2948  0.1727
  683TMC3    C510102   2.735   0.297  11.176  0.1627 -0.0509 -0.0947
  683TMC3    C610103   2.612   0.247  11.196  0.2552 -0.0864 -0.4786
  683TMC3     C10104   2.723   0.586  11.408  0.4157 -0.0704  0.7880
  683TMC3     O10105   2.649   0.622  11.498  0.5260 -0.7558 -0.2943
  683TMC3     H10106   2.486   0.496  11.392  0.3185 -0.6150  0.5743
  683TMC3    H110107   2.876   0.440  11.232  0.1911 -0.7879  1.2945
  683TMC3    H210108   2.577   0.154  11.151 -3.3807  1.1135 -0.1535
  683TMC3    C710109   2.819   0.230  11.078  0.6491 -0.5162 -0.2181
  683TMC3    C810110   2.402   0.253  11.284 -0.1106 -0.3482 -0.1183
  683TMC3    O110111   2.791   0.116  11.051  0.2383  0.1459 -0.0670
  683TMC3    O210112   2.301   0.317  11.300  0.6079  0.3560  0.1122
  684MPD2     C10113   1.777   4.563  16.317 -0.2734  0.0271 -0.2111
  684MPD2    C110114   1.697   4.668  16.283  0.1511  0.1238  0.3784
  684MPD2    C210115   1.743   0.049  16.204  0.1067  0.6217  0.3227
  684MPD2    C310116   1.872   0.041  16.148  0.1823 -0.0449 -0.3234
  684MPD2    C410117   1.955   4.664  16.190  0.6822 -0.1177  0.5498
  684MPD2    C510118   1.906   4.570  16.278 -0.3762  0.4633  0.0362
  684MPD2     H10119   1.671   0.125  16.176  0.3685  0.9355  0.4982
  684MPD2    H110120   2.058   4.657  16.159  0.6095  1.7432 -0.0763
  684MPD2    H210121   1.752   4.474  16.373  1.1028 -0.4739 -0.3968
  684MPD2    H310122   1.967   4.490  16.318 -4.5953 -2.1522  1.1579
  684MPD2     N10123   1.920   0.131  16.048  0.2886  0.0154 -0.7653
  684MPD2    H510124   2.016   0.128  16.016  0.1339 -0.7933 -1.1389
  684MPD2    N110125   1.560   4.677  16.325 -0.1531 -1.1339 -0.1727
  684MPD2    H710126   1.515   0.045  16.307  2.0723 -0.4081 -2.2361
  685TMC3    C110127   1.342   4.603  16.384 -0.0915  1.1801  0.6432
  685TMC3    C210128   1.307   4.701  16.300  0.4307 -0.0463  0.6424
  685TMC3    C310129   1.221   4.661  16.193 -0.0276  0.2087 -0.4493
  685TMC3    C410130   1.285   4.484  16.379  0.1220 -0.5563  0.2254
  685TMC3    C510131   1.201   4.445  16.280  0.4260 -0.4916  1.1018
  685TMC3    C610132   1.159   4.538  16.181  0.3375  0.6737  0.0344
  685TMC3     C10133   1.489   4.580  16.390  0.3058  0.4997  0.1067
  685TMC3     O10134   1.524   4.466  16.409 -0.3025  0.5173 -0.1889
  685TMC3     H10135   1.341   0.082  16.298  1.1183 -0.2588  1.6281
  685TMC3    H110136   1.300   4.417  16.462  1.3367 -0.3114  0.2091
  685TMC3    H210137   1.104   4.507  16.093  0.5211 -0.3029  0.2568
  685TMC3    C710138   1.204   4.302  16.254  0.4284 -0.0801 -0.0504
  685TMC3    C810139   1.235   0.027  16.083 -0.1659  0.3485 -0.6491
  685TMC3    O110140   1.100   4.234  16.229  0.4488 -0.3504 -0.6248
  685TMC3    O210141   1.324   0.110  16.092  1.1098 -0.1265 -0.4994
  686MPD2     C10142   2.169   4.653  15.395 -0.7326  0.0520  0.2811
  686MPD2    C110143   2.251   4.542  15.425 -0.5270 -0.8343  0.2052
  686MPD2    C210144   2.370   4.536  15.361 -1.1695  0.4806  0.2898
  686MPD2    C310145   2.419   4.637  15.279  0.2127 -0.7555  0.4207
  686MPD2    C410146   2.341   0.029  15.260 -1.0555  0.1450  0.0299
  686MPD2    C510147   2.211   0.032  15.311 -0.9260  0.3432  0.2527
  686MPD2     H10148   2.430   4.447  15.374 -0.4696  0.7081 -1.4872
  686MPD2    H110149   2.390   0.104  15.199 -0.0430  0.8537  1.7162
  686MPD2    H210150   2.066   4.657  15.429  0.3089  0.6265  3.3883
  686MPD2    H310151   2.143   0.115  15.291  0.4283  1.2629 -0.5602
  686MPD2     N10152   2.545   4.622  15.210  0.3989  0.4801 -0.0141
  686MPD2    H510153   2.557   4.673  15.123 -2.5205  2.0187  0.4846
  686MPD2    N110154   2.203   4.440  15.498 -0.3270 -0.0598  1.2516
  686MPD2    H710155   2.108   4.448  15.532 -0.7285  0.5663 -0.0252
  687TMC3    C110156   2.745   4.511  15.144 -0.6659 -0.6611  0.4227
  687TMC3    C210157   2.706   4.439  15.039 -0.6248 -0.3161 -0.6360
  687TMC3    C310158   2.750   4.307  15.047 -0.0334 -0.1093  0.2312
  687TMC3    C410159   2.859   4.476  15.214 -0.1641 -0.0462  0.3177
  687TMC3    C510160   2.919   4.364  15.192 -0.3131 -0.5952  0.0542
  687TMC3    C610161   2.861   4.270  15.106  0.4319  0.6464 -0.0798
  687TMC3     C10162   2.640   4.525  15.239  0.6173  1.0637 -0.6494
  687TMC3     O10163   2.655   4.449  15.332 -0.4191  0.2934  0.5712
  687TMC3     H10164   2.615   4.477  14.994 -0.8628 -1.1679 -0.8821
  687TMC3    H110165   2.900   4.546  15.286  0.7128 -1.1003  0.8462
  687TMC3    H210166   2.898   4.172  15.080  0.9467  0.4723  1.2797
  687TMC3    C710167   3.042   4.337  15.265  0.0157  0.7941 -0.0260
  687TMC3    C810168   2.642   4.208  15.086 -0.3478  0.5375 -0.2462
  687TMC3    O110169   3.081   4.423  15.344  0.1873  0.2930  0.3357
  687TMC3    O210170   2.663   4.138  15.184 -0.2322  0.2184  0.2168
  688MPD2     C10171   2.154   3.402  17.558  0.5363  0.6085  0.3091
  688MPD2    C110172   2.097   3.277  17.549  0.1679 -0.4362  0.0347
  688MPD2    C210173   2.148   3.186  17.455 -0.1666  0.1502 -0.5832
  688MPD2    C310174   2.254   3.224  17.368  0.4589 -0.1281 -0.0451
  688MPD2    C410175   2.312   3.348  17.392  0.2217  0.2127  0.7552
  688MPD2    C510176   2.258   3.436  17.485 -0.3299  0.3718 -0.1909
  688MPD2     H10177   2.100   3.089  17.452 -1.7100  0.9427 -1.4721
  688MPD2    H110178   2.390   3.385  17.327  1.0423 -1.5734  0.7099
  688MPD2    H210179   2.123   3.478  17.628  0.4195  1.5226 -0.7473
  688MPD2    H310180   2.306   3.533  17.491 -1.7442  0.9459  1.8602
  688MPD2     N10181   2.305   3.145  17.264  0.0640 -0.3485 -0.3592
  688MPD2    H510182   2.382   3.183  17.209 -0.2517 -1.1771 -1.3820
  688MPD2    N110183   1.994   3.230  17.637  0.3975  0.5240  0.2420
  688MPD2    H710184   1.956   3.136  17.630 -4.3628  2.2436  2.3729
  689TMC3    C110185   1.861   3.234   0.153  0.8020 -0.2689  0.0547
  689TMC3    C210186   1.876   3.295   0.275  0.0990 -0.6640  0.6519
  689TMC3    C310187   1.854   3.217   0.390 -0.2823 -0.3909 -0.3530
  689TMC3    C410188   1.811   3.099   0.149  0.3192 -0.6627 -0.4981
  689TMC3    C510189   1.765   3.042   0.264 -0.1701 -0.0270 -0.1729
  689TMC3    C610190   1.789   3.097   0.383  0.0262 -0.2925  0.3974
  689TMC3     C10191   1.930   3.309   0.046 -0.1570  0.6130 -0.0013
  689TMC3     O10192   1.934   3.429   0.066  0.8353 -0.2270 -0.7128
  689TMC3     H10193   1.927   3.391   0.275  0.4682 -0.8601  1.7904
  689TMC3    H110194   1.797   3.045   0.056 -1.8965  0.3896 -0.7730
  689TMC3    H210195   1.763   3.048   0.476 -0.7700 -0.1423  0.2496
  689TMC3    C710196   1.729   2.900   0.278 -0.8663  0.2074  0.3447
  689TMC3    C810197   1.872   3.289   0.522  0.1111  0.1044  0.5892
  689TMC3    O110198   1.746   2.854   0.395 -0.2415 -0.2915  0.6636
  689TMC3    O210199   1.820   3.245   0.623 -0.8636 -0.5172  0.8091
  690MPD2     C10200   4.252   0.501  15.906 -0.3268  0.9995 -0.0371
  690MPD2    C110201   4.154   0.542  15.821 -0.4107 -0.5713 -0.6034
  690MPD2    C210202   4.185   0.642  15.730 -0.9286 -0.3702  0.4765
  690MPD2    C310203   4.308   0.710  15.730  0.3515  0.0746  0.8410
  690MPD2    C410204   4.397   0.669  15.828  0.7318  0.2560 -0.3583
  690MPD2    C510205   4.370   0.568  15.917  0.0239  0.4280 -0.4418
  690MPD2     H10206   4.107   0.668  15.659  0.0082  0.0808 -0.3939
  690MPD2    H110207   4.492   0.715  15.852 -1.1014  3.0787  1.4966
  690MPD2    H210208   4.241   0.406  15.956 -0.0266  0.3638 -1.1721
  690MPD2    H310209   4.438   0.529  15.992 -0.4671 -1.6883 -1.0730
  690MPD2     N10210   4.330   0.820  15.642 -0.4853 -0.0123 -0.1585
  690MPD2    H510211   4.257   0.842  15.574  2.1078  0.5507 -2.7576
  690MPD2    N110212   4.026   0.489  15.811 -0.2643 -0.2036  0.2638
  690MPD2    H710213   3.967   0.533  15.741 -2.0077  0.3329  2.0709
  691TMC3    C110214   3.859   0.317  15.837 -0.4254  0.7196 -0.3524
  691TMC3    C210215   3.769   0.384  15.757  0.6517  0.0731 -0.0813
  691TMC3    C310216   3.685   0.304  15.688 -0.0891 -0.2748  0.1429
  691TMC3    C410217   3.868   0.186  15.848  0.4118 -0.6750 -0.2316
  691TMC3    C510218   3.777   0.110  15.781 -0.2532  0.5130  0.0936
  691TMC3    C610219   3.682   0.167  15.706  0.5456 -0.0654  0.3433
  691TMC3     C10220   3.979   0.381  15.885 -0.1232  0.0544 -0.3760
  691TMC3     O10221   4.019   0.331  15.989  0.0211  0.0949  0.1471
  691TMC3     H10222   3.784   0.488  15.730 -1.7628  0.0693 -1.4731
  691TMC3    H110223   3.950   0.137  15.899  1.0281 -1.2052 -1.7407
  691TMC3    H210224   3.596   0.117  15.664 -0.5816  0.6474  1.8062
  691TMC3    C710225   3.788   4.688  15.786 -0.2230 -0.9803  0.1268
  691TMC3    C810226   3.594   0.351  15.597  0.2459 -0.2597 -0.4273
  691TMC3    O110227   3.868   4.642  15.868 -0.4120  0.4764 -0.4140
  691TMC3    O210228   3.571   0.285  15.501 -0.0339 -0.0733 -0.6819
  692TMC3    C110229   1.135   1.254  16.126 -0.2653 -0.2743  0.4117
  692TMC3    C210230   1.238   1.257  16.220  0.4544  0.7539  0.4249
  692TMC3    C310231   1.351   1.176  16.206  1.1195  0.1425 -0.4667
  692TMC3    C410232   1.145   1.173  16.019 -0.2024  0.3742 -0.3686
  692TMC3    C510233   1.262   1.100  16.006  0.0588  0.6240  0.3195
  692TMC3    C610234   1.372   1.102  16.092 -0.0424 -0.4348 -0.1496
  692TMC3     C10235   1.017   1.339  16.147 -0.6108 -0.8176  0.6655
  692TMC3     O10236   0.994   1.397  16.251  0.6520 -0.1083  0.7957
  692TMC3     H10237   1.214   1.316  16.308  0.6952 -0.6059  1.4047
  692TMC3    H110238   1.061   1.159  15.952 -1.2736 -0.7604  1.2079
  692TMC3    H210239   1.441   1.019  16.085  0.9571  0.4881 -1.0333
  692TMC3    C710240   1.252   0.976  15.925  0.7679  0.4746  0.6080
  692TMC3    C810241   1.378   1.091  16.322 -0.2480  0.2908 -0.1338
  692TMC3    O110242   1.140   0.941  15.895  0.2035 -0.3716  0.2293
  692TMC3    O210243   1.403   0.976  16.301  0.6355 -0.3086  0.0280
  693MPD2     C10244   4.412   4.389  11.011 -0.0265 -0.3963 -0.1415
  693MPD2    C110245   4.396   4.290  11.111  0.3179  0.4468  0.2020
  693MPD2    C210246   4.507   4.239  11.172  0.3432  0.4150 -0.2947
  693MPD2    C310247   4.637   4.281  11.141 -0.0895 -0.4415 -0.2109
  693MPD2    C410248   4.646   4.379  11.037  0.0073 -0.1181 -0.3377
  693MPD2    C510249   4.530   4.429  10.974  0.1474  0.5923 -0.3310
  693MPD2     H10250   4.493   4.156  11.240  0.5943 -0.4981 -1.3639
  693MPD2    H110251   0.017   4.426  11.006  1.6137 -0.6901  3.5300
  693MPD2    H210252   4.332   4.448  10.968 -0.3169 -1.1025 -0.5654
  693MPD2    H310253   4.553   4.508  10.905 -3.4500  2.4707  0.6097
  693MPD2     N10254   0.031   4.210  11.185 -0.5612 -0.4471  0.2310
  693MPD2    H510255   0.115   4.219  11.128  0.6991 -4.7300  1.4670
  693MPD2    N110256   4.274   4.230  11.144  0.3154 -0.1568  0.1167
  693MPD2    H710257   4.263   4.174  11.227  2.5007 -2.7212 -1.3184
  694TMC3    C110258   4.055   4.132  11.132  0.4058 -0.0450 -0.2198
  694TMC3    C210259   3.990   4.043  11.050 -0.5080  0.2366  1.0550
  694TMC3    C310260   3.951   3.931  11.121  0.0037 -0.1700 -0.2072
  694TMC3    C410261   4.089   4.122  11.262  0.5122 -0.5287 -0.1175
  694TMC3    C510262   4.032   4.012  11.325 -0.2181  0.1508  0.5843
  694TMC3    C610263   3.972   3.909  11.254  0.2858 -0.4856  0.0806
  694TMC3     C10264   4.160   4.221  11.066  0.1232  0.2179  0.3451
  694TMC3     O10265   4.140   4.264  10.953  1.0142  0.2627 -0.1601
  694TMC3     H10266   3.945   4.073  10.956  0.1981 -0.7732  0.3945
  694TMC3    H110267   4.125   4.196  11.332 -0.2859 -1.4919  1.3301
  694TMC3    H210268   3.942   3.819  11.305  0.4270  0.8729  2.5708
  694TMC3    C710269   4.025   4.010  11.471 -0.0685  0.0779 -0.2302
  694TMC3    C810270   3.892   3.823  11.048  0.7183 -0.2855  0.4086
  694TMC3    O110271   4.010   4.120  11.529  0.0451 -0.0989 -0.1350
  694TMC3    O210272   3.866   3.725  11.116  0.4609 -0.0877  0.3624
  695MPD2     C10273   1.457   1.055  13.281  0.5133  0.0209 -0.5066
  695MPD2    C110274   1.447   1.053  13.415  0.0076  0.3040 -0.1627
  695MPD2    C210275   1.322   1.040  13.472  0.3602  0.4423 -0.2191
  695MPD2    C310276   1.206   1.029  13.395  0.4871  0.1253 -0.5156
  695MPD2    C410277   1.217   1.032  13.256  0.3305 -0.6640 -0.2709
  695MPD2    C510278   1.344   1.042  13.200 -1.0284 -0.0217 -0.7424
  695MPD2     H10279   1.323   1.052  13.580 -1.9768 -2.7996  0.1857
  695MPD2    H110280   1.135   1.034  13.186  0.2711  1.6882 -0.1225
  695MPD2    H210281   1.551   1.060  13.226  0.4839 -2.0278 -0.7688
  695MPD2    H310282   1.358   1.036  13.093 -0.9638  1.0732 -0.8023
  695MPD2     N10283   1.087   1.039  13.469  0.3241 -0.5372  0.1459
  695MPD2    H510284   1.089   1.021  13.569  0.7588 -1.2178  0.0141
  695MPD2    N110285   1.556   1.072  13.507 -0.3784 -0.2499  0.5092
  695MPD2    H710286   1.533   1.093  13.604  0.5024 -0.9132  0.8530
  696TMC3    C110287   0.857   1.090  13.507 -0.2784  0.5385  0.2670
  696TMC3    C210288   0.877   1.064  13.645  0.1105  0.4941  0.2387
  696TMC3    C310289   0.782   1.103  13.732  0.0843 -1.0076 -0.3190
  696TMC3    C410290   0.752   1.166  13.463 -0.4535  1.2997  1.2882
  696TMC3    C510291   0.665   1.210  13.555 -0.4874  0.1833 -0.2960
  696TMC3    C610292   0.672   1.168  13.687 -0.4874 -0.2749 -0.0529
  696TMC3     C10293   0.965   1.076  13.409  1.0512 -0.2028  0.4294
  696TMC3     O10294   0.945   1.117  13.291  1.1325 -0.2259  0.3969
  696TMC3     H10295   0.947   0.988  13.678 -0.4479 -0.0363  0.2093
  696TMC3    H110296   0.752   1.207  13.363 -1.0799 -0.9038  0.3976
  696TMC3    H210297   0.603   1.210  13.760  0.8744  0.6201  0.7235
  696TMC3    C710298   0.573   1.310  13.508  0.0050  0.4319 -0.7986
  696TMC3    C810299   0.807   1.090  13.877 -0.4359  0.6248 -0.1024
  696TMC3    O110300   0.558   1.323  13.391 -0.0086  0.3593 -0.4065
  696TMC3    O210301   0.720   1.137  13.953 -0.5365  0.3215 -0.3816
  697MPD2     C10302   0.090   3.073  16.019 -0.7536 -0.6802 -0.0007
  697MPD2    C110303   0.141   3.019  15.903 -0.5238  0.1794 -0.0319
  697MPD2    C210304   0.213   3.107  15.823 -0.1779 -0.8311  0.0426
  697MPD2    C310305   0.250   3.231  15.870  0.3410  0.5645 -0.4596
  697MPD2    C410306   0.191   3.278  15.986  0.8659  0.1416  0.4857
  697MPD2    C510307   0.098   3.202  16.051 -0.3516  0.2308 -0.0176
  697MPD2     H10308   0.247   3.072  15.726 -1.0200 -1.1128 -0.1478
  697MPD2    H110309   0.220   3.373  16.031  0.3117  0.5509 -0.0227
  697MPD2    H210310   0.034   3.013  16.090 -0.0321 -1.8231 -0.3892
  697MPD2    H310311   0.048   3.233  16.142 -1.5470 -0.0949 -0.5657
  697MPD2     N10312   0.358   3.296  15.805  0.1886  0.1876 -0.4022
  697MPD2    H510313   0.404   3.251  15.726 -1.0623 -0.9596 -0.4731
  697MPD2    N110314   0.131   2.883  15.868  0.5698 -0.2345  0.0458
  697MPD2    H710315   0.157   2.854  15.774  0.7824 -0.3797  0.1494
  698TMC3    C110316   0.514   3.438  15.725 -0.2260  0.7867 -0.2188
  698TMC3    C210317   0.641   3.487  15.753  1.2383 -0.2585 -0.3656
  698TMC3    C310318   0.734   3.510  15.661  0.3581 -0.4298 -0.3058
  698TMC3    C410319   0.484   3.407  15.600  0.1338  0.5859  0.3256
  698TMC3    C510320   0.581   3.419  15.500 -0.2114 -0.5902  0.2983
  698TMC3    C610321   0.702   3.474  15.528  0.0700  0.5826 -0.3789
  698TMC3     C10322   0.417   3.413  15.832 -0.6292 -0.4868  0.0154
  698TMC3     O10323   0.411   3.483  15.932 -0.6682  0.4303  0.0239
  698TMC3     H10324   0.671   3.522  15.851  1.0815  1.0641 -0.7915
  698TMC3    H110325   0.392   3.357  15.573 -0.6364  1.3005  1.6222
  698TMC3    H210326   0.777   3.485  15.450  0.8080  0.4617  0.3229
  698TMC3    C710327   0.574   3.322  15.394 -0.2895  0.0600  0.9189
  698TMC3    C810328   0.874   3.526  15.695 -0.0902  0.1262 -0.5630
  698TMC3    O110329   0.463   3.297  15.348 -0.4584  0.0406  0.3476
  698TMC3    O210330   0.911   3.507  15.812  0.2795  0.8702 -0.0889
  699TMC3    C110331   0.652   0.997  13.153  0.1253  1.0308 -0.2255
  699TMC3    C210332   0.758   0.914  13.177  0.7631 -0.2078  0.3569
  699TMC3    C310333   0.766   0.836  13.284 -0.0743  0.2104 -0.5823
  699TMC3    C410334   0.555   1.009  13.247 -0.7737  1.0406  0.1743
  699TMC3    C510335   0.563   0.927  13.353 -0.4146 -0.4837 -0.5987
  699TMC3    C610336   0.666   0.842  13.375  0.1846 -0.1584 -0.2327
  699TMC3     C10337   0.656   1.080  13.040  0.4439  0.7170  0.2272
  699TMC3     O10338   0.718   1.046  12.941  0.1660 -0.7311  0.2512
  699TMC3     H10339   0.835   0.910  13.102 -2.0307  0.1453 -2.5544
  699TMC3    H110340   0.464   1.066  13.229  0.0840  2.3513 -0.0093
  699TMC3    H210341   0.683   0.802  13.474 -0.2522  1.2695  0.4224
  699TMC3    C710342   0.465   0.931  13.451 -0.0385  0.2875  0.0571
  699TMC3    C810343   0.866   0.734  13.310  0.9144  0.3928 -0.7976
  699TMC3    O110344   0.416   1.045  13.468 -0.0322  0.4180 -0.3011
  699TMC3    O210345   0.892   0.718  13.427  0.6432  0.5207  0.0514
  700TMC3    C110346   4.544   3.894   0.206  0.0623  0.1191  0.3873
  700TMC3    C210347   4.561   3.756   0.205 -0.1637 -0.0143  0.1360
  700TMC3    C310348   4.663   3.703   0.285 -0.1216 -0.4915  0.6716
  700TMC3    C410349   4.625   3.987   0.271 -0.3587 -0.0275  0.0258
  700TMC3    C510350   4.716   3.923   0.356  0.1830 -0.2849 -0.1754
  700TMC3    C610351   0.022   3.788   0.358 -0.1997 -0.5466 -0.1760
  700TMC3     C10352   4.458   3.944   0.104  0.1186  0.9234 -0.7398
  700TMC3     O10353   4.348   3.894   0.089 -0.5273  0.7191 -0.5627
  700TMC3     H10354   4.491   3.688   0.159 -1.9926  1.0690  1.3395
  700TMC3    H110355   4.607   4.094   0.275  0.1017 -0.0283  2.0607
  700TMC3    H210356   0.110   3.751   0.409 -0.1442 -1.5656 -1.0009
  700TMC3    C710357   0.098   4.007   0.411 -0.5602  0.2518  0.3056
  700TMC3    C810358   0.014   3.597   0.221  0.0630 -0.3773 -0.3269
  700TMC3    O110359   0.094   4.122   0.373  0.1823 -0.1386  0.8127
  700TMC3    O210360   4.684   3.550   0.120 -0.0597 -0.0280  0.1954
  701TMC3    C110361   4.685   2.082  15.640  0.1212  0.1928  0.5899
  701TMC3    C210362   0.026   2.046  15.522  0.3437 -0.5781 -0.9431
  701TMC3    C310363   0.040   2.142  15.428  1.3905 -0.0477  0.3034
  701TMC3    C410364   4.656   2.214  15.660  0.5159  0.0961  0.7079
  701TMC3    C510365   4.656   2.298  15.557 -0.2824 -0.3748 -0.5511
  701TMC3    C610366   4.706   2.266  15.437 -0.5619  0.5408 -0.2193
  701TMC3     C10367   4.551   2.019  15.652  0.0742 -0.0925  0.8664
  701TMC3     O10368   4.451   2.078  15.616 -1.2196 -0.1812  0.0029
  701TMC3     H10369   0.056   1.947  15.490  0.2143 -0.6059 -0.9812
  701TMC3    H110370   4.606   2.236  15.753  0.7481  0.6249  0.7101
  701TMC3    H210371   0.008   2.349  15.372 -0.8358  0.2233 -0.7164
  701TMC3    C710372   4.626   2.439  15.581 -0.2881 -0.5367  0.0506
  701TMC3    C810373   0.063   2.091  15.296  0.1862 -0.0105  0.4631
  701TMC3    O110374   4.652   2.513  15.487 -0.8383 -0.2162 -0.4933
  701TMC3    O210375   0.130   1.990  15.279  0.0195  0.1856  0.1495
  702MPD2     C10376   3.636   4.171  10.672 -0.7669 -0.3471  0.5970
  702MPD2    C110377   3.688   4.227  10.789 -0.0960  0.1274  0.0905
  702MPD2    C210378   3.825   4.244  10.801  0.1548  0.2724  0.3563
  702MPD2    C310379   3.911   4.196  10.702 -0.3642 -0.2612  0.7628
  702MPD2    C410380   3.856   4.127  10.591  0.8028  0.4892  0.5430
  702MPD2    C510381   3.717   4.118  10.578 -1.0156  0.1173 -0.5768
  702MPD2     H10382   3.856   4.308  10.882  0.7109  0.4121  0.0350
  702MPD2    H110383   3.907   4.111  10.497 -3.2842 -0.6754 -1.4590
  702MPD2    H210384   3.531   4.149  10.661 -1.1164  1.2599  0.6890
  702MPD2    H310385   3.672   4.083  10.486 -0.7064 -3.7197  0.7145
  702MPD2     N10386   4.042   4.246  10.708  0.6750 -0.0580 -0.5715
  702MPD2    H510387   4.067   4.286  10.797 -1.1002 -0.3750  0.0687
  702MPD2    N110388   3.610   4.280  10.891  0.6209 -0.2153  0.3866
  702MPD2    H710389   3.662   4.314  10.970  1.1867  1.1384 -0.5750
  703TMC3    C110390   4.233   4.344  10.613 -0.2044  0.3305 -0.2529
  703TMC3    C210391   4.192   4.467  10.651 -0.1711 -0.3137 -0.6288
  703TMC3    C310392   4.273   4.572  10.629 -0.0272  0.1856 -0.5414
  703TMC3    C410393   4.339   4.329  10.526  0.2988  0.0558 -0.0726
  703TMC3    C510394   4.412   4.433  10.492  0.4230 -0.0625  0.1495
  703TMC3    C610395   4.387   4.557  10.550 -0.3257 -0.3306  0.5653
  703TMC3     C10396   4.138   4.232  10.611 -0.2565  0.3632 -0.3037
  703TMC3     O10397   4.136   4.160  10.513  0.3759  0.0871 -0.6911
  703TMC3     H10398   4.100   4.477  10.707  1.2151 -0.2826  1.6784
  703TMC3    H110399   4.357   4.234  10.477 -1.3584 -0.8195  1.0123
  703TMC3    H210400   4.452   4.641  10.532 -1.0011 -0.1254 -0.8940
  703TMC3    C710401   4.551   4.410  10.461  0.2624 -0.8355  0.3277
  703TMC3    C810402   4.230   4.709  10.669  0.7005  0.2931  0.7627
  703TMC3    O110403   4.594   4.503  10.399 -0.6514 -0.4539  0.8187
  703TMC3    O210404   4.310   0.078  10.644 -0.0277  0.2293  0.3235
  704TMC3    C110405   1.337   2.945  12.099  0.4143 -0.4893  0.1376
  704TMC3    C210406   1.452   2.952  12.170  0.1148  0.7406 -0.0072
  704TMC3    C310407   1.498   2.845  12.234  0.9494  0.1296  0.1786
  704TMC3    C410408   1.260   2.828  12.096  0.4973 -0.1126 -0.8396
  704TMC3    C510409   1.304   2.727  12.178  0.4885  1.0666  0.1501
  704TMC3    C610410   1.423   2.726  12.240 -0.0077 -0.0091  0.4148
  704TMC3     C10411   1.303   3.056  12.021 -0.3456 -0.6239  0.3822
  704TMC3     O10412   1.186   3.095  12.011 -0.7678 -0.3064 -0.2299
  704TMC3     H10413   1.510   3.043  12.155 -0.5083  1.2441  0.6315
  704TMC3    H110414   1.175   2.823  12.029 -1.0988  3.0304  0.9357
  704TMC3    H210415   1.478   2.639  12.275  3.1601  1.8207 -0.0695
  704TMC3    C710416   1.244   2.596  12.147  0.3886 -0.6029 -0.8272
  704TMC3    C810417   1.643   2.841  12.250 -0.0746 -0.2612 -0.1823
  704TMC3    O110418   1.219   2.573  12.030  0.6122  0.4250  0.0485
  704TMC3    O210419   1.706   2.933  12.194  0.0961  0.4413 -0.2886
  705MPD2     C10420   1.462   0.505  16.083 -0.1795  0.7410  0.0218
  705MPD2    C110421   1.463   0.616  16.164  0.3575  0.4216 -0.1170
  705MPD2    C210422   1.350   0.631  16.246  0.0894  0.1721 -0.3883
  705MPD2    C310423   1.244   0.544  16.244  0.1157  0.2201 -0.4030
  705MPD2    C410424   1.250   0.441  16.152 -0.1886  0.3392  0.0658
  705MPD2    C510425   1.356   0.427  16.069 -0.0172  0.3828 -0.4764
  705MPD2     H10426   1.345   0.720  16.308 -2.5972  1.5189 -2.5408
  705MPD2    H110427   1.176   0.362  16.141 -0.3418  0.4649  0.1850
  705MPD2    H210428   1.540   0.489  16.010  1.6404  1.4846  1.7918
  705MPD2    H310429   1.347   0.357  15.987  2.9750  1.9206 -2.1271
  705MPD2     N10430   1.136   0.549  16.332 -0.2309 -0.4024 -0.1423
  705MPD2    H510431   1.056   0.488  16.316 -2.1440  2.7054 -2.4446
  705MPD2    N110432   1.574   0.708  16.177  0.1354  0.4595  0.0308
  705MPD2    H710433   1.555   0.793  16.230  2.9341 -0.1087  1.9392
  706TMC3    C110434   1.965   0.932  16.054 -0.3177 -0.2966  0.3333
  706TMC3    C210435   1.945   1.020  16.155 -0.0598 -0.0524  0.2180
  706TMC3    C310436   1.839   1.009  16.241 -0.0932 -0.8383  0.0992
  706TMC3    C410437   1.893   0.821  16.048  0.1839 -0.6604 -0.7030
  706TMC3    C510438   1.785   0.810  16.134  0.4556  0.0708 -0.0414
  706TMC3    C610439   1.764   0.897  16.234  0.2454 -0.1110 -0.2845
  706TMC3     C10440   2.067   0.969  15.955 -0.1458  0.3103 -0.2860
  706TMC3     O10441   2.157   1.038  15.992  0.4362  0.6553  0.1111
  706TMC3     H10442   2.012   1.105  16.155  0.1002 -0.1773 -3.4911
  706TMC3    H110443   1.911   0.736  15.984 -0.1417 -0.1765 -1.4336
  706TMC3    H210444   1.683   0.885  16.305 -0.8404 -0.8356 -1.6382
  706TMC3    C710445   1.698   0.694  16.119  0.6726  0.8272  0.2554
  706TMC3    C810446   1.765   1.133  16.251  0.8970 -0.0003  0.2623
  706TMC3    O110447   1.740   0.599  16.051 -0.1026 -0.1020  0.6599
  706TMC3    O210448   1.762   1.212  16.156  0.1822 -0.0539  0.4322
  707TMC3    C110449   4.618   0.363   2.127  0.1784  0.5814 -0.5815
  707TMC3    C210450   4.708   0.272   2.183 -0.8468  0.2441 -0.5645
  707TMC3    C310451   4.698   0.260   2.319  0.4711 -0.0050 -0.0283
  707TMC3    C410452   4.520   0.433   2.195 -1.0499  0.3057 -0.2152
  707TMC3    C510453   4.524   0.421   2.331  0.2494  0.1977  0.4224
  707TMC3    C610454   4.611   0.331   2.394  0.3665  0.2912  0.6481
  707TMC3     C10455   4.617   0.349   1.975  0.4032  0.4013  0.7930
  707TMC3     O10456   0.000   0.317   1.926 -0.3344 -0.3656 -0.5081
  707TMC3     H10457   0.068   0.228   2.126 -2.0173  1.2421 -3.0553
  707TMC3    H110458   4.441   0.487   2.144  0.2801  1.6053 -0.9081
  707TMC3    H210459   4.613   0.317   2.502  2.2308 -1.8178  0.3215
  707TMC3    C710460   4.491   0.523   2.424  0.0469 -0.5156  0.3821
  707TMC3    C810461   0.060   0.166   2.395 -0.0953 -0.0816  0.4354
  707TMC3    O110462   4.501   0.495   2.543  0.2209  0.0511 -0.8833
  707TMC3    O210463   0.062   0.180   2.515  0.1104 -0.1523  0.1748
  708MPD2     C10464   4.194   0.051  14.235  0.6242  0.1183 -0.1178
  708MPD2    C110465   4.235   4.640  14.244  0.4211  0.3229 -0.6246
  708MPD2    C210466   4.359   4.623  14.305  0.1259 -0.2175 -0.3608
  708MPD2    C310467   4.447   0.002  14.345  0.5185 -0.5455 -0.2659
  708MPD2    C410468   4.401   0.130  14.314  0.2829 -0.4488  0.1034
  708MPD2    C510469   4.279   0.155  14.262  0.6428  0.1849  0.1189
  708MPD2     H10470   4.400   4.523  14.310 -0.7073 -0.4896  0.8794
  708MPD2    H110471   4.455   0.216  14.352 -0.2495  0.8923 -2.1604
  708MPD2    H210472   4.106   0.077  14.177  0.8663 -2.9329 -1.8595
  708MPD2    H310473   4.251   0.257  14.236  0.3104  0.0898  0.0980
  708MPD2     N10474   4.574   4.690  14.399 -0.2037 -0.5577  0.7464
  708MPD2    H510475   4.587   4.592  14.419 -0.1043 -0.3747  1.6054
  708MPD2    N110476   4.161   4.530  14.206  0.3626  0.6823  0.3229
  708MPD2    H710477   4.206   4.439  14.213 -0.7486  0.0421 -0.8653
  709TMC3    C110478   3.987   4.399  14.201 -0.3448  0.3586  0.4347
  709TMC3    C210479   3.982   4.310  14.100  0.7405  0.1490 -0.5020
  709TMC3    C310480   4.006   4.179  14.132 -0.3687  0.1575 -0.0797
  709TMC3    C410481   4.024   4.365  14.324 -0.3181 -0.6713  0.0635
  709TMC3    C510482   4.071   4.243  14.353  0.1857 -0.0929 -0.4620
  709TMC3    C610483   4.071   4.151  14.254 -0.6190  0.5060  0.0108
  709TMC3     C10484   4.031   4.531  14.173 -0.1829  0.0138 -0.4419
  709TMC3     O10485   3.950   4.626  14.166 -0.1030 -0.2014  0.6648
  709TMC3     H10486   3.954   4.344  14.001  2.9746  0.3770 -1.0473
  709TMC3    H110487   4.036   4.445  14.397  2.1556  0.1247 -1.2247
  709TMC3    H210488   4.124   4.062  14.284 -1.7397 -0.2417 -0.2228
  709TMC3    C710489   4.161   4.232  14.468  0.7814 -0.0596  0.3676
  709TMC3    C810490   4.066   4.104  14.020  0.2971  0.0679  0.0888
  709TMC3    O110491   4.269   4.181  14.444  0.1653  0.1654 -0.6224
  709TMC3    O210492   4.166   4.039  14.054  0.0400  0.5040  0.2209
  710TMC3    C110493   1.411   0.982   0.547 -0.0937  0.0958  0.0323
  710TMC3    C210494   1.505   0.912   0.471 -0.9477  0.5492 -0.1599
  710TMC3    C310495   1.626   0.971   0.464 -0.7952  0.0392  0.2541
  710TMC3    C410496   1.442   1.093   0.613  0.4686  0.1229  0.4051
  710TMC3    C510497   1.571   1.136   0.606  0.0323 -0.3303 -0.4746
  710TMC3    C610498   1.669   1.080   0.534  0.1995 -0.0104  0.3548
  710TMC3     C10499   1.286   0.916   0.576  0.8589  0.8205  0.3544
  710TMC3     O10500   1.242   0.827   0.504 -0.1385  0.5262 -0.1466
  710TMC3     H10501   1.478   0.828   0.406  0.4946 -0.7970  0.9767
  710TMC3    H110502   1.362   1.151   0.658  1.0267 -0.3749  2.0386
  710TMC3    H210503   1.768   1.122   0.522  0.4188 -0.2217  1.4757
  710TMC3    C710504   1.619   1.208   0.719 -0.2504 -0.2144 -0.0349
  710TMC3    C810505   1.705   0.920   0.349 -0.5988 -0.3761  0.8398
  710TMC3    O110506   1.731   1.180   0.758  0.3933 -0.1251 -0.0891
  710TMC3    O210507   1.648   0.843   0.275  0.7026  0.0689  0.3263
  711TMC3    C110508   0.352   1.632  15.239 -0.8333 -1.1107 -0.4425
  711TMC3    C210509   0.357   1.735  15.330  0.7253  0.1817 -0.2654
  711TMC3    C310510   0.416   1.704  15.453 -0.4800  0.8149  0.5155
  711TMC3    C410511   0.390   1.508  15.268  0.5260 -0.4078 -0.3344
  711TMC3    C510512   0.421   1.476  15.402  0.5597 -0.5119 -0.2928
  711TMC3    C610513   0.449   1.577  15.492 -0.0722 -0.4538  0.1373
  711TMC3     C10514   0.371   1.661  15.098  0.2537 -0.2034 -0.1295
  711TMC3     O10515   0.485   1.683  15.065  0.1107 -0.0534  0.3764
  711TMC3     H10516   0.333   1.834  15.293  0.4757  0.3977  0.4769
  711TMC3    H110517   0.390   1.436  15.186  1.8496 -0.1694 -0.5434
  711TMC3    H210518   0.485   1.552  15.591  0.6237 -1.4771 -0.3727
  711TMC3    C710519   0.494   1.355  15.418  0.3888 -1.0350 -0.6146
  711TMC3    C810520   0.447   1.813  15.542 -0.2056 -0.0101 -0.1751
  711TMC3    O110521   0.576   1.354  15.508 -0.7258  0.0999 -0.0207
  711TMC3    O210522   0.368   1.904  15.571 -0.4245  0.0873  0.4539
  712MPD2     C10523   1.589   2.397  13.308 -0.7490 -0.7787 -0.0918
  712MPD2    C110524   1.484   2.476  13.276  0.3825  0.0548 -1.2460
  712MPD2    C210525   1.472   2.598  13.338  0.1912 -0.0091  0.1326
  712MPD2    C310526   1.566   2.653  13.421 -0.0901  0.8415  0.5607
  712MPD2    C410527   1.671   2.569  13.457  0.5097  0.2299  0.1839
  712MPD2    C510528   1.681   2.447  13.397 -0.7475  0.3899 -0.7762
  712MPD2     H10529   1.384   2.657  13.315  0.1046 -0.3772 -0.4877
  712MPD2    H110530   1.748   2.600  13.527  2.9965 -0.9027 -2.0730
  712MPD2    H210531   1.611   2.302  13.260  2.3534  0.0255 -0.2295
  712MPD2    H310532   1.766   2.387  13.425  0.1498  0.8569 -2.5213
  712MPD2     N10533   1.564   2.775  13.491 -0.0125  0.1586  0.2757
  712MPD2    H510534   1.643   2.793  13.553 -0.3502 -0.2139  0.8116
  712MPD2    N110535   1.386   2.426  13.193 -0.2741  0.0873  0.5810
  712MPD2    H710536   1.302   2.483  13.193  0.8188  1.6799  0.2382
  713TMC3    C110537   1.525   3.002  13.516  0.4667  0.7123  0.1528
  713TMC3    C210538   1.663   3.018  13.542  0.3184  0.0577 -0.3374
  713TMC3    C310539   1.713   3.138  13.596  0.0957 -0.3252  0.3646
  713TMC3    C410540   1.441   3.108  13.544 -0.1934 -0.0970 -0.6643
  713TMC3    C510541   1.492   3.222  13.604 -0.8551  0.1032  0.6930
  713TMC3    C610542   1.625   3.236  13.636 -0.1441  1.1112 -0.2049
  713TMC3     C10543   1.474   2.877  13.471  0.6784 -0.4095 -0.8912
  713TMC3     O10544   1.368   2.871  13.408  0.8576 -0.4138  0.1122
  713TMC3     H10545   1.741   2.950  13.512 -0.6833 -1.4041  0.3452
  713TMC3    H110546   1.335   3.106  13.522  0.1194  1.6572 -2.3071
  713TMC3    H210547   1.664   3.324  13.684  0.8402  1.0331 -0.8627
  713TMC3    C710548   1.418   3.336  13.643  0.6070  0.3233 -0.1256
  713TMC3    C810549   1.854   3.176  13.599 -0.5967  0.0234 -0.1943
  713TMC3    O110550   1.469   3.408  13.729 -0.2566 -0.4195 -0.2964
  713TMC3    O210551   1.886   3.294  13.580  0.0888  0.1296 -0.2099
  714MPD2     C10552   4.466   1.407   1.855 -0.2752  0.0619  0.2240
  714MPD2    C110553   4.528   1.388   1.733 -0.4865 -0.1751  0.4296
  714MPD2    C210554   4.445   1.389   1.622  0.6895  0.3886  0.1244
  714MPD2    C310555   4.311   1.410   1.624 -0.0513 -0.2720  0.5004
  714MPD2    C410556   4.254   1.414   1.748 -0.0037  0.3572  0.6686
  714MPD2    C510557   4.334   1.424   1.864 -0.1180  0.0019 -0.8081
  714MPD2     H10558   4.490   1.390   1.523  1.2310  0.8500  0.3741
  714MPD2    H110559   4.147   1.418   1.764 -0.1687  1.0382 -0.6597
  714MPD2    H210560   4.526   1.408   1.945  1.8871  3.1195 -1.2522
  714MPD2    H310561   4.272   1.450   1.949  1.1361 -0.0495  0.1053
  714MPD2     N10562   4.241   1.413   1.502  0.2044  0.5000  0.0259
  714MPD2    H510563   4.301   1.398   1.422 -1.9768 -0.9202 -1.3382
  714MPD2    N110564   4.667   1.385   1.721 -0.4653 -0.1067 -0.1453
  714MPD2    H710565   0.001   1.402   1.805  0.5155 -0.8633 -0.6288
  715TMC3    C110566   0.154   1.347   1.612  0.5214 -0.1510 -1.2466
  715TMC3    C210567   0.224   1.277   1.518 -0.1190  0.7212  0.5283
  715TMC3    C310568   0.357   1.294   1.507 -0.1457 -0.1851 -0.3698
  715TMC3    C410569   0.221   1.442   1.690  0.1779 -0.1535  0.3506
  715TMC3    C510570   0.353   1.451   1.679  0.2874 -0.1890  0.2557
  715TMC3    C610571   0.428   1.380   1.583 -0.5300  0.8212  0.7465
  715TMC3     C10572   0.011   1.360   1.601 -0.0198 -0.5704 -0.5234
  715TMC3     O10573   4.690   1.315   1.495  0.2214  0.6636 -0.6555
  715TMC3     H10574   0.163   1.207   1.461  0.1797  1.0098 -0.1412
  715TMC3    H110575   0.164   1.515   1.746  1.2187  0.5969  0.4217
  715TMC3    H210576   0.536   1.373   1.579 -0.5514  0.7289  0.2597
  715TMC3    C710577   0.422   1.537   1.769 -0.5478  0.1618 -0.3213
  715TMC3    C810578   0.425   1.193   1.422 -0.0324 -0.2140  0.4035
  715TMC3    O110579   0.529   1.588   1.742 -0.0550 -0.2965 -0.0141
  715TMC3    O210580   0.366   1.155   1.321  0.1736 -0.3857 -0.7715
  716MPD2     C10581   3.527   4.660  10.403  0.2333  0.3511 -0.4926
  716MPD2    C110582   3.575   4.702  10.283  0.2677 -0.0324  0.4605
  716MPD2    C210583   3.649   4.605  10.207  0.1509 -0.1256  0.3584
  716MPD2    C310584   3.667   4.475  10.250  0.6209 -0.3403 -0.3432
  716MPD2    C410585   3.619   4.434  10.373 -0.4112  0.3172  0.7519
  716MPD2    C510586   3.565   4.534  10.448  0.8319  0.0850 -0.3463
  716MPD2     H10587   3.682   4.637  10.109  0.3161  1.4966  0.9458
  716MPD2    H110588   3.632   4.339  10.423 -2.1352 -1.1732 -1.6312
  716MPD2    H210589   3.486   0.014  10.470 -1.5486  0.0355 -1.2284
  716MPD2    H310590   3.547   4.515  10.553 -1.9064  0.1711 -0.7937
  716MPD2     N10591   3.715   4.386  10.150 -0.3027  0.1371  0.1092
  716MPD2    H510592   3.737   4.431  10.062 -1.1945 -0.2660 -0.3246
  716MPD2    N110593   3.540   0.115  10.246 -0.0362 -0.1330 -0.2189
  716MPD2    H710594   3.508   0.180  10.317  0.9093 -4.3168  4.0315
  717TMC3    C110595   3.811   4.185  10.044 -0.6602  0.3925 -0.0470
  717TMC3    C210596   3.782   4.247   9.926  0.6085 -0.4564 -1.2330
  717TMC3    C310597   3.767   4.167   9.824 -0.0071 -0.1972  0.1855
  717TMC3    C410598   3.826   4.049  10.056 -0.2381  0.0214 -0.0003
  717TMC3    C510599   3.796   3.971   9.949 -0.6170 -0.8704  0.3328
  717TMC3    C610600   3.767   4.031   9.827  0.2317 -0.1073 -0.3714
  717TMC3     C10601   3.753   4.246  10.166  0.0492  1.0027  0.7895
  717TMC3     O10602   3.759   4.178  10.267  0.1937 -0.1868  0.0391
  717TMC3     H10603   3.773   4.354   9.911  2.4205  0.1182  1.7964
  717TMC3    H110604   3.840   4.008  10.155  0.2756 -0.1726 -0.1513
  717TMC3    H210605   3.742   3.967   9.743  0.0634 -0.3938 -0.0997
  717TMC3    C710606   3.858   3.840   9.934  0.0240 -0.5686 -0.1597
  717TMC3    C810607   3.752   4.234   9.691 -0.2331  0.0082  0.5666
  717TMC3    O110608   3.851   3.782   9.827  0.6855 -0.1627 -0.5254
  717TMC3    O210609   3.785   4.353   9.694  0.3978 -0.3818  0.1917
  718MPD2     C10610   2.546   3.622  12.345 -0.1407 -0.3021 -0.6578
  718MPD2    C110611   2.640   3.537  12.404 -0.3477  0.0694  0.0780
  718MPD2    C210612   2.615   3.476  12.523 -0.3802 -0.6413 -0.1755
  718MPD2    C310613   2.483   3.486  12.575  0.2050 -0.2130  0.1758
  718MPD2    C410614   2.389   3.570  12.520 -0.2471  0.9024 -0.8789
  718MPD2    C510615   2.421   3.640  12.406 -0.0901 -1.1353 -0.1382
  718MPD2     H10616   2.668   3.395  12.570  1.3879  0.1930 -0.7318
  718MPD2    H110617   2.289   3.574  12.562  0.1144  1.4403 -0.0753
  718MPD2    H210618   2.577   3.664  12.250 -0.0970  1.0761 -0.0323
  718MPD2    H310619   2.345   3.701  12.359  0.0411  0.1557  1.3135
  718MPD2     N10620   2.457   3.402  12.686 -0.0353 -0.0842  0.4818
  718MPD2    H510621   2.539   3.363  12.732 -2.2875 -3.9022  1.2829
  718MPD2    N110622   2.758   3.502  12.344 -0.1869 -0.3137  0.8931
  718MPD2    H710623   2.804   3.423  12.389  3.0306  1.2954  0.4229
  719TMC3    C110624   2.966   3.498  12.250 -0.4329 -0.2642  0.0194
  719TMC3    C210625   2.976   3.374  12.287  0.3921  0.3485 -0.0990
  719TMC3    C310626   3.073   3.334  12.375  0.6386  0.7643 -0.0902
  719TMC3    C410627   3.053   3.595  12.277  0.0146  0.0580  0.3575
  719TMC3    C510628   3.154   3.562  12.364 -0.1582 -0.5525  0.0200
  719TMC3    C610629   3.161   3.432  12.420  0.3473  0.1782 -0.0949
  719TMC3     C10630   2.831   3.554  12.237 -0.9008 -0.3473 -0.2086
  719TMC3     O10631   2.817   3.655  12.172 -0.2878 -0.4334 -0.2203
  719TMC3     H10632   2.901   3.303  12.254  1.7843 -0.7667 -0.8320
  719TMC3    H110633   3.034   3.690  12.229  1.2855 -0.6272 -1.5088
  719TMC3    H210634   3.230   3.405  12.500  1.8577 -0.1697 -1.5140
  719TMC3    C710635   3.245   3.657  12.415  0.1644  0.7207  0.3291
  719TMC3    C810636   2.994   3.285  12.484  0.6310  0.2894  0.3723
  719TMC3    O110637   3.349   3.613  12.457 -0.0953 -0.4382 -0.2876
  719TMC3    O210638   2.874   3.315  12.484 -0.3124 -0.2940 -0.3198
  720MPD2     C10639   1.846   4.452  13.855  0.1420 -0.9399 -0.2044
  720MPD2    C110640   1.816   4.580  13.824 -0.2658  0.1704  0.1661
  720MPD2    C210641   1.900   4.683  13.863  0.4573  0.3924 -0.0671
  720MPD2    C310642   2.020   4.654  13.916 -0.1980 -0.2898 -0.1722
  720MPD2    C410643   2.048   4.522  13.950 -0.1126 -0.9912 -0.2471
  720MPD2    C510644   1.956   4.421  13.928 -0.4674 -0.3286  0.4125
  720MPD2     H10645   1.882   0.063  13.828 -0.4949 -0.1602 -1.1837
  720MPD2    H110646   2.134   4.488  14.007 -1.5603 -2.1798  1.2310
  720MPD2    H210647   1.773   4.371  13.856 -1.6023  0.6306 -0.7477
  720MPD2    H310648   1.987   4.323  13.960 -0.0888 -1.2611 -2.7720
  720MPD2     N10649   2.119   0.032  13.936 -0.1001  0.1807  0.2396
  720MPD2    H510650   2.087   0.128  13.927 -1.9411 -0.4439  0.1447
  720MPD2    N110651   1.699   4.608  13.758  0.6053  0.6214 -0.2519
  720MPD2    H710652   1.672   4.705  13.761 -0.8321  0.0830  3.5955
  721TMC3    C110653   2.338   0.125  13.995  0.0595  0.0665 -0.5983
  721TMC3    C210654   2.286   0.219  14.075 -0.1232  0.2832  0.1361
  721TMC3    C310655   2.370   0.305  14.143  0.1984  0.9836 -0.0429
  721TMC3    C410656   2.478   0.106  13.979  0.0908  0.0877  0.1641
  721TMC3    C510657   2.556   0.207  14.038  0.2763 -0.5678  0.2903
  721TMC3    C610658   2.500   0.290  14.129 -0.5916  0.7657 -0.3252
  721TMC3     C10659   2.254   0.006  13.965 -0.1158 -0.4079  0.4088
  721TMC3     O10660   2.309   4.620  13.948  0.4065 -0.2649 -0.7264
  721TMC3     H10661   2.180   0.220  14.098 -0.1116 -0.8460  0.2804
  721TMC3    H110662   2.520   0.025  13.920 -2.2172 -1.3193  0.4571
  721TMC3    H210663   2.553   0.372  14.177 -0.7667  0.6606  0.0533
  721TMC3    C710664   2.702   0.197  14.030 -0.6212 -0.0887 -0.0645
  721TMC3    C810665   2.330   0.386  14.260 -0.1641 -0.9170  0.1719
  721TMC3    O110666   2.750   0.137  13.935  0.3016  0.5883  0.2993
  721TMC3    O210667   2.372   0.503  14.260 -0.4165  0.0390 -0.7611
  722MPD2     C10668   0.222   3.240  13.388 -1.0308  0.4629 -0.0494
  722MPD2    C110669   0.199   3.363  13.333 -0.3357 -0.5712  0.3051
  722MPD2    C210670   0.072   3.395  13.300 -0.5049 -0.1389  0.2043
  722MPD2    C310671   4.695   3.296  13.302 -0.0292 -0.4185  0.2480
  722MPD2    C410672   0.002   3.163  13.346  0.2743 -1.0647 -0.8066
  722MPD2    C510673   0.127   3.140  13.394  0.2575 -0.1582  0.1814
  722MPD2     H10674   0.048   3.493  13.261  1.9638  0.4296  0.0955
  722MPD2    H110675   4.650   3.084  13.353  1.6567 -2.1720  1.0037
  722MPD2    H210676   0.319   3.217  13.431 -0.6344  0.4108 -0.9738
  722MPD2    H310677   0.153   3.042  13.432  1.7898  0.7038  1.3771
  722MPD2     N10678   4.572   3.329  13.249 -0.3229 -0.7278 -0.6369
  722MPD2    H510679   4.565   3.425  13.218 -3.6577 -1.4643 -2.1764
  722MPD2    N110680   0.303   3.469  13.306 -0.2805  0.4198  0.2253
  722MPD2    H710681   0.280   3.560  13.268  2.2273  2.0182  2.4812
  723TMC3    C110682   4.350   3.297  13.174 -0.5541  0.0358  0.2504
  723TMC3    C210683   4.277   3.220  13.088  0.2318  0.4029 -0.1323
  723TMC3    C310684   4.187   3.280  12.998 -0.0562  0.0552 -0.2709
  723TMC3    C410685   4.333   3.436  13.182  0.0202 -1.1552  0.1831
  723TMC3    C510686   4.249   3.495  13.091 -0.1084  0.3419 -1.0018
  723TMC3    C610687   4.176   3.421  13.000 -0.7595 -0.9090  0.8135
  723TMC3     C10688   4.468   3.234  13.226  0.6879  0.5643 -0.2869
  723TMC3     O10689   4.456   3.117  13.260  0.1563  0.2089  0.6219
  723TMC3     H10690   4.308   3.116  13.088  0.8677  0.5908  0.1226
  723TMC3    H110691   4.367   3.481  13.275  1.0861 -2.2613  0.3307
  723TMC3    H210692   4.142   3.468  12.909 -1.0999  0.7653  1.7953
  723TMC3    C710693   4.219   3.639  13.082  0.2782 -0.0922  0.0251
  723TMC3    C810694   4.133   3.210  12.881 -0.7667  0.0409 -0.1548
  723TMC3    O110695   4.132   3.677  13.007  0.4189  0.2127  0.1634
  723TMC3    O210696   4.081   3.279  12.795  0.2991  0.2141 -0.5929
  724TMC3    C110697   0.273   2.788   9.272  0.3866 -0.7340  0.0986
  724TMC3    C210698   0.320   2.912   9.296 -0.6550 -0.0030 -0.1972
  724TMC3    C310699   0.448   2.919   9.330 -0.3077  0.4161  0.0771
  724TMC3    C410700   0.360   2.678   9.262 -0.1445 -0.1170  0.3576
  724TMC3    C510701   0.492   2.690   9.302 -1.0373  0.4352  0.0483
  724TMC3    C610702   0.545   2.811   9.330 -0.1536 -0.2918 -0.5863
  724TMC3     C10703   0.128   2.761   9.290 -0.3451  0.1982  0.1106
  724TMC3     O10704   0.089   2.659   9.246 -0.4089 -0.0540  0.3168
  724TMC3     H10705   0.259   3.001   9.294 -2.1960 -1.0699 -0.1942
  724TMC3    H110706   0.316   2.582   9.241  3.3423 -1.8431  0.8805
  724TMC3    H210707   0.653   2.822   9.326 -0.1809  0.8380  1.8289
  724TMC3    C710708   0.564   2.564   9.293  0.0033 -0.0097  0.2601
  724TMC3    C810709   0.507   3.051   9.364  0.7041 -0.0072  0.0559
  724TMC3    O110710   0.505   2.468   9.249  0.1987  0.2638  0.4005
  724TMC3    O210711   0.437   3.145   9.332  0.1021  0.4497 -0.2311
  725TMC3    C110712   2.307   0.346  13.233 -0.0468 -0.1704 -0.3978
  725TMC3    C210713   2.177   0.358  13.189 -0.5940  0.4322  0.0470
  725TMC3    C310714   2.125   0.239  13.152 -1.0634  0.5308  0.4116
  725TMC3    C410715   2.377   0.225  13.227  0.5005 -0.3920  0.1191
  725TMC3    C510716   2.319   0.108  13.183 -0.3940  0.1952  0.1565
  725TMC3    C610717   2.182   0.118  13.159 -0.0971  0.1298  0.4895
  725TMC3     C10718   2.399   0.459  13.213  0.2004 -0.4612 -0.4499
  725TMC3     O10719   2.381   0.556  13.281  0.0899  0.0337 -0.2810
  725TMC3     H10720   2.135   0.456  13.170  0.7542  1.1008  0.5746
  725TMC3    H110721   2.485   0.228  13.227  0.3936  3.0284 -0.2065
  725TMC3    H210722   2.131   0.039  13.105 -0.3805 -0.2553  1.3204
  725TMC3    C710723   2.385   0.050  13.073  0.4872 -0.4514 -0.5862
  725TMC3    C810724   1.999   0.245  13.075  0.7498 -0.1536 -0.0175
  725TMC3    O110725   2.462   0.122  13.017  0.4307 -0.1932 -0.1047
  725TMC3    O210726   1.918   0.158  13.097 -0.1865  0.3928 -0.3020
  726MPD2     C10727   0.666   1.922  10.335  0.0969  0.3345 -0.3413
  726MPD2    C110728   0.561   1.996  10.284 -0.5553 -0.5237  0.1306
  726MPD2    C210729   0.431   1.955  10.322  0.7246 -1.0357 -0.2438
  726MPD2    C310730   0.405   1.847  10.403 -0.4610 -0.2859 -0.2141
  726MPD2    C410731   0.513   1.779  10.455  0.1068 -0.5170  0.1611
  726MPD2    C510732   0.642   1.818  10.420 -0.2558  0.1830 -0.0154
  726MPD2     H10733   0.350   2.005  10.269  0.3050 -2.0018 -0.5114
  726MPD2    H110734   0.508   1.685  10.509  0.0708 -0.7080 -0.1699
  726MPD2    H210735   0.771   1.937  10.316  0.2776  0.3281  0.6586
  726MPD2    H310736   0.727   1.775  10.472 -0.5304  1.7036  1.7191
  726MPD2     N10737   0.278   1.795  10.426 -0.6485 -0.3195 -0.7570
  726MPD2    H510738   0.270   1.710  10.480  1.5227  0.2773  0.5040
  726MPD2    N110739   0.572   2.116  10.204 -0.7917  0.4124 -0.1067
  726MPD2    H710740   0.484   2.163  10.183 -1.0341  0.4169  0.9291
  727TMC3    C110741   0.673   2.314  10.120  0.7966  0.2675 -0.5652
  727TMC3    C210742   0.786   2.385  10.118  0.0943  0.8370 -0.0592
  727TMC3    C310743   0.772   2.512  10.074  0.0967 -0.1212 -0.5163
  727TMC3    C410744   0.550   2.365  10.097 -0.2279  0.2197  0.1387
  727TMC3    C510745   0.546   2.494  10.055  1.2175 -1.1365 -0.9041
  727TMC3    C610746   0.649   2.575  10.047 -0.1907 -0.1614  0.0349
  727TMC3     C10747   0.689   2.173  10.157  0.4485  0.1952 -0.0050
  727TMC3     O10748   0.802   2.125  10.164 -0.3996  0.0733 -0.3278
  727TMC3     H10749   0.883   2.342  10.140 -1.0755 -1.5244  0.5116
  727TMC3    H110750   0.456   2.313  10.086  0.2726 -0.1497 -2.4914
  727TMC3    H210751   0.639   2.670   9.996  2.4917  0.5027  0.7122
  727TMC3    C710752   0.412   2.546  10.036  0.0538 -0.2844  0.5960
  727TMC3    C810753   0.897   2.582  10.089 -0.2529  0.5125 -0.2198
  727TMC3    O110754   0.329   2.472   9.983 -1.0784  0.3559  0.5538
  727TMC3    O210755   1.001   2.517  10.090 -0.2372  0.0930  0.3004
  728TMC3    C110756   4.458   0.987  15.528 -0.3484 -0.5511  0.2938
  728TMC3    C210757   4.552   1.088  15.540  0.2930  0.3047  0.0450
  728TMC3    C310758   4.551   1.189  15.447  0.1514  0.5102 -0.3731
  728TMC3    C410759   4.366   0.983  15.428 -1.1249  0.1476  0.0934
  728TMC3    C510760   4.373   1.083  15.339  0.4121  0.1277  0.0393
  728TMC3    C610761   4.464   1.183  15.345 -0.8257  0.0613 -0.6286
  728TMC3     C10762   4.452   0.890  15.635  0.3782  0.5362 -0.0277
  728TMC3     O10763   4.544   0.889  15.713 -0.1260  0.1219  0.5334
  728TMC3     H10764   4.617   1.080  15.627  0.6288 -2.4501 -0.4695
  728TMC3    H110765   4.317   0.888  15.407  1.1597 -1.3752  1.6321
  728TMC3    H210766   4.443   1.275  15.291  1.6928  1.5434  0.9381
  728TMC3    C710767   4.275   1.082  15.236 -0.4756 -0.9300 -0.2482
  728TMC3    C810768   4.627   1.312  15.468 -0.0028  0.3558  0.7265
  728TMC3    O110769   4.180   1.009  15.256  0.6704  0.1949  0.6147
  728TMC3    O210770   4.584   1.414  15.419 -0.2117  0.3602  0.0983
  729MPD2     C10771   1.638   2.043  17.469  0.6301 -0.5282  0.1047
  729MPD2    C110772   1.751   1.967  17.486 -0.1315  1.1955  0.1861
  729MPD2    C210773   1.822   1.965  17.604 -0.4721 -0.5995 -0.0321
  729MPD2    C310774   1.771   2.047   0.021  0.1341 -0.1010 -0.1753
  729MPD2    C410775   1.658   2.121   0.004 -0.0719  0.0533  0.2706
  729MPD2    C510776   1.599   2.130  17.563  0.2374  0.5368  0.4293
  729MPD2     H10777   1.913   1.908  17.617 -1.0436 -1.5349 -0.1086
  729MPD2    H110778   1.625   2.191   0.080  0.5131 -0.2837  0.8334
  729MPD2    H210779   1.586   2.039  17.373 -1.2257  1.0341  1.0342
  729MPD2    H310780   1.523   2.201  17.533 -0.1530  0.2057  0.6245
  729MPD2     N10781   1.837   2.062   0.145 -0.4557  0.1174  0.2627
  729MPD2    H510782   1.810   2.134   0.211  1.5152  1.4817 -0.4252
  729MPD2    N110783   1.794   1.900  17.365  0.0110 -0.0534  0.6963
  729MPD2    H710784   1.733   1.918  17.286  1.5452  0.4553 -0.3787
  730TMC3    C110785   2.032   2.061   0.283  0.3080  0.6655 -0.2325
  730TMC3    C210786   2.166   2.066   0.264  0.4138 -0.5376  0.2425
  730TMC3    C310787   2.232   2.179   0.292 -0.3370  0.0825  0.9393
  730TMC3    C410788   1.963   2.158   0.349  0.3529  0.7690  0.4263
  730TMC3    C510789   2.032   2.273   0.380 -0.1771  0.1310 -0.8181
  730TMC3    C610790   2.168   2.278   0.352 -0.0463 -0.0189  0.2748
  730TMC3     C10791   1.951   1.998   0.176 -0.0293 -0.0327 -0.0839
  730TMC3     O10792   2.002   1.904   0.117 -0.4978  0.6824 -0.5527
  730TMC3     H10793   2.200   1.990   0.195 -0.9309  0.8315 -1.9038
  730TMC3    H110794   1.856   2.166   0.358  0.3031  0.4245  0.1152
  730TMC3    H210795   2.215   2.375   0.361 -0.5463  0.6206 -4.0805
  730TMC3    C710796   1.970   2.381   0.310 -0.0986 -0.3334 -0.2107
  730TMC3    C810797   2.349   2.217   0.212 -0.1285  0.2354 -0.3586
  730TMC3    O110798   1.895   2.353   0.217 -0.6279  0.3227 -0.3011
  730TMC3    O210799   2.342   2.335   0.175 -0.5967  0.6104  0.0335
  731MPD2     C10800   2.039   0.044  12.583  0.6895 -0.4397 -0.7356
  731MPD2    C110801   1.905   0.010  12.564  0.3762  0.1027  0.2396
  731MPD2    C210802   1.837   4.694  12.678  0.1339 -0.2755 -0.5134
  731MPD2    C310803   1.891   4.700  12.807 -0.0564  0.9070  0.0115
  731MPD2    C410804   2.017   0.024  12.820  0.3682 -0.2622 -0.2896
  731MPD2    C510805   2.093   0.058  12.706 -0.1793 -0.5009 -1.1144
  731MPD2     H10806   1.733   4.668  12.666 -0.4506  1.3231  1.0594
  731MPD2    H110807   2.073   0.027  12.912 -0.0788  1.7493 -0.0921
  731MPD2    H210808   2.106   0.046  12.498 -0.4432 -0.7169 -1.6308
  731MPD2    H310809   2.199   0.074  12.714 -0.5270  0.0435  2.2522
  731MPD2     N10810   1.835   4.643  12.925 -0.1841  0.1501 -0.4392
  731MPD2    H510811   1.887   4.656  13.011 -0.2807  2.0361 -0.6712
  731MPD2    N110812   1.852   4.720  12.429 -0.4438 -0.0702  0.1589
  731MPD2    H710813   1.914   0.023  12.352  0.5531 -0.1559  0.9305
  732TMC3    C110814   1.734   4.707  12.246 -0.3948  0.1784 -0.3250
  732TMC3    C210815   1.667   4.618  12.172  0.0281  0.1026  0.2720
  732TMC3    C310816   1.663   4.634  12.039  0.3603 -0.5097  0.7753
  732TMC3    C410817   1.819   0.080  12.193  0.5089  0.4854 -0.7982
  732TMC3    C510818   1.818   0.085  12.055 -0.0001  0.4534 -0.4967
  732TMC3    C610819   1.739   0.011  11.978  0.3469 -0.5878 -0.2542
  732TMC3     C10820   1.735   4.680  12.388 -0.3380 -0.1880  0.2278
  732TMC3     O10821   1.639   4.639  12.455 -0.0373 -0.1524  0.0111
  732TMC3     H10822   1.603   4.548  12.224 -1.2905  1.1197  0.0154
  732TMC3    H110823   1.850   0.169  12.247  0.5163 -1.6468  2.6902
  732TMC3    H210824   1.749   4.718  11.871 -0.0395  0.1597 -0.3868
  732TMC3    C710825   1.930   0.133  11.991 -0.6213  0.3787 -0.3730
  732TMC3    C810826   1.604   4.533  11.956 -0.4860 -0.7487 -0.8543
  732TMC3    O110827   1.914   0.178  11.879  0.7399 -0.4759  0.3676
  732TMC3    O210828   1.649   4.513  11.845  0.3603  0.0172  0.2587
  733TMC3    C110829   2.277   3.055  12.916  0.5666 -0.0211  0.4651
  733TMC3    C210830   2.255   3.157  12.830 -0.3736  0.3265 -0.3621
  733TMC3    C310831   2.343   3.253  12.828  0.8777  0.5858 -0.3334
  733TMC3    C410832   2.397   3.031  12.976 -0.4177 -0.0629  0.3569
  733TMC3    C510833   2.500   3.126  12.962  0.0893 -0.3546 -0.7557
  733TMC3    C610834   2.470   3.240  12.893  0.6242  0.4902  0.1255
  733TMC3     C10835   2.154   2.991  12.976  0.6801 -0.2571 -0.5346
  733TMC3     O10836   2.059   3.063  12.959  0.0610  0.0833  0.0414
  733TMC3     H10837   2.156   3.180  12.791 -0.4373 -0.4452 -0.6639
  733TMC3    H110838   2.409   2.956  13.054  0.5816 -1.4277 -1.1210
  733TMC3    H210839   2.529   3.329  12.903 -1.4009  1.8520 -0.0327
  733TMC3    C710840   2.638   3.083  12.973 -0.0013  0.2052 -0.3785
  733TMC3    C810841   2.327   3.364  12.735 -0.7216 -0.2474 -0.0728
  733TMC3    O110842   2.667   2.983  13.042  0.3727  0.1561 -0.5023
  733TMC3    O210843   2.210   3.391  12.697 -0.4398  0.2100  0.1982
  734MPD2     C10844   1.140   1.094  11.475 -0.0907 -0.5908 -0.1438
  734MPD2    C110845   1.013   1.047  11.452 -0.2270 -0.2602  0.3635
  734MPD2    C210846   0.993   0.967  11.344  0.1115  0.5794 -1.3098
  734MPD2    C310847   1.097   0.939  11.261  0.0451 -0.3507  0.6424
  734MPD2    C410848   1.219   0.985  11.277 -0.0350  0.1650  0.5661
  734MPD2    C510849   1.239   1.061  11.390 -0.5347 -0.0462  1.3245
  734MPD2     H10850   0.893   0.934  11.320 -0.2728 -0.7189  2.1139
  734MPD2    H110851   1.299   0.964  11.207  0.4341  1.7825  0.6328
  734MPD2    H210852   1.165   1.157  11.559  0.6828 -0.7407 -0.2627
  734MPD2    H310853   1.336   1.104  11.412  0.6605 -2.1736  0.1734
  734MPD2     N10854   1.066   0.845  11.158 -0.3575 -0.3099 -0.6466
  734MPD2    H510855   0.968   0.819  11.160 -0.1132 -1.4374 -2.8913
  734MPD2    N110856   0.900   1.086  11.537 -0.3232 -0.0022  0.0163
  734MPD2    H710857   0.925   1.120  11.629 -1.1604  1.9876 -0.4909
  735TMC3    C110858   0.676   1.119  11.597 -0.5145 -0.2510  0.0167
  735TMC3    C210859   0.549   1.128  11.534 -0.1311 -0.5594 -0.8886
  735TMC3    C310860   0.447   1.040  11.572 -0.6532 -0.6596 -0.1397
  735TMC3    C410861   0.686   1.046  11.711  0.3119  0.4492 -0.0281
  735TMC3    C510862   0.575   0.973  11.752  0.2745  0.2949  0.0244
  735TMC3    C610863   0.460   0.971  11.681  0.0458  0.1882 -0.1094
  735TMC3     C10864   0.776   1.083  11.496  0.3559  0.5280 -0.5404
  735TMC3     O10865   0.719   1.057  11.393  0.1907  0.0349  0.3052
  735TMC3     H10866   0.534   1.195  11.450  1.1537  0.5070 -0.2717
  735TMC3    H110867   0.779   1.029  11.765  0.7663  0.2718 -0.8548
  735TMC3    H210868   0.380   0.900  11.702 -0.4986  0.5983 -0.8124
  735TMC3    C710869   0.594   0.894  11.869  0.0046 -0.5941  0.6640
  735TMC3    C810870   0.371   0.966  11.465  0.3471  0.5166  0.2539
  735TMC3    O110871   0.712   0.884  11.905 -0.0586 -0.0152 -0.1084
  735TMC3    O210872   0.279   0.889  11.497 -0.7244  0.0600  0.2873
  736MPD2     C10873   0.372   0.695  12.087 -0.2477  0.1119 -0.4803
  736MPD2    C110874   0.487   0.740  12.033 -0.1338  0.2683 -0.0551
  736MPD2    C210875   0.603   0.663  12.052 -0.0468 -0.6170 -0.5399
  736MPD2    C310876   0.603   0.552  12.133  0.6136 -0.7179  0.4639
  736MPD2    C410877   0.484   0.508  12.186  0.0605  0.0387 -0.2247
  736MPD2    C510878   0.370   0.578  12.163  0.7316  0.1003 -0.3910
  736MPD2     H10879   0.693   0.682  11.994 -0.2356  1.4681 -0.1380
  736MPD2    H110880   0.476   0.416  12.243 -0.3189 -0.1954 -0.6486
  736MPD2    H210881   0.273   0.735  12.069 -0.5559  0.1750  1.3266
  736MPD2    H310882   0.281   0.545  12.215  0.8162 -0.6171 -0.7023
  736MPD2     N10883   0.712   0.467  12.150 -0.4116 -0.2995  0.9560
  736MPD2    H510884   0.692   0.372  12.180  0.5019 -0.4596  1.0448
  736MPD2    N110885   0.482   0.835  11.923  0.5401  0.3396 -0.4390
  736MPD2    H710886   0.389   0.857  11.889  0.3275 -1.5414 -1.0531
  737TMC3    C110887   0.933   0.390  12.137  0.3864 -0.1140  0.2727
  737TMC3    C210888   1.056   0.443  12.111 -0.1751  0.1671 -0.4705
  737TMC3    C310889   1.137   0.366  12.026  0.3512  0.8662  0.4768
  737TMC3    C410890   0.888   0.265  12.099  0.2201 -0.0992  0.8678
  737TMC3    C510891   0.979   0.192  12.021 -0.2204  0.1028 -0.0924
  737TMC3    C610892   1.098   0.245  11.987 -0.2102  0.4243 -0.7446
  737TMC3     C10893   0.843   0.501  12.124  0.5929 -0.4681  0.5013
  737TMC3     O10894   0.884   0.620  12.110 -0.1207 -0.2798 -0.3761
  737TMC3     H10895   1.087   0.545  12.131 -1.0825  0.1603  1.0490
  737TMC3    H110896   0.788   0.231  12.120 -0.1889  0.9417  0.5953
  737TMC3    H210897   1.174   0.181  11.943 -1.5875 -0.7566 -1.3770
  737TMC3    C710898   0.939   0.055  11.982  0.2557  0.1157 -0.2858
  737TMC3    C810899   1.186   0.443  11.916  0.1538  0.2032  0.4137
  737TMC3    O110900   0.822   0.019  11.985  0.2386 -0.7251  0.0005
  737TMC3    O210901   1.235   0.556  11.940 -0.0533  0.4926 -0.2441
  738MPD2     C10902   1.163   3.529  15.676 -0.6271 -0.9708  0.5571
  738MPD2    C110903   1.083   3.576  15.577  0.2962 -0.6628 -0.3719
  738MPD2    C210904   1.139   3.613  15.458 -0.5794  0.3778 -0.5109
  738MPD2    C310905   1.277   3.603  15.443  0.0149  0.8816 -0.5624
  738MPD2    C410906   1.356   3.547  15.541  0.4941 -0.6812 -0.1464
  738MPD2    C510907   1.296   3.501  15.654  0.1942  0.2211  0.3100
  738MPD2     H10908   1.069   3.653  15.384  0.3511  2.7534 -0.1164
  738MPD2    H110909   1.464   3.545  15.530  0.2854 -2.4587 -1.9485
  738MPD2    H210910   1.115   3.489  15.765  1.8739  0.0461  2.3605
  738MPD2    H310911   1.365   3.454  15.723  2.1846 -1.3303 -2.6996
  738MPD2     N10912   1.353   3.637  15.327  0.8431 -0.5606 -0.8233
  738MPD2    H510913   1.453   3.632  15.346  0.8845 -0.2265 -0.9502
  738MPD2    N110914   0.944   3.583  15.592 -0.0695  0.0448  0.0318
  738MPD2    H710915   0.900   3.613  15.506 -0.6616 -0.3055  0.2140
  739TMC3    C110916   1.416   3.683  15.099 -0.0945  0.3756 -0.2877
  739TMC3    C210917   1.375   3.720  14.973 -0.5512 -0.2488  0.3156
  739TMC3    C310918   1.469   3.759  14.884 -0.2902 -0.3782  0.0987
  739TMC3    C410919   1.548   3.696  15.139  0.4918 -0.3144  0.2569
  739TMC3    C510920   1.636   3.729  15.041 -0.4182  0.3242  0.8782
  739TMC3    C610921   1.603   3.752  14.911 -0.5413  0.3843 -0.4276
  739TMC3     C10922   1.309   3.665  15.204  0.0264  0.0168  0.3219
  739TMC3     O10923   1.194   3.655  15.173  0.4838 -0.9065 -0.1246
  739TMC3     H10924   1.269   3.725  14.951 -0.0352  3.3027 -1.4282
  739TMC3    H110925   1.576   3.672  15.241 -0.8146 -1.0603  0.4464
  739TMC3    H210926   1.669   3.800  14.839 -0.8632  0.0579 -0.9432
  739TMC3    C710927   1.771   3.746  15.077  0.3432 -1.3014 -0.1939
  739TMC3    C810928   1.417   3.787  14.753  0.7876 -0.3834  0.1691
  739TMC3    O110929   1.818   3.671  15.158 -0.4449 -0.0273  0.2500
  739TMC3    O210930   1.298   3.810  14.750  0.2194 -0.0195  0.2438
  740TMC3    C110931   1.647   0.389  14.567 -0.0213 -0.1946  0.5728
  740TMC3    C210932   1.643   0.273  14.635 -0.1142  0.0469  0.1398
  740TMC3    C310933   1.711   0.166  14.582 -0.0205  0.1800  0.0977
  740TMC3    C410934   1.728   0.407  14.457  0.2770 -0.2492  0.4497
  740TMC3    C510935   1.785   0.297  14.399  0.2505  0.2503 -0.4693
  740TMC3    C610936   1.789   0.177  14.465 -0.0821  0.9164  0.2407
  740TMC3     C10937   1.565   0.498  14.626 -0.3777 -1.0229  0.2639
  740TMC3     O10938   1.581   0.608  14.567  0.4674  0.2680 -0.4965
  740TMC3     H10939   1.580   0.258  14.722  0.6101  2.4671  1.0934
  740TMC3    H110940   1.728   0.505  14.411 -1.9061  0.2481  1.4998
  740TMC3    H210941   1.859   0.104  14.426 -0.6035  0.4755  0.1305
  740TMC3    C710942   1.871   0.318  14.278  0.2809  0.3071  0.6931
  740TMC3    C810943   1.690   0.025  14.636 -0.3656  0.6298  0.0962
  740TMC3    O110944   1.976   0.258  14.267  0.1144  0.6010  0.3716
  740TMC3    O210945   1.757   4.670  14.570 -0.1801 -0.0097 -0.1046
  741TMC3    C110946   1.462   4.200  14.622 -0.1430 -0.1872  0.3872
  741TMC3    C210947   1.361   4.293  14.634  0.3790  0.0834  0.4318
  741TMC3    C310948   1.286   4.304  14.757  0.2183 -0.1120  0.0593
  741TMC3    C410949   1.506   4.125  14.729  0.0053  0.0599 -0.4070
  741TMC3    C510950   1.437   4.138  14.850  0.0533  0.1873 -0.0788
  741TMC3    C610951   1.324   4.221  14.860  0.2862 -0.1690  0.0199
  741TMC3     C10952   1.545   4.202  14.502 -0.2248  0.6425  1.0822
  741TMC3     O10953   1.650   4.139  14.509  0.1008 -0.1488  0.5971
  741TMC3     H10954   1.331   4.355  14.550  0.4432 -0.9276 -0.3453
  741TMC3    H110955   1.593   4.061  14.718  1.7427  2.3410  0.1637
  741TMC3    H210956   1.284   4.250  14.957  1.8559 -0.2014  0.6696
  741TMC3    C710957   1.494   4.089  14.970 -0.1613 -0.4863  0.0719
  741TMC3    C810958   1.134   4.315  14.735  0.3923 -0.4540  0.6958
  741TMC3    O110959   1.614   4.060  14.963  0.2416 -0.2628 -0.1562
  741TMC3    O210960   1.100   4.345  14.622 -0.2548  0.3784 -0.4460
  742TMC3    C110961   0.615   2.730  15.461 -0.4769 -0.2426 -0.2993
  742TMC3    C210962   0.540   2.753  15.351 -0.1657  0.0622 -0.6220
  742TMC3    C310963   0.599   2.727  15.227 -0.1824 -0.1482 -0.0831
  742TMC3    C410964   0.745   2.696  15.459  0.3921 -0.5071  0.1521
  742TMC3    C510965   0.806   2.689  15.334 -0.4336 -0.4528  0.4247
  742TMC3    C610966   0.734   2.691  15.219 -0.2847 -0.9526 -0.6523
  742TMC3     C10967   0.557   2.770  15.588  0.3500  0.4191  0.1742
  742TMC3     O10968   0.457   2.843  15.587  0.4113  0.4826 -0.1948
  742TMC3     H10969   0.433   2.770  15.363  0.2720  2.1386  0.3373
  742TMC3    H110970   0.799   2.692  15.554  1.7577 -1.2760 -0.6518
  742TMC3    H210971   0.788   2.695  15.126 -2.5000  0.0136 -1.8964
  742TMC3    C710972   0.941   2.648  15.332 -0.6123 -0.0726 -0.0255
  742TMC3    C810973   0.521   2.701  15.107  0.1712 -0.2371  0.6101
  742TMC3    O110974   0.977   2.590  15.234 -0.6718  0.2507  0.4586
  742TMC3    O210975   0.583   2.648  15.019 -0.3937 -0.1640 -0.4179
  743MPD2     C10976   0.949   4.226   2.233 -0.2663 -0.0434  0.4792
  743MPD2    C110977   0.930   4.214   2.098  0.2945 -0.1645  0.3070
  743MPD2    C210978   1.043   4.193   2.016 -0.3414  0.1577  0.5929
  743MPD2    C310979   1.167   4.169   2.068 -0.9847  0.6528 -0.7009
  743MPD2    C410980   1.178   4.194   2.203  0.4295  0.5805 -0.1403
  743MPD2    C510981   1.074   4.211   2.284 -0.1689  0.2326  0.3576
  743MPD2     H10982   1.042   4.193   1.907 -2.9640  1.1911  0.6184
  743MPD2    H110983   1.269   4.187   2.261  0.3783  1.2980  0.0269
  743MPD2    H210984   0.868   4.254   2.299 -0.5757 -0.7982  0.4110
  743MPD2    H310985   1.084   4.228   2.390 -1.2640  2.0871  0.1737
  743MPD2     N10986   1.273   4.152   1.984  0.0763 -0.5473  0.5612
  743MPD2    H510987   1.250   4.150   1.885 -0.3307  0.6728  0.6235
  743MPD2    N110988   0.803   4.233   2.052 -0.0450 -0.5851  0.5621
  743MPD2    H710989   0.739   4.265   2.124 -0.2041  0.2799  0.0344
  744TMC3    C110990   0.635   4.236   1.899  0.0440  0.1150  0.3684
  744TMC3    C210991   0.563   4.323   1.989  0.1995 -0.5602 -0.5215
  744TMC3    C310992   0.431   4.340   1.963 -0.2522 -0.2137  0.9540
  744TMC3    C410993   0.578   4.185   1.783  0.2683 -0.0883  0.5338
  744TMC3    C510994   0.447   4.211   1.767 -0.6687  0.9469  0.3956
  744TMC3    C610995   0.369   4.289   1.853 -0.2374  0.0339 -0.1797
  744TMC3     C10996   0.767   4.207   1.923 -0.3499 -0.6012  0.6284
  744TMC3     O10997   0.832   4.167   1.825  0.9244  0.2739  0.0317
  744TMC3     H10998   0.605   4.382   2.070  2.0190 -0.9526 -1.1748
  744TMC3    H110999   0.642   4.125   1.718 -0.6013  0.2322 -0.6050
  744TMC3    H211000   0.261   4.291   1.846 -0.1051  1.3131 -1.8037
  744TMC3    C711001   0.377   4.174   1.645  0.0560 -0.0899  0.6199
  744TMC3    C811002   0.350   4.423   2.051  0.4201 -0.4021  0.3994
  744TMC3    O111003   0.275   4.230   1.613  0.3712  0.2073 -0.0175
  744TMC3    O211004   0.238   4.451   2.009  0.0986  0.8020  0.8022
  745TMC3    C111005   1.262   2.270  13.079 -0.1243  0.5475 -0.4278
  745TMC3    C211006   1.152   2.308  13.155  0.3569  0.1883  0.1159
  745TMC3    C311007   1.034   2.270  13.101  0.1952  0.1359 -0.3004
  745TMC3    C411008   1.256   2.195  12.962  0.3054  0.1620 -0.4321
  745TMC3    C511009   1.130   2.170  12.913 -0.9079  0.4265 -0.2975
  745TMC3    C611010   1.016   2.209  12.980 -0.4018  0.3725  0.4439
  745TMC3     C11011   1.393   2.315  13.120  0.2681  0.2459 -0.0598
  745TMC3     O11012   1.487   2.256  13.074 -0.4471  0.3412 -0.3267
  745TMC3     H11013   1.157   2.352  13.254  3.2623 -1.6419  0.7645
  745TMC3    H111014   1.343   2.166  12.904 -0.1509 -0.2588 -0.9118
  745TMC3    H211015   0.924   2.163  12.946 -0.3084 -0.3152  1.1296
  745TMC3    C711016   1.124   2.213  12.771  0.1578 -0.3008 -0.2035
  745TMC3    C811017   0.909   2.295  13.176  0.8153  0.0505  0.0386
  745TMC3    O111018   1.232   2.242  12.722 -0.2875 -0.5743  0.3571
  745TMC3    O211019   0.811   2.222  13.157  0.0688  0.0747 -0.1013
  746TMC3    C111020   3.494   4.455  11.195  0.2181 -0.0551 -0.3652
  746TMC3    C211021   3.507   4.442  11.059 -0.1763  0.0640 -0.0182
  746TMC3    C311022   3.421   4.355  11.001 -0.7467  0.0442  0.3092
  746TMC3    C411023   3.408   4.375  11.262 -0.2898  0.6629 -0.0034
  746TMC3    C511024   3.317   4.289  11.192  0.0793 -0.2127  0.6903
  746TMC3    C611025   3.318   4.285  11.062 -0.1303  0.3751 -0.2395
  746TMC3     C11026   3.560   4.564  11.263  0.2882  0.5851 -0.4101
  746TMC3     O11027   3.515   4.585  11.374  0.0537  0.3307 -0.3078
  746TMC3     H11028   3.568   4.511  11.002 -0.7817 -1.6546 -2.7184
  746TMC3    H111029   3.392   4.396  11.367 -1.9127  0.6868 -0.2628
  746TMC3    H211030   3.270   4.202  11.013 -1.8188  0.5332  1.1402
  746TMC3    C711031   3.214   4.206  11.258  0.5141 -0.1542 -0.9571
  746TMC3    C811032   3.472   4.291  10.883 -0.9190 -0.2314 -0.4477
  746TMC3    O111033   3.120   4.166  11.192  0.6940  0.3186 -0.1722
  746TMC3    O211034   3.388   4.248  10.807  0.0351 -0.3117  0.4175
  747TMC3    C111035   1.461   4.496  11.190  0.6782  0.4721 -0.3243
  747TMC3    C211036   1.372   4.431  11.269  0.0037  0.1024 -0.3352
  747TMC3    C311037   1.386   4.429  11.406 -0.1044  0.1386  0.2194
  747TMC3    C411038   1.562   4.573  11.248  0.3213  0.4877  0.3612
  747TMC3    C511039   1.575   4.577  11.388 -0.2540  0.1432  0.2649
  747TMC3    C611040   1.478   4.514  11.466 -0.3822  0.6972 -0.2118
  747TMC3     C11041   1.454   4.514  11.046  0.9290  0.0992  0.4451
  747TMC3     O11042   1.505   4.615  11.004  0.5545 -0.5785 -0.2268
  747TMC3     H11043   1.297   4.368  11.222 -0.0709  0.2895 -0.4662
  747TMC3    H111044   1.646   4.604  11.188 -0.7433 -0.0651 -1.4106
  747TMC3    H211045   1.499   4.512  11.572 -0.7973 -1.4323 -0.1637
  747TMC3    C711046   1.655   4.684  11.453  0.2644  0.3331  0.6499
  747TMC3    C811047   1.267   4.389  11.474  0.2783  0.0883 -1.4378
  747TMC3    O111048   1.649   4.680  11.576  0.0547  0.0920 -0.4153
  747TMC3    O211049   1.181   4.323  11.417  0.2502  0.1675 -0.6536
  748MPD2     C11050   3.089   0.339   1.833 -0.1124  0.7307  0.5359
  748MPD2    C111051   3.099   0.465   1.881  0.1107 -0.5295  0.4150
  748MPD2    C211052   3.191   0.554   1.812 -0.2190  0.1580 -0.0648
  748MPD2    C311053   3.262   0.512   1.702 -0.4369  0.3348 -0.4765
  748MPD2    C411054   3.252   0.386   1.660  0.2488  0.0302 -0.1977
  748MPD2    C511055   3.163   0.298   1.723 -0.2355  0.3597 -0.1683
  748MPD2     H11056   3.199   0.655   1.850 -1.8827 -0.3993  1.7792
  748MPD2    H111057   3.308   0.342   1.578 -0.7632 -0.1118 -0.8120
  748MPD2    H211058   3.017   0.271   1.876  2.4441 -1.9797  0.5061
  748MPD2    H311059   3.137   0.201   1.683  0.5715 -0.2100  0.6872
  748MPD2     N11060   3.353   0.604   1.643  0.3378  0.2071 -0.2867
  748MPD2    H511061   3.375   0.684   1.701 -0.3998  0.9772 -1.0724
  748MPD2    N111062   3.011   0.498   1.987  0.5875  0.1081  0.2028
  748MPD2    H711063   2.943   0.430   2.020  1.2097 -0.7875 -0.3691
  749TMC3    C111064   3.532   0.677   1.505 -0.0962  1.0788  0.3012
  749TMC3    C211065   3.605   0.698   1.617 -0.0925  0.0500  0.9530
  749TMC3    C311066   3.725   0.756   1.601  0.1138  0.1918 -0.5713
  749TMC3    C411067   3.569   0.707   1.377  0.8586 -0.3876 -0.3496
  749TMC3    C511068   3.693   0.761   1.368  0.0139 -0.5535 -0.2207
  749TMC3    C611069   3.773   0.791   1.475  0.6926 -0.6168 -0.0958
  749TMC3     C11070   3.420   0.585   1.525 -0.0573 -0.6015  1.0674
  749TMC3     O11071   3.399   0.504   1.438 -0.3154 -0.2109 -0.5124
  749TMC3     H11072   3.575   0.653   1.712  0.3753 -1.6471  0.2942
  749TMC3    H111073   3.505   0.680   1.293 -0.6033 -0.7705  0.9031
  749TMC3    H211074   3.877   0.817   1.460 -0.2077  2.3916 -1.1616
  749TMC3    C711075   3.761   0.780   1.243 -0.0260  0.7406 -0.3917
  749TMC3    C811076   3.809   0.728   1.711 -0.0474  0.4069 -0.4565
  749TMC3    O111077   3.829   0.881   1.243  0.2435 -0.2462 -0.0721
  749TMC3    O211078   3.761   0.737   1.825 -0.2888 -0.2606  0.0417
  750MPD2     C11079   4.393   1.522  10.968 -0.1828  0.0433  0.1990
  750MPD2    C111080   4.293   1.466  11.038  0.2498 -0.1493 -0.1401
  750MPD2    C211081   4.198   1.389  10.970 -0.4383  0.0299 -0.6120
  750MPD2    C311082   4.217   1.369  10.832 -0.4787 -0.0863  0.2340
  750MPD2    C411083   4.335   1.405  10.770  0.2817 -0.0763 -0.1445
  750MPD2    C511084   4.419   1.483  10.837  0.1268 -0.3274 -0.1780
  750MPD2     H11085   4.111   1.354  11.025  0.1647  0.5628  0.6836
  750MPD2    H111086   4.347   1.398  10.662  1.1781 -0.9061  0.0020
  750MPD2    H211087   4.465   1.592  11.008 -1.5174 -0.2738  3.1742
  750MPD2    H311088   4.496   1.535  10.782  0.8213 -0.4100  0.7147
  750MPD2     N11089   4.124   1.294  10.755 -0.2155 -0.0577  0.4303
  750MPD2    H511090   4.141   1.280  10.656  1.5936  2.3870  0.4046
  750MPD2    N111091   4.282   1.499  11.173  0.2344  0.2778 -0.8003
  750MPD2    H711092   4.335   1.579  11.204 -1.6714  0.5854  1.6178
  751TMC3    C111093   3.942   1.141  10.714  0.6135 -0.4789  0.0368
  751TMC3    C211094   3.818   1.089  10.757  0.0235 -0.2483 -0.6176
  751TMC3    C311095   3.772   0.984  10.697 -0.1099 -0.5937  0.2603
  751TMC3    C411096   4.021   1.078  10.618  0.7043 -0.5335 -0.3373
  751TMC3    C511097   3.968   0.959  10.571 -0.5369 -0.2028 -0.5414
  751TMC3    C611098   3.835   0.915  10.599  0.0551 -0.3066  0.0070
  751TMC3     C11099   4.000   1.245  10.804 -0.2161  0.7291  0.1016
  751TMC3     O11100   3.937   1.274  10.905  0.2627 -0.1208  0.2769
  751TMC3     H11101   3.767   1.141  10.837 -0.3001  0.3767 -1.2376
  751TMC3    H111102   4.126   1.096  10.600 -0.4685  3.6050 -3.1298
  751TMC3    H211103   3.791   0.827  10.555  3.3225 -2.6952  1.4797
  751TMC3    C711104   4.055   0.897  10.478 -0.4144  0.2609 -0.1630
  751TMC3    C811105   3.665   0.902  10.760  0.2384 -0.4866 -0.1976
  751TMC3    O111106   4.148   0.961  10.436 -0.0422 -0.5939 -0.3607
  751TMC3    O211107   3.666   0.787  10.733  0.2417 -0.0102 -0.9009
  752TMC3    C111108   2.501   1.044  17.581  0.5109 -0.4896  0.4098
  752TMC3    C211109   2.508   0.908  17.601  0.4358 -0.7609 -0.4590
  752TMC3    C311110   2.524   0.868   0.043 -0.2064 -0.0058 -0.2351
  752TMC3    C411111   2.481   1.132  17.677  0.1504  0.3628  0.5366
  752TMC3    C511112   2.473   1.086   0.122 -0.3642  0.2159 -0.4410
  752TMC3    C611113   2.509   0.955   0.149 -0.3631 -0.2289 -0.2136
  752TMC3     C11114   2.522   1.090  17.441 -0.6723  0.1646 -0.3786
  752TMC3     O11115   2.594   1.014  17.373 -0.1034  0.2636 -0.5829
  752TMC3     H11116   2.527   0.831  17.527  1.4395  0.0644 -1.0632
  752TMC3    H111117   2.509   1.236  17.663 -0.4009  0.5526  0.8685
  752TMC3    H211118   2.514   0.925   0.253  1.2290 -1.2616 -0.6045
  752TMC3    C711119   2.470   1.185   0.229  0.1325  0.5661  0.2597
  752TMC3    C811120   2.524   0.728   0.077  0.1818 -0.4276  0.2855
  752TMC3    O111121   2.549   1.160   0.317 -0.6857  0.0651 -0.2108
  752TMC3    O211122   2.508   0.648  17.674 -0.2514 -0.1851 -0.4564
  753TMC3    C111123   0.252   2.810  13.709  0.4462  0.0060 -0.5791
  753TMC3    C211124   0.360   2.742  13.770 -0.3784  0.1804  0.3200
  753TMC3    C311125   0.368   2.607  13.754  0.8076 -0.0625  0.1839
  753TMC3    C411126   0.158   2.749  13.637  0.4053 -0.0252  0.5201
  753TMC3    C511127   0.172   2.610  13.629  0.2537  0.7824  0.6577
  753TMC3    C611128   0.268   2.532  13.690  0.1325  0.2462  0.0432
  753TMC3     C11129   0.215   2.945  13.758  0.3990 -0.0949 -0.8708
  753TMC3     O11130   0.134   3.007  13.694  0.2485  0.3567 -0.3601
  753TMC3     H11131   0.438   2.797  13.822 -1.1419  0.8902  0.7280
  753TMC3    H111132   0.069   2.802  13.606  0.1963 -1.3185 -1.0899
  753TMC3    H211133   0.272   2.423  13.685 -1.0332  0.0185  4.1826
  753TMC3    C711134   0.063   2.553  13.554  0.3220 -0.3945 -0.0734
  753TMC3    C811135   0.445   2.539  13.855 -0.2308 -0.1782  0.3170
  753TMC3    O111136   0.015   2.611  13.459  0.2968  0.3735  0.3624
  753TMC3    O211137   0.490   2.430  13.822  0.5004 -0.0662  0.1052
  754MPD2     C11138   3.513   1.494  13.258  0.0212  1.0226 -1.0233
  754MPD2    C111139   3.488   1.367  13.303 -0.5076  0.3303  0.4980
  754MPD2    C211140   3.357   1.316  13.304  0.3200 -0.0444  0.2589
  754MPD2    C311141   3.250   1.384  13.249 -0.3722 -0.0218  0.0563
  754MPD2    C411142   3.269   1.518  13.218 -0.7141  0.2046 -0.2204
  754MPD2    C511143   3.403   1.566  13.220  0.2495  0.0392 -0.6369
  754MPD2     H11144   3.341   1.218  13.347  1.3416 -0.4716 -0.3364
  754MPD2    H111145   3.188   1.586  13.193 -0.1888  1.3987  1.3256
  754MPD2    H211146   3.609   1.545  13.267  1.0754 -1.3788  1.2658
  754MPD2    H311147   3.420   1.668  13.189  2.6116  0.0417  0.6174
  754MPD2     N11148   3.119   1.334  13.264 -0.5155 -0.0034  0.0253
  754MPD2    H511149   3.040   1.397  13.251 -1.0853 -1.2423 -2.5427
  754MPD2    N111150   3.590   1.280  13.339  0.2640 -0.2907  0.1966
  754MPD2    H711151   3.560   1.200  13.395  1.2748  0.0432  1.2266
  755MPD2     C11152   2.207   1.593  13.407  0.1592  0.0868  0.7128
  755MPD2    C111153   2.311   1.599  13.496 -0.6858 -0.3575  0.6877
  755MPD2    C211154   2.421   1.523  13.476  0.6920 -0.8550  0.3233
  755MPD2    C311155   2.423   1.430  13.374  0.1978 -0.4446 -0.0082
  755MPD2    C411156   2.318   1.433  13.280 -0.0003 -0.2170 -0.2886
  755MPD2    C511157   2.215   1.515  13.298  0.5901 -0.3849 -0.0171
  755MPD2     H11158   2.504   1.539  13.543  0.2236 -0.6776  0.8657
  755MPD2    H111159   2.328   1.377  13.187  3.1377  2.3982 -1.5557
  755MPD2    H211160   2.122   1.659  13.417 -0.0355 -0.3294  1.7581
  755MPD2    H311161   2.128   1.516  13.234  0.4699  0.1275  0.1521
  755MPD2     N11162   2.529   1.349  13.335 -0.4944  0.2173  0.1525
  755MPD2    H511163   2.530   1.295  13.249 -0.6830 -0.6404  0.6837
  755MPD2    N111164   2.314   1.676  13.612 -0.1630 -0.2402  0.3346
  755MPD2    H711165   2.398   1.675  13.669  2.0378 -3.4239 -2.9581
  756MPD2     C11166   3.342   2.562   9.650  0.3968  0.5382 -0.0483
  756MPD2    C111167   3.319   2.461   9.746 -1.0179  0.0211 -0.4773
  756MPD2    C211168   3.218   2.369   9.732  0.8446  0.9622 -0.7190
  756MPD2    C311169   3.131   2.372   9.624  0.5690 -0.2465  0.4385
  756MPD2    C411170   3.149   2.481   9.538  0.1309  0.4949 -0.3756
  756MPD2    C511171   3.248   2.574   9.551  0.3390  0.1282  0.0382
  756MPD2     H11172   3.206   2.292   9.807 -4.2014  3.4039  0.9707
  756MPD2    H111173   3.091   2.485   9.447 -0.9426  1.3927  0.3348
  756MPD2    H211174   3.413   2.640   9.676  0.5778  0.0891  0.8221
  756MPD2    H311175   3.259   2.661   9.487 -2.4657  0.1751 -0.3784
  756MPD2     N11176   3.025   2.277   9.598  0.0604 -0.4141  0.1675
  756MPD2    H511177   2.963   2.288   9.518 -1.1192 -0.9601  1.0169
  756MPD2    N111178   3.406   2.438   9.858  0.2907 -0.1626 -0.0786
  756MPD2    H711179   3.382   2.367   9.927  0.7436  0.3502  0.6007
  757MPD2     C11180   2.919   1.187   9.756 -0.2398  0.0594 -0.4265
  757MPD2    C111181   2.794   1.240   9.727 -0.0405 -0.0858 -0.1057
  757MPD2    C211182   2.776   1.368   9.689 -0.2274 -0.0252  0.7617
  757MPD2    C311183   2.883   1.454   9.683 -0.7298  0.4111 -0.1301
  757MPD2    C411184   3.007   1.408   9.714 -0.1206 -0.1558 -0.1284
  757MPD2    C511185   3.023   1.276   9.750 -0.1757  0.1079  0.5698
  757MPD2     H11186   2.679   1.408   9.661  1.6458  3.3340 -0.8794
  757MPD2    H111187   3.092   1.469   9.741 -1.8068  2.0285  0.2642
  757MPD2    H211188   2.934   1.080   9.768  0.4853  0.3508  1.2122
  757MPD2    H311189   3.120   1.242   9.782  1.1097  1.9731 -1.2961
  757MPD2     N11190   2.856   1.591   9.658  0.1595 -0.2776  0.0617
  757MPD2    H511191   2.759   1.613   9.640 -0.1631 -0.5593  1.4891
  757MPD2    N111192   2.686   1.156   9.737  0.3571 -0.2628 -0.2252
  757MPD2    H711193   2.715   1.068   9.778 -1.0510 -0.0264  1.3082
  758MPD2     C11194   3.373   0.956  16.206  0.7746  0.8437  0.7033
  758MPD2    C111195   3.473   0.883  16.272 -0.7768  0.5071  0.1496
  758MPD2    C211196   3.478   0.880  16.408  0.0180 -0.1002  0.8261
  758MPD2    C311197   3.393   0.961  16.479 -0.2912  0.3015 -0.4525
  758MPD2    C411198   3.304   1.044  16.412 -0.1559 -0.0133  0.0658
  758MPD2    C511199   3.284   1.037  16.275 -0.2218  0.2586  0.7450
  758MPD2     H11200   3.556   0.821  16.454  0.5938 -0.1942 -0.2616
  758MPD2    H111201   3.247   1.114  16.471  0.2439  2.4256 -2.4512
  758MPD2    H211202   3.382   0.969  16.098  0.9518 -0.4214  0.5647
  758MPD2    H311203   3.227   1.113  16.222  0.9165  1.3137  1.0336
  758MPD2     N11204   3.401   0.972  16.626 -0.5961  0.1713  0.0508
  758MPD2    H511205   3.326   1.016  16.678  0.5039  1.1795  0.7822
  758MPD2    N111206   3.570   0.812  16.199  0.4173 -0.1268  0.1634
  758MPD2    H711207   3.577   0.831  16.100 -0.0707  0.7936  0.3034
  759MPD2     C11208   2.721   4.138  10.355 -0.3645  0.1763 -0.4997
  759MPD2    C111209   2.615   4.219  10.396 -0.4375  0.3621 -0.1017
  759MPD2    C211210   2.626   4.356  10.416  0.3120 -0.1372  0.5918
  759MPD2    C311211   2.745   4.411  10.369 -0.8335 -0.0657 -0.0732
  759MPD2    C411212   2.845   4.330  10.324 -0.3435 -0.2538 -0.7659
  759MPD2    C511213   2.830   4.197  10.317  0.0617 -0.4514 -0.0867
  759MPD2     H11214   2.541   4.412  10.453  0.4249  1.2585 -1.2775
  759MPD2    H111215   2.936   4.377  10.289 -1.1947  0.9487 -1.3727
  759MPD2    H211216   2.717   4.030  10.345  1.0040  0.0948 -0.0677
  759MPD2    H311217   2.916   4.142  10.279 -0.6194 -1.7647  0.2894
  759MPD2     N11218   2.761   4.551  10.391 -0.7099  0.5177  0.1348
  759MPD2    H511219   2.683   4.591  10.442 -0.4962  2.0736 -0.7737
  759MPD2    N111220   2.488   4.156  10.428 -0.3403 -0.2092  0.5440
  759MPD2    H711221   2.417   4.225  10.451  1.5518  1.4100  1.4753
  760MPD2     C11222   1.585   1.455  12.060 -0.3583 -0.5121 -0.1951
  760MPD2    C111223   1.715   1.445  12.055  0.3023  0.9681  0.4774
  760MPD2    C211224   1.773   1.335  12.117 -0.0123 -0.1834 -0.4970
  760MPD2    C311225   1.708   1.226  12.173  0.1113 -0.4005  0.5395
  760MPD2    C411226   1.573   1.233  12.160 -0.0199  0.2807 -0.3400
  760MPD2    C511227   1.519   1.345  12.101  0.0629 -0.9156 -0.2027
  760MPD2     H11228   1.880   1.347  12.129  0.1580 -0.5520 -1.6891
  760MPD2    H111229   1.505   1.163  12.207  0.5195  0.4687  0.7394
  760MPD2    H211230   1.534   1.548  12.036  0.7729 -0.0481 -0.8064
  760MPD2    H311231   1.412   1.356  12.091  0.4038  1.2373 -1.6462
  760MPD2     N11232   1.777   1.116  12.234  0.5910  0.1435 -0.0236
  760MPD2    H511233   1.716   1.040  12.265 -0.3502  1.4618  1.3678
  760MPD2    N111234   1.803   1.544  12.003 -0.1148 -0.0964  0.2795
  760MPD2    H711235   1.901   1.543  12.032 -0.5631  0.1200  1.8250
  761MPD2     C11236   3.315   0.771  11.101 -0.5577  0.4140 -0.6953
  761MPD2    C111237   3.406   0.693  11.029 -0.2510 -1.0171  0.9128
  761MPD2    C211238   3.497   0.766  10.956  0.1992 -0.5584  0.3695
  761MPD2    C311239   3.494   0.898  10.939  0.1540 -0.5110 -0.2570
  761MPD2    C411240   3.392   0.973  10.999  0.2321 -0.3198  0.2896
  761MPD2    C511241   3.304   0.904  11.078  0.6104  0.6169  0.0747
  761MPD2     H11242   3.593   0.718  10.937  0.2503 -1.3863  2.6751
  761MPD2    H111243   3.381   1.080  11.001 -1.5178 -0.4840 -0.7372
  761MPD2    H211244   3.247   0.721  11.168 -0.5798 -0.5314 -1.4172
  761MPD2    H311245   3.230   0.967  11.127 -0.4642 -0.6970  0.1199
  761MPD2     N11246   3.590   0.970  10.858 -0.0540 -0.3126 -0.1696
  761MPD2    H511247   3.585   1.071  10.856  2.0595 -0.1911  0.4549
  761MPD2    N111248   3.415   0.553  11.029 -0.0173  0.1124  0.4700
  761MPD2    H711249   3.485   0.505  10.973 -1.7841 -1.4806 -0.3632
  762MPD2     C11250   3.863   0.353  10.704  0.5778 -0.5972 -0.3741
  762MPD2    C111251   3.809   0.233  10.749  0.0910  0.1547  0.0409
  762MPD2    C211252   3.886   0.117  10.742  0.3384  0.3310 -0.3585
  762MPD2    C311253   4.019   0.123  10.701  0.2796  0.1499  0.0918
  762MPD2    C411254   4.070   0.244  10.660  0.8026 -0.0065  0.1141
  762MPD2    C511255   3.992   0.357  10.665 -0.4023 -0.0390  0.0719
  762MPD2     H11256   3.848   0.019  10.768  1.4641 -0.1668 -0.6026
  762MPD2    H111257   4.172   0.249  10.625 -0.0082  0.9547 -2.0968
  762MPD2    H211258   3.818   0.452  10.706  1.4601 -0.1291 -2.7669
  762MPD2    H311259   4.037   0.451  10.635  2.0461 -1.7583 -1.6130
  762MPD2     N11260   4.089   0.003  10.687 -0.6938  1.0080  0.2572
  762MPD2    H511261   4.034   4.640  10.694  1.2470 -0.1250  1.9786
  762MPD2    N111262   3.674   0.234  10.796 -0.0746  0.0255  0.2358
  762MPD2    H711263   3.641   0.330  10.801  0.0156  0.0185  0.9117
  763MPD2     C11264   0.967   0.947  16.179  0.5292 -0.3083 -0.2455
  763MPD2    C111265   0.859   1.024  16.215  0.3715 -0.2760  0.0974
  763MPD2    C211266   0.869   1.081  16.342  0.1748 -0.2735 -0.5171
  763MPD2    C311267   0.962   1.046  16.434 -0.5297  0.0567  0.6013
  763MPD2    C411268   1.061   0.965  16.387  0.3168  0.3170  0.1360
  763MPD2    C511269   1.068   0.906  16.265 -0.1064  0.4217  0.2360
  763MPD2     H11270   0.795   1.154  16.370  2.0851  1.1888  0.7171
  763MPD2    H111271   1.144   0.942  16.453  0.5142  1.1575  0.1747
  763MPD2    H211272   0.976   0.903  16.080  1.3636 -1.1150  0.1899
  763MPD2    H311273   1.153   0.847  16.234 -1.0252 -1.2330  0.8698
  763MPD2     N11274   0.971   1.096  16.568  0.1857  0.0714 -0.3096
  763MPD2    H511275   1.053   1.072  16.623 -0.3910 -2.2630 -0.4635
  763MPD2    N111276   0.752   1.071  16.133 -0.0478 -0.6571 -0.0953
  763MPD2    H711277   0.689   1.132  16.184  2.6473  1.4442  0.6865
  764MPD2     C11278   3.571   2.604   0.410 -0.0876 -0.2124 -0.2607
  764MPD2    C111279   3.474   2.505   0.426 -0.9651 -0.1948  0.4845
  764MPD2    C211280   3.509   2.374   0.430 -0.0057  0.3420  0.4757
  764MPD2    C311281   3.644   2.340   0.420  0.2280  0.1118 -0.2899
  764MPD2    C411282   3.743   2.437   0.407  0.1927  0.3211  0.0761
  764MPD2    C511283   3.701   2.570   0.413  0.3915 -0.3740  0.1819
  764MPD2     H11284   3.438   2.292   0.432 -0.7126  0.9668  0.8824
  764MPD2    H111285   3.849   2.416   0.410 -0.2558 -1.7797  1.3393
  764MPD2    H211286   3.545   2.710   0.409 -0.6543 -0.3413  0.1800
  764MPD2    H311287   3.775   2.647   0.392  1.5154 -1.3637  0.5549
  764MPD2     N11288   3.669   2.198   0.409 -0.5570  0.1585  0.2296
  764MPD2    H511289   3.591   2.133   0.409 -1.2760  1.0202  0.4276
  764MPD2    N111290   3.336   2.537   0.422 -0.0347  0.5629 -0.6898
  764MPD2    H711291   3.269   2.461   0.421  1.8295 -1.0832 -0.2543
  765MPD2     C11292   3.230   0.668  15.445 -0.7696 -0.0628 -0.1581
  765MPD2    C111293   3.281   0.726  15.558 -0.4013  0.6145  0.8666
  765MPD2    C211294   3.389   0.662  15.618  0.2857 -0.1065 -0.3425
  765MPD2    C311295   3.449   0.549  15.560  0.7745  0.0847 -0.0425
  765MPD2    C411296   3.407   0.513  15.432 -0.4366 -0.2987  0.4909
  765MPD2    C511297   3.296   0.568  15.376 -0.5907 -0.5901 -0.3715
  765MPD2     H11298   3.409   0.687  15.721 -1.4759 -1.5470  0.3334
  765MPD2    H111299   3.454   0.431  15.379  0.3080  0.2222  0.3604
  765MPD2    H211300   3.148   0.713  15.391  1.2280  1.3402 -2.0300
  765MPD2    H311301   3.260   0.537  15.279 -1.1584 -2.0846  0.3113
  765MPD2     N11302   3.547   0.476  15.630  0.0745 -0.2344  0.2455
  765MPD2    H511303   3.580   0.518  15.717  0.5214  0.3430 -0.2008
  765MPD2    N111304   3.196   0.818  15.621  0.1060 -0.2456 -0.3882
  765MPD2    H711305   3.099   0.838  15.599 -0.2059 -2.0955 -0.6779
  766MPD2     C11306   2.540   0.890  15.343 -0.4197 -0.5649 -0.2027
  766MPD2    C111307   2.671   0.857  15.378 -0.4386  0.8654 -0.2260
  766MPD2    C211308   2.753   0.786  15.289  0.4541  0.1482  0.3292
  766MPD2    C311309   2.705   0.745  15.169  0.0862  0.2996 -0.0927
  766MPD2    C411310   2.572   0.765  15.139 -0.7452 -0.4267 -0.0575
  766MPD2    C511311   2.496   0.849  15.221  0.1109 -0.2246 -0.2498
  766MPD2     H11312   2.858   0.774  15.313  0.5702  1.1849  0.3545
  766MPD2    H111313   2.522   0.738  15.047  0.7147 -1.1897 -0.6276
  766MPD2    H211314   2.481   0.963  15.396 -0.1206  1.0076 -2.0407
  766MPD2    H311315   2.400   0.888  15.188  0.0479 -0.2947 -0.1460
  766MPD2     N11316   2.793   0.690  15.068 -0.3700 -0.4359  0.5974
  766MPD2    H511317   2.747   0.685  14.979 -0.7426  0.9621  0.7080
  766MPD2    N111318   2.714   0.906  15.506 -0.2469 -0.3313  0.3251
  766MPD2    H711319   2.663   0.986  15.543 -2.8176 -1.3211 -1.0273
  767MPD2     C11320   2.396   0.999  14.858  0.0846  0.3459 -0.5368
  767MPD2    C111321   2.531   1.013  14.853 -0.1273 -0.1545 -0.2660
  767MPD2    C211322   2.600   0.966  14.742  0.1519 -0.2179  0.2997
  767MPD2    C311323   2.526   0.908  14.635  0.0269  0.7073  0.0719
  767MPD2    C411324   2.394   0.878  14.664 -0.5515  0.2812  0.4748
  767MPD2    C511325   2.326   0.926  14.767 -0.2624 -0.0735 -0.2511
  767MPD2     H11326   2.704   0.991  14.728 -0.2171 -0.6951 -3.2042
  767MPD2    H111327   2.335   0.811  14.603  0.3589  0.6268 -0.7772
  767MPD2    H211328   2.341   1.040  14.942  1.3086 -0.4725  0.6761
  767MPD2    H311329   2.222   0.898  14.774  0.2274 -1.6633  0.6554
  767MPD2     N11330   2.585   0.855  14.523 -0.6106 -0.5838  0.1485
  767MPD2    H511331   2.685   0.836  14.521 -0.4901  0.2045 -1.2328
  767MPD2    N111332   2.588   1.094  14.957 -0.2691 -0.2906 -0.3770
  767MPD2    H711333   2.526   1.128  15.031  1.0746 -0.7416  0.9671
  768MPD2     C11334   3.055   3.310  11.375  0.7015 -0.6910  0.0154
  768MPD2    C111335   3.049   3.445  11.411  0.0003 -0.0713  0.8867
  768MPD2    C211336   3.158   3.494  11.480  0.6748 -0.3086  0.4454
  768MPD2    C311337   3.261   3.421  11.522 -0.7837  0.2847  0.0091
  768MPD2    C411338   3.262   3.286  11.494  1.3085 -0.1689 -0.1141
  768MPD2    C511339   3.164   3.235  11.410 -0.1854  0.1357  0.2842
  768MPD2     H11340   3.151   3.596  11.515 -1.3864  0.4128 -2.0719
  768MPD2    H111341   3.338   3.225  11.542  0.3423  0.5194  2.2971
  768MPD2    H211342   2.973   3.269  11.317 -1.6967 -0.6067  3.3812
  768MPD2    H311343   3.158   3.132  11.378 -1.4180  0.1375  0.5266
  768MPD2     N11344   3.367   3.481  11.590 -0.0969  0.0781  0.2460
  768MPD2    H511345   3.364   3.583  11.592  1.2256  0.1003  1.2762
  768MPD2    N111346   2.934   3.527  11.389  0.3571  0.1469  0.4689
  768MPD2    H711347   2.924   3.599  11.460  0.7684  0.6506  0.0108
  769MPD2     C11348   4.630   2.037  14.808  0.4687 -0.1716  0.0895
  769MPD2    C111349   4.538   2.116  14.879 -0.1173  0.0629 -0.1061
  769MPD2    C211350   4.566   2.159  15.004  0.0115  0.0022  0.0016
  769MPD2    C311351   4.675   2.103  15.074 -0.0263 -0.2795 -0.8661
  769MPD2    C411352   0.035   2.009  15.007  0.4098  0.0488 -0.7474
  769MPD2    C511353   0.020   1.990  14.869  0.2659 -0.1514 -0.4386
  769MPD2     H11354   4.510   2.229  15.064  2.7550  2.7579 -0.6742
  769MPD2    H111355   0.128   1.975  15.051  1.0591 -0.2531 -2.3428
  769MPD2    H211356   4.612   2.008  14.705 -0.1829 -0.7355  0.3637
  769MPD2    H311357   0.089   1.932  14.809  1.6699 -3.0532  3.9983
  769MPD2     N11358   4.688   2.141  15.214 -0.2265 -0.9629  0.5150
  769MPD2    H511359   4.627   2.209  15.259 -0.1221 -0.0842 -0.6761
  769MPD2    N111360   4.416   2.148  14.814  0.2390  0.3828  0.0309
  769MPD2    H711361   4.410   2.120  14.716 -0.0462  1.2015 -0.1824
  770MPD2     C11362   3.635   1.759  14.953 -0.1750 -0.9873 -0.4058
  770MPD2    C111363   3.769   1.740  14.977  0.1040 -0.0162  0.1630
  770MPD2    C211364   3.861   1.834  14.935  0.1377  0.1223  0.0281
  770MPD2    C311365   3.820   1.949  14.872 -0.4104  0.0051  0.0497
  770MPD2    C411366   3.684   1.962  14.852 -0.8767  0.2551  0.5436
  770MPD2    C511367   3.589   1.871  14.892 -0.1505 -0.1226 -0.0440
  770MPD2     H11368   3.967   1.820  14.951  0.3813 -0.5643 -2.2707
  770MPD2    H111369   3.638   2.036  14.788  2.4176  1.7107 -0.1559
  770MPD2    H211370   3.559   1.695  14.994 -1.3090  1.5420  1.4305
  770MPD2    H311371   3.486   1.900  14.878  0.0216  0.2298 -0.5979
  770MPD2     N11372   3.913   2.053  14.831  0.0223  0.3605 -0.1237
  770MPD2    H511373   4.010   2.044  14.858 -1.3412 -2.9529  3.6861
  770MPD2    N111374   3.796   1.621  15.049  0.5737 -0.0180 -0.0646
  770MPD2    H711375   3.724   1.554  15.072 -0.4890  1.1245 -0.0156
  771MPD2     C11376   0.711   4.201  13.561  0.3726 -0.3354 -0.5543
  771MPD2    C111377   0.667   4.313  13.626 -0.2339  0.2667 -0.3141
  771MPD2    C211378   0.533   4.325  13.642  0.5123 -0.2291 -0.1078
  771MPD2    C311379   0.442   4.229  13.596  0.1619 -0.2817  0.0540
  771MPD2    C411380   0.482   4.123  13.517 -0.6964  0.6647 -0.5304
  771MPD2    C511381   0.620   4.106  13.518 -0.8489  0.0406  0.6209
  771MPD2     H11382   0.495   4.411  13.696  1.4513  1.8625 -2.8091
  771MPD2    H111383   0.411   4.053  13.473  1.1272 -0.4708 -1.7102
  771MPD2    H211384   0.816   4.176  13.548 -0.4790 -3.1129 -2.0327
  771MPD2    H311385   0.663   4.016  13.475 -0.9327  0.3638 -0.1374
  771MPD2     N11386   0.305   4.260  13.618 -0.1785 -0.2320  0.7632
  771MPD2    H511387   0.289   4.349  13.664  1.8150  0.7916 -0.5093
  771MPD2    N111388   0.762   4.412  13.663 -0.3531 -0.6625 -0.2391
  771MPD2    H711389   0.849   4.402  13.611 -0.7312 -0.2119 -0.9483
  772MPD2     C11390   0.606   0.368  14.068 -0.3948 -0.2581 -0.4644
  772MPD2    C111391   0.581   0.264  13.981  0.0035  0.0446  0.0301
  772MPD2    C211392   0.446   0.227  13.969  0.0191 -0.3396 -0.2978
  772MPD2    C311393   0.344   0.292  14.032  0.6300 -0.6295 -0.4097
  772MPD2    C411394   0.372   0.402  14.107 -0.1037 -0.4499 -0.5771
  772MPD2    C511395   0.503   0.442  14.122  0.2819  0.0271  0.1616
  772MPD2     H11396   0.422   0.134  13.918  2.1957 -1.0699  0.0347
  772MPD2    H111397   0.297   0.466  14.152 -1.4308 -2.4785  0.0911
  772MPD2    H211398   0.708   0.400  14.086 -0.6240 -0.0875  0.5119
  772MPD2    H311399   0.521   0.534  14.176 -0.7132 -1.5968  3.2850
  772MPD2     N11400   0.211   0.250  14.010 -0.1810  0.2968  0.5454
  772MPD2    H511401   0.147   0.306  14.064  0.0630  1.1485 -0.0477
  772MPD2    N111402   0.684   0.186  13.930  0.3569 -0.0468 -0.6966
  772MPD2    H711403   0.656   0.096  13.892  0.8392 -0.2959 -0.4593
  773MPD2     C11404   0.163   1.446   0.438 -0.5833 -0.8138 -0.2243
  773MPD2    C111405   0.068   1.355   0.412  0.2496 -0.0275  0.6587
  773MPD2    C211406   0.081   1.222   0.461 -0.4527 -0.0986  0.2701
  773MPD2    C311407   0.183   1.186   0.543 -1.2390  0.5433 -0.8691
  773MPD2    C411408   0.273   1.285   0.573 -0.9009  0.9453  1.1882
  773MPD2    C511409   0.267   1.403   0.515 -0.3621  0.0507 -0.2196
  773MPD2     H11410   0.011   1.139   0.457 -0.8334  0.3593 -2.2786
  773MPD2    H111411   0.359   1.271   0.637 -0.2590  1.1365  0.3633
  773MPD2    H211412   0.167   1.545   0.394  0.1971 -0.5272  0.5029
  773MPD2    H311413   0.345   1.476   0.535 -1.6818  0.6802  2.6983
  773MPD2     N11414   0.193   1.052   0.589  0.3410  0.2089  0.4086
  773MPD2    H511415   0.120   0.985   0.568  1.7489 -0.2537 -2.9875
  773MPD2    N111416   4.675   1.370   0.325 -0.7063  0.0022  0.2004
  773MPD2    H711417   4.616   1.290   0.304 -0.9090  0.1389  0.2461
  774MPD2     C11418   3.822   0.356  13.397 -1.1732 -0.5898  0.0515
  774MPD2    C111419   3.755   0.392  13.510 -0.0624  0.1188 -0.2437
  774MPD2    C211420   3.762   0.530  13.544 -0.0207  0.3682  0.2624
  774MPD2    C311421   3.828   0.621  13.461 -0.4328 -0.2995 -0.6391
  774MPD2    C411422   3.895   0.571  13.353  0.1712  0.5481  0.0760
  774MPD2    C511423   3.903   0.437  13.326  0.1513 -0.7455 -0.2362
  774MPD2     H11424   3.694   0.556  13.624  1.0229  0.0563  1.2421
  774MPD2    H111425   3.950   0.633  13.282  2.2836 -0.9019  0.4353
  774MPD2    H211426   3.815   0.255  13.357  1.0757 -0.3573 -0.9620
  774MPD2    H311427   3.941   0.408  13.228 -1.8834 -2.0192 -0.6502
  774MPD2     N11428   3.809   0.758  13.481  0.6417  0.1468 -0.2001
  774MPD2    H511429   3.752   0.784  13.561  0.2742 -0.2551 -0.3273
  774MPD2    N111430   3.679   0.297  13.577 -0.3338 -0.5465  0.2357
  774MPD2    H711431   3.658   0.209  13.531 -0.6463 -1.3170  1.8544
  775MPD2     C11432   0.027   1.806  16.075 -0.1955  0.0842  0.7261
  775MPD2    C111433   4.645   1.893  16.054  0.4213  0.6218  0.1954
  775MPD2    C211434   4.672   2.028  16.036  0.2021  0.2096  0.8181
  775MPD2    C311435   0.082   2.073  16.024  0.3773 -0.2040 -0.3660
  775MPD2    C411436   0.185   1.990  16.035 -0.2861  0.8191 -0.1560
  775MPD2    C511437   0.157   1.858  16.066  0.4323 -0.3379  0.4994
  775MPD2     H11438   4.588   2.096  16.031  0.6903  0.6261 -1.5179
  775MPD2    H111439   0.290   2.016  16.027  0.4254 -1.3477  1.9129
  775MPD2    H211440   0.013   1.701  16.096  0.6563 -0.0037  0.8673
  775MPD2    H311441   0.242   1.793  16.082  0.4029 -1.2546 -3.2221
  775MPD2     N11442   0.122   2.202  15.980  0.2891 -0.5212 -0.2227
  775MPD2    H511443   0.217   2.226  15.957 -0.9027  1.3425 -3.2891
  775MPD2    N111444   4.512   1.837  16.062  0.2026  0.7034 -0.0573
  775MPD2    H711445   4.506   1.736  16.063  2.3737  0.6307  3.3630
  776MPD2     C11446   4.451   2.044  11.366  0.3027  0.4044 -0.0011
  776MPD2    C111447   4.377   1.991  11.468 -0.6984  0.8701  0.6143
  776MPD2    C211448   4.320   2.071  11.565  0.0194 -0.5799 -0.6435
  776MPD2    C311449   4.334   2.210  11.558  1.0097 -0.0930 -0.6838
  776MPD2    C411450   4.426   2.261  11.465 -0.0851 -0.3639  0.0388
  776MPD2    C511451   4.472   2.177  11.363 -1.1974  0.0256 -0.3284
  776MPD2     H11452   4.257   2.032  11.644 -0.3824 -0.6920 -1.0207
  776MPD2    H111453   4.453   2.366  11.466  1.9045 -0.8771  0.7708
  776MPD2    H211454   4.507   1.992  11.290 -1.5274  0.1227 -1.1653
  776MPD2    H311455   4.547   2.214  11.294 -2.8944  2.7319 -0.7604
  776MPD2     N11456   4.271   2.304  11.646 -0.3853  0.3254 -0.5382
  776MPD2    H511457   4.305   2.399  11.638 -0.3197  0.1578 -2.3985
  776MPD2    N111458   4.366   1.852  11.469  0.3271 -0.4205  0.1657
  776MPD2    H711459   4.406   1.803  11.389  0.0754 -0.9682  0.3746
  777MPD2     C11460   4.422   0.197   1.133 -0.4594 -0.0907 -0.1860
  777MPD2    C111461   4.557   0.209   1.158  0.8726 -0.3756  0.5387
  777MPD2    C211462   4.650   0.107   1.117 -0.0667 -0.1597  0.7533
  777MPD2    C311463   4.599   0.002   1.040 -0.3744 -0.0819 -0.1342
  777MPD2    C411464   4.467   4.712   1.017  0.3063 -0.1750 -0.5023
  777MPD2    C511465   4.384   0.083   1.069  0.0938 -0.0616 -0.1171
  777MPD2     H11466   0.029   0.106   1.159  1.6312  3.3876 -3.2719
  777MPD2    H111467   4.404   4.636   0.972 -2.4159  0.6791  1.8637
  777MPD2    H211468   4.354   0.253   1.196  0.3082 -0.4998  0.9879
  777MPD2    H311469   4.278   0.060   1.067  0.2049 -0.8146  1.7883
  777MPD2     N11470   4.681   4.624   0.993 -0.1827 -0.1555  0.2196
  777MPD2    H511471   0.048   4.611   1.042 -0.5559 -0.6149  0.7684
  777MPD2    N111472   4.600   0.318   1.242 -0.4999 -0.0124  0.0727
  777MPD2    H711473   4.538   0.398   1.234  1.7262  1.5399 -2.0315
  778MPD2     C11474   0.619   0.508  14.967 -0.0254 -0.7068  0.6492
  778MPD2    C111475   0.654   0.377  14.932 -0.0752 -0.4344  0.3740
  778MPD2    C211476   0.754   0.359  14.837  0.1320 -0.9102  0.2127
  778MPD2    C311477   0.811   0.475  14.792 -0.4982 -0.6919  0.2231
  778MPD2    C411478   0.792   0.598  14.850  0.2998 -0.4987 -0.9225
  778MPD2    C511479   0.686   0.613  14.933 -0.2673  0.4075 -0.5366
  778MPD2     H11480   0.792   0.269  14.790  2.2918  0.8043 -1.2858
  778MPD2    H111481   0.849   0.681  14.811 -1.7617  0.8823 -0.9399
  778MPD2    H211482   0.538   0.524  15.037 -0.2487  1.2410 -0.0514
  778MPD2    H311483   0.668   0.716  14.963  0.0424 -0.0202  1.1189
  778MPD2     N11484   0.896   0.458  14.678  0.0572  0.2605 -0.5032
  778MPD2    H511485   0.902   0.363  14.643 -0.5189  0.3257 -0.7736
  778MPD2    N111486   0.580   0.264  14.975  0.3597 -0.4608  0.2144
  778MPD2    H711487   0.612   0.180  14.928  1.4877  0.1550 -0.1274
  779MPD2     C11488   0.146   3.477  14.805 -0.0633  0.0994 -0.3432
  779MPD2    C111489   0.242   3.427  14.722 -0.1799 -0.5960  0.0246
  779MPD2    C211490   0.307   3.514  14.636 -0.8489 -0.2367 -0.6970
  779MPD2    C311491   0.274   3.647  14.628  0.0034  0.7813 -0.1460
  779MPD2    C411492   0.173   3.694  14.712 -0.0122 -0.1459  0.4771
  779MPD2    C511493   0.107   3.606  14.798 -0.3243 -0.1278 -0.4985
  779MPD2     H11494   0.380   3.476  14.566  0.4577 -0.8602  1.0073
  779MPD2    H111495   0.136   3.796  14.711 -2.5614 -1.0851 -0.6019
  779MPD2    H211496   0.097   3.415  14.879  1.6818  0.0809  0.7935
  779MPD2    H311497   0.027   3.644  14.862 -1.1549  0.5440 -1.9275
  779MPD2     N11498   0.339   3.732  14.537 -0.2293 -0.2774  0.3342
  779MPD2    H511499   0.433   3.704  14.512  0.3435  0.3465  1.7954
  779MPD2    N111500   0.267   3.292  14.728 -0.2944  0.2118  0.0353
  779MPD2    H711501   0.262   3.242  14.816  1.3593 -0.0656 -0.0269
  780MPD2     C11502   3.968   3.565   0.338 -0.1274  1.3765  0.2923
  780MPD2    C111503   4.059   3.540   0.435 -0.1745 -0.1962 -0.5025
  780MPD2    C211504   4.191   3.509   0.397 -0.6804  0.1441 -0.0592
  780MPD2    C311505   4.225   3.497   0.264 -0.1654  0.5721 -0.0434
  780MPD2    C411506   4.127   3.522   0.169 -0.8386 -0.1489  0.1330
  780MPD2    C511507   4.003   3.561   0.204  0.4791 -0.5021  0.1802
  780MPD2     H11508   4.264   3.477   0.470 -1.2162 -0.2226  0.3203
  780MPD2    H111509   4.148   3.514   0.063 -1.0198 -1.2183  0.1833
  780MPD2    H211510   3.864   3.585   0.357 -0.7452 -2.5717  1.2017
  780MPD2    H311511   3.925   3.576   0.130  0.9694  0.9199 -0.0430
  780MPD2     N11512   4.345   3.435   0.234  0.8364  0.3939 -0.5390
  780MPD2    H511513   4.411   3.419   0.309  0.1748 -0.0387 -0.0474
  780MPD2    N111514   4.001   3.526   0.567 -0.0675 -0.2589 -0.1188
  780MPD2    H711515   3.902   3.534   0.586 -0.0780 -0.1133 -0.2356
  781MPD2     C11516   1.403   0.842  12.189  0.3806  0.3287 -0.1464
  781MPD2    C111517   1.444   0.725  12.252  0.1564  0.2820  0.4474
  781MPD2    C211518   1.567   0.668  12.218 -0.4543  0.3389 -0.1522
  781MPD2    C311519   1.649   0.726  12.126 -0.3522 -0.6014  0.2728
  781MPD2    C411520   1.607   0.845  12.068 -0.1385 -0.6367 -0.5448
  781MPD2    C511521   1.484   0.900  12.092  0.5700  0.4067  0.3756
  781MPD2     H11522   1.598   0.580  12.274  1.5479  0.9876 -0.2189
  781MPD2    H111523   1.679   0.885  11.998 -1.4590  0.1903 -1.4288
  781MPD2    H211524   1.308   0.885  12.218  1.2897  2.4850 -0.3958
  781MPD2    H311525   1.464   1.001  12.057 -0.4938  0.0012 -0.1820
  781MPD2     N11526   1.774   0.669  12.080  0.0766  0.2972  0.1398
  781MPD2    H511527   1.806   0.719  11.997 -0.7219  1.5016  0.5501
  781MPD2    N111528   1.364   0.659  12.340 -0.3718  0.0235  0.0047
  781MPD2    H711529   1.417   0.589  12.391 -0.0905 -0.5639 -1.0970
  782MPD2     C11530   4.245   1.354   9.828  0.4422 -0.1374 -0.7452
  782MPD2    C111531   4.352   1.275   9.871 -0.0854 -0.4297 -0.3118
  782MPD2    C211532   4.426   1.328   9.968  0.1089  0.0341  0.0209
  782MPD2    C311533   4.411   1.454  10.026 -0.6314  0.1766 -0.5912
  782MPD2    C411534   4.299   1.530   9.989  0.2730  0.6093 -0.7677
  782MPD2    C511535   4.221   1.475   9.884 -0.7892  0.2191 -0.9964
  782MPD2     H11536   4.498   1.256  10.005  1.2669  0.4296 -1.4503
  782MPD2    H111537   4.272   1.627  10.030  0.6555 -0.4925  2.0309
  782MPD2    H211538   4.185   1.332   9.740 -0.5215  0.7936 -0.3234
  782MPD2    H311539   4.131   1.523   9.847 -1.5600  1.1481  2.1126
  782MPD2     N11540   4.497   1.494  10.131 -0.4200 -0.0185  0.8255
  782MPD2    H511541   4.574   1.432  10.154  0.0184  0.0314 -0.4562
  782MPD2    N111542   4.387   1.147   9.828 -0.0631  0.2795  0.3836
  782MPD2    H711543   4.470   1.109   9.873  1.8298  1.4402 -2.1506
  783MPD2     C11544   4.045   0.553  10.366 -0.1035 -0.2504  0.3950
  783MPD2    C111545   4.077   0.686  10.358 -0.9120  0.2883  0.2714
  783MPD2    C211546   4.140   0.736  10.248  0.0715  0.0290 -0.8715
  783MPD2    C311547   4.162   0.653  10.139 -0.1144 -0.1554  1.0232
  783MPD2    C411548   4.136   0.514  10.156 -0.2199  0.6628  0.0598
  783MPD2    C511549   4.073   0.466  10.266 -0.2653  0.0809  0.5121
  783MPD2     H11550   4.157   0.842  10.235 -0.8422  0.2517 -0.2663
  783MPD2    H111551   4.150   0.448  10.071 -0.6021 -1.2480  1.4929
  783MPD2    H211552   3.980   0.509  10.441  0.2033 -0.0080  0.8090
  783MPD2    H311553   4.046   0.361  10.272 -1.7530  0.5196  1.3927
  783MPD2     N11554   4.216   0.707  10.021 -0.1412  0.2514  0.2785
  783MPD2    H511555   4.218   0.808  10.012 -4.6600  0.4386  1.2809
  783MPD2    N111556   4.019   0.765  10.455 -1.1184  0.5131 -0.2382
  783MPD2    H711557   3.952   0.726  10.520 -0.9480 -0.9156 -0.9252
  784MPD2     C11558   1.725   1.477   1.587  1.0146  0.3320  1.1615
  784MPD2    C111559   1.774   1.602   1.614 -0.4749  0.5909  0.3716
  784MPD2    C211560   1.717   1.713   1.555 -0.4618  0.1291 -0.1380
  784MPD2    C311561   1.617   1.699   1.465  0.0234 -0.0404  0.0116
  784MPD2    C411562   1.561   1.572   1.443 -0.3828 -0.0376  0.4278
  784MPD2    C511563   1.625   1.464   1.497 -0.2045  1.2299  0.7771
  784MPD2     H11564   1.753   1.815   1.569  3.8003 -1.3837 -0.0781
  784MPD2    H111565   1.490   1.549   1.364  0.3432 -2.7624  0.5665
  784MPD2    H211566   1.764   1.378   1.608 -2.3214 -1.0124  0.8877
  784MPD2    H311567   1.588   1.364   1.479  1.6167  0.7698 -0.3308
  784MPD2     N11568   1.566   1.818   1.408 -0.2988 -1.0970 -0.3294
  784MPD2    H511569   1.610   1.902   1.444 -3.2360  0.0122  0.6296
  784MPD2    N111570   1.888   1.627   1.689 -0.2052  0.3791 -0.1888
  784MPD2    H711571   1.918   1.723   1.702  0.3948  0.2819 -0.8882
  785MPD2     C11572   2.327   4.036  10.819 -0.5800  0.0386 -0.2911
  785MPD2    C111573   2.246   4.126  10.896  0.2003  0.1191  0.1575
  785MPD2    C211574   2.116   4.090  10.925 -0.3689 -0.5063 -0.7633
  785MPD2    C311575   2.065   3.983  10.865  0.0764  0.3637 -0.5758
  785MPD2    C411576   2.151   3.895  10.805  0.8312  0.4489  0.1689
  785MPD2    C511577   2.282   3.915  10.784  0.7644  0.0694 -0.0705
  785MPD2     H11578   2.044   4.159  10.967 -0.2967  0.4961 -2.2881
  785MPD2    H111579   2.122   3.796  10.773  1.5858  0.2293  0.1562
  785MPD2    H211580   2.425   4.070  10.789 -1.0878 -0.3897 -2.4132
  785MPD2    H311581   2.350   3.845  10.736  1.3183  0.3806  0.2651
  785MPD2     N11582   1.922   3.957  10.882 -0.7473 -0.1492  0.3759
  785MPD2    H511583   1.876   4.034  10.928 -2.0033 -0.3356 -0.5821
  785MPD2    N111584   2.292   4.253  10.925  0.0933 -0.2881 -0.1321
  785MPD2    H711585   2.376   4.295  10.888  0.2891  1.2809  2.1095
  786MPD2     C11586   0.122   2.787  14.798 -0.0108 -0.2670 -0.3701
  786MPD2    C111587   0.231   2.704  14.781  0.6794  1.0148  0.4997
  786MPD2    C211588   0.319   2.691  14.893 -0.5853 -0.5385 -0.2709
  786MPD2    C311589   0.305   2.770  15.002 -0.1678 -0.5704  0.4859
  786MPD2    C411590   0.195   2.853  15.011  0.5243  0.6521 -0.2339
  786MPD2    C511591   0.102   2.859  14.912 -0.1723 -0.6410  0.0267
  786MPD2     H11592   0.398   2.617  14.892 -0.4428 -0.4080  0.9166
  786MPD2    H111593   0.175   2.911  15.099 -1.8689  0.0233 -0.3774
  786MPD2    H211594   0.039   2.792  14.728  0.4727 -2.5232 -1.1072
  786MPD2    H311595   0.010   2.913  14.932 -0.4293 -0.9277 -0.3998
  786MPD2     N11596   0.395   2.766  15.110  0.3358 -0.2736 -0.1213
  786MPD2    H511597   0.373   2.830  15.186 -1.8079 -1.5091  0.3043
  786MPD2    N111598   0.254   2.616  14.673 -0.8035  0.1680  0.6178
  786MPD2    H711599   0.341   2.564  14.678 -0.1075  1.1762 -1.2259
  787MPD2     C11600   0.355   2.106  15.004  0.3022 -0.3226 -0.2214
  787MPD2    C111601   0.413   2.106  14.876  0.3811  1.0354 -0.0102
  787MPD2    C211602   0.546   2.064  14.861 -0.5108  0.3494 -0.0674
  787MPD2    C311603   0.607   2.000  14.965  0.1121  0.3023  0.7980
  787MPD2    C411604   0.545   2.001  15.088 -0.4311  0.4150 -0.0425
  787MPD2    C511605   0.425   2.059  15.111 -0.0381  0.5161  0.3533
  787MPD2     H11606   0.597   2.072  14.766 -1.6425 -0.3750 -0.7387
  787MPD2    H111607   0.593   1.963  15.178 -1.9162 -0.2035  0.4853
  787MPD2    H211608   0.256   2.146  15.023  0.0900 -1.2862  0.7163
  787MPD2    H311609   0.368   2.068  15.202  1.4951 -0.1115  1.3771
  787MPD2     N11610   0.732   1.936  14.951 -0.3599 -0.4940 -0.3086
  787MPD2    H511611   0.779   1.957  14.863 -1.1197 -3.5486 -1.4510
  787MPD2    N111612   0.332   2.154  14.773  0.6269 -0.1749 -0.2177
  787MPD2    H711613   0.254   2.210  14.805  1.5303  1.3269 -0.6628
  788MPD2     C11614   3.020   0.324   1.328  0.5751 -0.2978 -0.0347
  788MPD2    C111615   2.893   0.363   1.300  0.5249 -0.6243  0.3363
  788MPD2    C211616   2.874   0.503   1.276  0.1967 -0.3604  0.7704
  788MPD2    C311617   2.988   0.588   1.278  0.2188  0.0457  0.5212
  788MPD2    C411618   3.114   0.535   1.283  0.1881  0.1497 -0.5449
  788MPD2    C511619   3.137   0.405   1.319 -0.0139 -0.2203 -0.1263
  788MPD2     H11620   2.772   0.537   1.262 -0.1351 -1.3138  0.8690
  788MPD2    H111621   3.192   0.608   1.266 -0.1612  0.4412 -0.9120
  788MPD2    H211622   3.030   0.222   1.363  2.1990  0.1091  0.7067
  788MPD2    H311623   3.236   0.365   1.332 -0.0993 -0.7221 -0.9910
  788MPD2     N11624   2.978   0.723   1.261  0.4479  0.0056 -0.2338
  788MPD2    H511625   3.069   0.768   1.257 -0.1569  1.4242  2.2519
  788MPD2    N111626   2.787   0.267   1.307 -0.1219 -0.3242  0.0034
  788MPD2    H711627   2.817   0.170   1.308 -0.3245 -0.4080 -1.6119
  789MPD2     C11628   3.086   0.701  16.836 -0.2481 -1.0239  0.0087
  789MPD2    C111629   3.027   0.749  16.724 -0.4416  0.4242 -0.1721
  789MPD2    C211630   2.919   0.837  16.738 -0.0140 -0.1386 -0.0008
  789MPD2    C311631   2.855   0.855  16.858  0.5719 -0.1286  0.1461
  789MPD2    C411632   2.919   0.804  16.972 -1.1476  1.3116 -0.0476
  789MPD2    C511633   3.033   0.733  16.961  0.0262 -0.3860 -0.1952
  789MPD2     H11634   2.874   0.878  16.648 -0.0804  2.0705  1.0429
  789MPD2    H111635   2.882   0.812  17.074  1.1211  2.0067  0.7189
  789MPD2    H211636   3.172   0.635  16.828  0.3846 -0.4572  2.2379
  789MPD2    H311637   3.078   0.691  17.050  0.7882 -0.7865 -0.7629
  789MPD2     N11638   2.726   0.911  16.868 -0.5034  0.0183  0.3749
  789MPD2    H511639   2.688   0.904  16.962 -1.3431 -0.3801  0.0086
  789MPD2    N111640   3.073   0.729  16.590 -0.0437 -0.2298 -0.0179
  789MPD2    H711641   3.015   0.770  16.517  0.2752  0.2885  0.0195
  790MPD2     C11642   3.926   2.735  13.358  0.1912  0.8563 -0.6266
  790MPD2    C111643   3.982   2.614  13.397  0.7919 -0.5373  0.5530
  790MPD2    C211644   3.922   2.488  13.360  0.1997 -0.0816 -0.0658
  790MPD2    C311645   3.807   2.485  13.287 -0.1641 -0.9887  0.3805
  790MPD2    C411646   3.745   2.605  13.266 -0.5031 -0.3006  0.4798
  790MPD2    C511647   3.806   2.722  13.300 -0.6096 -0.5079  0.1320
  790MPD2     H11648   3.981   2.399  13.376  0.1403 -0.4557 -1.9242
  790MPD2    H111649   3.648   2.610  13.219  1.1449 -2.0414 -3.1062
  790MPD2    H211650   3.979   2.829  13.366 -0.5074  1.2164 -0.1877
  790MPD2    H311651   3.753   2.812  13.270 -1.5569 -0.3837  2.1771
  790MPD2     N11652   3.751   2.363  13.238  0.6220 -0.1778 -0.5720
  790MPD2    H511653   3.797   2.277  13.266  0.4194 -0.5657 -1.4280
  790MPD2    N111654   4.110   2.626  13.460 -0.2787 -0.0694  0.4317
  790MPD2    H711655   4.143   2.722  13.470  3.0339 -1.0598 -0.9813
  791MPD2     C11656   3.046   2.363  12.946  0.5822  0.3659  0.2980
  791MPD2    C111657   3.084   2.232  12.936 -0.2680 -0.0750 -0.8305
  791MPD2    C211658   2.990   2.133  12.895  0.0816  0.2464  1.0267
  791MPD2    C311659   2.859   2.173  12.876  0.1291  1.0393  0.5874
  791MPD2    C411660   2.820   2.308  12.887  0.7832  0.0851  0.2098
  791MPD2    C511661   2.918   2.402  12.906 -0.1174 -0.4595 -0.2157
  791MPD2     H11662   3.004   2.026  12.896  1.4193  0.3566 -2.7761
  791MPD2    H111663   2.723   2.340  12.850  0.0859  0.5547  2.4457
  791MPD2    H211664   3.116   2.440  12.976  3.2534 -2.5353  1.5056
  791MPD2    H311665   2.889   2.506  12.917  0.6049  0.0754 -3.3472
  791MPD2     N11666   2.776   2.062  12.832 -0.2733 -0.4919 -0.1600
  791MPD2    H511667   2.802   1.964  12.828  1.7059  0.0621 -1.0827
  791MPD2    N111668   3.218   2.208  12.967  0.2790 -0.2129  0.6722
  791MPD2    H711669   3.274   2.292  12.983 -1.9359  1.5435 -0.7949
  792MPD2     C11670   4.007   1.976  11.429  0.2332 -0.4803  0.4171
  792MPD2    C111671   4.068   2.024  11.314 -0.1132 -0.1848  0.3800
  792MPD2    C211672   4.090   1.930  11.218  0.6216  0.3709 -0.1604
  792MPD2    C311673   4.025   1.808  11.224  0.0423 -0.2594  0.1102
  792MPD2    C411674   3.968   1.760  11.335  0.2459  1.1898  0.2064
  792MPD2    C511675   3.964   1.843  11.441  0.2946  0.0682  0.6460
  792MPD2     H11676   4.146   1.949  11.127  1.8901 -1.9402  0.1393
  792MPD2    H111677   3.927   1.660  11.333 -0.4628  1.4562  1.5958
  792MPD2    H211678   3.983   2.037  11.516 -1.5474  1.9200 -1.7576
  792MPD2    H311679   3.925   1.810  11.537 -1.7382 -4.0320 -1.6133
  792MPD2     N11680   4.015   1.723  11.109 -0.3145  0.5088 -0.7365
  792MPD2    H511681   3.956   1.641  11.121  0.5648  0.0240  0.3359
  792MPD2    N111682   4.093   2.166  11.301 -0.3141  0.0479 -0.7248
  792MPD2    H711683   4.063   2.225  11.378 -0.8011 -0.2596 -0.6791
  793MPD2     C11684   3.446   2.042  10.493 -0.2951 -0.0450  0.6396
  793MPD2    C111685   3.573   2.085  10.485 -0.5485  0.6635 -0.4513
  793MPD2    C211686   3.664   2.025  10.568  0.4243  0.4751 -0.3001
  793MPD2    C311687   3.632   1.910  10.636  0.6230  0.2779  0.4796
  793MPD2    C411688   3.500   1.871  10.634 -0.0881  0.4251 -0.0312
  793MPD2    C511689   3.407   1.936  10.566  0.1667  0.5871 -0.1114
  793MPD2     H11690   3.769   2.044  10.550  0.1478  2.1605 -0.1451
  793MPD2    H111691   3.466   1.781  10.684 -2.3280  0.1006 -2.1029
  793MPD2    H211692   3.361   2.074  10.432  1.4271  1.6545 -0.8792
  793MPD2    H311693   3.304   1.901  10.568 -0.3630  2.3108  1.8802
  793MPD2     N11694   3.740   1.832  10.679  0.1273 -0.2495 -0.2867
  793MPD2    H511695   3.833   1.867  10.658  0.9612 -2.5791 -0.4097
  793MPD2    N111696   3.619   2.185  10.397  0.3360 -0.3771  0.7956
  793MPD2    H711697   3.719   2.205  10.395  0.7704 -2.0815  4.1415
  794MPD2     C11698   4.102   1.961  17.685  0.0871 -0.2349  0.1765
  794MPD2    C111699   4.055   1.825   0.014  0.4630  0.1737 -0.1292
  794MPD2    C211700   3.924   1.803   0.006 -0.9758 -0.3404 -0.3380
  794MPD2    C311701   3.835   1.902  17.660 -0.2816 -0.5943 -0.6606
  794MPD2    C411702   3.878   2.038  17.639  1.1238 -0.3896 -0.0253
  794MPD2    C511703   4.013   2.060  17.652 -0.4247 -0.6973 -0.2278
  794MPD2     H11704   3.891   1.704   0.036  1.9930 -0.4974  2.3649
  794MPD2    H111705   3.815   2.121  17.611 -2.2119 -2.3457  1.6570
  794MPD2    H211706   4.205   1.994   0.003  0.1887 -0.5224  0.0379
  794MPD2    H311707   4.061   2.156  17.632  0.0419 -0.6161  1.2302
  794MPD2     N11708   3.696   1.874  17.632  0.2309  0.0531 -0.5002
  794MPD2    H511709   3.633   1.946  17.600 -2.6095 -2.6030 -0.9158
  794MPD2    N111710   4.140   1.719   0.042  0.2816 -0.4027 -0.0733
  794MPD2    H711711   4.098   1.626   0.041 -2.5114  0.9065 -1.7559
  795MPD2     C11712   1.071   3.705  13.597 -0.5954  0.5036 -0.0775
  795MPD2    C111713   1.025   3.597  13.525 -0.2053  0.2029  0.9303
  795MPD2    C211714   1.101   3.485  13.514 -0.8844 -0.1380 -0.3484
  795MPD2    C311715   1.220   3.473  13.582  0.2881  1.1137  0.0228
  795MPD2    C411716   1.266   3.587  13.648 -0.5131  0.1305 -0.4317
  795MPD2    C511717   1.193   3.706  13.653  0.5996  0.2033  0.6931
  795MPD2     H11718   1.067   3.406  13.448 -0.7649  1.3135 -2.1149
  795MPD2    H111719   1.359   3.595  13.704 -2.6187  0.9963  2.9541
  795MPD2    H211720   1.011   3.793  13.618 -2.2088 -0.2058 -1.6946
  795MPD2    H311721   1.234   3.787  13.711  1.3349  0.4867 -0.2303
  795MPD2     N11722   1.299   3.358  13.569  0.3525  0.8345 -0.0992
  795MPD2    H511723   1.261   3.291  13.503 -0.4697  1.3347 -0.1330
  795MPD2    N111724   0.904   3.600  13.450  0.5323 -0.2872  0.2868
  795MPD2    H711725   0.869   3.514  13.410 -1.0781 -0.0402  1.1883
  796MPD2     C11726   1.429   0.559  15.686  0.6955 -0.1833  0.0439
  796MPD2    C111727   1.534   0.636  15.738  0.2378 -0.3089  0.1179
  796MPD2    C211728   1.512   0.753  15.801 -0.9319  0.0180 -0.0361
  796MPD2    C311729   1.383   0.800  15.812  0.3615  0.4827 -0.1397
  796MPD2    C411730   1.283   0.740  15.741 -0.2767  0.7493 -0.2541
  796MPD2    C511731   1.298   0.614  15.691  0.4341 -0.2371  0.0118
  796MPD2     H11732   1.601   0.801  15.841 -1.6592  1.8449 -0.6403
  796MPD2    H111733   1.184   0.784  15.742 -0.6512 -0.0892 -0.7176
  796MPD2    H211734   1.442   0.459  15.646 -0.1645 -0.2609 -0.0370
  796MPD2    H311735   1.211   0.564  15.648 -0.1760  1.0641 -0.2553
  796MPD2     N11736   1.372   0.911  15.894 -0.4579 -0.3083 -0.0463
  796MPD2    H511737   1.460   0.943  15.933 -0.1649  0.5906 -1.4451
  796MPD2    N111738   1.664   0.574  15.715 -0.0620  0.1370  0.0114
  796MPD2    H711739   1.655   0.480  15.679  0.4153 -0.1607  0.6872
  797MPD2     C11740   2.204   0.230  17.370 -0.6136  0.8526 -0.2913
  797MPD2    C111741   2.332   0.280  17.371 -0.0784  0.0314 -1.1133
  797MPD2    C211742   2.365   0.369  17.269  0.3259 -0.4273 -0.1207
  797MPD2    C311743   2.279   0.401  17.169  0.2913  0.5949  0.3112
  797MPD2    C411744   2.152   0.351  17.165  0.3277 -0.8200  0.4911
  797MPD2    C511745   2.120   0.260  17.264 -0.2573  0.2103  0.1343
  797MPD2     H11746   2.464   0.412  17.259  0.3857  0.3228  3.3874
  797MPD2    H111747   2.072   0.371  17.096  0.1112 -2.0271  0.3933
  797MPD2    H211748   2.162   0.175  17.453  3.3811  0.8874  1.7477
  797MPD2    H311749   2.021   0.216  17.268 -0.1614  0.0011  0.2008
  797MPD2     N11750   2.337   0.466  17.058 -0.3987  0.2019 -0.0798
  797MPD2    H511751   2.433   0.497  17.070 -1.5794  3.4783  1.0596
  797MPD2    N111752   2.433   0.252  17.460 -0.2371  0.0266  0.1709
  797MPD2    H711753   2.512   0.313  17.441  0.3364  0.0559  2.7092
  798MPD2     C11754   3.020   0.396  17.091  0.4816  0.0700  0.4063
  798MPD2    C111755   2.894   0.453  17.116  0.7872  0.2612  0.7254
  798MPD2    C211756   2.858   0.477  17.251  0.1234  0.4629 -0.3126
  798MPD2    C311757   2.926   0.417  17.352  0.6648  0.0013  0.3559
  798MPD2    C411758   3.053   0.371  17.328 -0.2724 -0.3351 -0.2794
  798MPD2    C511759   3.100   0.362  17.192  0.4955 -0.8629  0.5373
  798MPD2     H11760   2.768   0.527  17.283 -1.3492 -1.3321 -1.5810
  798MPD2    H111761   3.109   0.332  17.412  0.3970 -0.9073 -0.9915
  798MPD2    H211762   3.054   0.381  16.989 -0.7494 -0.5547  0.0898
  798MPD2    H311763   3.197   0.328  17.159  0.7204 -1.6983  2.0587
  798MPD2     N11764   2.855   0.413  17.475 -0.2970  0.4123 -0.4435
  798MPD2    H511765   2.755   0.432  17.473 -0.1645  1.0569 -0.9615
  798MPD2    N111766   2.808   0.484  17.009 -0.2892  0.8254  0.1940
  798MPD2    H711767   2.851   0.489  16.918  2.3472 -0.7063  1.3599
  799MPD2     C11768   1.026   1.813  14.612  0.1183 -0.3791 -0.2310
  799MPD2    C111769   0.921   1.725  14.633 -0.0106 -0.5080  0.0843
  799MPD2    C211770   0.797   1.752  14.572 -0.1667 -1.3420 -0.2701
  799MPD2    C311771   0.779   1.860  14.490 -0.7929  0.4911  0.2621
  799MPD2    C411772   0.888   1.939  14.463 -0.3983 -0.2205 -0.3469
  799MPD2    C511773   1.011   1.909  14.510 -0.2486 -0.0332  0.1082
  799MPD2     H11774   0.717   1.682  14.595  0.2182 -2.1005 -1.1925
  799MPD2    H111775   0.885   2.021  14.391 -0.3316 -0.1456 -0.2634
  799MPD2    H211776   1.127   1.797  14.649 -0.1295 -1.6382 -0.1072
  799MPD2    H311777   1.091   1.980  14.493 -0.1481 -0.5542 -1.5994
  799MPD2     N11778   0.662   1.882  14.410 -0.0636  0.0261  0.2107
  799MPD2    H511779   0.652   1.961  14.347 -0.4793  0.3695  0.7048
  799MPD2    N111780   0.934   1.609  14.713 -0.6218 -0.2076  0.4678
  799MPD2    H711781   0.857   1.544  14.720  0.2835 -0.8315  5.0490
  800MPD2     C11782   0.694   2.533  13.556  0.2783 -0.3502  0.3558
  800MPD2    C111783   0.814   2.597  13.532  0.3211 -0.0352  0.3013
  800MPD2    C211784   0.889   2.542  13.433  0.5459 -0.4694  0.2732
  800MPD2    C311785   0.843   2.433  13.362  0.0263  0.5750 -0.6584
  800MPD2    C411786   0.727   2.363  13.397  0.0676  0.4162  0.2829
  800MPD2    C511787   0.649   2.421  13.495 -0.1481  0.8252  0.4725
  800MPD2     H11788   0.981   2.587  13.397 -0.7032  1.4660 -0.5153
  800MPD2    H111789   0.682   2.277  13.349 -0.5901  2.3797 -2.6152
  800MPD2    H211790   0.631   2.569  13.637 -1.0178  2.6973 -2.0111
  800MPD2    H311791   0.556   2.377  13.530  0.0616  0.2124  0.2576
  800MPD2     N11792   0.925   2.405  13.253  0.4338 -0.0482 -0.3784
  800MPD2    H511793   1.006   2.466  13.243  0.5046  0.2167  1.7864
  800MPD2    N111794   0.858   2.694  13.620 -0.1634  0.1508  0.1456
  800MPD2    H711795   0.815   2.705  13.711 -0.9486  1.9792 -0.4360
  801MPD2     C11796   0.901   3.462  13.829 -0.1863  0.1334  0.1217
  801MPD2    C111797   0.935   3.392  13.939  0.3294  0.3545 -0.8661
  801MPD2    C211798   0.940   3.462  14.057  0.2625  0.6918 -0.0465
  801MPD2    C311799   0.899   3.594  14.068  0.4065  0.2892  0.0527
  801MPD2    C411800   0.853   3.655  13.958 -0.4417 -0.2616  0.1806
  801MPD2    C511801   0.851   3.593  13.838 -0.5610 -0.4725  0.2125
  801MPD2     H11802   0.960   3.401  14.145  2.5920  1.7264  0.1614
  801MPD2    H111803   0.828   3.761  13.960  0.1355 -0.1199 -0.0084
  801MPD2    H211804   0.900   3.414  13.732  1.4218 -1.5771  0.9568
  801MPD2    H311805   0.816   3.645  13.749 -0.2749 -0.7277 -0.0518
  801MPD2     N11806   0.904   3.668  14.189  0.3275  0.0847  0.0854
  801MPD2    H511807   0.843   3.748  14.204  0.9987  0.9394 -1.7404
  801MPD2    N111808   0.978   3.261  13.929  0.2109 -0.0423 -0.2092
  801MPD2    H711809   1.018   3.217  14.011  1.9383  0.2446 -0.8993
  802MPD2     C11810   0.530   3.569   0.097 -0.8393  0.4208  0.7766
  802MPD2    C111811   0.637   3.489   0.092 -0.6143 -0.8199  0.5606
  802MPD2    C211812   0.706   3.471  17.666 -0.2682  0.2179 -0.0174
  802MPD2    C311813   0.678   3.546  17.551 -0.6503 -0.2849  0.0322
  802MPD2    C411814   0.578   3.635  17.564  0.0582  0.0403  0.7890
  802MPD2    C511815   0.512   3.652  17.679  0.0565  0.5527 -0.3805
  802MPD2     H11816   0.789   3.402  17.673 -0.2202  0.3583  0.7720
  802MPD2    H111817   0.538   3.693  17.482  0.3228  0.5908  1.0489
  802MPD2    H211818   0.471   3.593   0.184 -1.4518  3.0177 -0.3451
  802MPD2    H311819   0.435   3.727   0.005  0.8186  1.4838 -1.1903
  802MPD2     N11820   0.756   3.516  17.439 -0.0689  0.0264  0.1712
  802MPD2    H511821   0.840   3.462  17.458  0.7839  1.2001 -0.2001
  802MPD2    N111822   0.684   3.413   0.207 -0.4603 -0.8671 -0.1717
  802MPD2    H711823   0.752   3.340   0.190 -0.5123 -1.3083  1.5141
  803MPD2     C11824   1.881   2.307  11.518 -0.4010  0.2285  0.7173
  803MPD2    C111825   1.914   2.336  11.652 -0.1634 -0.4441 -0.0945
  803MPD2    C211826   1.828   2.284  11.746 -0.0679  0.1916 -0.8518
  803MPD2    C311827   1.718   2.195  11.720 -0.2578  0.7690 -0.3957
  803MPD2    C411828   1.682   2.182  11.590 -0.3516  0.5372 -0.1210
  803MPD2    C511829   1.766   2.230  11.493 -0.2927 -0.4850 -0.9707
  803MPD2     H11830   1.846   2.308  11.850 -0.6480 -1.3917 -0.3878
  803MPD2    H111831   1.590   2.131  11.562  0.6877 -1.1142 -0.5763
  803MPD2    H211832   1.934   2.334  11.428  0.4515  2.8264  1.9825
  803MPD2    H311833   1.741   2.215  11.389  1.0962 -0.8195 -1.2559
  803MPD2     N11834   1.641   2.136  11.820 -0.5640 -0.5251 -0.3769
  803MPD2    H511835   1.558   2.084  11.792 -1.0253 -1.0792  1.9455
  803MPD2    N111836   2.021   2.421  11.693  0.0981  0.0911  0.5833
  803MPD2    H711837   2.040   2.442  11.790  0.3266 -0.9663  0.7636
  804MPD2     C11838   1.653   3.802  17.195  1.0989  0.0547 -1.0072
  804MPD2    C111839   1.707   3.782  17.317  0.5938  0.3741  0.1772
  804MPD2    C211840   1.793   3.886  17.366  0.0566 -0.5436  0.0159
  804MPD2    C311841   1.821   4.004  17.300  0.4254  0.3247 -0.0868
  804MPD2    C411842   1.760   4.016  17.181  0.2448  0.9501 -0.0487
  804MPD2    C511843   1.675   3.921  17.132 -0.1238  0.6314  0.2032
  804MPD2     H11844   1.828   3.876  17.468 -2.8836 -0.1782  1.0562
  804MPD2    H111845   1.771   4.108  17.124  3.4537  1.3009  1.1330
  804MPD2    H211846   1.567   3.743  17.165  1.2836 -0.4222 -0.5990
  804MPD2    H311847   1.625   3.934  17.036 -0.3409 -1.2304  0.0771
  804MPD2     N11848   1.910   4.098  17.357  0.4957  0.4489  0.0972
  804MPD2    H511849   1.942   4.079  17.451  1.1505 -0.4715 -0.3164
  804MPD2    N111850   1.677   3.672  17.401  0.7515 -0.2904  0.0946
  804MPD2    H711851   1.731   3.665  17.487 -0.4011 -1.6362  0.7131
  805MPD2     C11852   0.510   1.881  15.827 -0.3478 -0.0825  0.2716
  805MPD2    C111853   0.603   1.819  15.742  0.0270  0.2117 -0.0074
  805MPD2    C211854   0.724   1.770  15.792  0.4128  0.3552  0.6826
  805MPD2    C311855   0.758   1.808  15.927  0.7384 -0.1968  0.0250
  805MPD2    C411856   0.665   1.873  16.007  0.0343  0.6411  0.1514
  805MPD2    C511857   0.539   1.902  15.965  0.3180 -0.2259 -0.0652
  805MPD2     H11858   0.794   1.711  15.735 -1.2051 -0.4486 -0.4796
  805MPD2    H111859   0.684   1.909  16.108  4.0835 -1.1052  0.0037
  805MPD2    H211860   0.420   1.927  15.790 -0.1994 -0.5634 -0.6922
  805MPD2    H311861   0.484   1.970  16.029  0.2230  0.8845 -1.3279
  805MPD2     N11862   0.886   1.781  15.978  0.5263  0.0904  0.3194
  805MPD2    H511863   0.959   1.750  15.915 -0.7422 -1.7771 -0.2081
  805MPD2    N111864   0.565   1.787  15.604 -0.9315 -0.1189  0.1914
  805MPD2    H711865   0.624   1.727  15.547 -0.1281  0.2722  0.6253
  806MPD2     C11866   2.105   0.922   1.349 -0.2921 -0.0436  0.4575
  806MPD2    C111867   2.112   1.004   1.454  0.2091  0.0274  0.7014
  806MPD2    C211868   2.063   1.129   1.440  0.2780  0.4284  0.3778
  806MPD2    C311869   2.008   1.181   1.321 -1.0093  0.3816  0.2354
  806MPD2    C411870   2.007   1.092   1.216 -0.2629 -0.1222  0.2990
  806MPD2    C511871   2.051   0.962   1.228 -0.6382 -0.0133  0.0795
  806MPD2     H11872   2.076   1.204   1.517 -0.4451 -0.6955  1.6074
  806MPD2    H111873   1.973   1.127   1.119 -1.7717 -0.7797  0.5859
  806MPD2    H211874   2.140   0.819   1.353  1.2770  0.4396 -0.9311
  806MPD2    H311875   2.034   0.888   1.151  1.7375 -3.7799  3.2176
  806MPD2     N11876   1.975   1.311   1.313  0.2479  0.4268  0.0820
  806MPD2    H511877   1.986   1.364   1.399  1.6294  3.0497 -1.7246
  806MPD2    N111878   2.176   0.949   1.564 -0.0677  0.3756  0.3389
  806MPD2    H711879   2.210   0.856   1.540  1.9858  1.2543 -0.2092
  807MPD2     C11880   2.360   1.451   2.167 -0.1574  0.0058 -1.1263
  807MPD2    C111881   2.270   1.368   2.108  0.2608  0.3672 -0.1315
  807MPD2    C211882   2.131   1.392   2.116 -0.6964  0.6254  0.3658
  807MPD2    C311883   2.084   1.509   2.178 -0.5138  0.0882 -0.0268
  807MPD2    C411884   2.172   1.589   2.244  0.2726  0.2848  1.0648
  807MPD2    C511885   2.306   1.559   2.239  0.3694  0.1895 -0.2232
  807MPD2     H11886   2.057   1.328   2.067 -0.3686  0.0911  0.5647
  807MPD2    H111887   2.138   1.666   2.312  0.8348  1.0431  0.5006
  807MPD2    H211888   2.466   1.432   2.158 -0.3202 -1.3015 -0.2572
  807MPD2    H311889   2.373   1.628   2.287  1.9115 -1.7456  0.4254
  807MPD2     N11890   1.943   1.525   2.185 -0.3393 -0.1218  0.0520
  807MPD2    H511891   1.882   1.446   2.165 -0.7729  0.5519 -1.3189
  807MPD2    N111892   2.306   1.255   2.035  0.4723 -0.4964  0.0534
  807MPD2    H711893   2.223   1.221   1.987  0.1709  0.4000 -0.0621
  808MPD2     C11894   1.744   3.236   9.961 -0.6550 -0.3320 -0.9892
  808MPD2    C111895   1.645   3.330   9.975  0.5645 -0.2880 -0.5025
  808MPD2    C211896   1.676   3.465   9.981 -0.6015  0.4427 -0.3806
  808MPD2    C311897   1.809   3.507   9.979  0.0277  0.1121  0.7567
  808MPD2    C411898   1.902   3.409   9.963  0.1075  0.4388 -0.3577
  808MPD2    C511899   1.872   3.277   9.948  0.6973  0.0993  0.0262
  808MPD2     H11900   1.589   3.528   9.992 -0.8769  0.0458 -0.2802
  808MPD2    H111901   2.009   3.429   9.961 -0.1648  1.8566 -0.5240
  808MPD2    H211902   1.730   3.128   9.955 -1.7570 -0.3008  1.0141
  808MPD2    H311903   1.948   3.201   9.937 -2.0657 -2.4714 -1.1133
  808MPD2     N11904   1.851   3.642   9.985 -0.4185 -0.5065 -0.0900
  808MPD2    H511905   1.950   3.655   9.967 -0.5519  0.7692  0.1415
  808MPD2    N111906   1.505   3.296   9.981  0.3656 -0.2909  0.7412
  808MPD2    H711907   1.444   3.368  10.019  0.4295  0.7713 -1.1449
  809MPD2     C11908   2.609   4.252  10.051  0.0042 -1.0787 -0.0379
  809MPD2    C111909   2.582   4.124  10.003  0.7181 -0.9192 -0.6100
  809MPD2    C211910   2.458   4.075   9.994 -0.7964 -0.1424 -0.0136
  809MPD2    C311911   2.355   4.159  10.037  0.1997 -0.1392 -0.1335
  809MPD2    C411912   2.379   4.293  10.073  0.3845  0.2254 -0.8973
  809MPD2    C511913   2.504   4.334  10.088  0.3744 -0.1360  0.4609
  809MPD2     H11914   2.454   3.971   9.967 -0.7075  0.1349 -1.1037
  809MPD2    H111915   2.298   4.363  10.086  1.0649  0.7516  0.5182
  809MPD2    H211916   2.713   4.282  10.042 -0.2606 -0.5984 -1.5609
  809MPD2    H311917   2.528   4.434  10.120  2.1262  0.0476 -1.4298
  809MPD2     N11918   2.222   4.130  10.034  0.1690 -0.1068 -0.3007
  809MPD2    H511919   2.156   4.205  10.050 -1.5127 -0.9582 -3.0538
  809MPD2    N111920   2.682   4.032   9.958  0.5361 -0.2480 -0.3438
  809MPD2    H711921   2.641   3.945   9.927  1.4439 -0.9732  0.4727
  810MPD2     C11922   1.414   2.140   9.836 -0.1919  0.1410 -0.3721
  810MPD2    C111923   1.339   2.253   9.851 -0.1797  0.1591  0.2786
  810MPD2    C211924   1.397   2.375   9.871  0.6640  0.5382 -0.2005
  810MPD2    C311925   1.536   2.384   9.895  0.1171  0.1113 -1.4370
  810MPD2    C411926   1.606   2.269   9.884  0.7864  0.3622 -0.0692
  810MPD2    C511927   1.546   2.151   9.852  0.2144  0.6601 -0.2277
  810MPD2     H11928   1.339   2.467   9.869 -1.5483 -0.8663 -1.4864
  810MPD2    H111929   1.711   2.268   9.914  0.5234  1.9073  0.8841
  810MPD2    H211930   1.368   2.043   9.814 -1.9223  0.6180  1.1977
  810MPD2    H311931   1.616   2.069   9.838  0.5017  0.5901  1.6058
  810MPD2     N11932   1.598   2.501   9.944  0.0468 -0.0743 -0.2802
  810MPD2    H511933   1.697   2.490   9.964 -0.1720  1.9882  1.8929
  810MPD2    N111934   1.201   2.227   9.818  0.1494  0.4928  0.5367
  810MPD2    H711935   1.176   2.129   9.810  0.6119  0.4336 -0.2026
  811MPD2     C11936   0.324   2.500   9.614 -0.5929 -0.5164  0.3549
  811MPD2    C111937   0.444   2.547   9.658  0.5743 -0.4012  0.6638
  811MPD2    C211938   0.449   2.682   9.685  0.1084  0.0251 -0.0617
  811MPD2    C311939   0.345   2.764   9.652  0.1140 -0.3010  0.3772
  811MPD2    C411940   0.227   2.722   9.598 -0.9293  0.0793  0.2317
  811MPD2    C511941   0.215   2.585   9.591 -0.6816  0.0077  0.3236
  811MPD2     H11942   0.534   2.724   9.738  0.1444  0.1887 -0.2525
  811MPD2    H111943   0.144   2.792   9.598 -1.2714 -0.3317  0.7424
  811MPD2    H211944   0.304   2.394   9.605 -0.9302 -0.4537  0.3350
  811MPD2    H311945   0.122   2.550   9.546 -0.5892  2.0874 -1.5040
  811MPD2     N11946   0.364   2.902   9.689  0.0796 -0.2063 -0.0792
  811MPD2    H511947   0.444   2.924   9.747 -1.1636 -0.6491  1.8160
  811MPD2    N111948   0.542   2.451   9.684 -0.5069  0.2521 -0.6514
  811MPD2    H711949   0.519   2.354   9.670  0.2612  0.1829 -1.4411
  812MPD2     C11950   0.128   1.993  12.055  0.4565 -0.1704  0.2090
  812MPD2    C111951   0.064   2.024  12.174  0.2167 -0.2951 -0.3810
  812MPD2    C211952   0.039   1.924  12.270  0.0536  0.1480  0.2655
  812MPD2    C311953   0.079   1.798  12.238  0.4986 -0.7382 -0.6382
  812MPD2    C411954   0.141   1.765  12.115 -0.8620 -0.4022  0.7490
  812MPD2    C511955   0.142   1.861  12.019 -0.1610 -0.1777 -0.2894
  812MPD2     H11956   4.708   1.948  12.362  2.1298 -0.6796  1.6536
  812MPD2    H111957   0.159   1.659  12.100 -0.5525 -0.2873  0.3088
  812MPD2    H211958   0.162   2.067  11.984 -1.6866  0.1941 -0.4503
  812MPD2    H311959   0.184   1.844  11.921 -1.1363 -0.9456 -0.5678
  812MPD2     N11960   0.059   1.698  12.340 -0.0480  0.3018  0.1110
  812MPD2    H511961   0.033   1.725  12.434 -1.1707  1.1283 -0.4344
  812MPD2    N111962   0.020   2.159  12.190  0.3929 -0.4898 -0.3808
  812MPD2    H711963   0.064   2.224  12.125 -0.2552 -0.2141 -0.5377
  813MPD2     C11964   3.173   4.184  13.136 -0.3386 -0.1447 -1.0665
  813MPD2    C111965   3.278   4.131  13.213  0.3151 -0.1172  0.2917
  813MPD2    C211966   3.257   4.057  13.328  0.3357 -0.2704  0.3748
  813MPD2    C311967   3.130   4.033  13.371  0.1577  0.7991 -0.3066
  813MPD2    C411968   3.025   4.073  13.291 -0.1707 -0.0089  0.2877
  813MPD2    C511969   3.044   4.157  13.178  0.2411  0.2392  0.1816
  813MPD2     H11970   3.338   4.021  13.390  0.1233 -0.9804  0.2412
  813MPD2    H111971   2.918   4.052  13.297 -0.5916  2.5372  1.6487
  813MPD2    H211972   3.188   4.247  13.049  0.9477  0.2625 -0.5447
  813MPD2    H311973   2.963   4.196  13.118 -0.6573 -1.2118  0.4627
  813MPD2     N11974   3.114   3.972  13.496 -0.4671  0.4237 -0.0577
  813MPD2    H511975   3.198   3.956  13.551 -0.1927  1.4077 -0.1818
  813MPD2    N111976   3.406   4.160  13.165  0.4625  0.8548  0.6659
  813MPD2    H711977   3.412   4.230  13.092 -0.5498 -0.9321 -1.1190
  814MPD2     C11978   4.465   1.223  12.143  0.4878 -0.3481 -0.2949
  814MPD2    C111979   4.462   1.229  12.004  0.5241  0.4274 -0.6865
  814MPD2    C211980   4.476   1.360  11.954 -1.1117  0.5887  0.2108
  814MPD2    C311981   4.498   1.467  12.034  0.6044  0.2642  0.0475
  814MPD2    C411982   4.478   1.451  12.171  0.0532 -0.1075  0.1958
  814MPD2    C511983   4.459   1.329  12.225  0.2778 -0.6466 -0.0899
  814MPD2     H11984   4.472   1.380  11.847 -2.8464 -0.2107  0.1226
  814MPD2    H111985   4.481   1.531  12.245 -0.0765 -0.7210  0.8638
  814MPD2    H211986   4.459   1.128  12.194  2.4167 -0.0179  0.5369
  814MPD2    H311987   4.437   1.316  12.331  3.2874  0.8098  0.7036
  814MPD2     N11988   4.531   1.591  11.992  1.2133 -0.7630  0.5184
  814MPD2    H511989   4.524   1.667  12.060  1.7784  0.4728 -0.7861
  814MPD2    N111990   4.459   1.111  11.922  0.2404 -0.4392 -0.4631
  814MPD2    H711991   4.469   1.129  11.823 -0.4257  0.1759 -0.4205
  815MPD2     C11992   4.246   4.306  11.855 -0.1324 -0.2662 -0.3229
  815MPD2    C111993   4.294   4.187  11.891 -0.1951 -0.7790  0.3114
  815MPD2    C211994   4.273   4.141  12.019  0.3243  0.6105  0.3110
  815MPD2    C311995   4.206   4.208  12.114  0.8815 -0.2796 -0.1619
  815MPD2    C411996   4.169   4.339  12.084 -0.0573 -0.2576  0.1993
  815MPD2    C511997   4.184   4.378  11.954 -0.2709 -0.4029  0.2056
  815MPD2     H11998   4.313   4.045  12.051 -1.2954  0.1466  0.9178
  815MPD2    H111999   4.105   4.405  12.141 -2.2609 -0.8902 -1.5498
  815MPD2    H212000   4.243   4.321  11.748 -0.1718 -0.1203 -0.3019
  815MPD2    H312001   4.127   4.468  11.932  0.9427  1.2325  3.6530
  815MPD2     N12002   4.181   4.145  12.237 -0.1659  0.5444  0.3275
  815MPD2    H512003   4.226   4.057  12.262 -0.4734  0.9346  2.2503
  815MPD2    N112004   4.366   4.122  11.786 -0.2811 -0.1985 -0.2873
  815MPD2    H712005   4.368   4.164  11.694  0.5625 -0.3299 -0.3286
  816MPD2     C12006   0.287   3.375   0.308 -0.1596  0.6182  0.3322
  816MPD2    C112007   0.217   3.459   0.226  0.0991 -0.6837  0.2464
  816MPD2    C212008   0.226   3.445   0.086 -0.3773 -0.5283 -0.3887
  816MPD2    C312009   0.313   3.352   0.031 -0.1706  0.0246 -0.6974
  816MPD2    C412010   0.372   3.262   0.119  0.0762  0.5892 -0.0886
  816MPD2    C512011   0.358   3.269   0.254 -0.7024  0.0521  0.4825
  816MPD2     H12012   0.180   3.516   0.018  0.5252  0.4443  0.0160
  816MPD2    H112013   0.437   3.182   0.087  0.2567 -0.0005  1.7210
  816MPD2    H212014   0.260   3.363   0.412 -1.7864 -0.6969 -0.2202
  816MPD2    H312015   0.397   3.188   0.314  0.0647 -0.8108 -1.1836
  816MPD2     N12016   0.334   3.350  17.576 -0.7101 -0.2885  0.5094
  816MPD2    H512017   0.281   3.417  17.521  1.9034  0.9638 -0.4910
  816MPD2    N112018   0.123   3.553   0.288 -0.3411 -0.4342  0.2724
  816MPD2    H712019   0.125   3.569   0.389  2.2470 -2.2193  0.4968
  817MPD2     C12020   3.948   0.083  10.080 -0.8278 -0.0326  0.6797
  817MPD2    C112021   3.998   0.068   9.955  0.4143 -0.5318  0.2583
  817MPD2    C212022   4.005   0.174   9.867  0.5711  0.3307 -0.0883
  817MPD2    C312023   3.950   0.300   9.893  0.0404 -0.4937  0.3681
  817MPD2    C412024   3.892   0.314  10.021  0.2379 -0.2189 -0.8705
  817MPD2    C512025   3.890   0.208  10.107 -0.4423  0.1155 -0.3588
  817MPD2     H12026   4.061   0.160   9.775  0.5407 -2.5971  0.3441
  817MPD2    H112027   3.863   0.412  10.058 -0.9504 -1.7429  2.2042
  817MPD2    H212028   3.940   0.001  10.150  1.0200  1.1471  2.2713
  817MPD2    H312029   3.847   0.223  10.206  2.3676  0.4532  0.7993
  817MPD2     N12030   3.974   0.408   9.805 -0.0434  1.0289 -0.0985
  817MPD2    H512031   4.030   0.380   9.725  0.1072 -1.4004  0.8547
  817MPD2    N112032   4.047   4.668   9.904 -0.1766 -0.8068 -0.9157
  817MPD2    H712033   4.104   4.669   9.820 -2.1820 -1.0988 -2.2983
  818MPD2     C12034   3.166   3.975  10.235 -0.2066 -0.6742  0.1633
  818MPD2    C112035   3.203   3.970  10.369 -0.0774  0.2972 -0.4682
  818MPD2    C212036   3.237   3.842  10.421 -0.7880  0.1780  0.9511
  818MPD2    C312037   3.207   3.728  10.355  0.1212 -0.6580  0.3694
  818MPD2    C412038   3.150   3.738  10.231  0.5734  0.0143 -0.0263
  818MPD2    C512039   3.134   3.855  10.170  0.2378 -0.2622 -0.0167
  818MPD2     H12040   3.262   3.839  10.526  1.7275  1.1401  0.3870
  818MPD2    H112041   3.129   3.651  10.168 -0.1835  0.2259 -0.0687
  818MPD2    H212042   3.125   4.059  10.180 -1.4933 -2.8153 -2.1802
  818MPD2    H312043   3.104   3.851  10.066 -0.4796  0.4655  0.1606
  818MPD2     N12044   3.220   3.598  10.412  0.2014  0.0712  0.2356
  818MPD2    H512045   3.189   3.514  10.366  0.3002  0.3448 -0.3313
  818MPD2    N112046   3.194   4.078  10.452  0.3488  0.0185  0.1631
  818MPD2    H712047   3.208   4.068  10.552 -2.6362  2.0847  0.8036
  819MPD2     C12048   1.218   1.374  15.772 -0.5936 -0.2333  0.1516
  819MPD2    C112049   1.301   1.280  15.720  0.6153  0.0257  0.5036
  819MPD2    C212050   1.437   1.284  15.748  0.1243 -0.2778 -0.4281
  819MPD2    C312051   1.488   1.389  15.822 -0.0279  0.9002  0.5169
  819MPD2    C412052   1.400   1.484  15.864 -0.1593  0.8878  0.1670
  819MPD2    C512053   1.266   1.472  15.852  0.0178 -0.1415  0.2384
  819MPD2     H12054   1.494   1.195  15.724 -0.0352 -1.0406  1.9971
  819MPD2    H112055   1.431   1.577  15.910 -0.5459  0.9834  0.2358
  819MPD2    H212056   1.114   1.378  15.742 -0.0158 -0.5417 -1.8619
  819MPD2    H312057   1.205   1.553  15.889  0.2724  0.1080  0.1139
  819MPD2     N12058   1.624   1.408  15.854  0.0796 -0.1346 -0.0749
  819MPD2    H512059   1.693   1.347  15.812  1.4143  0.3850  1.4085
  819MPD2    N112060   1.242   1.179  15.640  0.1089  0.2277 -0.1232
  819MPD2    H712061   1.141   1.182  15.636  0.1041  0.2538  0.0448
  820MPD2     C12062   0.452   1.048  15.215 -0.4167 -0.7118  0.2186
  820MPD2    C112063   0.501   1.122  15.322  0.5223  0.3119  0.3150
  820MPD2    C212064   0.613   1.076  15.385 -0.2932 -0.1057  0.0014
  820MPD2    C312065   0.673   0.955  15.347 -0.1417 -0.9491  0.2925
  820MPD2    C412066   0.613   0.881  15.248 -0.3995  0.2887 -0.1077
  820MPD2    C512067   0.505   0.929  15.184  0.2474 -0.4621 -0.1020
  820MPD2     H12068   0.644   1.137  15.469  0.2569  1.9666 -1.6926
  820MPD2    H112069   0.654   0.784  15.221 -0.8236  0.3406 -0.9409
  820MPD2    H212070   0.366   1.079  15.156 -0.6226 -1.2132  0.2553
  820MPD2    H312071   0.463   0.868  15.105 -1.7880 -0.1451  0.7489
  820MPD2     N12072   0.785   0.899  15.414 -0.5483 -0.0118  0.4506
  820MPD2    H512073   0.826   0.818  15.369 -0.1127  1.0206 -1.0181
  820MPD2    N112074   0.434   1.249  15.345 -0.6792  0.2001  0.0826
  820MPD2    H712075   0.351   1.269  15.289  0.1669 -1.7751 -1.8679
  821MPD2     C12076   0.838   2.441  12.738  0.0978 -0.6472 -0.9229
  821MPD2    C112077   0.974   2.407  12.744  0.0974  0.6167 -0.2536
  821MPD2    C212078   1.062   2.504  12.774  0.2070  0.6905  0.2785
  821MPD2    C312079   1.030   2.635  12.810  0.3083  0.7520  0.3836
  821MPD2    C412080   0.899   2.674  12.789 -0.1803  0.5617  0.2546
  821MPD2    C512081   0.810   2.573  12.745  0.1473 -0.0165  0.2489
  821MPD2     H12082   1.166   2.473  12.770 -0.5555 -1.7357 -0.5422
  821MPD2    H112083   0.852   2.766  12.820 -2.0069 -0.3486  0.2056
  821MPD2    H212084   0.758   2.369  12.732 -1.6964  1.3405 -0.5974
  821MPD2    H312085   0.710   2.610  12.729  0.9060  1.6298 -0.7405
  821MPD2     N12086   1.118   2.732  12.865 -0.2296  0.1151 -0.2333
  821MPD2    H512087   1.083   2.827  12.875 -0.2321  0.0235  0.6297
  821MPD2    N112088   1.004   2.270  12.745 -0.4082  0.1691  0.6578
  821MPD2    H712089   0.926   2.206  12.743  2.0220 -2.7120 -2.5589
  822MPD2     C12090   1.544   2.868  16.068  0.3764 -0.4093  0.1589
  822MPD2    C112091   1.671   2.882  16.109 -0.7609 -0.3357  0.0718
  822MPD2    C212092   1.711   3.001  16.179 -0.8443  0.3149 -0.0616
  822MPD2    C312093   1.611   3.091  16.216  0.5651  0.3344 -0.3109
  822MPD2    C412094   1.484   3.072  16.162 -0.1329 -0.0980  0.0927
  822MPD2    C512095   1.453   2.961  16.094 -0.2340 -0.5931  0.7284
  822MPD2     H12096   1.809   3.011  16.226 -1.1596  3.9915 -0.1538
  822MPD2    H112097   1.404   3.144  16.174 -0.7088 -0.6362 -0.5495
  822MPD2    H212098   1.507   2.781  16.015 -1.5196 -0.4969  1.6085
  822MPD2    H312099   1.354   2.952  16.051 -0.3469  0.1303  0.8337
  822MPD2     N12100   1.654   3.206  16.284  0.5161 -0.4317 -0.2545
  822MPD2    H512101   1.752   3.214  16.306  1.3650 -0.8489 -3.8612
  822MPD2    N112102   1.764   2.773  16.115 -0.3083 -0.4632  0.2478
  822MPD2    H712103   1.844   2.776  16.177  1.4602 -0.9562 -1.9950
  823MPD2     C12104   1.881   3.573  17.046  0.0359  0.0689 -0.1795
  823MPD2    C112105   1.834   3.472  16.965 -0.1184  0.2799  0.2437
  823MPD2    C212106   1.837   3.341  17.011 -0.3021  0.1837 -0.4048
  823MPD2    C312107   1.877   3.308  17.139 -0.2326 -0.4006  0.4363
  823MPD2    C412108   1.926   3.409  17.220 -0.7622 -0.0783  0.1851
  823MPD2    C512109   1.929   3.541  17.171  0.3753 -0.4655 -0.0253
  823MPD2     H12110   1.812   3.262  16.941 -1.3434  0.4687 -0.3514
  823MPD2    H112111   1.967   3.388  17.318  2.9214  1.5616 -0.9803
  823MPD2    H212112   1.888   3.676  17.013 -1.4040 -0.3284 -1.7275
  823MPD2    H312113   1.988   3.617  17.221 -2.3982  1.1904  0.6922
  823MPD2     N12114   1.862   3.178  17.194  0.3015 -0.4839  0.3077
  823MPD2    H512115   1.883   3.171  17.293  2.3672  2.0004  0.0722
  823MPD2    N112116   1.791   3.502  16.833  0.4348  0.7525 -0.5392
  823MPD2    H712117   1.808   3.595  16.797 -0.1124  1.7729  1.8468
  824MPD2     C12118   2.135   2.097  15.751  0.0121 -0.6606 -0.0927
  824MPD2    C112119   2.203   2.174  15.847  0.7741 -0.2826  0.1596
  824MPD2    C212120   2.337   2.165  15.854 -0.0213  0.1674  0.4449
  824MPD2    C312121   2.410   2.098  15.757 -0.1644 -0.0006  0.5322
  824MPD2    C412122   2.348   2.020  15.672  0.0182 -0.7352  0.6004
  824MPD2    C512123   2.209   2.014  15.673 -0.1870 -0.6987 -0.7601
  824MPD2     H12124   2.386   2.220  15.933  1.0898 -1.3924  0.8181
  824MPD2    H112125   2.407   1.959  15.604 -1.4973 -2.4321  0.8049
  824MPD2    H212126   2.028   2.085  15.741 -0.0952 -0.5003  0.7814
  824MPD2    H312127   2.158   1.950  15.601 -1.7735 -0.2787  0.0047
  824MPD2     N12128   2.553   2.120  15.759  0.3583  0.4668 -0.0300
  824MPD2    H512129   2.585   2.207  15.800  0.1990 -0.5312  2.1734
  824MPD2    N112130   2.135   2.252  15.950  0.5552  0.1000  0.4521
  824MPD2    H712131   2.190   2.279  16.031  0.0844  0.1450  0.7578
  825MPD2     C12132   3.192   2.546  15.370 -0.2511  0.1452 -0.1533
  825MPD2    C112133   3.053   2.542  15.394 -0.1990  0.1736  0.4779
  825MPD2    C212134   2.970   2.621  15.325  0.2015 -1.0501  0.1035
  825MPD2    C312135   3.018   2.707  15.230 -1.0632 -0.6912 -0.3045
  825MPD2    C412136   3.160   2.717  15.209  0.6253 -0.0100 -0.6090
  825MPD2    C512137   3.245   2.626  15.275  0.6199  0.1786 -0.1408
  825MPD2     H12138   2.864   2.619  15.343  0.0619 -1.4601 -0.8065
  825MPD2    H112139   3.208   2.802  15.162  0.7901  0.2468  0.0341
  825MPD2    H212140   3.265   2.484  15.421 -0.8068 -0.1598  0.2628
  825MPD2    H312141   3.351   2.627  15.253  0.8205 -1.6894  0.7324
  825MPD2     N12142   2.935   2.793  15.154  0.4588 -0.2206 -0.1557
  825MPD2    H512143   2.986   2.869  15.109  1.0777 -0.9590 -0.6930
  825MPD2    N112144   3.023   2.445  15.495 -0.2469  0.0772 -0.2184
  825MPD2    H712145   3.107   2.405  15.535 -0.2334  0.1381 -0.1864
  826MPD2     C12146   2.984   2.299  13.670 -0.3674 -0.4670 -0.0079
  826MPD2    C112147   2.904   2.211  13.602  0.0665  0.9338  0.5151
  826MPD2    C212148   2.786   2.255  13.550 -0.2664 -0.4729  0.0383
  826MPD2    C312149   2.741   2.388  13.568  0.6239  0.2605  0.2245
  826MPD2    C412150   2.825   2.482  13.628  0.6316  0.2206 -0.7780
  826MPD2    C512151   2.948   2.434  13.675 -0.0783  0.4182  0.0899
  826MPD2     H12152   2.722   2.180  13.505 -0.8700  1.7371 -2.7966
  826MPD2    H112153   2.799   2.587  13.621  2.1966  0.6036 -0.7411
  826MPD2    H212154   3.080   2.266  13.708 -0.3275 -0.4430 -0.0879
  826MPD2    H312155   3.014   2.501  13.728  0.2071  0.1819  0.0346
  826MPD2     N12156   2.610   2.434  13.528 -0.2456 -0.4743 -0.0844
  826MPD2    H512157   2.595   2.533  13.517  2.9444 -0.1149 -1.3927
  826MPD2    N112158   2.924   2.068  13.602  0.3809 -0.0998 -0.3922
  826MPD2    H712159   2.844   2.019  13.564  1.0049 -2.2894  1.1196
  827MPD2     C12160   3.419   3.135  10.356 -0.0086 -1.1121  0.4360
  827MPD2    C112161   3.403   3.050  10.464  0.1020  0.3761 -0.0373
  827MPD2    C212162   3.296   2.962  10.465  0.1782 -0.2666 -0.3683
  827MPD2    C312163   3.204   2.953  10.359 -0.0344 -0.3607  0.1043
  827MPD2    C412164   3.220   3.037  10.249  0.0411  0.3462  0.1953
  827MPD2    C512165   3.320   3.128  10.254  1.2024  0.7854  0.2209
  827MPD2     H12166   3.285   2.902  10.554  3.3921 -1.1485 -0.5607
  827MPD2    H112167   3.156   3.022  10.162 -0.8342 -1.0431  1.0680
  827MPD2    H212168   3.503   3.202  10.342 -0.3480 -0.4153  1.7875
  827MPD2    H312169   3.342   3.185  10.165 -3.3106 -1.1493 -2.1391
  827MPD2     N12170   3.095   2.866  10.383 -0.6033  0.0542  0.2960
  827MPD2    H512171   3.100   2.791  10.451  3.2587  1.2097  1.3211
  827MPD2    N112172   3.500   3.071  10.567  0.5716 -0.4961 -0.1050
  827MPD2    H712173   3.569   3.143  10.549  0.0229 -0.6170 -2.6199
  828MPD2     C12174   1.661   2.784  12.767  0.0589 -1.0280 -0.1513
  828MPD2    C112175   1.691   2.876  12.670 -0.2975 -0.7180  0.3129
  828MPD2    C212176   1.821   2.899  12.640 -0.4741  0.0535  0.4587
  828MPD2    C312177   1.919   2.819  12.695  0.2979 -0.2728  0.0406
  828MPD2    C412178   1.888   2.723  12.787 -0.7484 -0.3608 -0.0567
  828MPD2    C512179   1.760   2.707  12.821  0.0602 -0.2793 -0.3345
  828MPD2     H12180   1.836   2.983  12.573  0.8834 -0.1755  0.4872
  828MPD2    H112181   1.967   2.662  12.828  0.2702  1.6580  0.9899
  828MPD2    H212182   1.559   2.761  12.797  0.2661 -2.0528 -0.2424
  828MPD2    H312183   1.743   2.629  12.895 -0.7577 -1.6195 -1.9277
  828MPD2     N12184   2.051   2.822  12.659 -0.1997  1.1401 -0.0887
  828MPD2    H512185   2.114   2.752  12.699 -1.7479 -0.7422 -0.9829
  828MPD2    N112186   1.596   2.961  12.613  0.2022 -0.5819  0.6045
  828MPD2    H712187   1.620   3.039  12.552 -2.1214  0.9134  1.5730
  829MPD2     C12188   1.719   3.560  11.998  0.7275 -0.5122 -0.0165
  829MPD2    C112189   1.580   3.566  12.007  0.6063  0.4199 -0.5939
  829MPD2    C212190   1.521   3.482  12.099  0.8322 -0.2764 -0.7692
  829MPD2    C312191   1.591   3.394  12.183 -0.6245  0.8166 -0.1009
  829MPD2    C412192   1.723   3.386  12.164 -0.4017 -0.3585 -0.1765
  829MPD2    C512193   1.787   3.477  12.083 -1.0453  0.3765 -0.0338
  829MPD2     H12194   1.414   3.472  12.084  0.8032 -0.2200 -0.5995
  829MPD2    H112195   1.786   3.323  12.226 -0.5124  0.6121  0.9215
  829MPD2    H212196   1.763   3.628  11.925  1.0829 -1.4437 -0.6736
  829MPD2    H312197   1.895   3.473  12.075 -1.0520  0.6421 -0.2739
  829MPD2     N12198   1.522   3.312  12.287  0.4982  0.1464 -1.0147
  829MPD2    H512199   1.588   3.265  12.349  1.5030 -0.0349 -2.1999
  829MPD2    N112200   1.513   3.655  11.916  0.2746  0.2424  0.1611
  829MPD2    H712201   1.577   3.700  11.852 -1.4728  2.7584  0.2127
  830MPD2     C12202   2.451   1.322  15.765  0.7154  0.5007 -0.6759
  830MPD2    C112203   2.350   1.393  15.719 -0.3596  0.1429  0.4029
  830MPD2    C212204   2.366   1.471  15.605 -0.7681  0.5959  0.0916
  830MPD2    C312205   2.484   1.472  15.530 -0.2411  0.4796  0.8741
  830MPD2    C412206   2.592   1.395  15.576  0.0255 -0.2212  0.2261
  830MPD2    C512207   2.573   1.338  15.698 -0.0334  0.2880  0.1450
  830MPD2     H12208   2.285   1.539  15.583  0.0865  0.7524 -2.5697
  830MPD2    H112209   2.678   1.368  15.515  0.9469  0.4346  1.2311
  830MPD2    H212210   2.452   1.281  15.866  1.9687 -0.9764 -1.2957
  830MPD2    H312211   2.651   1.270  15.732  0.9307  0.3979 -1.7942
  830MPD2     N12212   2.491   1.555  15.413  0.1388  0.4548 -0.6884
  830MPD2    H512213   2.408   1.607  15.383  1.3832  2.3494 -0.8332
  830MPD2    N112214   2.233   1.399  15.800 -0.1150  0.0361  0.0117
  830MPD2    H712215   2.243   1.350  15.888 -0.7756  1.3763  0.8301
  831MPD2     C12216   2.207   3.202  16.571  0.4627  0.4318 -0.2953
  831MPD2    C112217   2.118   3.163  16.472 -0.3851 -0.5419  0.5404
  831MPD2    C212218   1.996   3.107  16.501 -0.6845 -0.2875 -0.2333
  831MPD2    C312219   1.966   3.072  16.634  0.0913 -0.2615  0.1461
  831MPD2    C412220   2.043   3.138  16.729  0.0865  0.0910  0.0300
  831MPD2    C512221   2.163   3.195  16.700  0.5866  0.0503  0.4671
  831MPD2     H12222   1.929   3.063  16.428 -2.4923  1.3802  0.4063
  831MPD2    H112223   2.028   3.116  16.834 -1.5941  0.6851 -0.1018
  831MPD2    H212224   2.303   3.251  16.560  0.7726  0.0225  0.6055
  831MPD2    H312225   2.218   3.224  16.789  0.5551 -1.5513  1.0026
  831MPD2     N12226   1.857   2.991  16.665  0.0515 -0.4136 -0.2401
  831MPD2    H512227   1.831   2.977  16.762 -0.5308 -0.0724 -0.3480
  831MPD2    N112228   2.151   3.183  16.333 -0.2604 -0.0205 -0.8563
  831MPD2    H712229   2.246   3.203  16.302 -0.5275  0.7634 -1.1476
  832MPD2     C12230   0.919   4.114  17.434  0.5760  0.4516 -0.0398
  832MPD2    C112231   0.870   4.236  17.444  0.5814  0.5299  1.1761
  832MPD2    C212232   0.761   4.271  17.363  0.2727  0.0509  0.0915
  832MPD2    C312233   0.702   4.174  17.288 -0.5143  0.0825  0.1990
  832MPD2    C412234   0.757   4.044  17.277 -0.0724 -0.2741  0.1633
  832MPD2    C512235   0.861   4.017  17.360  0.7083 -0.5510 -0.1347
  832MPD2     H12236   0.693   4.354  17.379 -0.9368 -1.0086  0.4994
  832MPD2    H112237   0.710   3.963  17.222 -1.5390 -0.9841  2.4878
  832MPD2    H212238   0.999   4.086  17.501  0.7192  1.1664  0.0889
  832MPD2    H312239   0.899   3.916  17.361 -0.1996 -0.8801  0.5315
  832MPD2     N12240   0.583   4.196  17.213 -0.3030 -0.9375 -0.5735
  832MPD2    H512241   0.542   4.118  17.163  3.5263 -1.0785 -3.4871
  832MPD2    N112242   0.928   4.327  17.539  0.1911  0.8781  0.1447
  832MPD2    H712243   1.002   4.287  17.595  0.9213  0.9891 -0.7346
  833MPD2     C12244   2.552   0.447  12.458  0.2434 -0.4729  0.4641
  833MPD2    C112245   2.630   0.542  12.521 -0.7563  0.2089  0.6238
  833MPD2    C212246   2.749   0.584  12.463 -0.0067  0.7734 -0.3135
  833MPD2    C312247   2.793   0.532  12.339  0.1238 -0.5578  0.0910
  833MPD2    C412248   2.725   0.426  12.285 -0.3515  0.0475  0.8211
  833MPD2    C512249   2.604   0.390  12.345  0.7100 -0.0624 -0.2508
  833MPD2     H12250   2.809   0.661  12.511  0.1289  0.7117 -0.3857
  833MPD2    H112251   2.746   0.368  12.196 -1.5372  0.6121  0.1926
  833MPD2    H212252   2.454   0.418  12.496  0.8268  0.2913  2.5557
  833MPD2    H312253   2.547   0.315  12.292 -2.8944  1.3242  1.6800
  833MPD2     N12254   2.922   0.573  12.300  0.7376  0.0943  0.9915
  833MPD2    H512255   2.949   0.656  12.351 -0.1401  2.7962 -2.9895
  833MPD2    N112256   2.569   0.606  12.631  0.4044  0.0365  1.2866
  833MPD2    H712257   2.476   0.580  12.663  0.7248 -0.9933  1.3806
  834MPD2     C12258   3.008   0.821  11.374  0.4199  0.1141 -0.1654
  834MPD2    C112259   2.923   0.740  11.438  0.6429 -0.8658 -0.3893
  834MPD2    C212260   2.921   0.734  11.576 -0.4881  0.1128 -0.3623
  834MPD2    C312261   3.008   0.819  11.650  0.2125 -0.3398 -0.2202
  834MPD2    C412262   3.092   0.907  11.579  0.1885 -0.3808 -0.1647
  834MPD2    C512263   3.084   0.912  11.442 -0.1302  0.6827  0.1165
  834MPD2     H12264   2.855   0.667  11.629 -1.7122  0.5268 -1.3513
  834MPD2    H112265   3.157   0.986  11.614 -2.6872  0.6846  2.8122
  834MPD2    H212266   3.006   0.823  11.265 -0.4309  4.4297 -0.0928
  834MPD2    H312267   3.142   0.984  11.386  0.2584 -2.0213 -2.9546
  834MPD2     N12268   3.006   0.795  11.788 -0.0728 -0.2424 -0.5941
  834MPD2    H512269   2.943   0.724  11.821 -1.5602  1.0173 -0.7047
  834MPD2    N112270   2.846   0.647  11.364  0.0431  0.7527 -0.1617
  834MPD2    H712271   2.874   0.635  11.267  0.3784 -0.4902  0.0887
  835MPD2     C12272   2.653   3.211  11.410  0.2113 -0.5531 -0.5434
  835MPD2    C112273   2.554   3.306  11.397  0.0114 -0.1032  0.2081
  835MPD2    C212274   2.518   3.374  11.514 -0.3113 -0.2933 -0.2527
  835MPD2    C312275   2.568   3.344  11.639 -0.0867 -0.4539  0.0189
  835MPD2    C412276   2.677   3.253  11.643  0.7830 -0.7303  0.3119
  835MPD2    C512277   2.720   3.192  11.525 -0.1727  0.0258 -0.2725
  835MPD2     H12278   2.434   3.441  11.509  1.2894  1.5704 -2.1173
  835MPD2    H112279   2.726   3.229  11.737  1.4592 -0.9733 -0.1036
  835MPD2    H212280   2.698   3.170  11.321 -1.0208 -3.0330 -0.0016
  835MPD2    H312281   2.801   3.120  11.519 -0.0611  0.2407 -1.3491
  835MPD2     N12282   2.530   3.410  11.762 -1.2816 -0.2148 -0.5710
  835MPD2    H512283   2.556   3.370  11.852 -0.3338 -1.6474 -1.4852
  835MPD2    N112284   2.490   3.350  11.276 -0.3800  0.2274 -0.0144
  835MPD2    H712285   2.426   3.428  11.287 -0.6853  0.2823 -2.1525
  836MPD2     C12286   1.937   3.991  11.915 -0.5794 -0.5496 -0.1488
  836MPD2    C112287   1.941   3.873  11.988 -0.0498 -0.2698 -0.7240
  836MPD2    C212288   1.828   3.847  12.062  0.4218  0.2813  1.0029
  836MPD2    C312289   1.714   3.927  12.058 -0.7027 -0.0478  0.1437
  836MPD2    C412290   1.715   4.047  11.989 -0.0099  0.0205 -0.4816
  836MPD2    C512291   1.826   4.080  11.918  0.0935  0.3397  0.1727
  836MPD2     H12292   1.830   3.765  12.132 -2.6693  0.5037  1.3721
  836MPD2    H112293   1.636   4.121  12.003  1.0225  0.2425  4.0758
  836MPD2    H212294   2.026   4.019  11.861 -1.6909  1.2576 -1.0530
  836MPD2    H312295   1.838   4.174  11.865  2.4611  0.8151  1.5244
  836MPD2     N12296   1.594   3.899  12.133 -0.6471 -0.6207 -0.3229
  836MPD2    H512297   1.513   3.958  12.115 -0.8648 -0.5910  0.7708
  836MPD2    N112298   2.060   3.795  11.986 -0.1238 -0.4540 -0.2029
  836MPD2    H712299   2.132   3.826  11.922  0.4689  1.0627  1.1988
  837MPD2     C12300   0.261   3.482  10.218  0.6205  0.6438 -0.4149
  837MPD2    C112301   0.226   3.500  10.087 -0.3342  0.4053 -0.0698
  837MPD2    C212302   0.133   3.597  10.058  0.1497 -0.1940 -0.1392
  837MPD2    C312303   0.087   3.683  10.158  0.2435  0.3629  0.0362
  837MPD2    C412304   0.131   3.674  10.288 -0.4302 -0.0200 -0.0977
  837MPD2    C512305   0.215   3.572  10.317  0.1578 -0.0410 -0.1408
  837MPD2     H12306   0.096   3.606   9.956  0.6374  0.7207 -0.2421
  837MPD2    H112307   0.089   3.728  10.371 -3.2672 -0.8949 -0.9597
  837MPD2    H212308   0.342   3.416  10.244  1.0694  0.8529 -1.2753
  837MPD2    H312309   0.258   3.572  10.417 -1.4633  2.1160  0.5640
  837MPD2     N12310   4.703   3.774  10.116 -0.5571 -0.0745  0.4387
  837MPD2    H512311   4.683   3.763  10.017 -0.5502  0.5690  0.3621
  837MPD2    N112312   0.271   3.418   9.982 -0.1249  0.4288 -0.2426
  837MPD2    H712313   0.234   3.433   9.888  0.2585  1.3460 -0.2528
  838MPD2     C12314   3.875   0.660  10.983 -0.2087  0.2206 -0.1958
  838MPD2    C112315   3.877   0.784  11.052 -0.3785 -0.1904  0.4332
  838MPD2    C212316   3.798   0.804  11.162 -0.4004  0.3478  0.1253
  838MPD2    C312317   3.711   0.712  11.217 -0.6680  0.6830  0.4377
  838MPD2    C412318   3.715   0.588  11.152  0.0185 -0.1587  0.8234
  838MPD2    C512319   3.794   0.561  11.044 -0.6469  0.3045  0.6227
  838MPD2     H12320   3.812   0.896  11.217  3.5684  0.8871 -1.7958
  838MPD2    H112321   3.646   0.511  11.186 -1.0839  0.7368  0.6116
  838MPD2    H212322   3.926   0.640  10.889  1.1059  0.3691  0.4969
  838MPD2    H312323   3.791   0.465  10.993 -0.1718 -0.0540  1.2822
  838MPD2     N12324   3.619   0.755  11.321 -0.1336 -0.3750  0.3058
  838MPD2    H512325   3.624   0.854  11.341 -0.0584 -0.1106 -1.0226
  838MPD2    N112326   3.970   0.893  11.035 -0.0667 -0.6542 -0.7914
  838MPD2    H712327   3.947   0.969  11.097 -0.1019 -0.1801 -1.3820
  839MPD2     C12328   4.034   0.922  11.833 -0.1639  0.4979  0.1040
  839MPD2    C112329   3.997   0.834  11.731 -0.7985  0.1374 -0.2497
  839MPD2    C212330   4.053   0.845  11.605 -0.1332 -0.1148 -0.1123
  839MPD2    C312331   4.145   0.942  11.577 -0.1998 -0.0389  0.2493
  839MPD2    C412332   4.187   1.026  11.682 -0.0699  0.2783 -0.3142
  839MPD2    C512333   4.136   1.014  11.808  0.1987 -0.7548 -0.3461
  839MPD2     H12334   4.008   0.788  11.525 -0.3755 -2.2236  1.5331
  839MPD2    H112335   4.268   1.098  11.672  0.5591  0.2115  4.4856
  839MPD2    H212336   3.982   0.927  11.928  2.3356 -2.8399  1.6875
  839MPD2    H312337   4.175   1.075  11.888 -0.6257  0.2265 -0.6865
  839MPD2     N12338   4.192   0.945  11.445 -0.1108  0.4250 -0.3018
  839MPD2    H512339   4.153   0.868  11.392 -0.1956 -0.4067  0.9637
  839MPD2    N112340   3.911   0.725  11.752 -0.8415 -0.4019 -0.6633
  839MPD2    H712341   3.909   0.662  11.672  2.2606  0.4050 -1.3898
  840MPD2     C12342   3.729   3.583  10.629  0.3995  0.1674 -0.3045
  840MPD2    C112343   3.775   3.533  10.751  0.0122 -0.4401  0.0816
  840MPD2    C212344   3.822   3.616  10.847  0.1542  0.5587 -0.5391
  840MPD2    C312345   3.811   3.753  10.820  0.2314 -0.0185  0.2139
  840MPD2    C412346   3.762   3.801  10.699 -0.1016 -0.2492 -0.1525
  840MPD2    C512347   3.721   3.719  10.606 -1.2380  0.0184  0.1575
  840MPD2     H12348   3.884   3.588  10.931  0.9171  1.0694 -0.9353
  840MPD2    H112349   3.734   3.905  10.690  2.0442  0.3164 -0.2194
  840MPD2    H212350   3.708   3.516  10.546  2.4153  0.1122 -0.7691
  840MPD2    H312351   3.679   3.757  10.513 -0.0267  0.0210 -0.3824
  840MPD2     N12352   3.857   3.854  10.914  0.2679  0.0107 -0.2260
  840MPD2    H512353   3.865   3.952  10.891  2.0012  0.3033  1.6594
  840MPD2    N112354   3.777   3.398  10.756 -0.2878  0.7472 -0.3516
  840MPD2    H712355   3.750   3.347  10.673 -0.2527  1.8996 -1.0715
  841MPD2     C12356   4.000   3.629  15.177 -0.1179 -0.0951 -0.0957
  841MPD2    C112357   4.077   3.558  15.090 -0.0964 -0.6816  0.2509
  841MPD2    C212358   4.137   3.632  14.990 -0.2523 -0.1918 -0.2634
  841MPD2    C312359   4.143   3.770  14.981 -0.4799 -0.1327 -0.2261
  841MPD2    C412360   4.074   3.835  15.082  0.0612 -0.3843 -0.7925
  841MPD2    C512361   4.003   3.766  15.181 -0.0696 -0.1764 -0.0127
  841MPD2     H12362   4.182   3.571  14.912  0.7453  2.1533 -1.5495
  841MPD2    H112363   4.075   3.943  15.095  0.8332 -0.3485 -1.1297
  841MPD2    H212364   3.933   3.588  15.251  1.1620 -0.4234  0.8749
  841MPD2    H312365   3.948   3.812  15.263 -1.4151 -1.1785 -0.3559
  841MPD2     N12366   4.215   3.830  14.878 -0.4220 -0.0267  0.2343
  841MPD2    H512367   4.272   3.781  14.809 -0.0711 -0.1357  0.6020
  841MPD2    N112368   4.077   3.411  15.097  0.6308 -0.5872 -0.1537
  841MPD2    H712369   4.104   3.366  15.010 -0.7237  1.9201 -1.8794
  842MPD2     C12370   4.593   4.643  17.158  0.6543  0.3673  0.5430
  842MPD2    C112371   4.475   4.586  17.115 -0.8057 -0.3504 -0.5942
  842MPD2    C212372   4.393   4.514  17.195  0.0753 -0.3549  0.2428
  842MPD2    C312373   4.433   4.500  17.327 -0.3615  0.0370  0.1626
  842MPD2    C412374   4.554   4.551  17.370 -0.2190  0.3347  0.6319
  842MPD2    C512375   4.631   4.625  17.286  0.6552  0.1408  0.6212
  842MPD2     H12376   4.292   4.488  17.165 -0.0666 -0.4267  0.7931
  842MPD2    H112377   4.587   4.546  17.474 -1.7274 -2.7735  0.9509
  842MPD2    H212378   4.655   4.704  17.093  0.4492  0.7654  0.7228
  842MPD2    H312379   0.005   4.653  17.330  0.4004  0.5598  0.9013
  842MPD2     N12380   4.347   4.430  17.411  0.1236 -0.0457 -0.0609
  842MPD2    H512381   4.258   4.400  17.373 -0.7539  0.8688  1.2483
  842MPD2    N112382   4.439   4.617  16.981  0.2231 -0.0787 -0.0434
  842MPD2    H712383   4.495   4.684  16.928  2.0553 -1.0278  0.6808
  843MPD2     C12384   1.479   0.220   0.320 -0.1135  0.0352 -0.5026
  843MPD2    C112385   1.546   0.136   0.406 -0.1040  0.0722 -0.7425
  843MPD2    C212386   1.685   0.134   0.431  0.2994  0.0878 -0.0763
  843MPD2    C312387   1.756   0.239   0.372  1.0750  0.7400  0.3224
  843MPD2    C412388   1.689   0.329   0.284  1.0327 -0.3436  0.0547
  843MPD2    C512389   1.553   0.324   0.260 -0.5648  0.3602 -0.1005
  843MPD2     H12390   1.724   0.057   0.497 -0.4300 -1.2600 -1.2208
  843MPD2    H112391   1.745   0.411   0.240 -1.9787  2.8905  2.1994
  843MPD2    H212392   1.374   0.217   0.291 -0.5293 -0.8872  1.0791
  843MPD2    H312393   1.509   0.395   0.191  2.2839  1.3284 -0.9206
  843MPD2     N12394   1.893   0.265   0.396  0.2330  0.1896 -0.1464
  843MPD2    H512395   1.945   0.331   0.339  1.2742  0.5603  1.2556
  843MPD2    N112396   1.481   0.031   0.467 -0.0400 -0.2075  0.6023
  843MPD2    H712397   1.535   4.681   0.513  3.2303  1.3496 -0.8621
  844MPD2     C12398   0.604   4.718  16.688 -0.1823 -0.3090  0.6095
  844MPD2    C112399   0.611   4.603  16.747  0.8840 -0.3494  0.3157
  844MPD2    C212400   0.709   4.583  16.844  0.3553 -0.0546  0.2712
  844MPD2    C312401   0.810   4.677  16.863 -0.8892  0.4084 -0.4438
  844MPD2    C412402   0.806   0.074  16.793 -0.1017  0.3567  0.0610
  844MPD2    C512403   0.700   0.088  16.706  0.5091  0.0260 -0.1535
  844MPD2     H12404   0.718   4.491  16.899 -1.8718 -0.0318  0.6919
  844MPD2    H112405   0.867   0.161  16.811 -0.6595  0.3833  1.7836
  844MPD2    H212406   0.527   0.022  16.616  0.2042  0.2072  0.3836
  844MPD2    H312407   0.688   0.193  16.681 -1.5962  1.0099  4.8375
  844MPD2     N12408   0.902   4.649  16.965  0.1715  0.3840 -0.0513
  844MPD2    H512409   0.891   4.567  17.024  1.0064 -0.3388 -0.8863
  844MPD2    N112410   0.510   4.508  16.710  0.8892 -0.0448  0.1328
  844MPD2    H712411   0.427   4.535  16.659  1.1660 -0.4129 -0.5202
  845MPD2     C12412   1.143   0.478  17.681  0.8313  0.0394  0.2653
  845MPD2    C112413   1.106   0.498  17.550 -0.3324 -0.4654  0.1001
  845MPD2    C212414   1.144   0.404  17.457 -0.4274  0.5811  0.1393
  845MPD2    C312415   1.207   0.289  17.500  0.3990 -0.0978 -0.1397
  845MPD2    C412416   1.227   0.267  17.637  0.2689  0.7685  0.3601
  845MPD2    C512417   1.206   0.366   0.037  0.1825 -0.1796 -0.1375
  845MPD2     H12418   1.111   0.405  17.353  1.6092 -0.4186 -0.5252
  845MPD2    H112419   1.279   0.179  17.673  0.4822  0.3663 -0.9129
  845MPD2    H212420   1.103   0.548   0.066 -0.0126 -0.2748  0.0990
  845MPD2    H312421   1.231   0.356   0.142 -1.3623 -1.3464  0.1210
  845MPD2     N12422   1.218   0.186  17.402 -0.5381  0.1392  0.2018
  845MPD2    H512423   1.213   0.203  17.302  3.2993  1.0631  0.1661
  845MPD2    N112424   1.007   0.598  17.521  0.7414  0.0312  0.1111
  845MPD2    H712425   0.963   0.640  17.603 -1.1908  1.9912 -1.9299
  846MPD2     C12426   1.986   0.553  13.852 -0.1054  0.5731 -0.6958
  846MPD2    C112427   1.849   0.535  13.857 -0.2237  0.4946 -0.2721
  846MPD2    C212428   1.790   0.488  13.975 -0.3075  0.6251  0.3930
  846MPD2    C312429   1.868   0.459  14.078  0.4029  0.1700 -0.7102
  846MPD2    C412430   2.008   0.465  14.068 -0.9462 -0.1768 -0.2714
  846MPD2    C512431   2.062   0.510  13.954 -0.3677  0.5655  0.8499
  846MPD2     H12432   1.682   0.477  13.980 -0.0455 -0.2369  4.2808
  846MPD2    H112433   2.069   0.432  14.152 -0.2696 -2.5265 -1.6960
  846MPD2    H212434   2.038   0.597  13.768 -2.0180  1.8401 -1.2303
  846MPD2    H312435   2.170   0.521  13.946 -0.1912 -1.0641  1.0003
  846MPD2     N12436   1.805   0.401  14.190  0.2908 -0.7615  0.2162
  846MPD2    H512437   1.707   0.423  14.205  0.2394  0.7765 -2.2774
  846MPD2    N112438   1.783   0.551  13.733  0.0848 -0.4388  0.2088
  846MPD2    H712439   1.837   0.608  13.669 -2.2344  1.1050 -0.3339
  847MPD2     C12440   1.997   1.566  14.428 -0.3890 -0.1460 -0.2836
  847MPD2    C112441   2.087   1.669  14.426 -0.1863 -0.0637  0.1351
  847MPD2    C212442   2.222   1.633  14.422 -0.7866  0.4873  0.3911
  847MPD2    C312443   2.258   1.500  14.423  0.0714  0.0167  0.7004
  847MPD2    C412444   2.160   1.401  14.426 -0.0451  0.6745  0.1642
  847MPD2    C512445   2.029   1.431  14.425 -0.2794 -0.2415 -0.1887
  847MPD2     H12446   2.306   1.703  14.426 -0.6044  0.3941 -1.7521
  847MPD2    H112447   2.192   1.298  14.437 -0.0316  0.9917  3.0630
  847MPD2    H212448   1.893   1.588  14.450  0.2231  3.8644 -1.3337
  847MPD2    H312449   1.953   1.354  14.437 -0.9706  0.6563  1.2511
  847MPD2     N12450   2.398   1.481  14.437  0.2806 -0.2710  0.1630
  847MPD2    H512451   2.461   1.560  14.446  0.0756 -0.1309  0.3749
  847MPD2    N112452   2.046   1.802  14.419  0.1813 -0.0802  0.2484
  847MPD2    H712453   2.116   1.867  14.384  0.2240 -0.1343  0.2343
  848MPD2     C12454   0.099   4.559  16.697  0.0530 -0.4284  1.0428
  848MPD2    C112455   0.184   4.625  16.778  0.7283 -0.1068  0.2629
  848MPD2    C212456   0.233   0.024  16.736  0.0819  0.8165 -0.1813
  848MPD2    C312457   0.187   0.088  16.626  0.0534  0.3494  0.6946
  848MPD2    C412458   0.096   0.021  16.543 -0.7333  0.7360 -0.0605
  848MPD2    C512459   0.057   4.617  16.580 -0.1615  0.2561  0.1774
  848MPD2     H12460   0.304   0.086  16.790  0.2386 -0.9049  1.5539
  848MPD2    H112461   0.060   0.057  16.448 -0.5799 -0.3905 -0.5476
  848MPD2    H212462   0.058   4.459  16.705  3.2727 -1.9250 -1.0739
  848MPD2    H312463   4.712   4.568  16.510  0.2852 -0.0758 -0.0154
  848MPD2     N12464   0.238   0.212  16.573  0.3481  0.0165 -0.4143
  848MPD2    H512465   0.197   0.241  16.484  0.3046 -4.1333 -1.7689
  848MPD2    N112466   0.208   4.590  16.909 -0.2745 -0.4224  0.3809
  848MPD2    H712467   0.261   4.653  16.969  0.3782  0.3628 -0.9990
  849MPD2     C12468   4.133   4.391  14.804 -0.6059  0.6625  0.0045
  849MPD2    C112469   4.199   4.350  14.686  0.2579 -0.2560 -0.3088
  849MPD2    C212470   4.336   4.367  14.667 -0.2088  0.3111 -0.1953
  849MPD2    C312471   4.418   4.427  14.769  0.2039 -0.2657 -0.2247
  849MPD2    C412472   4.355   4.453  14.892  0.6006  0.3165  0.1221
  849MPD2    C512473   4.219   4.427  14.903 -0.0227 -0.1546 -0.7022
  849MPD2     H12474   4.384   4.334  14.575 -3.0261 -2.2250 -0.7371
  849MPD2    H112475   4.404   4.483  14.984  0.7755  0.6632 -0.0853
  849MPD2    H212476   4.026   4.380  14.822 -0.3953 -0.2375  0.6760
  849MPD2    H312477   4.173   4.437  15.000 -1.0361 -1.3397 -1.0571
  849MPD2     N12478   4.549   4.471  14.749 -0.1577 -0.6652 -0.7193
  849MPD2    H512479   4.598   4.518  14.825  0.7386 -2.7953  0.0003
  849MPD2    N112480   4.119   4.303  14.581 -0.1724  0.2163  0.2744
  849MPD2    H712481   4.020   4.326  14.588 -0.0250  1.3879 -1.5786
  850MPD2     C12482   1.750   1.974  14.866  0.1422 -0.3152  0.1708
  850MPD2    C112483   1.706   2.080  14.949  0.7118 -0.1742  0.4436
  850MPD2    C212484   1.781   2.200  14.956  0.1957  0.0862  0.2262
  850MPD2    C312485   1.904   2.198  14.895 -0.0560  0.1259 -0.2233
  850MPD2    C412486   1.945   2.095  14.821  0.5696  0.3681  1.2295
  850MPD2    C512487   1.871   1.977  14.812 -0.3965 -0.6973 -0.7213
  850MPD2     H12488   1.742   2.292  14.998 -2.6934 -1.4772  0.9372
  850MPD2    H112489   2.048   2.093  14.786  0.1232  1.2285 -0.1219
  850MPD2    H212490   1.693   1.882  14.860 -0.6140  0.1849 -0.4181
  850MPD2    H312491   1.910   1.885  14.770  1.8446  0.4638 -1.1757
  850MPD2     N12492   1.998   2.302  14.923 -0.5302  0.7823 -0.3991
  850MPD2    H512493   2.092   2.281  14.890  0.4098  2.1524  1.3136
  850MPD2    N112494   1.586   2.066  15.013  0.7602 -0.9278  0.1833
  850MPD2    H712495   1.529   1.993  14.972  2.0201 -2.3502  0.9407
  851MPD2     C12496   2.247   2.369  15.484  0.5624 -0.4696 -0.5561
  851MPD2    C112497   2.174   2.284  15.407 -0.1219 -0.9432 -0.0204
  851MPD2    C212498   2.248   2.193  15.331 -0.5775  0.1812 -0.7287
  851MPD2    C312499   2.387   2.177  15.343 -0.2980 -0.0893  0.7901
  851MPD2    C412500   2.454   2.273  15.420  0.1931  0.0161 -0.7211
  851MPD2    C512501   2.385   2.365  15.496  0.4333  0.2126  0.6358
  851MPD2     H12502   2.195   2.131  15.260  0.2218 -1.5262  0.1461
  851MPD2    H112503   2.560   2.274  15.442 -0.5816 -0.9409  3.1536
  851MPD2    H212504   2.205   2.457  15.532  0.4518  0.0205 -1.5582
  851MPD2    H312505   2.429   2.431  15.569  0.2543 -0.7734  1.6424
  851MPD2     N12506   2.450   2.070  15.278  0.3317 -0.8149  0.0699
  851MPD2    H512507   2.390   2.004  15.230  0.4785 -1.1385  0.3302
  851MPD2    N112508   2.030   2.288  15.414 -0.2669  0.3451 -0.1433
  851MPD2    H712509   2.001   2.353  15.486  2.0856  0.5027  0.6444
  852MPD2     C12510   1.481   4.173  10.273 -0.1708 -0.7574 -0.1750
  852MPD2    C112511   1.559   4.237  10.360  0.3723  0.0745  0.0210
  852MPD2    C212512   1.597   4.365  10.335  0.5351  0.2413  0.2768
  852MPD2    C312513   1.573   4.430  10.212 -0.0919 -0.1615 -0.7184
  852MPD2    C412514   1.504   4.357  10.114 -0.2194 -0.1004  0.2451
  852MPD2    C512515   1.461   4.229  10.149 -0.4059 -0.0985 -0.3468
  852MPD2     H12516   1.655   4.423  10.407 -0.6840  2.3583 -0.4492
  852MPD2    H112517   1.478   4.388  10.013  0.0618  1.9992  0.8285
  852MPD2    H212518   1.438   4.074  10.288 -1.6115  0.0303  0.9732
  852MPD2    H312519   1.398   4.179  10.077  1.6408 -1.9968 -0.8212
  852MPD2     N12520   1.617   4.560  10.203 -0.4134 -0.7205 -0.6486
  852MPD2    H512521   1.648   4.613  10.283 -0.5260 -1.2224 -0.2719
  852MPD2    N112522   1.594   4.181  10.486 -0.7438 -0.0052  0.0462
  852MPD2    H712523   1.640   4.239  10.555  0.6194 -1.0932  0.0393
  853MPD2     C12524   3.027   0.226  12.588 -0.2722  0.1892  0.6552
  853MPD2    C112525   3.124   0.131  12.578  0.7377  0.2636 -0.7292
  853MPD2    C212526   3.153   0.073  12.457 -0.4259 -0.1552 -0.6901
  853MPD2    C312527   3.088   0.103  12.341 -0.1075  0.0199 -0.2330
  853MPD2    C412528   2.986   0.199  12.352  0.0385 -0.5608  0.0510
  853MPD2    C512529   2.962   0.255  12.471 -0.2082 -0.3448 -0.6198
  853MPD2     H12530   3.225   4.713  12.458  0.5260  0.7024  1.0481
  853MPD2    H112531   2.942   0.226  12.257 -0.1018  3.0885  1.1356
  853MPD2    H212532   3.001   0.276  12.681 -1.2510  1.9217 -0.5417
  853MPD2    H312533   2.886   0.332  12.482  2.6324  2.2809  0.7190
  853MPD2     N12534   3.109   0.048  12.206 -0.5691 -0.0021  0.4202
  853MPD2    H512535   3.042   0.065  12.131 -0.0563  0.6115  0.1047
  853MPD2    N112536   3.180   0.080  12.693 -0.1469  0.0020  0.0316
  853MPD2    H712537   3.148   0.132  12.774 -0.9525 -1.7828  0.8440
  854MPD2     C12538   0.009   4.402  13.177  0.2026  0.2996 -0.1527
  854MPD2    C112539   0.099   4.503  13.186 -0.2429  0.9999  0.7512
  854MPD2    C212540   0.235   4.480  13.202 -1.3305  0.6563 -0.5442
  854MPD2    C312541   0.277   4.353  13.217 -0.1608  0.4348  0.2413
  854MPD2    C412542   0.185   4.247  13.227  0.8671  0.3617 -0.4652
  854MPD2    C512543   0.051   4.278  13.204  0.6015 -0.4500 -0.1228
  854MPD2     H12544   0.300   4.566  13.205  1.7138 -1.8043  2.8812
  854MPD2    H112545   0.212   4.142  13.232  0.8092  0.3270 -0.8612
  854MPD2    H212546   4.625   4.429  13.179 -0.1309 -1.0871  1.0668
  854MPD2    H312547   4.699   4.198  13.200 -0.3932  0.3428  2.4948
  854MPD2     N12548   0.418   4.318  13.227 -0.3089  0.2610 -0.1671
  854MPD2    H512549   0.435   4.218  13.221 -1.0310  0.0887  0.7759
  854MPD2    N112550   0.039   4.634  13.185  0.7530 -0.8871  0.0303
  854MPD2    H712551   4.659   4.640  13.183  0.7939 -1.3644 -2.4993
  855MPD2     C12552   1.323   4.083  13.649  0.4603  0.5354 -0.9519
  855MPD2    C112553   1.205   4.137  13.699 -0.7313 -0.5433  0.6580
  855MPD2    C212554   1.138   4.208  13.598  0.0166 -0.2369  0.1958
  855MPD2    C312555   1.164   4.185  13.470 -0.2458 -0.2865 -0.0928
  855MPD2    C412556   1.279   4.117  13.425  0.1514 -0.0806  0.2334
  855MPD2    C512557   1.365   4.072  13.517  0.3400  0.1156  0.2009
  855MPD2     H12558   1.044   4.254  13.625  1.3191  2.3301  0.3507
  855MPD2    H112559   1.310   4.094  13.324 -2.2788 -0.6524 -0.3769
  855MPD2    H212560   1.398   4.052  13.722  1.2963 -0.1416 -2.0854
  855MPD2    H312561   1.457   4.020  13.493 -0.2164 -2.7037  4.2084
  855MPD2     N12562   1.069   4.217  13.363 -0.3201  0.3247  0.0850
  855MPD2    H512563   1.081   4.166  13.276  0.1943  1.1101 -0.2995
  855MPD2    N112564   1.174   4.122  13.835  0.2918 -0.6455  0.3065
  855MPD2    H712565   1.225   4.058  13.893 -0.2513  0.0502  1.5489
  856MPD2     C12566   3.096   0.607  13.566 -0.0336 -1.1578  0.3400
  856MPD2    C112567   3.080   0.701  13.666  0.5117 -0.1166 -0.5256
  856MPD2    C212568   2.964   0.774  13.681 -0.4008  0.7657 -0.2273
  856MPD2    C312569   2.862   0.756  13.592  0.8211 -0.0503  0.4562
  856MPD2    C412570   2.874   0.652  13.498  0.6706 -0.3768 -0.0691
  856MPD2    C512571   2.988   0.578  13.489 -0.7051 -0.1191 -0.7450
  856MPD2     H12572   2.968   0.841  13.765  0.4128 -0.3316  0.6139
  856MPD2    H112573   2.803   0.626  13.421  0.5924  0.0058 -0.1227
  856MPD2    H212574   3.177   0.540  13.540  0.7403  0.8182 -2.2992
  856MPD2    H312575   3.014   0.501  13.417 -0.1023  0.0466 -0.7000
  856MPD2     N12576   2.747   0.836  13.588 -0.3625  0.2825  0.2568
  856MPD2    H512577   2.669   0.791  13.542  1.0120 -2.1336  0.2970
  856MPD2    N112578   3.181   0.735  13.760 -0.2600  0.1147  0.6281
  856MPD2    H712579   3.151   0.804  13.828 -2.2340 -0.6026  0.4931
  857MPD2     C12580   4.103   2.761  12.627 -0.2139  0.0814 -0.5129
  857MPD2    C112581   4.227   2.767  12.690 -0.3855 -0.5026  0.8647
  857MPD2    C212582   4.259   2.878  12.769  0.8990  0.1891  0.5499
  857MPD2    C312583   4.166   2.986  12.783 -0.0733 -0.0939  0.7351
  857MPD2    C412584   4.052   2.982  12.709 -0.6341  0.3732 -0.3465
  857MPD2    C512585   4.018   2.870  12.638 -0.8476 -0.4370 -0.3241
  857MPD2     H12586   4.353   2.882  12.825  1.3623  0.3570 -0.2487
  857MPD2    H112587   3.985   3.066  12.696  0.4248  1.4399  1.1737
  857MPD2    H212588   4.073   2.681  12.560 -3.3944  0.2646  0.7076
  857MPD2    H312589   3.929   2.865  12.576 -1.3878 -0.2745  0.4401
  857MPD2     N12590   4.201   3.092  12.865  0.3603  0.3511  0.5062
  857MPD2    H512591   4.271   3.064  12.933  0.8914  0.6935  0.1061
  857MPD2    N112592   4.308   2.654  12.697  0.6865  0.0238 -0.2527
  857MPD2    H712593   4.272   2.563  12.671 -0.1460  0.1548  0.4231
  858MPD2     C12594   0.778   1.831  17.031  0.9635  0.0748 -0.6065
  858MPD2    C112595   0.865   1.736  17.086  0.5177  0.0107 -0.2817
  858MPD2    C212596   0.911   1.751  17.215 -0.2823 -0.0958 -0.1910
  858MPD2    C312597   0.871   1.864  17.290  0.1561  0.6219 -0.3600
  858MPD2    C412598   0.782   1.959  17.238  0.0217  0.1343  0.5445
  858MPD2    C512599   0.735   1.939  17.107  0.6277 -0.7126  0.3090
  858MPD2     H12600   0.974   1.675  17.260  0.4520  0.7945  0.2568
  858MPD2    H112601   0.757   2.052  17.286  0.4254 -0.2297  1.4506
  858MPD2    H212602   0.739   1.828  16.930  1.4540 -1.3599 -0.7627
  858MPD2    H312603   0.670   2.017  17.071  1.5754 -0.4063 -0.7524
  858MPD2     N12604   0.919   1.882  17.424 -0.8713  0.3357  0.4661
  858MPD2    H512605   0.894   1.972  17.464 -0.1524  0.8375 -0.2180
  858MPD2    N112606   0.913   1.619  17.015  0.1414 -0.5806  0.6232
  858MPD2    H712607   0.982   1.559  17.059 -1.2897  0.7534  4.6900
  859MPD2     C12608   3.904   3.856  15.556  0.6928  0.8441  0.5842
  859MPD2    C112609   4.024   3.891  15.504 -0.9285  1.0457  0.0541
  859MPD2    C212610   4.125   3.790  15.497  0.1788  0.9392  0.2535
  859MPD2    C312611   4.103   3.664  15.550 -0.2981  0.3961 -0.1268
  859MPD2    C412612   3.975   3.642  15.605 -0.6037  0.4534 -0.0157
  859MPD2    C512613   3.880   3.735  15.600 -0.5852 -0.8142  0.6259
  859MPD2     H12614   4.225   3.807  15.459  0.0644  0.2169 -0.3580
  859MPD2    H112615   3.957   3.544  15.647  1.9866  0.7240  1.7286
  859MPD2    H212616   3.827   3.932  15.565  0.8915  0.9866  1.1332
  859MPD2    H312617   3.780   3.720  15.639 -0.8534 -1.4839 -0.3110
  859MPD2     N12618   4.188   3.551  15.529  0.3620  0.1344 -0.1240
  859MPD2    H512619   4.157   3.466  15.574 -1.8676 -0.0014 -1.9108
  859MPD2    N112620   4.029   4.012  15.446 -1.1331 -0.6199 -0.3208
  859MPD2    H712621   3.943   4.055  15.415  0.2897  1.7043 -1.0540
  860MPD2     C12622   1.416   4.320  11.864 -0.1696 -0.5892 -0.2687
  860MPD2    C112623   1.396   4.392  11.973  0.2034  0.0191 -0.3169
  860MPD2    C212624   1.275   4.391  12.030  0.1327  0.0570 -0.3977
  860MPD2    C312625   1.175   4.314  11.991  0.4447 -0.5527 -1.0645
  860MPD2    C412626   1.196   4.231  11.888 -0.4783 -0.2308 -0.5399
  860MPD2    C512627   1.314   4.234  11.823  0.4910 -0.5413 -0.4732
  860MPD2     H12628   1.257   4.476  12.094 -1.1857 -1.4646  1.2570
  860MPD2    H112629   1.125   4.168  11.836 -0.2136 -0.2760 -0.8467
  860MPD2    H212630   1.501   4.333  11.797 -0.6240  3.0337 -0.1251
  860MPD2    H312631   1.329   4.172  11.736  2.1869  0.7016 -1.0574
  860MPD2     N12632   1.052   4.322  12.063 -0.2095 -0.0492  0.5776
  860MPD2    H512633   1.043   4.377  12.147  0.5600 -0.5948  1.0118
  860MPD2    N112634   1.488   4.488  12.015 -0.1318  0.5472 -0.5329
  860MPD2    H712635   1.472   4.530  12.106  0.3085 -2.4122  0.8923
  861MPD2     C12636   4.641   2.617  11.177  0.5215 -0.5399  0.0454
  861MPD2    C112637   4.651   2.751  11.184  0.2448  0.1176  0.3187
  861MPD2    C212638   4.562   2.831  11.108  0.6229  0.0988 -0.0738
  861MPD2    C312639   4.474   2.775  11.026 -0.2938 -0.5801  0.4166
  861MPD2    C412640   4.473   2.644  11.004 -0.8212  0.1023 -0.0180
  861MPD2    C512641   4.552   2.561  11.086  0.0795  0.1973  0.1440
  861MPD2     H12642   4.581   2.937  11.121  1.4439 -0.1376  0.6641
  861MPD2    H112643   4.409   2.593  10.934 -0.2857  1.2638 -1.3445
  861MPD2    H212644   4.699   2.546  11.234 -0.0874  0.5888  2.0695
  861MPD2    H312645   4.557   2.455  11.063 -0.6356  0.2743 -0.3787
  861MPD2     N12646   4.381   2.855  10.956  0.5180 -0.2184 -0.5486
  861MPD2    H512647   4.331   2.816  10.876  0.8202  1.6670 -1.6503
  861MPD2    N112648   0.019   2.814  11.271  0.3724 -0.0433 -0.3027
  861MPD2    H712649   0.024   2.915  11.274  1.2086 -0.1422  1.3075
  862MPD2     C12650   4.308   3.118  10.248  0.3810  1.2845 -0.4779
  862MPD2    C112651   4.362   3.046  10.357  0.1384  0.0725 -0.1639
  862MPD2    C212652   4.442   2.938  10.332 -0.3593  0.2063  0.3212
  862MPD2    C312653   4.463   2.896  10.206 -0.3633  0.2976 -0.6196
  862MPD2    C412654   4.413   2.958  10.098 -0.3002 -0.0511  0.5462
  862MPD2    C512655   4.342   3.075  10.122 -0.0292 -0.9970 -0.2334
  862MPD2     H12656   4.477   2.883  10.418 -1.5856  0.6730  1.1226
  862MPD2    H112657   4.425   2.925   9.996 -1.6468  0.4491  0.2257
  862MPD2    H212658   4.253   3.210  10.266 -0.4021  0.4329  1.4163
  862MPD2    H312659   4.310   3.139  10.041 -0.4929 -0.9346 -0.0013
  862MPD2     N12660   4.558   2.796  10.179  0.0321  0.3535 -0.1419
  862MPD2    H512661   4.572   2.764  10.084 -0.4766  0.9005 -0.4013
  862MPD2    N112662   4.339   3.072  10.493  0.1677 -0.4263 -0.0593
  862MPD2    H712663   4.398   3.007  10.543 -1.5600 -0.9614  1.3004
  863MPD2     C12664   3.737   1.293  17.368 -0.3170 -0.2588  0.3887
  863MPD2    C112665   3.774   1.189  17.286  0.1194 -0.4059 -0.0768
  863MPD2    C212666   3.906   1.145  17.280  0.2570  0.5042 -0.3354
  863MPD2    C312667   4.005   1.222  17.337  0.4330  0.2210 -0.4572
  863MPD2    C412668   3.969   1.335  17.409 -0.4209  0.8832 -0.4775
  863MPD2    C512669   3.839   1.366  17.425 -0.0111 -0.8675  0.1840
  863MPD2     H12670   3.925   1.053  17.226  1.2636  1.4420 -1.5814
  863MPD2    H112671   4.045   1.394  17.459 -0.3617  0.7870 -0.4525
  863MPD2    H212672   3.634   1.322  17.385  0.6516  1.2679  3.5989
  863MPD2    H312673   3.818   1.452  17.488 -0.1414 -1.9780  1.6703
  863MPD2     N12674   4.142   1.175  17.340  0.2147 -0.1935 -0.5592
  863MPD2    H512675   4.213   1.228  17.389  1.3987 -3.6568  1.4405
  863MPD2    N112676   3.673   1.124  17.212 -0.3222  0.0480 -0.5185
  863MPD2    H712677   3.584   1.170  17.228  0.1156  1.0892 -1.0899
  864MPD2     C12678   0.040   2.488  17.102  0.1375 -0.1690 -0.0281
  864MPD2    C112679   0.001   2.414  16.989  0.3310  0.5016 -0.0788
  864MPD2    C212680   4.687   2.482  16.869 -0.4383  0.7515  0.6045
  864MPD2    C312681   4.679   2.622  16.865  0.2384 -0.5276  0.2819
  864MPD2    C412682   0.010   2.693  16.973  0.1854 -0.8502  0.3171
  864MPD2    C512683   0.042   2.631  17.089 -0.2389 -0.4372  0.7788
  864MPD2     H12684   4.669   2.430  16.775 -1.0333  3.9491 -1.0605
  864MPD2    H112685   0.013   2.802  16.969 -2.0128 -0.8232 -0.6427
  864MPD2    H212686   0.070   2.438  17.193 -1.2116 -0.8700  0.0340
  864MPD2    H312687   0.063   2.695  17.174 -0.6894 -0.9084  1.2484
  864MPD2     N12688   4.641   2.693  16.749  0.0189  0.3022 -0.1078
  864MPD2    H512689   4.687   2.780  16.724 -2.5454  1.3563 -1.1254
  864MPD2    N112690   0.005   2.271  16.988  0.1568 -0.1951 -0.2010
  864MPD2    H712691   0.042   2.236  17.077 -1.5734 -0.8789  0.2456
  865MPD2     C12692   3.920   2.223  16.255 -0.3243  0.1546  0.2114
  865MPD2    C112693   4.043   2.187  16.199  0.2195  0.3519  0.5775
  865MPD2    C212694   4.156   2.261  16.227  0.1080 -0.6146  0.1435
  865MPD2    C312695   4.150   2.371  16.311 -0.1495 -0.1247 -0.4564
  865MPD2    C412696   4.028   2.405  16.354 -0.0485  0.0709  0.3662
  865MPD2    C512697   3.915   2.331  16.334  0.1490  0.0932 -0.7912
  865MPD2     H12698   4.239   2.244  16.160  1.7412  0.6886  1.8549
  865MPD2    H112699   4.019   2.479  16.433  0.3411  1.8141 -1.2432
  865MPD2    H212700   3.835   2.162  16.228  0.3983 -1.7819  2.3660
  865MPD2    H312701   3.823   2.367  16.380 -0.9290 -0.4525 -2.5100
  865MPD2     N12702   4.264   2.449  16.347 -0.0126 -0.1895  0.2242
  865MPD2    H512703   4.248   2.536  16.396 -1.8299 -1.0821  1.2368
  865MPD2    N112704   4.057   2.083  16.112  0.1197  0.4931  0.8307
  865MPD2    H712705   4.154   2.070  16.088  0.3879  3.2488  0.4165
  866MPD2     C12706   0.624   3.657  11.361  1.0887  0.5021  0.9872
  866MPD2    C112707   0.575   3.658  11.232  0.7875 -0.3937 -0.2109
  866MPD2    C212708   0.445   3.615  11.210  0.3299 -0.6071 -0.9545
  866MPD2    C312709   0.351   3.587  11.308  0.6670 -1.0990 -0.9070
  866MPD2    C412710   0.401   3.600  11.437 -0.7177 -1.1795  0.2228
  866MPD2    C512711   0.533   3.631  11.461 -0.2184 -0.8075  0.2850
  866MPD2     H12712   0.409   3.623  11.108 -0.2395 -0.6484 -0.7613
  866MPD2    H112713   0.334   3.588  11.521 -1.1077  0.5743  0.1803
  866MPD2    H212714   0.731   3.655  11.381  1.6423  0.2463 -1.9805
  866MPD2    H312715   0.564   3.629  11.565  0.2116 -0.6835  0.1604
  866MPD2     N12716   0.215   3.558  11.284 -0.0483  0.3778  0.5354
  866MPD2    H512717   0.159   3.538  11.366  0.0402 -1.9932  0.0363
  866MPD2    N112718   0.663   3.687  11.131  0.6864  0.1119 -0.3737
  866MPD2    H712719   0.756   3.715  11.161  0.4528  1.4601 -0.9038
  867MPD2     C12720   3.017   2.192  17.339 -0.0931  0.0440  0.0397
  867MPD2    C112721   3.082   2.159  17.461 -0.1062  0.6467 -0.0726
  867MPD2    C212722   3.056   2.227  17.577 -0.5374 -0.2579  0.5745
  867MPD2    C312723   2.981   2.344  17.571  0.4864 -0.2170  0.4374
  867MPD2    C412724   2.922   2.382  17.459 -0.4048 -0.0603  0.2338
  867MPD2    C512725   2.934   2.301  17.351 -0.4669 -0.2070 -0.0480
  867MPD2     H12726   3.091   2.190  17.672  0.4760 -3.5735 -1.0641
  867MPD2    H112727   2.878   2.479  17.437  0.2038  0.1240 -0.1653
  867MPD2    H212728   3.028   2.131  17.250  0.7177  3.6394 -2.3298
  867MPD2    H312729   2.873   2.319  17.263 -2.0275 -0.6903  0.9216
  867MPD2     N12730   2.964   2.435  17.678  0.2681 -0.3345 -0.0930
  867MPD2    H512731   2.935   2.528  17.651 -1.2799 -0.3858  1.3892
  867MPD2    N112732   3.158   2.042  17.459 -0.0291  0.1481  0.0705
  867MPD2    H712733   3.158   1.989  17.373 -1.8856 -0.5563  0.5093
  868MPD2     C12734   0.340   0.651  13.636  0.2504  0.1623 -0.5218
  868MPD2    C112735   0.359   0.780  13.608 -0.3066  0.1757 -0.2008
  868MPD2    C212736   0.302   0.878  13.688 -0.1168  0.2491 -0.5029
  868MPD2    C312737   0.213   0.832  13.786 -0.2476 -1.0547  0.2186
  868MPD2    C412738   0.181   0.699  13.806 -0.1377  0.2560  0.0872
  868MPD2    C512739   0.259   0.611  13.736  0.2182 -0.1825 -0.2009
  868MPD2     H12740   0.329   0.983  13.686 -2.2125  0.8143  1.3749
  868MPD2    H112741   0.111   0.655  13.876 -0.3751  0.7143  0.1336
  868MPD2    H212742   0.385   0.563  13.591 -2.4939 -1.3232 -0.4178
  868MPD2    H312743   0.245   0.504  13.748 -0.3531 -0.0238  0.5289
  868MPD2     N12744   0.158   0.926  13.878 -0.3518 -0.4908  0.0792
  868MPD2    H512745   0.200   1.018  13.881  1.3102 -1.1497 -2.8240
  868MPD2    N112746   0.447   0.810  13.505  0.0411 -0.1775  0.1627
  868MPD2    H712747   0.502   0.736  13.463 -1.5723 -0.5991 -1.2061
  869MPD2     C12748   2.021   4.592   2.247 -0.2146  0.5595 -0.0246
  869MPD2    C112749   1.965   4.492   2.173  0.4541 -0.1113  0.2993
  869MPD2    C212750   1.928   4.505   2.041  0.4569 -0.2266  0.5805
  869MPD2    C312751   1.963   4.627   1.984  0.2828 -0.5106 -0.4215
  869MPD2    C412752   2.015   0.012   2.055 -0.3271  0.1807 -0.0988
  869MPD2    C512753   2.033   4.715   2.184 -0.2235  0.5585  0.3577
  869MPD2     H12754   1.904   4.418   1.981 -0.0265  0.7261 -0.6015
  869MPD2    H112755   2.035   0.110   2.014  1.8732 -0.9259 -1.6850
  869MPD2    H212756   2.052   4.581   2.350  0.2943 -2.7044 -0.5200
  869MPD2    H312757   2.090   0.078   2.220  1.8318 -0.1421 -1.2035
  869MPD2     N12758   1.938   4.659   1.847 -0.6698 -0.1180  0.2774
  869MPD2    H512759   1.980   0.023   1.813  0.1303 -1.5724 -2.4012
  869MPD2    N112760   1.937   4.375   2.245 -0.0873  0.8309 -0.4044
  869MPD2    H712761   1.980   4.381   2.336 -0.7508 -3.2207  0.1515
  870MPD2     C12762   0.900   2.604   2.012  0.1573  0.5480 -0.1773
  870MPD2    C112763   1.008   2.693   2.021  0.7167  0.1902  0.5366
  870MPD2    C212764   0.989   2.830   1.993  0.3715  0.1122 -0.0732
  870MPD2    C312765   0.863   2.873   1.966 -0.1586 -0.5186  0.6809
  870MPD2    C412766   0.759   2.783   1.955  0.2502  0.4209 -0.4935
  870MPD2    C512767   0.776   2.652   1.982  0.2571  0.0381  0.7152
  870MPD2     H12768   1.071   2.895   2.019  0.1682 -0.3072  1.6711
  870MPD2    H112769   0.661   2.813   1.919  0.3155  1.8342  0.4846
  870MPD2    H212770   0.915   2.498   2.027 -0.4849  0.7205  1.6556
  870MPD2    H312771   0.696   2.580   1.970  0.9982 -0.5438 -0.7942
  870MPD2     N12772   0.846   3.009   1.947  0.5620 -0.6417  0.3080
  870MPD2    H512773   0.927   3.062   1.918 -2.2539  1.0851 -4.3939
  870MPD2    N112774   1.130   2.631   2.054  0.5546 -0.1351 -0.4064
  870MPD2    H712775   1.130   2.532   2.075 -1.7582  0.2396  1.2819
  871MPD2     C12776   1.858   2.478  16.813  0.1281 -0.0968  0.6110
  871MPD2    C112777   1.878   2.462  16.949  0.3741  0.7439  0.3989
  871MPD2    C212778   1.902   2.330  16.994  0.0844 -0.2243  0.5891
  871MPD2    C312779   1.895   2.220  16.913  0.5219  0.0203 -0.3359
  871MPD2    C412780   1.886   2.244  16.776 -0.1572  0.0029  0.0112
  871MPD2    C512781   1.852   2.369  16.730  0.3710 -0.2850 -0.0273
  871MPD2     H12782   1.932   2.315  17.097 -0.3974 -3.2371  0.3151
  871MPD2    H112783   1.885   2.166  16.701 -1.6468  1.5321 -1.5202
  871MPD2    H212784   1.852   2.577  16.767 -0.1558 -0.6147 -0.4771
  871MPD2    H312785   1.829   2.385  16.625  1.6563 -1.5363 -0.5078
  871MPD2     N12786   1.919   2.097  16.973 -0.2244 -0.1753 -0.6330
  871MPD2    H512787   1.917   2.100  17.075 -1.5962  1.9636 -0.7115
  871MPD2    N112788   1.909   2.573  17.021  0.5125 -0.0582  0.1273
  871MPD2    H712789   1.903   2.663  16.974 -0.6331  0.1903  0.7507
  872MPD2     C12790   3.175   0.228  14.219  0.0161 -0.3341 -0.4275
  872MPD2    C112791   3.127   0.200  14.091 -0.1130 -0.5088 -0.1624
  872MPD2    C212792   2.995   0.222  14.066 -0.0146 -0.1238 -0.1429
  872MPD2    C312793   2.905   0.236  14.170  0.4763  0.3513 -0.2390
  872MPD2    C412794   2.951   0.245  14.302 -0.1256  0.1695  0.6060
  872MPD2    C512795   3.090   0.248  14.322 -0.4844  0.4109  0.1561
  872MPD2     H12796   2.955   0.202  13.967  0.5168  2.1146 -0.8196
  872MPD2    H112797   2.876   0.263  14.378  0.1933 -1.1060  1.2109
  872MPD2    H212798   3.279   0.233  14.247  0.4406 -0.6733 -1.9257
  872MPD2    H312799   3.120   0.270  14.423  0.2793  1.3392 -0.2723
  872MPD2     N12800   2.762   0.229  14.152 -0.1168  0.0551 -0.6454
  872MPD2    H512801   2.708   0.263  14.230  0.3383 -1.6295  0.3917
  872MPD2    N112802   3.219   0.157  13.991  0.5340  0.6030  0.5053
  872MPD2    H712803   3.184   0.164  13.897  1.0739  2.2745  0.4333
  873MPD2     C12804   1.057   0.340   1.544  0.0094 -0.0025  0.1504
  873MPD2    C112805   0.927   0.327   1.493  0.4484  0.6419  0.6272
  873MPD2    C212806   0.883   0.211   1.424  0.3643  0.2651  0.1880
  873MPD2    C312807   0.970   0.105   1.406 -0.0173  0.5005 -0.0881
  873MPD2    C412808   1.099   0.123   1.459  0.0031  0.0617 -0.8530
  873MPD2    C512809   1.145   0.233   1.525 -0.5688 -0.6438  0.1498
  873MPD2     H12810   0.784   0.199   1.383 -1.7689  1.9973  4.7881
  873MPD2    H112811   1.178   0.055   1.431  3.2196  3.2600  0.5922
  873MPD2    H212812   1.096   0.420   1.606  0.7573  1.1487 -1.8191
  873MPD2    H312813   1.250   0.235   1.553 -0.0376  0.3889 -1.9162
  873MPD2     N12814   0.936   4.712   1.327 -0.1437  0.3459 -0.0517
  873MPD2    H512815   1.004   4.638   1.320 -0.8553 -0.4002  0.9337
  873MPD2    N112816   0.838   0.436   1.512 -0.0734 -0.0698  0.2057
  873MPD2    H712817   0.879   0.517   1.559 -0.7203  0.0984  0.4865
  874MPD2     C12818   4.446   0.267  16.200  0.1473  0.2040  0.3130
  874MPD2    C112819   4.478   0.264  16.333  0.7726 -0.2706  0.0114
  874MPD2    C212820   4.578   0.355  16.380 -0.1930 -0.0811 -0.4069
  874MPD2    C312821   4.659   0.421  16.290  0.0817  0.7161  0.3574
  874MPD2    C412822   4.636   0.417  16.155  0.0188  0.3262  0.0339
  874MPD2    C512823   4.534   0.335  16.110  0.8809 -0.2215 -0.6097
  874MPD2     H12824   4.603   0.365  16.485  0.6667  1.5603 -0.7694
  874MPD2    H112825   4.698   0.463  16.078 -0.8295  0.6652 -0.4477
  874MPD2    H212826   4.375   0.201  16.151 -0.5020  0.2395  1.2051
  874MPD2    H312827   4.516   0.330  16.003 -0.5844 -3.0776 -0.2257
  874MPD2     N12828   0.055   0.488  16.337  0.5200 -0.0854  0.3368
  874MPD2    H512829   0.077   0.492  16.436  2.8396  2.1523 -0.2859
  874MPD2    N112830   4.399   0.184  16.417  0.2221  0.6183 -0.3423
  874MPD2    H712831   4.315   0.137  16.384  0.6651 -1.4416  1.4276
  875MPD2     C12832   0.796   2.974  15.086  0.1676  0.4584 -0.6089
  875MPD2    C112833   0.677   3.035  15.078 -0.0695 -0.6866 -0.0255
  875MPD2    C212834   0.640   3.128  15.173  0.0797 -0.0392  0.1692
  875MPD2    C312835   0.719   3.151  15.291 -0.2444 -0.6090  0.2011
  875MPD2    C412836   0.843   3.085  15.289  0.4866  0.2349  0.3999
  875MPD2    C512837   0.882   3.013  15.180  0.6694 -0.3358 -0.5885
  875MPD2     H12838   0.542   3.174  15.162  0.0467 -0.2332 -0.3553
  875MPD2    H112839   0.917   3.102  15.367  0.7545  1.1350 -0.0466
  875MPD2    H212840   0.832   2.906  15.010  0.3870 -0.7058  0.5392
  875MPD2    H312841   0.973   2.954  15.191  0.4224 -0.8837 -1.4285
  875MPD2     N12842   0.694   3.252  15.387 -0.4944 -0.2259 -0.5135
  875MPD2    H512843   0.773   3.278  15.445 -0.8257  1.0235 -0.6299
  875MPD2    N112844   0.582   3.010  14.980  0.6754 -0.0462 -0.6738
  875MPD2    H712845   0.490   3.050  14.996  0.1462 -0.6065 -2.3420
  876MPD2     C12846   3.994   4.343  16.067  0.1895 -0.2760  0.3343
  876MPD2    C112847   4.123   4.366  16.023 -0.0908  0.0033  0.4889
  876MPD2    C212848   4.222   4.269  16.055 -0.2067 -0.3261  0.0150
  876MPD2    C312849   4.184   4.158  16.132  0.9901  0.5551 -0.7401
  876MPD2    C412850   4.057   4.131  16.163 -0.0030  0.6076 -0.0214
  876MPD2    C512851   3.961   4.226  16.133  0.7733  0.4759 -0.1304
  876MPD2     H12852   4.324   4.273  16.019 -0.8600  2.5391 -1.4862
  876MPD2    H112853   4.031   4.058  16.239 -0.1904 -0.7838 -1.4218
  876MPD2    H212854   3.909   4.402  16.035  0.5921 -0.0785 -0.3748
  876MPD2    H312855   3.859   4.200  16.158 -0.2266  1.6257 -2.9916
  876MPD2     N12856   4.294   4.079  16.176  0.2578 -0.1545  0.1198
  876MPD2    H512857   4.387   4.120  16.177  0.1888  0.0034  0.1223
  876MPD2    N112858   4.154   4.493  15.958 -0.6171 -0.9229 -0.4625
  876MPD2    H712859   4.074   4.556  15.948 -0.5283 -0.7485 -0.0953
  877MPD2     C12860   3.925   0.305  15.422 -0.2043 -0.4309  0.2121
  877MPD2    C112861   4.055   0.325  15.449 -0.9782  0.1808 -1.1841
  877MPD2    C212862   4.120   0.422  15.381 -0.4075  0.3723 -0.0867
  877MPD2    C312863   4.048   0.510  15.291 -0.8072 -0.3631  0.1935
  877MPD2    C412864   3.916   0.483  15.260  0.4173 -0.0309 -0.1246
  877MPD2    C512865   3.862   0.379  15.328 -0.3307  0.2484  0.1014
  877MPD2     H12866   4.224   0.444  15.399  0.2138 -2.9022  0.3200
  877MPD2    H112867   3.862   0.538  15.184  0.5524 -1.1196 -1.0097
  877MPD2    H212868   3.871   0.223  15.468  0.0693 -0.2221  0.9062
  877MPD2    H312869   3.758   0.355  15.312 -0.9108  3.3385 -0.8383
  877MPD2     N12870   4.118   0.609  15.207 -0.3173 -0.0708  0.2328
  877MPD2    H512871   4.069   0.645  15.126 -0.8292  0.2874  0.6980
  877MPD2    N112872   4.127   0.249  15.542 -0.5698  1.0507  0.1525
  877MPD2    H712873   4.224   0.255  15.571 -0.2686  0.6718 -0.7836
  878MPD2     C12874   4.113   3.979  13.521  0.9783  0.4956  0.0618
  878MPD2    C112875   4.001   4.054  13.539  0.2477  0.1458  0.3463
  878MPD2    C212876   3.968   4.103  13.666  0.0753 -0.0009 -0.9907
  878MPD2    C312877   4.040   4.065  13.777 -0.2610  0.4276  0.5523
  878MPD2    C412878   4.157   3.991  13.766 -0.9826  0.1119  0.4235
  878MPD2    C512879   4.191   3.948  13.634  0.0066  0.0985  0.0466
  878MPD2     H12880   3.878   4.161  13.682 -0.1173 -0.0479 -1.8625
  878MPD2    H112881   4.230   3.984  13.846 -0.0417 -2.1220 -0.6262
  878MPD2    H212882   4.144   3.940  13.425  1.1027  0.6248  0.0489
  878MPD2    H312883   4.284   3.894  13.620  1.3259  2.2867  0.2246
  878MPD2     N12884   4.000   4.123  13.900  0.0843 -0.2929 -0.4921
  878MPD2    H512885   3.907   4.164  13.895 -0.4564 -1.5664 -1.0268
  878MPD2    N112886   3.933   4.096  13.429 -0.3853  0.0421 -0.7030
  878MPD2    H712887   3.953   4.056  13.339 -0.0282  1.1866 -1.1372
  879MPD2     C12888   4.538   0.177  17.685  0.2631 -0.6568 -0.0543
  879MPD2    C112889   4.560   0.285  17.603 -0.9817  0.0313 -0.7256
  879MPD2    C212890   4.491   0.296  17.481 -0.0785  0.0140  0.0472
  879MPD2    C312891   4.413   0.193  17.433 -0.4156  0.7799  0.0220
  879MPD2    C412892   4.406   0.085  17.511  0.1115  0.4712  0.2503
  879MPD2    C512893   4.458   0.072  17.644 -0.4884  1.1056  0.4701
  879MPD2     H12894   4.503   0.382  17.415  0.1872 -0.4883 -0.5583
  879MPD2    H112895   4.352   4.716  17.484  2.1687 -0.7887  0.3712
  879MPD2    H212896   4.579   0.166   0.098 -1.8002 -0.6639  0.7806
  879MPD2    H312897   4.439   4.704   0.015 -0.3801 -0.9860 -2.6743
  879MPD2     N12898   4.335   0.193  17.313  0.1334 -0.7272  0.2630
  879MPD2    H512899   4.268   0.118  17.301 -1.5900  0.5445  2.0863
  879MPD2    N112900   4.640   0.390  17.661 -1.1521  0.3515  0.3393
  879MPD2    H712901   4.667   0.363   0.067 -1.4398  2.4518  1.0428
  880MPD2     C12902   1.439   2.511   0.644  0.9679 -0.6460 -0.2982
  880MPD2    C112903   1.340   2.531   0.736 -0.4125 -0.1482 -0.5004
  880MPD2    C212904   1.303   2.440   0.833 -0.3650 -1.0347  0.0841
  880MPD2    C312905   1.358   2.310   0.831  0.7778 -0.0823 -0.0993
  880MPD2    C412906   1.459   2.283   0.736  0.0879 -0.2000 -0.2455
  880MPD2    C512907   1.492   2.382   0.645  0.3564 -0.6576  0.6565
  880MPD2     H12908   1.222   2.462   0.902 -0.0665  2.2884 -0.6107
  880MPD2    H112909   1.506   2.186   0.729  0.8586  0.1808 -0.4330
  880MPD2    H212910   1.470   2.581   0.567  0.8775 -0.9364 -0.5962
  880MPD2    H312911   1.572   2.367   0.572  0.4853  1.1957  0.4159
  880MPD2     N12912   1.319   2.225   0.937  0.9964 -0.7168 -0.5097
  880MPD2    H512913   1.253   2.266   1.003 -0.6007 -0.7648 -2.0813
  880MPD2    N112914   1.275   2.658   0.724 -0.2141 -0.5816 -0.1017
  880MPD2    H712915   1.284   2.711   0.638 -1.4947 -0.3061 -0.0739
  881MPD2     C12916   1.601   3.520   0.459 -0.3020  0.1228 -0.6116
  881MPD2    C112917   1.537   3.417   0.391  0.2601  0.0574 -0.1852
  881MPD2    C212918   1.486   3.315   0.463 -0.0239  0.1406  0.0441
  881MPD2    C312919   1.478   3.320   0.600 -0.3367 -0.0987  0.6641
  881MPD2    C412920   1.521   3.425   0.671  0.4411 -0.2249 -0.0620
  881MPD2    C512921   1.584   3.526   0.596 -0.0547  0.5591  0.1779
  881MPD2     H12922   1.442   3.238   0.401  0.5018 -0.3593  0.2980
  881MPD2    H112923   1.510   3.440   0.778 -0.5689 -3.0452  0.2290
  881MPD2    H212924   1.643   3.603   0.403  3.4661 -1.8320 -0.6331
  881MPD2    H312925   1.606   3.622   0.641 -0.0245  0.2373  0.8505
  881MPD2     N12926   1.400   3.222   0.676 -0.2494  0.0250  0.0338
  881MPD2    H512927   1.406   3.244   0.775 -0.0262  1.6778 -0.3471
  881MPD2    N112928   1.547   3.391   0.256 -0.1147 -0.1147  0.4911
  881MPD2    H712929   1.508   3.301   0.229  0.9784 -0.6470  0.6755
  882MPD2     C12930   4.466   0.341  14.791  0.2387 -0.6443  0.4035
  882MPD2    C112931   4.365   0.429  14.739  0.4599  0.1775  1.3743
  882MPD2    C212932   4.259   0.373  14.669 -0.2381 -0.1445  0.5402
  882MPD2    C312933   4.253   0.240  14.641 -0.1819 -0.1037 -0.5165
  882MPD2    C412934   4.339   0.155  14.703 -0.2863 -0.3050 -0.2357
  882MPD2    C512935   4.444   0.207  14.773 -0.6614  0.1241  0.3924
  882MPD2     H12936   4.183   0.442  14.633 -0.6039 -1.4400 -1.1274
  882MPD2    H112937   4.321   0.050  14.683  0.1999 -0.8624  2.2469
  882MPD2    H212938   4.555   0.375  14.842  0.9012  1.2531 -1.9776
  882MPD2    H312939   4.509   0.131  14.814 -1.1805 -0.3133  0.4032
  882MPD2     N12940   4.145   0.182  14.568  0.6955  0.1593  1.0812
  882MPD2    H512941   4.130   0.082  14.579  0.0697  0.2576  1.1054
  882MPD2    N112942   4.371   0.560  14.787 -0.1692  0.6495  0.6260
  882MPD2    H712943   4.452   0.585  14.843  0.4595  0.0505 -0.0149
  883MPD2     C12944   2.046   4.306  16.023 -0.6642 -0.0948 -0.5024
  883MPD2    C112945   2.010   4.401  15.932  0.2544 -0.1174  0.0529
  883MPD2    C212946   2.102   4.469  15.856  0.1671  0.5221 -0.6261
  883MPD2    C312947   2.233   4.438  15.864  0.3993 -1.2469  0.6339
  883MPD2    C412948   2.274   4.337  15.953  0.3378 -0.4825  0.6509
  883MPD2    C512949   2.176   4.268  16.017 -0.2063 -0.2843  0.0997
  883MPD2     H12950   2.069   4.549  15.792 -0.5708 -1.3010 -2.5075
  883MPD2    H112951   2.379   4.311  15.957  0.3102 -0.6880  0.0196
  883MPD2    H212952   1.974   4.263  16.092 -1.2834  0.6959 -0.6486
  883MPD2    H312953   2.202   4.185  16.081 -0.7493  0.2031  0.9500
  883MPD2     N12954   2.329   4.514  15.794 -0.2638  0.2828  0.3513
  883MPD2    H512955   2.296   4.603  15.758 -2.2649 -1.3876 -1.9405
  883MPD2    N112956   1.875   4.445  15.932  0.5595  0.0382  0.3866
  883MPD2    H712957   1.851   4.515  15.863 -2.5561  1.7864  3.2572
  884MPD2     C12958   3.524   0.950  15.175  0.1319 -0.9401  0.1559
  884MPD2    C112959   3.514   1.091  15.174 -0.9142 -0.3317  0.0903
  884MPD2    C212960   3.395   1.154  15.193  0.2968 -0.7708 -0.5255
  884MPD2    C312961   3.279   1.086  15.221 -0.3807  0.9305 -0.3674
  884MPD2    C412962   3.294   0.948  15.223  0.2229 -0.2113  0.3010
  884MPD2    C512963   3.408   0.881  15.197 -0.1496 -0.0872  0.0524
  884MPD2     H12964   3.388   1.262  15.190 -0.2270 -0.8442 -2.0964
  884MPD2    H112965   3.214   0.881  15.253  1.0377 -1.1018  0.4810
  884MPD2    H212966   3.612   0.889  15.161  2.3655  2.3691 -0.0959
  884MPD2    H312967   3.406   0.774  15.210 -0.2616  0.0025  0.8062
  884MPD2     N12968   3.155   1.154  15.238  0.2290  0.3304  0.0248
  884MPD2    H512969   3.154   1.255  15.224  1.8902  0.8933  3.8986
  884MPD2    N112970   3.627   1.173  15.148  0.3228 -0.0368 -0.3851
  884MPD2    H712971   3.610   1.272  15.134 -0.3001  0.0145  0.6825
  885MPD2     C12972   1.910   1.595   0.584  0.2586  0.6495 -0.5147
  885MPD2    C112973   1.940   1.468   0.532  0.0164  0.3561  0.2953
  885MPD2    C212974   1.915   1.455   0.394 -0.0405 -1.0710  0.8183
  885MPD2    C312975   1.850   1.550   0.317  0.1392 -0.1168 -0.5506
  885MPD2    C412976   1.832   1.678   0.369  0.2081 -0.1399  0.3386
  885MPD2    C512977   1.864   1.693   0.503 -1.5166 -0.1251 -0.2451
  885MPD2     H12978   1.936   1.362   0.343 -1.9551 -0.6078 -0.8011
  885MPD2    H112979   1.780   1.764   0.327 -0.6101  0.2794  2.1902
  885MPD2    H212980   1.922   1.620   0.689 -0.8322 -2.9268  0.4879
  885MPD2    H312981   1.834   1.780   0.560  0.6904 -0.3824  1.2661
  885MPD2     N12982   1.820   1.522   0.183 -0.1107 -0.5836  0.3444
  885MPD2    H512983   1.841   1.429   0.148 -1.6666 -1.7013  2.4017
  885MPD2    N112984   2.008   1.370   0.612 -0.2816 -0.1391  0.1242
  885MPD2    H712985   2.016   1.403   0.708 -2.7696 -0.6142  0.5013
  886MPD2     C12986   3.142   4.338  14.870  0.1404  0.0354  0.4740
  886MPD2    C112987   3.230   4.378  14.974 -0.3773 -0.7830 -0.4037
  886MPD2    C212988   3.220   4.501  15.032 -0.7116 -0.3270 -0.4685
  886MPD2    C312989   3.127   4.588  14.987 -0.4087  0.8048 -0.5936
  886MPD2    C412990   3.047   4.556  14.878 -0.5666 -0.1159 -0.3089
  886MPD2    C512991   3.050   4.432  14.828  0.0988  0.5556 -0.2399
  886MPD2     H12992   3.283   4.530  15.115 -1.1263  0.9279 -0.5853
  886MPD2    H112993   2.966   4.619  14.846 -0.7541  0.1507  0.6858
  886MPD2    H212994   3.121   4.238  14.835  2.2007 -0.3041  0.1980
  886MPD2    H312995   2.967   4.407  14.762  2.4269 -1.6532 -2.3696
  886MPD2     N12996   3.124   4.721  15.025  0.0463 -0.0055  0.0920
  886MPD2    H512997   3.055   0.050  14.970  0.5186  0.6925  0.1270
  886MPD2    N112998   3.330   4.288  15.030  0.2917  0.3038 -0.4610
  886MPD2    H712999   3.391   4.326  15.101  0.4388 -0.0986 -0.3732
  887MPD2     C13000   3.749   4.227  15.606  0.7694 -0.1699 -0.4840
  887MPD2    C113001   3.687   4.310  15.513  0.7419  0.1029 -0.2730
  887MPD2    C213002   3.669   4.437  15.550  0.7253 -0.5519 -0.8798
  887MPD2    C313003   3.728   4.490  15.666  0.5409 -0.2493 -0.1177
  887MPD2    C413004   3.790   4.404  15.758 -1.1105 -0.6102  0.0059
  887MPD2    C513005   3.806   4.275  15.720 -0.2627 -0.5695 -0.3501
  887MPD2     H13006   3.636   4.514  15.481  0.4125 -0.7065 -0.9030
  887MPD2    H113007   3.848   4.431  15.845 -1.5153 -1.0854  0.4223
  887MPD2    H213008   3.779   4.127  15.576  0.1707 -0.9051  1.4063
  887MPD2    H313009   3.870   4.220  15.787  1.2474  0.2318 -1.1374
  887MPD2     N13010   3.730   4.627  15.680 -0.1938  0.2897  0.0896
  887MPD2    H513011   3.676   4.686  15.617  0.2801 -0.8370 -1.3764
  887MPD2    N113012   3.648   4.261  15.386  0.4881  0.0039  0.6004
  887MPD2    H713013   3.581   4.319  15.337  0.3006 -0.4389  0.3328
  888MPD2     C13014   0.493   4.376  15.391 -0.1803  0.6395 -0.5107
  888MPD2    C113015   0.491   4.472  15.486  0.2805  0.0999 -0.2606
  888MPD2    C213016   0.563   4.594  15.469 -0.0664  0.0294  0.4500
  888MPD2    C313017   0.630   4.621  15.351 -0.0612  0.2465 -0.9749
  888MPD2    C413018   0.628   4.522  15.248  0.3974 -0.7736  0.9744
  888MPD2    C513019   0.565   4.405  15.274 -0.3191  0.7008 -0.2135
  888MPD2     H13020   0.565   4.667  15.549 -0.8184  0.4187  0.1132
  888MPD2    H113021   0.680   4.530  15.153 -0.0731 -1.8727  0.6357
  888MPD2    H213022   0.466   4.272  15.402  1.6162  0.2599  0.3932
  888MPD2    H313023   0.578   4.319  15.210 -0.3916  0.4858  0.0577
  888MPD2     N13024   0.684   0.027  15.337 -0.0108  0.0870 -0.5136
  888MPD2    H513025   0.657   0.099  15.404  3.6583  0.7938  0.2278
  888MPD2    N113026   0.431   4.453  15.609  0.7096 -0.1079  0.1129
  888MPD2    H713027   0.444   4.531  15.672 -1.7390  0.2009  0.2420
  889MPD2     C13028   4.174   3.923  13.130  0.1295 -0.0064  0.0902
  889MPD2    C113029   4.290   3.853  13.161 -0.9655 -0.7107  0.3083
  889MPD2    C213030   4.378   3.926  13.243 -0.8761 -0.4720  0.3215
  889MPD2    C313031   4.355   4.053  13.294  0.4564 -0.3935 -0.2238
  889MPD2    C413032   4.241   4.119  13.252  0.6453 -0.0874 -0.2748
  889MPD2    C513033   4.157   4.055  13.163  0.1680 -0.0660  0.1539
  889MPD2     H13034   4.464   3.877  13.288 -0.8254 -2.6961 -2.2297
  889MPD2    H113035   4.229   4.226  13.266 -0.6268 -0.3415  0.5087
  889MPD2    H213036   4.100   3.880  13.064  0.4322  0.0811 -0.3044
  889MPD2    H313037   4.072   4.108  13.123  1.7966  2.5044  0.0960
  889MPD2     N13038   4.452   4.104  13.379 -0.2316  0.1398 -1.3317
  889MPD2    H513039   4.526   4.041  13.408 -1.1974  0.3703  1.6290
  889MPD2    N113040   4.300   3.718  13.161 -0.1946 -0.0285 -0.0938
  889MPD2    H713041   4.380   3.667  13.197 -1.1241 -2.1222 -0.9752
  890MPD2     C13042   4.097   1.140  14.752  0.1735  0.2526  0.2037
  890MPD2    C113043   4.233   1.169  14.752  0.0057  0.3984 -0.1913
  890MPD2    C213044   4.308   1.161  14.872 -0.2925  0.6042  0.5084
  890MPD2    C313045   4.242   1.119  14.989 -0.4669 -0.7453 -0.7839
  890MPD2    C413046   4.107   1.091  14.983  0.0486  0.1891  0.6712
  890MPD2    C513047   4.036   1.096  14.865  0.6362  0.5264  0.3880
  890MPD2     H13048   4.414   1.181  14.873 -0.3759  1.0346  0.7957
  890MPD2    H113049   4.055   1.039  15.063  1.0776 -2.2758 -0.2523
  890MPD2    H213050   4.039   1.136  14.661  0.0130 -1.0289  0.3561
  890MPD2    H313051   3.932   1.067  14.858  0.7182  0.3093  0.0727
  890MPD2     N13052   4.323   1.123  15.113  0.9871 -0.9419 -0.0860
  890MPD2    H513053   4.415   1.165  15.107  0.0357  1.1465  0.0473
  890MPD2    N113054   4.287   1.225  14.634 -0.8737 -0.1322 -0.0306
  890MPD2    H713055   4.221   1.269  14.571 -0.0986  0.8772 -0.1136
  891MPD2     C13056   2.337   3.575  16.630 -0.6914  0.4488 -0.1215
  891MPD2    C113057   2.356   3.709  16.621 -0.5589  0.0306 -0.5342
  891MPD2    C213058   2.472   3.763  16.662 -0.1798 -0.4538 -0.4033
  891MPD2    C313059   2.579   3.687  16.691 -0.0026  0.4651 -0.3682
  891MPD2    C413060   2.566   3.554  16.697  0.1571  0.5656  0.0139
  891MPD2    C513061   2.444   3.495  16.669  0.6232 -0.1711  0.5382
  891MPD2     H13062   2.493   3.869  16.669  0.5480 -0.7578  2.1194
  891MPD2    H113063   2.651   3.486  16.701 -0.9032 -0.6416  1.8040
  891MPD2    H213064   2.252   3.519  16.593 -0.9787  0.5496  0.3966
  891MPD2    H313065   2.428   3.388  16.678 -2.5731  0.2848  0.2073
  891MPD2     N13066   2.699   3.764  16.725 -0.5771  0.2809 -0.0890
  891MPD2    H513067   2.688   3.864  16.739 -0.0729 -0.1468  3.3579
  891MPD2    N113068   2.251   3.781  16.574  0.0972 -0.6649  0.1681
  891MPD2    H713069   2.174   3.729  16.532 -1.5983  1.2786  0.8674
  892MPD2     C13070   3.670   0.823  14.747 -0.0915 -0.1971  0.4040
  892MPD2    C113071   3.579   0.730  14.775  0.2222 -0.4132 -0.0599
  892MPD2    C213072   3.604   0.593  14.754 -0.5624  0.1545  0.1367
  892MPD2    C313073   3.733   0.557  14.710  0.2387  0.3837  0.5132
  892MPD2    C413074   3.826   0.659  14.678  0.3338  0.2254  0.4443
  892MPD2    C513075   3.794   0.790  14.703  0.4887 -0.0311  0.7008
  892MPD2     H13076   3.516   0.532  14.767 -0.2699 -0.7588 -2.1144
  892MPD2    H113077   3.925   0.636  14.642  0.6696 -0.3809  1.7621
  892MPD2    H213078   3.644   0.928  14.760 -3.3687 -0.6231 -2.5891
  892MPD2    H313079   3.873   0.863  14.689 -0.7586  0.8820 -1.5348
  892MPD2     N13080   3.761   0.424  14.668 -0.3813 -0.8155 -0.1313
  892MPD2    H513081   3.845   0.409  14.612  0.6371  0.0690  1.1554
  892MPD2    N113082   3.456   0.777  14.821  0.1185  0.1062 -0.8765
  892MPD2    H713083   3.439   0.877  14.819  0.7909  0.2287 -0.1706
  893MPD2     C13084   0.323   3.823   1.814 -0.3163 -0.6114  0.0933
  893MPD2    C113085   0.412   3.872   1.904 -0.7492  0.0630 -0.0702
  893MPD2    C213086   0.368   3.949   2.010  0.3812 -0.2072  0.3226
  893MPD2    C313087   0.237   3.989   2.018 -0.3853 -0.3305 -0.0488
  893MPD2    C413088   0.155   3.947   1.920  0.1566 -0.1366 -0.6032
  893MPD2    C513089   0.194   3.859   1.823  0.2209 -0.0739 -0.0588
  893MPD2     H13090   0.437   4.000   2.076 -0.0059  0.4279  0.2446
  893MPD2    H113091   0.055   3.985   1.902 -0.2405 -0.3551  1.1312
  893MPD2    H213092   0.350   3.752   1.737 -3.4674 -0.5489 -1.0280
  893MPD2    H313093   0.123   3.824   1.749 -1.1836 -0.4632  1.4748
  893MPD2     N13094   0.180   4.070   2.119 -0.6240  0.0849  0.6839
  893MPD2    H513095   0.084   4.101   2.106 -0.6482 -0.3973 -0.2758
  893MPD2    N113096   0.544   3.841   1.881 -0.1699  0.4907 -0.1344
  893MPD2    H713097   0.565   3.781   1.802 -3.8997  1.2617 -1.7197
  894MPD2     C13098   3.415   0.962   1.212  0.1060 -0.5187  1.3406
  894MPD2    C113099   3.459   1.001   1.331 -0.6942 -0.6871 -0.0001
  894MPD2    C213100   3.561   1.089   1.344 -0.2080 -0.0025 -0.5247
  894MPD2    C313101   3.629   1.144   1.230 -0.3595 -0.7205  0.3504
  894MPD2    C413102   3.593   1.091   1.107 -0.2591 -0.0267  0.3111
  894MPD2    C513103   3.488   0.997   1.103 -0.4257  0.4219  0.6315
  894MPD2     H13104   3.590   1.120   1.444  0.1406  4.5382 -1.9983
  894MPD2    H113105   3.633   1.124   1.012  0.3842  0.3708  0.7143
  894MPD2    H213106   3.324   0.906   1.193 -1.2336  2.7199 -1.9084
  894MPD2    H313107   3.445   0.973   1.006 -0.9560  2.8978  0.2465
  894MPD2     N13108   3.739   1.234   1.243 -0.0672 -0.1186 -0.3390
  894MPD2    H513109   3.786   1.242   1.333  0.9040 -3.1648 -0.5713
  894MPD2    N113110   3.387   0.973   1.447 -0.2889 -0.7905 -0.1109
  894MPD2    H713111   3.421   1.017   1.531  0.0437 -3.7834  1.3158
  895MPD2     C13112   2.751   4.156  13.922 -0.0646 -0.0475 -0.1030
  895MPD2    C113113   2.677   4.159  13.806  0.0778 -0.3692 -0.4575
  895MPD2    C213114   2.632   4.041  13.756  0.1991 -0.4865 -0.8148
  895MPD2    C313115   2.684   3.920  13.795  0.7276 -0.1512 -0.3033
  895MPD2    C413116   2.748   3.916  13.917 -0.1334  0.4375 -0.2571
  895MPD2    C513117   2.773   4.038  13.981  0.7100  0.1883  0.6284
  895MPD2     H13118   2.578   4.046  13.662  0.6992  1.6862 -0.9721
  895MPD2    H113119   2.784   3.827  13.966 -0.9041 -0.0612 -0.5961
  895MPD2    H213120   2.796   4.246  13.962 -0.5542  1.3714 -2.8010
  895MPD2    H313121   2.820   4.025  14.078  0.3282  0.8823  0.9096
  895MPD2     N13122   2.679   3.814  13.700  0.6648  0.3349 -0.5235
  895MPD2    H513123   2.616   3.820  13.621 -0.4525 -2.9266  0.1139
  895MPD2    N113124   2.643   4.268  13.726  0.7934 -0.4588  0.0822
  895MPD2    H713125   2.586   4.244  13.645  0.4816 -0.9066  0.4330
  896MPD2     C13126   0.381   2.022   1.872  0.7355 -0.0236 -0.2655
  896MPD2    C113127   0.407   1.977   1.747 -0.0887  0.7641  0.2863
  896MPD2    C213128   0.303   1.915   1.681  0.3481  0.2188  0.4898
  896MPD2    C313129   0.181   1.896   1.739  0.3468 -0.3324  0.0473
  896MPD2    C413130   0.153   1.945   1.862 -0.5543 -0.2772 -0.2063
  896MPD2    C513131   0.254   2.015   1.929 -0.2781  0.6874 -0.0538
  896MPD2     H13132   0.329   1.865   1.589  0.1286 -1.6254  1.4372
  896MPD2    H113133   0.061   1.931   1.918 -1.5395 -0.1210 -1.7742
  896MPD2    H213134   0.456   2.065   1.937  2.8155 -2.6705 -0.9331
  896MPD2    H313135   0.222   2.059   2.023  0.2147  0.2395  0.3184
  896MPD2     N13136   0.086   1.822   1.667  0.2250 -0.0412  0.0398
  896MPD2    H513137   0.115   1.783   1.577  1.9351  0.6955  0.2880
  896MPD2    N113138   0.536   1.994   1.681  0.2505 -0.1628  0.2237
  896MPD2    H713139   0.607   2.045   1.735  0.8835 -0.4371 -0.3485
  897MPD2     C13140   0.384   3.797  10.588 -0.3978 -0.1116  0.0934
  897MPD2    C113141   0.483   3.870  10.646  0.2245 -0.0125  0.1316
  897MPD2    C213142   0.471   3.893  10.785 -0.1146  0.0104 -0.1252
  897MPD2    C313143   0.352   3.859  10.852 -0.7605  0.0426 -0.1669
  897MPD2    C413144   0.248   3.803  10.784  1.0716 -0.6123  0.0425
  897MPD2    C513145   0.271   3.761  10.653 -0.0655  0.7187  0.4885
  897MPD2     H13146   0.545   3.948  10.841 -1.5975  0.4089  1.4612
  897MPD2    H113147   0.158   3.780  10.840  0.5896  1.8373  0.2951
  897MPD2    H213148   0.393   3.768  10.484 -1.3183  0.1524 -0.0595
  897MPD2    H313149   0.189   3.705  10.608 -0.9853  0.7700  2.1061
  897MPD2     N13150   0.330   3.887  10.983  0.1386 -0.6639 -0.1907
  897MPD2    H513151   0.242   3.852  11.020  0.4869 -2.1457 -0.7684
  897MPD2    N113152   0.598   3.915  10.572  0.6799  0.5267  0.0980
  897MPD2    H713153   0.609   3.873  10.480  2.4735  1.5729 -0.1636
  898MPD2     C13154   3.728   3.775   0.882 -0.2099  0.6904  0.3337
  898MPD2    C113155   3.750   3.835   0.762  0.1031  0.0009  0.2420
  898MPD2    C213156   3.650   3.874   0.679  0.3035  0.5616 -0.1987
  898MPD2    C313157   3.520   3.863   0.717 -0.0327 -0.2046 -0.1463
  898MPD2    C413158   3.496   3.793   0.833 -0.3941  0.7907 -0.7723
  898MPD2    C513159   3.598   3.747   0.910 -0.0322 -0.1670 -0.2767
  898MPD2     H13160   3.687   3.911   0.585  0.4872 -0.3754 -0.4955
  898MPD2    H113161   3.399   3.767   0.874  0.0751 -1.6126 -1.1756
  898MPD2    H213162   3.805   3.742   0.951  1.4938  0.0719 -1.8705
  898MPD2    H313163   3.569   3.703   1.005  1.2520 -0.4437 -0.0169
  898MPD2     N13164   3.414   3.929   0.651 -0.0604 -0.0897 -0.2608
  898MPD2    H513165   3.321   3.921   0.691 -1.1755  0.8999 -2.6539
  898MPD2    N113166   3.878   3.877   0.716  0.6455  0.1886  0.0288
  898MPD2    H713167   3.882   3.929   0.630 -1.5886  2.2277  1.1553
  899MPD2     C13168   4.232   0.456  17.550  0.2377 -0.5715  0.4850
  899MPD2    C113169   4.307   0.552  17.611 -0.3357 -0.5509 -0.4115
  899MPD2    C213170   4.308   0.537   0.063 -0.3622  0.2027  0.0738
  899MPD2    C313171   4.247   0.431   0.134  0.0285  0.1979  0.2921
  899MPD2    C413172   4.181   0.337   0.066 -0.0623 -0.0682 -0.9659
  899MPD2    C513173   4.159   0.363  17.622  0.5154  1.1325 -0.7022
  899MPD2     H13174   4.352   0.616   0.124  0.0267  0.3891 -0.4472
  899MPD2    H113175   4.131   0.257   0.121 -3.1985  3.0913  0.7558
  899MPD2    H213176   4.204   0.465  17.445 -1.5629  2.4811  1.2321
  899MPD2    H313177   4.086   0.303  17.569  1.7154 -1.2338  0.2725
  899MPD2     N13178   4.254   0.422   0.278 -0.7089  0.2861  0.6130
  899MPD2    H513179   4.191   0.354   0.319 -1.9770  1.5507  0.7449
  899MPD2    N113180   4.366   0.662  17.533  0.1088  0.1833  0.1031
  899MPD2    H713181   4.357   0.646  17.433  4.7000  0.6217 -0.3749
  900MPD2     C13182   3.576   2.234  12.676 -0.1383 -0.3096  0.3522
  900MPD2    C113183   3.529   2.108  12.636 -0.2609 -0.1116  0.1981
  900MPD2    C213184   3.389   2.093  12.625 -0.1986  0.0713  0.4625
  900MPD2    C313185   3.293   2.194  12.630  0.0904 -0.5844  0.5283
  900MPD2    C413186   3.348   2.318  12.668 -0.2795  0.2255  0.0592
  900MPD2    C513187   3.480   2.330  12.702 -0.0129 -0.0206  0.0400
  900MPD2     H13188   3.344   2.000  12.590  0.3348 -0.7747  2.0447
  900MPD2    H113189   3.284   2.403  12.687 -2.1596 -1.0334 -0.7208
  900MPD2    H213190   3.678   2.264  12.691 -0.1682  0.7587 -1.5478
  900MPD2    H313191   3.519   2.427  12.731  0.0598 -0.4008  1.1940
  900MPD2     N13192   3.149   2.175  12.605  0.6210 -0.8076  0.5120
  900MPD2    H513193   3.123   2.077  12.594 -1.0555 -0.6867  3.4024
  900MPD2    N113194   3.624   2.009  12.616  0.8757 -1.1446 -0.0237
  900MPD2    H713195   3.722   2.036  12.627  0.8234 -0.1660 -1.9175
  901MPD2     C13196   3.815   1.045  12.915 -0.7349 -0.2214  0.1260
  901MPD2    C113197   3.784   1.026  12.783  0.5310 -0.4669 -0.9977
  901MPD2    C213198   3.783   1.133  12.699 -0.7014 -0.6359 -0.3736
  901MPD2    C313199   3.826   1.263  12.740 -0.1916 -0.1923  1.0906
  901MPD2    C413200   3.858   1.278  12.876 -0.4316 -0.1469  1.2796
  901MPD2    C513201   3.845   1.169  12.961  0.5114 -0.0232 -0.2804
  901MPD2     H13202   3.774   1.114  12.593  0.2733  3.6680 -1.1930
  901MPD2    H113203   3.878   1.373  12.926 -1.7986  1.5069 -1.3321
  901MPD2    H213204   3.807   0.965  12.988 -1.5340 -0.3126 -0.0606
  901MPD2    H313205   3.867   1.191  13.065  1.8538 -0.6545 -0.4390
  901MPD2     N13206   3.814   1.378  12.662 -0.4309 -0.4259 -0.2867
  901MPD2    H513207   3.764   1.376  12.574 -1.4450 -1.3147  0.3044
  901MPD2    N113208   3.756   0.895  12.740 -0.5922 -0.0766  0.2548
  901MPD2    H713209   3.756   0.818  12.806 -0.2058 -1.5504 -1.5087
  902MPD2     C13210   2.367   4.427  12.963  0.4954 -0.1542 -0.3335
  902MPD2    C113211   2.412   4.555  12.962 -0.4669  0.0597  0.0930
  902MPD2    C213212   2.503   4.595  12.864 -0.1580 -0.2166 -0.4192
  902MPD2    C313213   2.530   4.513  12.758  0.5287 -0.3078 -0.0968
  902MPD2    C413214   2.482   4.386  12.759 -0.3769  0.0823  0.2963
  902MPD2    C513215   2.405   4.343  12.863 -0.1665 -0.3951 -0.0879
  902MPD2     H13216   2.556   4.690  12.869  2.2026 -1.5762  0.7793
  902MPD2    H113217   2.499   4.314  12.679 -2.4350  0.6431 -0.6691
  902MPD2    H213218   2.294   4.400  13.039  1.0427 -1.5608 -0.3179
  902MPD2    H313219   2.373   4.240  12.870 -3.6240  0.7980  1.4964
  902MPD2     N13220   2.603   4.548  12.643  0.3983  0.1593  0.5521
  902MPD2    H513221   2.633   4.479  12.574  1.6548 -0.7682  2.0295
  902MPD2    N113222   2.352   4.642  13.055  0.2546 -0.0476  0.4930
  902MPD2    H713223   2.287   4.595  13.117 -0.7142  2.7119  1.5652
  903MPD2     C13224   2.443   0.132  11.932  0.6088 -0.3204 -0.1000
  903MPD2    C113225   2.420   0.121  12.068  0.4155 -0.0584  0.1127
  903MPD2    C213226   2.284   0.125  12.107 -0.1289 -0.0502 -0.2511
  903MPD2    C313227   2.177   0.133  12.016  0.1267 -0.3279 -0.0374
  903MPD2    C413228   2.214   0.148  11.884  0.4281 -0.2148  0.7894
  903MPD2    C513229   2.345   0.150  11.846  0.3591 -0.0804 -0.6026
  903MPD2     H13230   2.258   0.105  12.210  0.0947 -1.6476 -0.5063
  903MPD2    H113231   2.137   0.154  11.808 -0.6984 -1.4795  1.8307
  903MPD2    H213232   2.544   0.125  11.894  0.6685 -2.2941  0.4408
  903MPD2    H313233   2.363   0.159  11.740  1.0720 -0.0360 -0.4745
  903MPD2     N13234   2.044   0.106  12.062  0.5878 -0.2773  0.0292
  903MPD2    H513235   2.026   0.060  12.150  0.3155 -1.6503 -0.7456
  903MPD2    N113236   2.516   0.086  12.166  0.5924 -0.4372  0.1223
  903MPD2    H713237   2.469   0.041  12.244  1.1422 -2.0191 -0.4655
  904MPD2     C13238   2.140   3.502  14.308  0.0925 -0.1127  0.1842
  904MPD2    C113239   2.221   3.617  14.304  0.2709  0.0367 -0.3765
  904MPD2    C213240   2.340   3.630  14.371  1.1309 -0.2548 -0.5897
  904MPD2    C313241   2.367   3.529  14.460 -0.8274 -0.4073 -0.2855
  904MPD2    C413242   2.291   3.414  14.461 -0.5882 -0.2056  0.0073
  904MPD2    C513243   2.173   3.396  14.391 -0.6922  0.1501 -0.1330
  904MPD2     H13244   2.402   3.719  14.369 -0.8714  1.2072  1.7354
  904MPD2    H113245   2.330   3.332  14.520 -2.2008  0.8728  2.5532
  904MPD2    H213246   2.047   3.490  14.254 -0.2867 -0.7602  0.9793
  904MPD2    H313247   2.123   3.300  14.395 -0.6035  0.1248  0.4016
  904MPD2     N13248   2.486   3.540  14.535 -0.3954 -0.0556  0.2779
  904MPD2    H513249   2.558   3.605  14.505 -1.2283  1.8990  2.4563
  904MPD2    N113250   2.186   3.729  14.219  0.7479  0.0627  0.3565
  904MPD2    H713251   2.266   3.787  14.193  0.1562  1.2865  1.3286
  905MPD2     C13252   1.969   3.852  13.467 -0.0426  0.1534 -0.3718
  905MPD2    C113253   2.077   3.887  13.541 -0.7940 -0.1945  0.0275
  905MPD2    C213254   2.207   3.862  13.495 -0.2324  0.3059 -0.0813
  905MPD2    C313255   2.220   3.778  13.387 -0.2143 -0.1936 -0.1820
  905MPD2    C413256   2.106   3.746  13.306  0.4506  0.0105  0.2566
  905MPD2    C513257   1.985   3.784  13.349  0.3362  0.2055  1.3697
  905MPD2     H13258   2.288   3.905  13.553  2.2767 -1.1510 -2.5011
  905MPD2    H113259   2.113   3.686  13.217 -0.2541 -0.2227  0.3616
  905MPD2    H213260   1.871   3.885  13.500 -0.2414 -0.9198  0.1117
  905MPD2    H313261   1.899   3.768  13.285  1.4822 -0.5621  0.0350
  905MPD2     N13262   2.348   3.714  13.353 -1.3330 -0.0535  0.1194
  905MPD2    H513263   2.345   3.637  13.286  1.5788 -0.3206  0.2939
  905MPD2    N113264   2.070   3.949  13.667 -1.2868  0.0633 -0.0383
  905MPD2    H713265   2.159   3.961  13.713 -0.4610 -1.6237 -1.1841
  906MPD2     C13266   4.077   3.942  11.768  0.0006 -0.5788  0.2979
  906MPD2    C113267   4.097   3.860  11.658  0.2519 -0.1367 -0.2860
  906MPD2    C213268   4.150   3.741  11.678  0.1599 -0.5254  0.3392
  906MPD2    C313269   4.183   3.685  11.797 -0.3311 -0.4304  0.5263
  906MPD2    C413270   4.167   3.770  11.900  0.6219 -0.4128 -0.1221
  906MPD2    C513271   4.113   3.897  11.892 -0.8952  0.2792  0.2182
  906MPD2     H13272   4.177   3.680  11.593 -0.1066  0.5250 -0.4888
  906MPD2    H113273   4.186   3.733  12.000  0.4232 -2.6219 -0.9059
  906MPD2    H213274   4.038   4.043  11.768 -1.9430 -1.3331 -0.3226
  906MPD2    H313275   4.089   3.954  11.982 -1.1895  1.5156 -0.6424
  906MPD2     N13276   4.245   3.554  11.827  0.3022 -0.6901 -0.6014
  906MPD2    H513277   4.268   3.528  11.922 -1.7184  0.1265  0.1287
  906MPD2    N113278   4.064   3.890  11.517  0.3941 -0.6080  0.3399
  906MPD2    H713279   4.084   3.820  11.447  0.5757 -0.8568  0.6402
  907MPD2     C13280   2.277   3.225  15.375 -0.4758 -0.2924  0.3184
  907MPD2    C113281   2.410   3.200  15.410 -0.1743  0.1574  0.4180
  907MPD2    C213282   2.452   3.228  15.537  0.1048 -0.9082 -0.4714
  907MPD2    C313283   2.367   3.285  15.629  0.0820  0.3712 -0.2239
  907MPD2    C413284   2.232   3.306  15.595  0.0445  0.4693  0.5850
  907MPD2    C513285   2.189   3.266  15.469 -0.0260  0.2435 -0.4747
  907MPD2     H13286   2.556   3.217  15.563  0.2072  0.4406 -0.3230
  907MPD2    H113287   2.160   3.335  15.671 -0.5553  2.1931 -0.6327
  907MPD2    H213288   2.230   3.207  15.279  3.3107  3.9118 -2.3702
  907MPD2    H313289   2.088   3.286  15.436 -0.7264  0.0076  1.4841
  907MPD2     N13290   2.416   3.308  15.760  0.0512  0.1093  0.8518
  907MPD2    H513291   2.513   3.285  15.774  0.2442  0.4195  0.0129
  907MPD2    N113292   2.513   3.163  15.308  0.3682 -0.2023  0.6733
  907MPD2    H713293   2.608   3.144  15.339  1.1525  1.2823 -0.8147
  908MPD2     C13294   0.943   3.747   9.686 -0.2115  1.0264 -0.0019
  908MPD2    C113295   1.026   3.691   9.782  0.4180  0.1880  0.2645
  908MPD2    C213296   1.026   3.731   9.921  0.0948 -0.0138 -0.5096
  908MPD2    C313297   0.951   3.834   9.955  0.3663  0.5343 -0.6385
  908MPD2    C413298   0.863   3.888   9.857  0.2528  0.1140  0.1864
  908MPD2    C513299   0.863   3.851   9.727 -0.1292  0.3699  0.0458
  908MPD2     H13300   1.099   3.686   9.987 -1.3194 -1.0545  0.3183
  908MPD2    H113301   0.794   3.967   9.884 -2.2860 -2.7815  2.0902
  908MPD2    H213302   0.943   3.721   9.581 -0.4952 -1.4001  0.6000
  908MPD2    H313303   0.798   3.894   9.652  2.0672  2.6047 -0.5427
  908MPD2     N13304   0.948   3.871  10.091  0.1744  0.6001 -0.1714
  908MPD2    H513305   1.012   3.824  10.154 -0.2597 -0.1797 -0.3098
  908MPD2    N113306   1.105   3.577   9.747 -0.3473 -0.1545  0.5292
  908MPD2    H713307   1.179   3.551   9.811  0.4344 -1.9506 -1.1234
  909MPD2     C13308   0.945   1.713  11.703 -0.3476  0.4442  0.6312
  909MPD2    C113309   0.977   1.841  11.659  0.3693  0.6390 -0.0433
  909MPD2    C213310   0.965   1.948  11.747 -0.7079 -0.1376  0.4814
  909MPD2    C313311   0.898   1.930  11.869  0.0089  0.1917 -0.2073
  909MPD2    C413312   0.854   1.809  11.903  0.6264 -0.6464 -0.6102
  909MPD2    C513313   0.879   1.701  11.822 -0.1307 -0.2027 -0.0461
  909MPD2     H13314   0.991   2.050  11.721  1.2077 -1.4946 -2.9459
  909MPD2    H113315   0.813   1.780  11.999  1.0914  0.3794 -0.0976
  909MPD2    H213316   0.964   1.623  11.647 -1.0528  1.1906 -0.8159
  909MPD2    H313317   0.858   1.602  11.861  0.6539 -0.0152  0.8360
  909MPD2     N13318   0.863   2.040  11.951 -1.0258 -0.0720 -0.0720
  909MPD2    H513319   0.851   2.129  11.904  0.8177  1.3472  2.1589
  909MPD2    N113320   1.045   1.860  11.534  0.5749  0.4948 -0.1040
  909MPD2    H713321   1.083   1.952  11.515  1.2912  0.3721  0.7383
  910MPD2     C13322   2.957   3.653  16.252 -0.3063  0.3764  0.4708
  910MPD2    C113323   3.009   3.578  16.150  0.2548  0.5010  0.7854
  910MPD2    C213324   3.011   3.628  16.024  0.1287  0.3705  0.0144
  910MPD2    C313325   2.952   3.737  15.984 -0.8493 -0.2213 -0.0344
  910MPD2    C413326   2.885   3.801  16.084 -1.2760  0.3909  0.3282
  910MPD2    C513327   2.892   3.766  16.215  0.2049  0.2555 -0.1085
  910MPD2     H13328   3.062   3.561  15.955 -0.9131 -0.1820 -0.2068
  910MPD2    H113329   2.814   3.882  16.066 -1.9856 -0.3685 -0.2725
  910MPD2    H213330   2.953   3.623  16.356  0.4805 -3.2238 -0.5498
  910MPD2    H313331   2.842   3.817  16.296 -0.6334  0.6007 -0.8475
  910MPD2     N13332   2.954   3.796  15.860 -0.0074 -0.1373  0.1774
  910MPD2    H513333   2.908   3.886  15.855 -0.9727 -0.6943 -0.9104
  910MPD2    N113334   3.056   3.449  16.176 -0.2204 -0.1284 -0.2547
  910MPD2    H713335   3.083   3.390  16.098  1.2544 -0.3803  0.4501
  911MPD2     C13336   0.833   4.532  16.302  1.1555 -0.1135 -0.4233
  911MPD2    C113337   0.906   4.630  16.366  0.5523  0.5351  0.3982
  911MPD2    C213338   0.895   0.037  16.311  0.3705  0.1502  0.0219
  911MPD2    C313339   0.813   0.053  16.198 -0.6799 -0.1464  0.1620
  911MPD2    C413340   0.753   4.667  16.135 -0.7841 -0.2803 -0.1260
  911MPD2    C513341   0.776   4.544  16.186  0.1112 -0.6625 -0.1050
  911MPD2     H13342   0.923   0.128  16.363 -2.5831  1.0992 -0.0125
  911MPD2    H113343   0.697   4.676  16.043 -2.4300  0.4117  0.9321
  911MPD2    H213344   0.852   4.431  16.336 -2.3351 -0.1313  1.4310
  911MPD2    H313345   0.754   4.448  16.141 -0.3798 -0.7080  0.2376
  911MPD2     N13346   0.784   0.175  16.132 -0.0430 -0.5635 -0.0120
  911MPD2    H513347   0.720   0.180  16.054  0.4640  0.4071 -0.3656
  911MPD2    N113348   0.968   4.602  16.494  0.0810 -0.0600 -0.6828
  911MPD2    H713349   0.966   4.507  16.529  1.3142  0.6363  1.2801
  912MPD2     C13350   0.104   0.050  16.113 -0.3796 -0.6799  0.2235
  912MPD2    C113351   0.231   0.040  16.145  0.0184  0.0811  0.3331
  912MPD2    C213352   0.274   4.661  16.230  0.1644 -0.5028 -0.7088
  912MPD2    C313353   0.186   4.557  16.265 -0.3218 -0.1763 -0.3674
  912MPD2    C413354   0.055   4.565  16.222 -0.4997 -0.2113  0.6165
  912MPD2    C513355   0.013   4.678  16.162 -0.0520 -0.0436 -0.0031
  912MPD2     H13356   0.380   4.654  16.248  0.0063 -0.9431  0.0081
  912MPD2    H113357   4.695   4.498  16.247  0.4460 -0.4638  3.0601
  912MPD2    H213358   0.061   0.130  16.053  0.9545 -1.5589 -1.8992
  912MPD2    H313359   4.628   4.688  16.145 -0.0401  0.0507 -0.0224
  912MPD2     N13360   0.233   4.454  16.354  0.5152  0.2293  0.2591
  912MPD2    H513361   0.325   4.470  16.395  0.8312 -1.7985  0.3643
  912MPD2    N113362   0.320   0.149  16.100 -0.0890  0.0328 -0.0253
  912MPD2    H713363   0.284   0.216  16.033  0.3632  0.9458  0.6541
  913MPD2     C13364   1.104   4.626  11.335  0.6788  0.2427 -0.3174
  913MPD2    C113365   1.188   0.006  11.299  0.2916  0.1744  0.1662
  913MPD2    C213366   1.197   0.048  11.166 -0.1997 -0.3864 -0.1738
  913MPD2    C313367   1.136   4.691  11.069 -0.8729  0.1445 -0.1999
  913MPD2    C413368   1.060   4.586  11.103 -0.9452 -0.0191 -0.3581
  913MPD2    C513369   1.040   4.551  11.241 -0.2696  0.0479 -0.6811
  913MPD2     H13370   1.260   0.133  11.143  0.4052 -0.5211  0.9688
  913MPD2    H113371   1.023   4.511  11.033  1.6787 -0.4842 -1.2449
  913MPD2    H213372   1.078   4.605  11.438 -0.3046 -1.0375 -0.8335
  913MPD2    H313373   0.991   4.460  11.272 -0.8190  0.4591 -0.3372
  913MPD2     N13374   1.136   0.006  10.933  0.2108  0.3379 -0.2983
  913MPD2    H513375   1.080   4.671  10.870 -0.0875  2.7325 -2.1481
  913MPD2    N113376   1.242   0.075  11.402 -0.0411 -0.2748  0.5144
  913MPD2    H713377   1.193   0.072  11.491  0.7966  0.1278  0.9872
  914MPD2     C13378   3.334   0.406  11.969  0.3898 -1.4826  0.3818
  914MPD2    C113379   3.404   0.527  11.976  0.0624  0.0324 -0.2177
  914MPD2    C213380   3.466   0.556  12.099  0.5052  0.7341 -0.2692
  914MPD2    C313381   3.441   0.479  12.209  0.1535 -0.6391 -0.1661
  914MPD2    C413382   3.349   0.377  12.205  0.1826  0.7217 -0.8188
  914MPD2    C513383   3.314   0.330  12.078  0.9886 -0.1446  0.0741
  914MPD2     H13384   3.522   0.648  12.112 -0.8026  1.4054  0.6156
  914MPD2    H113385   3.323   0.310  12.286 -0.2942 -0.2894 -1.8130
  914MPD2    H213386   3.294   0.366  11.877  0.1926  0.7884 -0.5268
  914MPD2    H313387   3.272   0.231  12.066  0.5701  0.0134  0.2323
  914MPD2     N13388   3.504   0.522  12.328  0.6718 -0.0960  0.4671
  914MPD2    H513389   3.576   0.591  12.310  0.3234 -0.3372 -1.9561
  914MPD2    N113390   3.398   0.603  11.861  0.4508 -0.1360  0.1148
  914MPD2    H713391   3.345   0.575  11.779 -1.9372  2.1080  0.8870
  915MPD2     C13392   2.234   1.014  15.467  0.0408 -0.6421  0.2222
  915MPD2    C113393   2.116   0.939  15.468 -0.3111 -0.3534 -0.2262
  915MPD2    C213394   2.056   0.909  15.591  0.2616 -0.3556  0.0873
  915MPD2    C313395   2.108   0.950  15.710  0.3305  0.3937 -0.3356
  915MPD2    C413396   2.224   1.027  15.711  0.1515  0.3923 -0.1939
  915MPD2    C513397   2.282   1.052  15.588 -0.2074  0.5467  0.0195
  915MPD2     H13398   1.963   0.855  15.600  1.4363 -2.2745  0.6442
  915MPD2    H113399   2.264   1.074  15.799 -0.2954 -0.9883  0.7472
  915MPD2    H213400   2.299   1.037  15.384 -3.3636 -0.1201 -2.3157
  915MPD2    H313401   2.379   1.102  15.591  0.5853 -0.9856 -0.3525
  915MPD2     N13402   2.029   0.928  15.826 -0.7129  0.0651 -0.2608
  915MPD2    H513403   1.939   0.882  15.817 -0.6069  0.0759 -1.3357
  915MPD2    N113404   2.053   0.890  15.351 -0.5908  0.4264 -0.1874
  915MPD2    H713405   1.975   0.826  15.365  1.0963 -1.2565  1.7306
  916MPD2     C13406   0.226   3.822  15.921  0.9239 -0.5211 -0.1314
  916MPD2    C113407   0.107   3.754  15.955 -0.6195 -0.4065 -0.8073
  916MPD2    C213408   0.054   3.659  15.877  0.0072  0.1013  1.0802
  916MPD2    C313409   0.128   3.619  15.763  0.0728  0.7762  0.7486
  916MPD2    C413410   0.247   3.681  15.733 -0.5019  1.0838  0.0187
  916MPD2    C513411   0.299   3.785  15.804  0.3757  0.1937 -0.9704
  916MPD2     H13412   4.679   3.611  15.890  0.0829 -0.2467  0.3614
  916MPD2    H113413   0.304   3.636  15.652 -0.9889  3.1236 -1.4557
  916MPD2    H213414   0.253   3.897  15.994 -2.1818  1.0630 -0.6356
  916MPD2    H313415   0.390   3.834  15.774 -0.8252  0.7847 -3.6310
  916MPD2     N13416   0.073   3.516  15.680 -0.4974 -0.1550 -0.4667
  916MPD2    H513417   4.709   3.474  15.715  0.0365 -1.3941 -0.6760
  916MPD2    N113418   0.026   3.791  16.072 -0.0713  0.3907 -0.4146
  916MPD2    H713419   0.054   3.879  16.114  0.0861 -0.6070  1.5829
  917MPD2     C13420   0.568   1.409  10.858  0.5745 -0.0312  1.3170
  917MPD2    C113421   0.556   1.528  10.924  0.0505 -0.7073  0.5378
  917MPD2    C213422   0.629   1.639  10.882  0.1699 -0.9716  0.5703
  917MPD2    C313423   0.724   1.625  10.773  0.1544 -0.4667 -0.1432
  917MPD2    C413424   0.728   1.505  10.706  0.4422 -0.0028 -0.1016
  917MPD2    C513425   0.653   1.399  10.751 -0.3867  0.1287  0.7203
  917MPD2     H13426   0.624   1.731  10.940  1.2141 -0.6647  0.1740
  917MPD2    H113427   0.798   1.480  10.627  0.1256  1.8258 -0.9695
  917MPD2    H213428   0.511   1.322  10.889  1.4025  0.0293  2.9956
  917MPD2    H313429   0.686   1.304  10.711 -1.1908  0.9410 -1.8566
  917MPD2     N13430   0.809   1.729  10.717 -0.5593  0.4908  0.0950
  917MPD2    H513431   0.873   1.699  10.643  1.0531  0.1708  1.6162
  917MPD2    N113432   0.471   1.533  11.038 -0.8408 -0.9643 -0.0342
  917MPD2    H713433   0.431   1.446  11.071 -0.2151 -1.6498 -1.0668
  918MPD2     C13434   0.517   1.845  12.063 -0.4451 -0.2778 -0.1605
  918MPD2    C113435   0.519   1.710  12.035 -0.0782 -0.4475 -0.0428
  918MPD2    C213436   0.482   1.655  11.915  0.4297 -0.1547  0.5573
  918MPD2    C313437   0.456   1.741  11.812  0.1334  0.0662 -0.2945
  918MPD2    C413438   0.460   1.878  11.827 -0.8150  0.0297  0.4482
  918MPD2    C513439   0.490   1.930  11.953 -0.6096 -0.3547 -0.6313
  918MPD2     H13440   0.477   1.548  11.899 -0.1509 -0.1430  0.6481
  918MPD2    H113441   0.439   1.946  11.744 -3.0781  0.5194  1.4165
  918MPD2    H213442   0.575   1.886  12.145 -1.3700 -1.1152  0.9115
  918MPD2    H313443   0.483   2.035  11.979 -1.0093 -0.4986 -0.1665
  918MPD2     N13444   0.437   1.679  11.695 -0.0502  0.1825 -0.3162
  918MPD2    H513445   0.436   1.577  11.703 -1.3885  0.3280  1.4113
  918MPD2    N113446   0.596   1.615  12.108 -0.0298 -0.4056 -0.1454
  918MPD2    H713447   0.611   1.523  12.066  2.4820 -0.7080  1.4319
  919MPD2     C13448   1.246   0.534  11.630 -0.0520  0.0142 -0.6285
  919MPD2    C113449   1.147   0.456  11.670  0.7637 -0.5888 -0.3667
  919MPD2    C213450   1.063   0.408  11.567 -0.5848  0.0514  0.2746
  919MPD2    C313451   1.079   0.447  11.433  0.4342  0.5473 -0.1349
  919MPD2    C413452   1.172   0.541  11.407  0.8790 -0.2266  0.0266
  919MPD2    C513453   1.253   0.590  11.509  0.3497  0.3740  0.8242
  919MPD2     H13454   0.979   0.349  11.602 -0.3433 -0.3724  0.1274
  919MPD2    H113455   1.196   0.577  11.307 -1.3765  0.3388 -0.2974
  919MPD2    H213456   1.312   0.566  11.710 -0.6772 -1.4608  0.4807
  919MPD2    H313457   1.334   0.659  11.488  0.8705  0.2672  2.4271
  919MPD2     N13458   1.003   0.403  11.328 -0.5191 -0.1340  0.0951
  919MPD2    H513459   1.030   0.430  11.233 -0.9799 -1.5983 -0.4457
  919MPD2    N113460   1.132   0.402  11.797  0.7178  0.3365  0.5933
  919MPD2    H713461   1.074   0.318  11.804  0.9435  0.1334  0.0760
  920MPD2     C13462   0.797   0.252  10.343 -0.0208  0.0563 -0.4069
  920MPD2    C113463   0.722   0.149  10.399 -0.1854 -0.0714  0.2310
  920MPD2    C213464   0.702   0.158  10.535  0.1082  0.9252 -0.6075
  920MPD2    C313465   0.769   0.246  10.613 -0.5055  0.2142 -0.5985
  920MPD2    C413466   0.843   0.345  10.562 -0.7790 -0.5155 -0.2416
  920MPD2    C513467   0.851   0.356  10.421 -0.0249 -0.2060 -0.3168
  920MPD2     H13468   0.640   0.086  10.586 -1.0897  1.5092 -1.2371
  920MPD2    H113469   0.891   0.425  10.617  2.2434 -0.5029 -2.9076
  920MPD2    H213470   0.813   0.262  10.236  0.4658  2.9695 -0.0587
  920MPD2    H313471   0.906   0.437  10.373 -1.3745  0.3002 -0.9852
  920MPD2     N13472   0.742   0.225  10.754  0.8629  0.7701 -0.4674
  920MPD2    H513473   0.677   0.150  10.773  0.5768  0.2014 -3.6565
  920MPD2    N113474   0.656   0.047  10.332 -0.0149  0.8992 -0.0392
  920MPD2    H713475   0.608   4.706  10.395 -0.5432  0.9006 -0.4443
  921MPD2     C13476   1.958   4.607  16.656  0.1173 -0.5107 -0.5679
  921MPD2    C113477   1.896   4.483  16.630 -0.0941  0.8443 -0.0007
  921MPD2    C213478   1.767   4.461  16.672  0.0214 -0.3076 -0.1423
  921MPD2    C313479   1.690   4.566  16.723  0.2674  0.4787  0.0104
  921MPD2    C413480   1.747   4.689  16.742  0.5828 -0.5126  0.2338
  921MPD2    C513481   1.881   4.708  16.717  0.1581 -0.0205  0.0577
  921MPD2     H13482   1.717   4.367  16.655 -0.4343  0.2122 -1.6468
  921MPD2    H113483   1.690   0.055  16.771  0.6486  0.0648 -1.4102
  921MPD2    H213484   2.056   4.632  16.618 -0.8588 -1.8535 -3.9907
  921MPD2    H313485   1.925   0.085  16.727  0.1278 -0.1479  1.3923
  921MPD2     N13486   1.551   4.539  16.748 -0.2685  0.7254  0.0832
  921MPD2    H513487   1.524   4.448  16.712 -1.6078  1.6819 -1.3822
  921MPD2    N113488   1.976   4.384  16.570  0.2052 -0.3904  0.0291
  921MPD2    H713489   2.075   4.399  16.550  0.1042  0.6472  0.3163
  922MPD2     C13490   2.654   2.137  17.484  0.0204 -0.1501 -0.1977
  922MPD2    C113491   2.665   2.027  17.567  0.4719  0.0886  0.5911
  922MPD2    C213492   2.594   2.020   0.001  0.3497 -0.0688 -0.4259
  922MPD2    C313493   2.507   2.124   0.044 -0.1740 -0.2792  0.2426
  922MPD2    C413494   2.500   2.225  17.641 -0.0638 -0.0804 -0.4906
  922MPD2    C513495   2.569   2.238  17.529  0.1396 -0.4042  0.0508
  922MPD2     H13496   2.598   1.932   0.063 -2.3447 -0.3706 -0.7070
  922MPD2    H113497   2.424   2.302  17.653 -0.2808 -0.5767  1.4164
  922MPD2    H213498   2.698   2.147  17.385  1.8044  1.4059  0.7206
  922MPD2    H313499   2.545   2.316  17.458  0.5921 -0.6042 -0.3193
  922MPD2     N13500   2.424   2.115   0.162 -0.5138  0.2556  0.4395
  922MPD2    H513501   2.431   2.027   0.213 -1.1548 -0.4818 -0.7591
  922MPD2    N113502   2.751   1.920  17.536 -0.0350  0.3386 -0.1158
  922MPD2    H713503   2.757   1.837  17.592  0.3351  0.4520  0.0143
  923MPD2     C13504   3.571   4.364   9.237  0.1735 -0.6108 -0.0009
  923MPD2    C113505   3.567   4.423   9.361 -0.1617 -0.8311 -0.3280
  923MPD2    C213506   3.620   4.357   9.474 -0.2231  0.3926  0.3629
  923MPD2    C313507   3.667   4.226   9.469 -0.7313  0.2379 -0.9266
  923MPD2    C413508   3.662   4.168   9.347 -0.0983 -0.1773 -0.5511
  923MPD2    C513509   3.617   4.235   9.232 -0.1948  0.8171 -0.3622
  923MPD2     H13510   3.611   4.401   9.573  0.7108 -0.7864  0.9648
  923MPD2    H113511   3.687   4.064   9.334  1.2819 -0.0024  0.7560
  923MPD2    H213512   3.533   4.416   9.150 -0.4039 -0.7115  0.1941
  923MPD2    H313513   3.616   4.183   9.138 -0.1154 -0.2936  0.2507
  923MPD2     N13514   3.715   4.159   9.583 -0.0067  0.3282 -0.2472
  923MPD2    H513515   3.724   4.058   9.584 -0.2332  0.2894 -2.6363
  923MPD2    N113516   3.503   4.549   9.368  0.6030 -0.2602 -0.5214
  923MPD2    H713517   3.461   4.591   9.286  0.8220  0.4739 -0.2542
  924MPD2     C13518   2.984   2.869  15.761  0.8605 -0.3497  0.0797
  924MPD2    C113519   2.945   2.979  15.681 -0.3732 -0.0638 -0.5531
  924MPD2    C213520   2.850   3.074  15.734 -0.0646  0.1657 -0.6085
  924MPD2    C313521   2.803   3.065  15.858 -0.0949 -0.2698 -0.2311
  924MPD2    C413522   2.842   2.957  15.935 -0.1962 -0.0565  0.3352
  924MPD2    C513523   2.934   2.865  15.881 -0.0085 -0.2463  0.0774
  924MPD2     H13524   2.824   3.161  15.675  0.3594  0.7563  0.0765
  924MPD2    H113525   2.815   2.939  16.038 -0.2000 -1.6338  0.0528
  924MPD2    H213526   3.044   2.791  15.714  1.2150  0.3288 -0.5996
  924MPD2    H313527   2.956   2.789  15.956 -0.0050  0.2993  0.6261
  924MPD2     N13528   2.730   3.182  15.901  0.2351 -0.2097  0.4157
  924MPD2    H513529   2.727   3.262  15.839 -1.7410 -0.9284 -0.4124
  924MPD2    N113530   2.982   2.986  15.549 -0.2349  0.3686 -0.2050
  924MPD2    H713531   3.069   2.938  15.526 -0.2167  1.0532 -1.5514
  925MPD2     C13532   2.206   0.499  14.507  0.0013  0.1187  0.1000
  925MPD2    C113533   2.217   0.360  14.474 -0.2017 -0.1057  0.1615
  925MPD2    C213534   2.160   0.270  14.553 -0.5140  0.4355  0.6223
  925MPD2    C313535   2.086   0.313  14.668  0.6209 -0.0577 -0.2531
  925MPD2    C413536   2.076   0.445  14.696 -0.4080 -0.3260  0.0383
  925MPD2    C513537   2.134   0.534  14.615 -0.1011  0.1561 -0.1409
  925MPD2     H13538   2.157   0.167  14.520  0.9109  0.7813 -0.5397
  925MPD2    H113539   2.023   0.484  14.783  1.1835  0.8695  0.4519
  925MPD2    H213540   2.266   0.572  14.454 -0.8306 -0.1073 -1.1421
  925MPD2    H313541   2.124   0.639  14.639  2.8207 -0.5447  4.0209
  925MPD2     N13542   2.032   0.209  14.752  0.4878  0.5152  0.0210
  925MPD2    H513543   2.059   0.113  14.736  0.7424  0.0557  3.1733
  925MPD2    N113544   2.266   0.310  14.353 -0.3262 -0.1570  0.4777
  925MPD2    H713545   2.258   0.210  14.344  1.2308  0.0101 -2.5864
  926MPD2     C13546   0.686   2.940  13.394  0.4053  0.0111  0.1071
  926MPD2    C113547   0.669   3.077  13.408  0.9515  0.5379 -0.3499
  926MPD2    C213548   0.732   3.157  13.311  0.2308 -0.0808  1.2819
  926MPD2    C313549   0.799   3.096  13.205 -0.4800  0.1924 -0.4342
  926MPD2    C413550   0.802   2.957  13.198  0.5194 -0.0303 -0.1608
  926MPD2    C513551   0.744   2.878  13.289  0.1304  0.2559 -0.0765
  926MPD2     H13552   0.736   3.264  13.328 -1.7303  0.0820  0.7507
  926MPD2    H113553   0.850   2.910  13.113 -0.9041 -2.0855  0.1735
  926MPD2    H213554   0.655   2.871  13.472 -1.3129  1.0981  0.3744
  926MPD2    H313555   0.773   2.774  13.294  1.2986  0.4903 -1.8314
  926MPD2     N13556   0.880   3.158  13.107 -0.2115 -0.2748 -0.2887
  926MPD2    H513557   0.905   3.104  13.025  1.2994 -1.2258  0.7773
  926MPD2    N113558   0.606   3.136  13.520  0.3689  0.4071  0.3177
  926MPD2    H713559   0.594   3.236  13.510 -2.6489 -0.1924 -1.8252
  927MPD2     C13560   2.074   0.907   0.310 -0.4053  0.3855 -0.0893
  927MPD2    C113561   1.940   0.899   0.273 -0.7702 -0.2293 -0.4553
  927MPD2    C213562   1.910   0.825   0.161 -0.4813  0.3477 -0.5555
  927MPD2    C313563   2.003   0.746   0.093  0.3851  0.1321 -0.2046
  927MPD2    C413564   2.130   0.740   0.146 -0.7183 -0.2886 -0.5235
  927MPD2    C513565   2.160   0.819   0.249  0.6002 -0.3846 -0.4380
  927MPD2     H13566   1.806   0.813   0.134 -0.3726  0.8030 -1.1792
  927MPD2    H113567   2.209   0.695   0.087  0.4530  0.3576  0.5473
  927MPD2    H213568   2.110   0.961   0.397 -1.3015  1.3381 -0.2965
  927MPD2    H313569   2.263   0.819   0.281  0.3291 -2.8137  0.4234
  927MPD2     N13570   1.964   0.670  17.668  0.1126  0.3411 -0.3721
  927MPD2    H513571   1.867   0.690  17.646 -0.1579 -1.8374 -1.1484
  927MPD2    N113572   1.839   0.954   0.356  0.1089  0.3661  0.2559
  927MPD2    H713573   1.875   1.014   0.429 -0.6580  0.7487  0.3188
  928MPD2     C13574   0.461   3.897   1.427 -0.4514  0.2922 -0.4826
  928MPD2    C113575   0.414   4.021   1.450 -0.5627 -0.7268  0.2122
  928MPD2    C213576   0.347   4.083   1.352 -0.0590  0.3474  0.3165
  928MPD2    C313577   0.338   4.027   1.228  0.9357  0.1024  0.4212
  928MPD2    C413578   0.399   3.906   1.199 -0.1153 -0.2424 -0.1463
  928MPD2    C513579   0.457   3.843   1.303 -0.3483  0.2571  0.6924
  928MPD2     H13580   0.296   4.178   1.368  0.6772  0.7213  0.4147
  928MPD2    H113581   0.403   3.879   1.094  2.1761  0.7771 -0.3115
  928MPD2    H213582   0.500   3.841   1.512  0.5664  0.5778 -0.7564
  928MPD2    H313583   0.496   3.744   1.284 -1.9555 -0.4846  1.2244
  928MPD2     N13584   0.281   4.084   1.118  0.2272 -0.1185 -0.0267
  928MPD2    H513585   0.277   4.032   1.031  2.7506  1.4056 -1.0626
  928MPD2    N113586   0.442   4.074   1.581  0.0280 -0.2148 -0.2588
  928MPD2    H713587   0.528   4.033   1.617 -0.4731 -2.0294 -1.1241
  929MPD2     C13588   3.639   3.463  11.326 -0.1591  0.2464 -0.5704
  929MPD2    C113589   3.602   3.338  11.290  0.3121 -0.0602 -0.3960
  929MPD2    C213590   3.548   3.313  11.165 -0.2483  0.2193  0.6965
  929MPD2    C313591   3.518   3.414  11.074  0.6835  0.5475 -0.0933
  929MPD2    C413592   3.552   3.541  11.112  0.6748 -0.6071  0.3036
  929MPD2    C513593   3.603   3.563  11.238 -0.3474  0.0917 -0.0395
  929MPD2     H13594   3.502   3.217  11.145 -0.1571  1.0191 -3.3641
  929MPD2    H113595   3.539   3.618  11.037 -0.4541 -0.3357  0.7716
  929MPD2    H213596   3.686   3.479  11.422 -3.1772 -0.4254  1.0425
  929MPD2    H313597   3.627   3.662  11.276  0.1535  0.0516 -0.2593
  929MPD2     N13598   3.458   3.404  10.945 -0.2538  0.7296  0.1120
  929MPD2    H513599   3.437   3.493  10.901  0.2833  0.6914 -0.2109
  929MPD2    N113600   3.601   3.236  11.391 -0.3337  0.2995  0.4881
  929MPD2    H713601   3.629   3.268  11.484  2.1165 -1.1635  0.2639
  930MPD2     C13602   1.117   1.048  14.277  0.5247 -0.3305 -0.0201
  930MPD2    C113603   1.013   1.141  14.252  0.5657 -0.0341 -0.0756
  930MPD2    C213604   0.951   1.140  14.128  0.5355 -0.4896 -0.4091
  930MPD2    C313605   0.978   1.029  14.045  0.3347 -0.3740 -0.9821
  930MPD2    C413606   1.069   0.936  14.081 -0.4529  0.3277  0.2392
  930MPD2    C513607   1.140   0.943  14.193 -0.4350  0.0336 -0.3125
  930MPD2     H13608   0.877   1.212  14.094  0.8923 -0.5235 -1.2545
  930MPD2    H113609   1.101   0.856  14.015 -1.3751  0.4432 -0.3403
  930MPD2    H213610   1.178   1.065  14.365  1.4309 -1.9090 -0.3399
  930MPD2    H313611   1.204   0.862  14.225 -0.7456  0.2821  0.9285
  930MPD2     N13612   0.920   1.021  13.917 -0.2510  0.1273  0.1046
  930MPD2    H513613   0.960   0.950  13.857  2.4425  2.3164 -0.6669
  930MPD2    N113614   1.009   1.258  14.329 -0.3472 -0.2520  0.1545
  930MPD2    H713615   1.080   1.279  14.398 -0.7131  1.8026 -0.0704
  931MPD2     C13616   1.391   1.431   0.901  0.0643 -0.6543  0.2401
  931MPD2    C113617   1.494   1.336   0.892  0.7902  0.3768 -0.6690
  931MPD2    C213618   1.529   1.263   1.004  0.7362 -0.0045 -0.2506
  931MPD2    C313619   1.468   1.293   1.129  0.0468 -0.3830  0.1498
  931MPD2    C413620   1.368   1.393   1.133  0.2402  0.0371 -0.6226
  931MPD2    C513621   1.329   1.460   1.020  0.5573  0.4833 -0.7565
  931MPD2     H13622   1.588   1.173   0.993  1.1276  0.3614 -1.1433
  931MPD2    H113623   1.325   1.425   1.227 -0.2426 -1.3505 -0.3707
  931MPD2    H213624   1.361   1.499   0.822 -1.6087  0.1608  1.5881
  931MPD2    H313625   1.253   1.536   1.034  2.6413  2.0145  2.1525
  931MPD2     N13626   1.489   1.223   1.246  0.0488 -0.3867  0.3577
  931MPD2    H513627   1.424   1.223   1.324 -0.3374  1.3235  0.0432
  931MPD2    N113628   1.534   1.301   0.761 -0.0495 -0.1057 -0.2537
  931MPD2    H713629   1.483   1.352   0.689 -1.1204  0.4534  0.8857
  932MPD2     C13630   2.213   0.074  11.433 -0.1550 -0.3457 -0.3966
  932MPD2    C113631   2.340   0.036  11.388  0.2562 -0.0816 -0.4266
  932MPD2    C213632   2.388   4.628  11.410 -0.1362 -0.4515 -0.1560
  932MPD2    C313633   2.312   4.533  11.483 -0.4621  0.0355 -0.0940
  932MPD2    C413634   2.188   4.573  11.527 -0.1574  0.2560 -0.0358
  932MPD2    C513635   2.143   4.700  11.510  0.2150 -0.8630 -0.5608
  932MPD2     H13636   2.485   4.592  11.379  0.1230 -0.1319  0.2815
  932MPD2    H113637   2.130   4.505  11.588  0.2481  0.3239  0.4250
  932MPD2    H213638   2.170   0.171  11.411 -0.0348  0.2478  2.0072
  932MPD2    H313639   2.044   0.005  11.546  0.6945  0.4868 -0.2309
  932MPD2     N13640   2.364   4.408  11.521 -0.0161  0.2081  0.0710
  932MPD2    H513641   2.311   4.353  11.588  0.6097 -3.2851 -2.2382
  932MPD2    N113642   2.426   0.119  11.317 -0.7631  0.9048  0.0114
  932MPD2    H713643   2.519   0.085  11.297 -0.7105  0.4593  1.0183
  933MPD2     C13644   0.393   4.494   2.409  0.2711 -0.4336  0.5223
  933MPD2    C113645   0.347   4.513   2.288 -0.4930 -0.0070 -0.2025
  933MPD2    C213646   0.258   4.615   2.266 -0.0473 -0.3556 -0.1018
  933MPD2    C313647   0.216   4.699   2.363 -0.4165 -0.2155 -0.1781
  933MPD2    C413648   0.249   4.670   2.491  0.1995  0.6757 -0.3744
  933MPD2    C513649   0.348   4.577   2.505 -0.4230  0.2263 -0.0291
  933MPD2     H13650   0.233   4.643   2.164  1.7764  1.7030  0.0169
  933MPD2    H113651   0.228   0.017   2.572 -0.9970 -0.1964  0.0476
  933MPD2    H213652   0.478   4.430   2.429  0.3368  0.1591  2.0812
  933MPD2    H313653   0.388   4.565   2.605 -0.9404 -2.1734 -0.1168
  933MPD2     N13654   0.135   0.082   2.322  0.2087 -0.3744 -0.3409
  933MPD2    H513655   0.107   0.082   2.224 -0.4719 -2.0847 -0.1584
  933MPD2    N113656   0.399   4.430   2.184 -0.0151  0.5015  0.6438
  933MPD2    H713657   0.477   4.371   2.212  1.4591  0.3372 -3.8872
  934MPD2     C13658   0.444   1.860   2.170  0.1638  0.4112  0.7698
  934MPD2    C113659   0.547   1.821   2.083  0.4091 -0.3438  0.4238
  934MPD2    C213660   0.511   1.725   1.992  0.5173  0.1424  1.0411
  934MPD2    C313661   0.384   1.672   1.977  0.4923 -0.1829 -0.1518
  934MPD2    C413662   0.289   1.703   2.069  0.8411 -0.2517  0.2266
  934MPD2    C513663   0.322   1.797   2.168 -0.3790  0.2887 -0.7637
  934MPD2     H13664   0.589   1.691   1.925  1.5999  2.1756  1.2648
  934MPD2    H113665   0.195   1.651   2.074  0.5934 -0.0158 -1.9244
  934MPD2    H213666   0.468   1.930   2.250 -1.5572 -0.9023  2.4231
  934MPD2    H313667   0.245   1.832   2.236 -1.2014 -2.2901 -0.3852
  934MPD2     N13668   0.352   1.568   1.883  0.2792 -0.1925 -0.5981
  934MPD2    H513669   0.262   1.524   1.899 -0.0554  0.9984  0.8090
  934MPD2    N113670   0.678   1.878   2.071  0.4586  0.6357 -0.2773
  934MPD2    H713671   0.733   1.838   1.996 -0.4407  2.0979 -1.7148
  935MPD2     C13672   0.767   0.843   1.313  0.0017 -0.1799 -0.4423
  935MPD2    C113673   0.635   0.849   1.275  0.2966 -0.5483 -0.7603
  935MPD2    C213674   0.558   0.950   1.330 -0.2921  0.2812  0.3804
  935MPD2    C313675   0.615   1.038   1.421 -0.8235  0.4474  0.0308
  935MPD2    C413676   0.743   1.022   1.466  0.5519 -0.2611  0.4924
  935MPD2    C513677   0.822   0.928   1.403 -0.7920  0.0688  0.3883
  935MPD2     H13678   0.457   0.965   1.294 -1.3505  0.0503  3.2263
  935MPD2    H113679   0.785   1.095   1.535 -1.3291  1.6122 -0.3534
  935MPD2    H213680   0.838   0.777   1.264  3.4108  2.4765  0.9272
  935MPD2    H313681   0.923   0.915   1.442 -0.8107 -2.2919 -0.4054
  935MPD2     N13682   0.532   1.134   1.480 -0.4755  0.0356  0.0475
  935MPD2    H513683   0.558   1.175   1.569 -1.0902  0.9410 -0.1935
  935MPD2    N113684   0.583   0.769   1.174  0.0419 -0.6052 -0.3122
  935MPD2    H713685   0.490   0.790   1.141  0.9110  3.5238 -0.1129
  936MPD2     C13686   2.946   3.048  12.944  0.5121 -0.3693  0.1642
  936MPD2    C113687   2.861   3.121  12.861  0.1188 -0.3683 -0.7753
  936MPD2    C213688   2.901   3.184  12.740 -0.3078 -0.7451 -0.3097
  936MPD2    C313689   3.028   3.162  12.698  0.1254 -1.1115 -0.3105
  936MPD2    C413690   3.115   3.089  12.777  0.1733  0.0250  0.0774
  936MPD2    C513691   3.070   3.028  12.892  0.6528 -0.0898  0.0980
  936MPD2     H13692   2.839   3.254  12.686  1.3690 -0.0190 -1.2748
  936MPD2    H113693   3.213   3.070  12.737  1.1572  1.2327  1.9226
  936MPD2    H213694   2.904   3.006  13.034  0.6262  1.5032  1.0940
  936MPD2    H313695   3.130   2.963  12.955  1.9029 -1.4683 -2.5057
  936MPD2     N13696   3.070   3.228  12.576  0.1260  0.2439  1.6989
  936MPD2    H513697   3.168   3.213  12.552 -0.0471 -1.0366  1.7983
  936MPD2    N113698   2.721   3.151  12.885  0.0534  0.1924 -0.1849
  936MPD2    H713699   2.678   3.221  12.825 -0.5470  0.1703  0.2207
  937MPD2     C13700   0.913   4.523  11.826  0.4325 -0.6048 -0.1226
  937MPD2    C113701   1.034   4.584  11.858  0.2466 -0.4362  0.2285
  937MPD2    C213702   1.147   4.549  11.780 -0.2918 -0.4578  0.9716
  937MPD2    C313703   1.140   4.464  11.670 -0.5699  0.1535  0.4169
  937MPD2    C413704   1.019   4.407  11.637  0.0216  0.2259 -0.1148
  937MPD2    C513705   0.910   4.434  11.717 -0.3693 -0.0772 -0.2610
  937MPD2     H13706   1.247   4.585  11.802 -0.6439 -0.5338  2.6612
  937MPD2    H113707   1.007   4.332  11.559 -1.1129  0.4039 -0.1229
  937MPD2    H213708   0.819   4.544  11.876  0.3018 -0.7597 -0.3060
  937MPD2    H313709   0.821   4.377  11.691 -0.5021  0.5049 -1.0759
  937MPD2     N13710   1.260   4.449  11.598 -0.0047  0.8163  0.0106
  937MPD2    H513711   1.348   4.480  11.639  0.5670 -1.4729  0.5361
  937MPD2    N113712   1.052   4.698  11.938 -0.5252 -0.2040 -0.0880
  937MPD2    H713713   1.143   0.021  11.934  0.3189 -2.1525 -1.8158
  938MPD2     C13714   3.792   0.797   0.732  0.3525 -0.8146 -0.5059
  938MPD2    C113715   3.833   0.882   0.834 -0.8729  0.2352  0.1181
  938MPD2    C213716   3.803   0.853   0.966  0.2144 -0.0657  0.5444
  938MPD2    C313717   3.744   0.740   1.003 -0.4637 -0.5724 -0.0319
  938MPD2    C413718   3.702   0.650   0.902 -0.0863  0.2850 -0.1955
  938MPD2    C513719   3.739   0.679   0.774 -0.2151  1.1427 -0.0738
  938MPD2     H13720   3.841   0.935   1.026  0.3372 -0.8906  1.5964
  938MPD2    H113721   3.639   0.565   0.922  2.8078 -1.6031  0.7496
  938MPD2    H213722   3.807   0.813   0.626 -0.9109 -1.5051 -0.7788
  938MPD2    H313723   3.702   0.612   0.697 -1.1498 -0.7555  2.0316
  938MPD2     N13724   3.709   0.710   1.140 -0.2365  0.5012 -0.1852
  938MPD2    H513725   3.645   0.632   1.153  1.1269 -0.5246  0.3492
  938MPD2    N113726   3.902   1.001   0.797 -0.6514  0.4310  0.0264
  938MPD2    H713727   3.946   1.060   0.867  1.3749 -0.5153 -0.4589
  939MPD2     C13728   0.150   2.419   1.670 -0.1566 -0.4243  0.1779
  939MPD2    C113729   0.134   2.513   1.569  0.0205  0.2478  0.2179
  939MPD2    C213730   0.178   2.480   1.444 -0.4682 -0.1796  0.1153
  939MPD2    C313731   0.258   2.371   1.418 -0.0043 -0.3362  0.1846
  939MPD2    C413732   0.266   2.278   1.519 -0.4846 -0.0539  0.3708
  939MPD2    C513733   0.218   2.302   1.643 -0.3761  0.0297 -0.7295
  939MPD2     H13734   0.161   2.548   1.361  0.3130 -2.0095 -1.5671
  939MPD2    H113735   0.330   2.191   1.516  0.0255  0.3296 -0.1557
  939MPD2    H213736   0.104   2.429   1.768  0.1723 -3.3639  0.6447
  939MPD2    H313737   0.251   2.233   1.720  0.0957  1.1913  0.1104
  939MPD2     N13738   0.320   2.346   1.293 -0.7987  0.6163 -0.4265
  939MPD2    H513739   0.321   2.428   1.233 -1.5923  0.6923 -0.3324
  939MPD2    N113740   0.067   2.627   1.606  0.1315  0.4078 -0.3047
  939MPD2    H713741   0.044   2.629   1.705  1.1043 -2.2759 -0.0158
  940MPD2     C13742   3.525   3.255  13.594  0.6379  0.7154  0.3526
  940MPD2    C113743   3.660   3.293  13.582  0.8301 -0.5996 -0.8722
  940MPD2    C213744   3.697   3.336  13.458  0.1860  0.1321  0.0551
  940MPD2    C313745   3.611   3.352  13.358 -0.4653 -0.2886  0.3700
  940MPD2    C413746   3.475   3.332  13.382 -0.0058  0.2417  0.3187
  940MPD2    C513747   3.436   3.278  13.497  0.9100 -0.7037  0.0214
  940MPD2     H13748   3.802   3.364  13.453 -0.2462  1.2577 -2.8267
  940MPD2    H113749   3.392   3.362  13.320 -0.0511  2.3939  1.4450
  940MPD2    H213750   3.483   3.204  13.680  0.8848 -0.8622 -0.4547
  940MPD2    H313751   3.332   3.253  13.507  0.8772 -0.4803  0.2225
  940MPD2     N13752   3.653   3.387  13.227  0.5531 -0.2889  0.1678
  940MPD2    H513753   3.582   3.383  13.154  0.0649  0.7966  0.5832
  940MPD2    N113754   3.756   3.264  13.677 -0.2289 -0.5956 -0.1656
  940MPD2    H713755   3.852   3.282  13.650 -1.2694  2.3728 -1.9587
  941MPD2     C13756   2.596   2.294   9.804 -0.8346 -1.0193 -0.1894
  941MPD2    C113757   2.693   2.226   9.883  0.3992 -0.7960  0.9912
  941MPD2    C213758   2.680   2.093   9.902 -0.2951 -0.3117 -0.9302
  941MPD2    C313759   2.573   2.022   9.842  0.4881  0.5903 -0.2689
  941MPD2    C413760   2.485   2.091   9.755  0.2652 -0.3916 -0.3350
  941MPD2    C513761   2.500   2.222   9.744  0.5643  0.4377 -0.1403
  941MPD2     H13762   2.748   2.039   9.968 -1.0659 -2.0234 -1.5368
  941MPD2    H113763   2.413   2.039   9.694  0.0788 -1.0193  0.4209
  941MPD2    H213764   2.606   2.401   9.796  1.0371 -1.1418  0.2859
  941MPD2    H313765   2.426   2.272   9.683 -0.4772 -0.3457  0.4874
  941MPD2     N13766   2.551   1.885   9.868  0.1191  0.0770  0.1371
  941MPD2    H513767   2.462   1.846   9.836 -0.1582  0.3851  0.5345
  941MPD2    N113768   2.797   2.291   9.959  0.4105 -0.3731 -0.1352
  941MPD2    H713769   2.847   2.230  10.022 -1.2838 -1.0689  0.5300
  942MPD2     C13770   2.924   0.172   9.556  0.3919 -0.5895 -0.2994
  942MPD2    C113771   2.991   0.138   9.436  0.3918  0.6715 -0.3373
  942MPD2    C213772   3.045   0.018   9.418  0.3601 -0.4279 -0.5683
  942MPD2    C313773   3.036   4.647   9.524  0.0958 -0.5936  0.2391
  942MPD2    C413774   2.977   4.681   9.642  0.3866 -0.1486  0.1414
  942MPD2    C513775   2.918   0.080   9.660 -0.0432 -0.4202  0.7849
  942MPD2     H13776   3.088   4.709   9.323  1.3257 -2.0892  0.3908
  942MPD2    H113777   2.997   4.623   9.731  0.0025  0.9810  0.9712
  942MPD2    H213778   2.870   0.266   9.566 -0.2758 -1.0768  0.7084
  942MPD2    H313779   2.871   0.109   9.753 -0.6423  1.7167 -0.1732
  942MPD2     N13780   3.081   4.512   9.519  0.2751  0.5980 -0.4246
  942MPD2    H513781   3.058   4.454   9.599 -0.1311  2.9020  1.1297
  942MPD2    N113782   2.989   0.219   9.324  0.6120 -0.1083 -0.0014
  942MPD2    H713783   3.012   0.185   9.231  0.1557 -0.6365  0.0854
  943MPD2     C13784   0.844   1.077   9.757  0.2345  0.2266 -0.3644
  943MPD2    C113785   0.918   1.184   9.801  0.2012  0.2515 -0.1417
  943MPD2    C213786   0.900   1.309   9.743  1.0992  0.3168  0.5374
  943MPD2    C313787   0.796   1.321   9.652  0.1994 -0.9745  0.0803
  943MPD2    C413788   0.713   1.216   9.622  0.1966 -0.0594  0.9778
  943MPD2    C513789   0.747   1.086   9.662  0.0593  0.7005  1.0498
  943MPD2     H13790   0.959   1.394   9.773 -0.4186  1.5508  0.0643
  943MPD2    H113791   0.639   1.223   9.543  0.8592 -3.2756  0.0608
  943MPD2    H213792   0.866   0.979   9.796  0.8138  0.2236 -0.6980
  943MPD2    H313793   0.685   1.000   9.640  0.8259  0.4562 -0.1359
  943MPD2     N13794   0.768   1.449   9.597  0.1020  0.0927  0.5606
  943MPD2    H513795   0.688   1.453   9.534  1.2460  0.3925 -0.8782
  943MPD2    N113796   1.035   1.153   9.879  0.1701  0.3680 -0.1835
  943MPD2    H713797   1.047   1.055   9.899 -2.0653  0.0347 -0.4793
  944MPD2     C13798   2.186   1.230  11.262  0.3343 -0.0310 -0.1060
  944MPD2    C113799   2.076   1.175  11.198 -0.2105  0.0592 -0.0487
  944MPD2    C213800   1.952   1.151  11.261 -0.1859 -0.2891 -0.6901
  944MPD2    C313801   1.945   1.197  11.393  0.7386 -0.4988  0.2467
  944MPD2    C413802   2.058   1.253  11.454  0.2505 -0.3139 -1.0929
  944MPD2    C513803   2.179   1.260  11.391 -0.1404 -0.1757 -0.0299
  944MPD2     H13804   1.868   1.132  11.194 -0.9412 -0.0889  0.2003
  944MPD2    H113805   2.048   1.305  11.549  0.4519 -0.5247 -0.9554
  944MPD2    H213806   2.275   1.250  11.203  1.7224 -0.4596  1.8227
  944MPD2    H313807   2.262   1.313  11.438  1.9149 -3.1846 -0.2711
  944MPD2     N13808   1.827   1.174  11.469  0.3620  0.5856  0.1331
  944MPD2    H513809   1.758   1.114  11.425  0.8889  0.1985 -0.1784
  944MPD2    N113810   2.087   1.154  11.060  0.1112 -0.3839 -0.2661
  944MPD2    H713811   2.161   1.202  11.010 -0.3235 -0.7354 -1.2370
    1TCq1    O113812   3.681   2.654  13.658  0.5729  0.1216  0.5453
    1TCq1    C113813   3.700   2.789  13.661  0.6200 -0.7978  0.1135
    1TCq1    O213814   3.636   2.874  13.600 -0.9225 -0.0503  0.5624
    1TCq1    C213815   3.829   2.810  13.716  0.4798  0.2355 -0.2339
    1TCq1    C313816   3.918   2.882  13.642  0.2504 -0.1003  0.1261
    1TCq1    C413817   4.045   2.898  13.693  0.2815 -0.1158 -0.1644
    1TCq1    C513818   4.085   2.849  13.813 -0.0084 -0.2369  0.3269
    1TCq1    C613819   3.993   2.771  13.882  0.6094  0.3022 -0.1323
    1TCq1    C713820   3.868   2.754  13.835  0.0808  0.2578 -0.3501
    1TCq1    C813821   4.026   2.688  13.994 -0.1138 -0.1351 -0.1407
    1TCq1    O413822   3.969   2.583  14.011 -0.4148 -0.5317 -0.1309
    1TCq1    C913823   4.139   2.977  13.620  0.0243 -0.2933 -0.1191
    1TCq1    O513824   4.109   2.984  13.496 -0.4715  0.7368  0.0756
    1TCq1    O613825   4.254   2.997  13.666  0.1448 -0.1287  0.5120
    1TCq1    H113826   3.759   2.601  13.686  0.0160 -0.4683  0.9930
    1TCq1    H213827   3.898   2.921  13.543  2.2240 -3.1100 -1.4599
    1TCq1    H313828   4.179   2.876  13.860  0.7761 -1.4144 -0.5923
    1TCq1    H413829   3.800   2.698  13.898  2.9991 -2.4781  0.3601
    2MPD2     C13830   4.244   2.634  14.447  0.2878 -0.4379  0.3030
    2MPD2    C113831   4.299   2.746  14.392  0.1273  0.4805  0.1865
    2MPD2    C213832   4.259   2.780  14.263  0.9893  0.5366  0.1167
    2MPD2    C313833   4.169   2.696  14.191 -0.3007 -0.1857 -0.6119
    2MPD2    C413834   4.126   2.579  14.252  0.5944  0.2799  0.6473
    2MPD2    C513835   4.162   2.551  14.378  0.2055 -0.3156 -0.0341
    2MPD2     H13836   4.286   2.876  14.220 -4.4929  1.9685 -0.0290
    2MPD2    H113837   4.067   2.507  14.195  0.3236  1.8039 -1.0008
    2MPD2    H213838   4.266   2.608  14.550 -1.4074 -2.2148  0.2243
    2MPD2    H313839   4.115   2.464  14.422  1.0319 -1.2126 -0.9335
    2MPD2     N13840   4.130   2.742  14.067 -0.7477 -0.8395  0.3631
    2MPD2    H513841   4.188   2.818  14.033 -4.4585  1.4115 -0.8058
    2MPD2    N113842   4.392   2.818  14.473 -0.8183 -0.3799 -0.6540
    2MPD2    H713843   4.398   2.804  14.573  0.1254  0.8703 -0.5254
    3TMC2    C113844   4.576   2.972  14.502 -0.2488  0.3725  0.6444
    3TMC2    C213845   4.556   2.995  14.634 -0.2363  0.4075 -0.0164
    3TMC2    C313846   4.596   3.110  14.694 -0.0128  0.0985 -0.2036
    3TMC2    C413847   4.650   3.065  14.439  0.2062  0.0760  0.1698
    3TMC2    C513848   4.699   3.178  14.501 -0.6148  0.1476 -0.2255
    3TMC2    C613849   4.680   3.200  14.635 -0.4090  0.1491 -0.7798
    3TMC2     C13850   4.495   2.893  14.413  1.2451  0.1842 -0.4519
    3TMC2     O13851   4.532   2.896  14.296  0.5064 -0.9078  0.4705
    3TMC2     H13852   4.499   2.920  14.687 -1.0237  1.6335  0.8791
    3TMC2    H113853   4.677   3.059  14.334  0.0912  3.7317 -0.0775
    3TMC2    H213854   4.677   3.302  14.673  0.0286 -0.0870 -0.1265
    3TMC2    C713855   4.652   3.295  14.431 -0.0909  0.1472 -1.1381
    3TMC2    C813856   4.590   3.117  14.842 -0.8443  0.0701  0.8729
    3TMC2    O113857   4.568   3.259  14.353  0.0296  0.2723 -0.3923
    3TMC2    O213858   4.520   3.042  14.908 -0.0906 -0.0554 -0.2904
    3TMC2    O513859   4.705   3.187  14.878  0.0497 -0.4146 -0.8757
    3TMC2    H513860   4.710   3.187  14.976 -1.0286 -2.8980 -0.8367
    4MPD2     C13861   3.672   3.823  13.647 -0.4444 -0.1011 -0.2242
    4MPD2    C113862   3.741   3.785  13.541 -0.2556  0.2971 -0.3361
    4MPD2    C213863   3.865   3.741  13.562  0.6248 -0.2249  0.5999
    4MPD2    C313864   3.918   3.722  13.685  0.4070  0.1939  0.2529
    4MPD2    C413865   3.850   3.765  13.798 -0.5424  0.0756  0.2728
    4MPD2    C513866   3.720   3.821  13.776  0.3384 -0.0893  0.0148
    4MPD2     H13867   3.925   3.727  13.472 -1.3428 -1.4267 -0.5312
    4MPD2    H113868   3.896   3.775  13.896 -0.2949 -0.5306  0.2138
    4MPD2    H213869   3.572   3.861  13.625 -1.0250 -0.6586  1.4575
    4MPD2    H313870   3.662   3.859  13.859 -1.3681 -1.7166 -0.4512
    4MPD2     N13871   4.036   3.652  13.693  0.2617  0.4644  0.1901
    4MPD2    H513872   4.088   3.632  13.608  1.0528 -1.1172  1.0379
    4MPD2    N113873   3.683   3.786  13.410  0.1782 -0.3875  0.2508
    4MPD2    H713874   3.584   3.806  13.403 -0.0751 -0.9918  2.0530
    5TCq2    C113875   4.108   3.628  13.807 -0.2650  0.0074 -0.2326
    5TCq2    O213876   4.082   3.655  13.923 -0.0156  0.8847 -0.4285
    5TCq2    C213877   4.235   3.572  13.779 -0.1462 -0.2214  0.4599
    5TCq2    C313878   4.251   3.480  13.678 -0.2919  0.0874  0.0080
    5TCq2    C413879   4.368   3.413  13.664 -0.6088  0.5116 -0.8331
    5TCq2    C513880   4.480   3.445  13.745  0.4036 -0.4846 -0.1170
    5TCq2    C613881   4.453   3.537  13.851 -0.0534 -0.1791  0.3996
    5TCq2    C713882   4.331   3.598  13.871  0.0152  0.3448 -0.9123
    5TCq2    C813883   4.534   3.505  13.971  0.3184 -0.0683 -0.7343
    5TCq2    O413884   4.573   3.393  13.991  0.1911 -0.1330 -0.2963
    5TCq2    C913885   4.380   3.300  13.575  0.1132  0.8461  0.2399
    5TCq2    O513886   4.470   3.213  13.594  0.1913  0.7112 -0.3505
    5TCq2    O613887   4.267   3.272  13.518 -0.5505  0.0092  0.2055
    5TCq2    H213888   4.170   3.447  13.614 -2.2320  2.3308  1.2919
    5TCq2    H313889   4.560   3.374  13.764  0.8424  0.1055  0.2490
    5TCq2    H413890   4.318   3.662  13.957  0.2270  1.3969 -1.6597
    6MPD1     C13891   2.800   0.206  13.352  0.3970  0.4163 -1.0388
    6MPD1    C113892   2.843   0.079  13.396  0.5905  0.3755  0.0775
    6MPD1    C213893   2.840   4.692  13.299 -0.0446  0.2034 -0.1368
    6MPD1    C313894   2.780   4.707  13.176 -0.2453  0.3835 -0.2230
    6MPD1    C413895   2.747   0.114  13.139  0.1479  0.5768  0.4144
    6MPD1    C513896   2.767   0.222  13.220 -0.1303 -1.0243  0.2037
    6MPD1     H13897   2.887   4.599  13.328 -2.1522 -0.8937 -0.2034
    6MPD1    H113898   2.695   0.126  13.045 -1.5293  1.1368  1.4201
    6MPD1    H213899   2.804   0.290  13.420 -0.4204 -1.5175  1.4316
    6MPD1    H313900   2.746   0.323  13.185  0.9639 -0.3522  1.4940
    6MPD1     N13901   2.771   4.598  13.082 -0.1594  0.1197  0.0838
    6MPD1    H513902   2.762   4.618  12.982  0.6823  0.0952  0.0024
    6MPD1    N113903   2.929   0.069  13.510  0.0239 -0.4120  0.7556
    6MPD1    H613904   2.915   4.700  13.554 -0.4205 -1.0361 -0.6754
    6MPD1    H713905   2.919   0.139  13.583 -0.5810  1.3600 -1.0192
    7MPD2     C13906   2.836   3.834  13.140  0.0644 -0.0043  0.1715
    7MPD2    C113907   2.895   3.867  13.019 -0.2967  0.0853  0.1504
    7MPD2    C213908   3.026   3.833  12.992 -0.3493  0.6845  0.0324
    7MPD2    C313909   3.094   3.760  13.089  0.4834 -0.8192 -0.8193
    7MPD2    C413910   3.038   3.736  13.217 -0.2850 -0.3614  0.3816
    7MPD2    C513911   2.908   3.753  13.230  0.1445  0.5741 -0.5632
    7MPD2     H13912   3.083   3.859  12.903 -0.3590 -2.0290 -0.7806
    7MPD2    H113913   3.096   3.697  13.299  1.2755  2.0394  0.4165
    7MPD2    H213914   2.734   3.851  13.172  0.6516  0.9601  1.5043
    7MPD2    H313915   2.870   3.731  13.329  1.4976  0.3734 -0.0962
    7MPD2     N13916   3.227   3.726  13.054 -0.4337 -0.2790 -0.1409
    7MPD2    H513917   3.250   3.739  12.956 -0.0216 -0.3593 -0.0563
    7MPD2    N113918   2.835   3.969  12.942 -0.0389  0.0298  0.0344
    7MPD2    H713919   2.900   4.017  12.882 -1.2549  1.2872 -0.2738
    8TMC3    C113920   3.457   3.679  13.103 -0.4715 -0.0412 -0.3461
    8TMC3    C213921   3.545   3.700  13.202  0.2690 -0.8723 -0.6762
    8TMC3    C313922   3.670   3.763  13.180  0.0772  0.2704  0.1935
    8TMC3    C413923   3.487   3.743  12.979 -0.0069  0.0722 -0.1068
    8TMC3    C513924   3.615   3.799  12.955  0.1559  0.0698  0.0184
    8TMC3    C613925   3.709   3.812  13.058  0.2961  0.2786 -0.7493
    8TMC3     C13926   3.319   3.676  13.144 -0.4975 -0.5049 -0.7273
    8TMC3     O13927   3.315   3.639  13.260  0.4330  0.0876  0.2860
    8TMC3     H13928   3.534   3.654  13.299  1.3158  2.3961  1.0227
    8TMC3    H113929   3.430   3.718  12.890 -1.9032  1.6880  0.6357
    8TMC3    H213930   3.803   3.866  13.045 -0.3454  0.9915 -2.5047
    8TMC3    C713931   3.603   3.923  12.879  0.5916 -0.2781 -0.5370
    8TMC3    C813932   3.756   3.770  13.293 -0.3383 -0.2049 -0.8245
    8TMC3    O113933   3.699   4.002  12.875  0.1096 -0.0258 -0.8569
    8TMC3    O213934   3.873   3.787  13.266 -0.3163 -0.3609 -0.1706
    9TMC3    C113935   2.755   4.390  12.992 -0.0433 -0.0823  0.3468
    9TMC3    C213936   2.850   4.408  12.900 -0.5604 -0.1061 -0.5618
    9TMC3    C313937   2.872   4.310  12.806 -0.6036  0.3622  0.0583
    9TMC3    C413938   2.701   4.265  13.008 -0.0394 -0.0424  0.0084
    9TMC3    C513939   2.730   4.170  12.922  0.5418  0.1058 -0.5552
    9TMC3    C613940   2.817   4.189  12.817  0.7724 -0.1752  0.7106
    9TMC3     C13941   2.765   4.466  13.117  0.1335 -0.6191  0.6628
    9TMC3     O13942   2.727   4.422  13.223  0.6868  0.1072 -0.1395
    9TMC3     H13943   2.914   4.495  12.908  0.9793 -1.3568  0.7559
    9TMC3    H113944   2.645   4.256  13.101 -0.7661 -0.0071 -0.4333
    9TMC3    H213945   2.822   4.113  12.740  0.8647 -1.9288  2.4608
    9TMC3    C713946   2.710   4.032  12.959 -0.4862 -0.4088 -0.3538
    9TMC3    C813947   2.999   4.333  12.742  0.1182  0.2546 -0.4761
    9TMC3    O113948   2.620   3.995  13.034  0.0302  0.1671  0.4764
    9TMC3    O213949   3.028   4.451  12.709 -0.2958  0.2545  0.2605
   10MPD2     C13950   3.499   4.192  12.784 -0.6165 -0.6369 -0.3320
   10MPD2    C113951   3.419   4.086  12.814  0.1319  0.2741  0.6409
   10MPD2    C213952   3.283   4.090  12.800 -0.3316 -0.0371 -0.2869
   10MPD2    C313953   3.225   4.212  12.764 -0.5812 -0.4532 -0.1084
   10MPD2    C413954   3.306   4.320  12.737 -0.0809  0.2621 -0.3349
   10MPD2    C513955   3.439   4.306  12.751 -0.1749 -0.1732  0.4042
   10MPD2     H13956   3.225   4.003  12.829  2.6709 -1.6962  0.7812
   10MPD2    H113957   3.262   4.417  12.716 -0.5447  0.5006  1.7018
   10MPD2    H213958   3.607   4.190  12.790 -0.7862 -2.1733  2.2366
   10MPD2    H313959   3.499   4.394  12.731 -1.7963  0.8630  0.0918
   10MPD2     N13960   3.081   4.222  12.762 -0.0989 -0.3907  0.1278
   10MPD2    H513961   3.029   4.137  12.781  2.1709 -1.4213  1.7542
   10MPD2    N113962   3.470   3.958  12.854 -0.4715  0.0391  0.1215
   10MPD2    H713963   3.405   3.887  12.884 -1.4561  0.7636 -0.3208
   11MPD2     C13964   4.714   3.653  14.425  0.3777  0.1960  0.2019
   11MPD2    C113965   4.694   3.526  14.381 -0.1814 -0.8908  0.1545
   11MPD2    C213966   4.657   3.513  14.246  0.1700 -1.1181  0.3641
   11MPD2    C313967   4.627   3.621  14.169 -0.5983  0.5572  1.0742
   11MPD2    C413968   4.644   3.746  14.222  0.3471 -0.2760  0.6806
   11MPD2    C513969   4.696   3.765  14.344  0.6739 -0.2257 -0.4887
   11MPD2     H13970   4.653   3.415  14.201 -1.1623 -0.4778 -0.8954
   11MPD2    H113971   4.616   3.835  14.168 -0.7855 -0.8729  0.2870
   11MPD2    H213972   0.025   3.659  14.528  0.8812 -2.4249  0.1840
   11MPD2    H313973   4.699   3.866  14.382  1.5928 -0.4010 -0.0744
   11MPD2     N13974   4.557   3.618  14.044  0.7102 -0.0367  0.0464
   11MPD2    H513975   4.529   3.708  14.005  0.5587 -0.8161 -1.6732
   11MPD2    N113976   4.709   3.416  14.465  0.3113 -0.0848 -0.1536
   11MPD2    H713977   0.043   3.417  14.550 -1.2977  2.4065  0.8644
    1MPD1     C13978   1.781   4.553  17.202  0.1284 -0.2738  0.1973
    1MPD1    C113979   1.854   4.593  17.314  0.1967  0.3035 -0.2183
    1MPD1    C213980   1.991   4.615  17.299 -0.7841  0.7521  0.0544
    1MPD1    C313981   2.052   4.595  17.173 -0.0207  0.0773 -0.5031
    1MPD1    C413982   1.975   4.581  17.064  0.2701  0.2491  0.3743
    1MPD1    C513983   1.841   4.550  17.080  0.0767 -0.7623 -0.1449
    1MPD1     H13984   2.047   4.640  17.388  0.4809 -0.9653 -0.2606
    1MPD1    H113985   2.024   4.580  16.967  0.1750 -1.9887  0.3484
    1MPD1    H213986   1.678   4.522  17.214  1.4911 -4.2789  1.6670
    1MPD1    H313987   1.783   4.517  16.995  0.5918  0.2169 -0.8679
    1MPD1     N13988   2.184   4.630  17.143  0.0210  0.9233  0.1135
    1MPD1    H513989   2.215   4.613  17.047  0.2994  2.4996 -0.0789
    1MPD1    N113990   1.789   4.595  17.438  0.3086 -0.1254  0.0175
    1MPD1    H613991   1.847   4.625  17.517  0.9893 -0.2243 -0.4439
    1MPD1    H713992   1.698   4.640  17.437  1.1207  1.5243 -1.3202
    2MPD1     C13993   3.259   0.029  17.176 -0.4132 -0.2204 -0.4751
    2MPD1    C113994   3.201   0.016  17.053 -0.0369  0.2929  0.0126
    2MPD1    C213995   3.068   0.051  17.035  0.7944 -0.1589 -0.5698
    2MPD1    C313996   2.990   0.045  17.144 -1.3324 -0.4961  0.3756
    2MPD1    C413997   3.049   0.031  17.269  0.5747  0.1156  1.0552
    2MPD1    C513998   3.180   0.037  17.291  0.2775 -0.4490 -0.3182
    2MPD1     H13999   3.024   0.066  16.937  0.7414 -0.3597 -0.5777
    2MPD1    H114000   2.990   0.029  17.360 -0.4149  1.2377  0.4350
    2MPD1    H214001   3.366   0.034  17.190 -0.3591  2.2398 -1.9168
    2MPD1    H314002   3.216   0.034  17.393 -1.7959 -1.1656  0.3896
    2MPD1     N14003   2.850   0.065  17.128 -0.6282 -0.5446 -0.3000
    2MPD1    H514004   2.817   0.057  17.033 -1.4013 -0.3231 -0.0511
    2MPD1    N114005   3.286   4.717  16.938 -0.2493  0.2889  0.5087
    2MPD1    H614006   3.232   4.666  16.868  0.7409  0.7086 -0.5471
    2MPD1    H714007   3.362   4.654  16.964 -1.5573 -1.6731 -0.3521
    3TMC3    C114008   2.617   0.081  17.164 -0.1518  0.0564 -0.0103
    3TMC3    C214009   2.604   0.139  17.045  0.2256 -0.5961  0.0858
    3TMC3    C314010   2.485   0.131  16.987 -0.8578  0.4688  0.5321
    3TMC3    C414011   2.514   0.009  17.229  0.0419 -0.8688 -0.2992
    3TMC3    C514012   2.397   4.717  17.158 -0.6085  0.1640 -0.1670
    3TMC3    C614013   2.384   0.052  17.036  0.3324 -0.9714 -0.2445
    3TMC3     C14014   2.754   0.066  17.224  0.0221 -0.4448 -0.7073
    3TMC3     O14015   2.759   0.042  17.343 -0.1050 -0.3094  0.1926
    3TMC3     H14016   2.676   0.211  17.008 -1.3371  0.1165 -1.5561
    3TMC3    H114017   2.541   4.681  17.322 -2.4088 -0.6991  0.5070
    3TMC3    H214018   2.290   0.040  16.983  0.8791  0.6081 -1.5867
    3TMC3    C714019   2.287   4.659  17.231  0.6001 -0.2540 -0.0211
    3TMC3    C814020   2.487   0.159  16.840  0.4067  0.5108 -0.2949
    3TMC3    O114021   2.301   4.633  17.347  0.0553  0.2856 -0.2089
    3TMC3    O214022   2.593   0.186  16.788 -0.2336  0.4649  0.3565
    4MPD1     C14023   2.259   0.187  16.368 -0.8714  0.0982 -0.6370
    4MPD1    C114024   2.159   0.153  16.457  0.7250 -0.4709 -0.0680
    4MPD1    C214025   2.204   0.145  16.589 -0.1783  0.0642 -0.3593
    4MPD1    C314026   2.337   0.157  16.637  0.1822  0.5579 -0.4087
    4MPD1    C414027   2.430   0.161  16.532 -0.1673 -0.3759  0.2135
    4MPD1    C514028   2.394   0.178  16.402 -0.3154  0.2945 -0.2781
    4MPD1     H14029   2.132   0.127  16.669 -0.4401  0.0270 -0.6049
    4MPD1    H114030   2.535   0.180  16.548 -0.1739 -0.7451  0.6840
    4MPD1    H214031   2.241   0.204  16.262  0.8360  0.2167 -0.9112
    4MPD1    H314032   2.480   0.195  16.337 -0.3481  1.6901  0.0543
    4MPD1     N14033   2.367   0.148  16.778  0.1648  0.7314 -0.2555
    4MPD1    H514034   2.286   0.137  16.839  0.5128  2.0277  0.4596
    4MPD1    N114035   2.022   0.162  16.433  0.0586  0.5546 -0.0243
    4MPD1    H614036   1.957   0.123  16.501  1.4568  0.7132  1.4025
    4MPD1    H714037   1.992   0.123  16.344 -2.8295  0.8255  0.8241
    1TCq1    O114038   3.083   2.849  11.776  0.5426 -0.1383  0.0369
    1TCq1    C114039   3.161   2.961  11.750 -0.0508 -0.1417 -0.0951
    1TCq1    O214040   3.155   3.030  11.653 -0.1468 -0.2283  0.5328
    1TCq1    C214041   3.201   3.009  11.880  0.5911 -0.4709 -0.0126
    1TCq1    C314042   3.276   2.936  11.955  0.6722 -0.4196 -0.0548
    1TCq1    C414043   3.332   2.985  12.068 -0.4311 -0.6084  0.0623
    1TCq1    C514044   3.324   3.116  12.091 -1.0929 -0.0435 -0.2189
    1TCq1    C614045   3.262   3.196  12.000 -0.0948  0.0840 -0.2924
    1TCq1    C714046   3.203   3.145  11.892 -0.0228  0.1563 -0.2065
    1TCq1    C814047   3.251   3.338  12.021  0.0428 -0.3990 -0.0372
    1TCq1    O414048   3.149   3.390  11.977 -0.0257 -0.9288  0.2594
    1TCq1    C914049   3.451   2.919  12.119  0.8709  0.7398  1.2480
    1TCq1    O514050   3.515   2.976  12.212  0.3867  0.8327  0.6837
    1TCq1    O614051   3.477   2.799  12.079  0.4433 -0.0508 -0.4271
    1TCq1    H114052   3.113   2.793  11.850 -1.3837 -1.1578  0.0137
    1TCq1    H214053   3.305   2.835  11.928  0.3304 -0.0172 -1.9056
    1TCq1    H314054   3.356   3.177  12.175  2.2882 -0.7720 -0.9669
    1TCq1    H414055   3.163   3.210  11.815 -0.8600 -1.4866 -1.1573
    2MPD1     C14056   3.454   3.791  12.152 -0.2980 -0.5818 -0.3904
    2MPD1    C114057   3.553   3.694  12.168  0.1881 -0.8183 -0.7515
    2MPD1    C214058   3.518   3.562  12.143  0.3185 -0.0791  0.1810
    2MPD1    C314059   3.394   3.525  12.096  0.2294  0.2646 -0.0688
    2MPD1    C414060   3.302   3.630  12.068  0.2797  0.2120  0.0339
    2MPD1    C514061   3.333   3.757  12.096 -0.1129 -0.3412 -0.3021
    2MPD1     H14062   3.592   3.486  12.168 -0.5817  0.1367  3.5374
    2MPD1    H114063   3.211   3.602  12.017 -1.0417  1.8963  1.4594
    2MPD1    H214064   3.484   3.892  12.179  0.8417 -1.4071  1.4340
    2MPD1    H314065   3.264   3.841  12.093  0.1846 -0.0866 -0.0580
    2MPD1     N14066   3.372   3.389  12.065 -0.1259  0.3240 -0.3154
    2MPD1    H514067   3.448   3.321  12.070 -0.7291 -0.1090  2.8186
    2MPD1    N114068   3.673   3.724  12.238 -0.0971  0.2996 -0.0016
    2MPD1    H614069   3.749   3.660  12.217  1.7416  2.4215  0.1966
    2MPD1    H714070   3.703   3.819  12.219 -2.0624  1.2841  1.8368
    1TCq1    O114071   1.456   3.788   1.912  0.1007  0.1457 -0.5800
    1TCq1    C114072   1.540   3.773   2.012 -0.3208 -0.2262  0.0659
    1TCq1    O214073   1.651   3.828   2.014 -0.7220  0.1486  0.0405
    1TCq1    C214074   1.519   3.653   2.083 -0.1005 -0.5820 -0.1507
    1TCq1    C314075   1.422   3.565   2.046 -0.0241 -0.5541 -0.2407
    1TCq1    C414076   1.415   3.442   2.108 -0.1843  0.3469 -0.2490
    1TCq1    C514077   1.522   3.404   2.187 -0.1885  0.1959  0.4005
    1TCq1    C614078   1.621   3.503   2.223  0.4657  0.5913  1.1448
    1TCq1    C714079   1.619   3.627   2.170  0.6528  0.5314  0.3932
    1TCq1    C814080   1.719   3.477   2.334 -0.4350 -0.1270 -0.1659
    1TCq1    O414081   1.786   3.572   2.368 -0.2111  0.0261 -0.3473
    1TCq1    C914082   1.340   3.337   2.047  0.1743  0.4127  0.1300
    1TCq1    O514083   1.236   3.380   1.987 -0.1811  0.2728  0.9028
    1TCq1    O614084   1.355   3.214   2.089 -0.3297  0.0476 -0.1748
    1TCq1    H114085   1.366   3.764   1.944  0.5708 -1.3803 -0.3873
    1TCq1    H214086   1.330   3.594   1.997  0.5076  2.1601  0.3542
    1TCq1    H314087   1.527   3.304   2.228 -2.1262 -0.2247 -0.3853
    1TCq1    H414088   1.699   3.698   2.186 -0.4894  1.3842  2.4176
    2MPD1     C14089   1.967   3.142   2.653 -0.5948  0.4383  0.1578
    2MPD1    C114090   1.876   3.074   2.569 -1.1741 -0.2998  0.5290
    2MPD1    C214091   1.794   3.150   2.486 -0.0952 -0.2045 -0.4660
    2MPD1    C314092   1.817   3.283   2.464 -0.1595 -0.4131  0.1338
    2MPD1    C414093   1.902   3.351   2.553  0.3452  0.6185  0.4006
    2MPD1    C514094   1.968   3.276   2.645  0.2941 -0.0488  0.5784
    2MPD1     H14095   1.729   3.098   2.416  1.3560 -2.3763 -0.2022
    2MPD1    H114096   1.907   3.459   2.555  1.8947  0.4878  3.5320
    2MPD1    H214097   2.024   3.095   2.732 -0.3584 -0.4191 -0.5228
    2MPD1    H314098   2.042   3.325   2.708 -0.3515 -0.0747  1.3482
    2MPD1     N14099   1.732   3.343   2.373 -0.5416  0.3516 -0.2371
    2MPD1    H514100   1.669   3.284   2.320 -0.3174 -0.5740  0.5464
    2MPD1    N114101   1.832   2.947   2.588 -0.5164 -0.7283  0.0404
    2MPD1    H614102   1.786   2.919   2.501  0.4638  1.8029 -1.2915
    2MPD1    H714103   1.911   2.889   2.614 -0.1242 -0.3248 -0.2628
    1MPD1     C14104   4.563   0.506  12.056 -0.4336 -0.2857 -1.2216
    1MPD1    C114105   4.591   0.383  11.998 -0.4198 -0.0250  0.4101
    1MPD1    C214106   4.712   0.362  11.932  0.2923 -0.3365 -0.6881
    1MPD1    C314107   0.075   0.473  11.906 -0.7768  0.0262 -0.5416
    1MPD1    C414108   0.032   0.596  11.945 -0.7542 -0.3627  0.9037
    1MPD1    C514109   4.644   0.611  12.025 -0.3748 -0.4059  0.7650
    1MPD1     H14110   0.013   0.262  11.896  1.7414  0.4156 -1.9050
    1MPD1    H114111   0.097   0.682  11.935 -2.5423  0.9189  0.0870
    1MPD1    H214112   4.478   0.521  12.121 -0.2139 -1.4161 -0.6686
    1MPD1    H314113   4.615   0.711  12.056  0.1316 -0.3752  1.1516
    1MPD1     N14114   0.194   0.447  11.846  0.1834 -0.1536 -0.3020
    1MPD1    H514115   0.221   0.350  11.837 -0.5677 -0.3998  0.0550
    1MPD1    N114116   4.513   0.269  12.038 -0.5783  0.0969 -0.9728
    1MPD1    H614117   4.516   0.208  11.956 -0.9323 -1.4449  0.1483
    1MPD1    H714118   4.418   0.302  12.024 -0.4600  1.3575  1.2582
    2MPD1     C14119   3.668   4.591  12.157  0.3728  0.1347  0.1007
    2MPD1    C114120   3.609   4.657  12.058  0.8511 -0.5502  0.3881
    2MPD1    C214121   3.645   4.631  11.929 -0.0397 -0.3835  0.0114
    2MPD1    C314122   3.725   4.523  11.893 -0.7323 -0.4781 -0.3430
    2MPD1    C414123   3.784   4.452  12.001  0.3901 -0.7074 -0.2531
    2MPD1    C514124   3.761   4.496  12.127 -0.4060 -0.4967  0.8719
    2MPD1     H14125   3.609   4.696  11.850 -2.6934 -0.3506  1.2641
    2MPD1    H114126   3.864   4.382  11.981  0.3029 -0.6350 -0.8510
    2MPD1    H214127   3.660   4.616  12.262  1.0680 -0.2992  0.2613
    2MPD1    H314128   3.815   4.459  12.213  1.8276 -1.9509 -1.1668
    2MPD1     N14129   3.772   4.495  11.762  0.1290  0.9578  0.6357
    2MPD1    H514130   3.812   4.403  11.742 -2.2218  0.0526  0.0764
    2MPD1    N114131   3.525   0.044  12.089  0.3297 -0.2405 -0.3390
    2MPD1    H614132   3.463   0.048  12.009  0.9176  0.5270 -0.7574
    2MPD1    H714133   3.467   0.019  12.169  1.3960 -0.1117  0.4837
    3MPD1     C14134   3.457   3.872  11.210  0.4148 -0.0198 -0.0054
    3MPD1    C114135   3.448   3.899  11.346 -0.1075  0.1057 -0.7642
    3MPD1    C214136   3.531   4.002  11.398 -0.2844 -0.1856  0.0561
    3MPD1    C314137   3.606   4.084  11.317 -0.1673 -0.2163  0.0219
    3MPD1    C414138   3.606   4.061  11.179  0.3837 -0.5006 -1.4608
    3MPD1    C514139   3.534   3.953  11.128 -0.1425 -0.1976 -0.1810
    3MPD1     H14140   3.534   4.021  11.505 -0.3702  1.8313 -0.2972
    3MPD1    H114141   3.681   4.102  11.113 -1.5090  1.6295 -2.2929
    3MPD1    H214142   3.407   3.787  11.166  1.9010 -0.8220 -0.1382
    3MPD1    H314143   3.554   3.918  11.027  2.2056 -0.6490  0.4322
    3MPD1     N14144   3.676   4.188  11.383 -0.0232  0.2205 -0.9182
    3MPD1    H514145   3.677   4.191  11.485  0.7583 -0.2135 -0.9068
    3MPD1    N114146   3.381   3.821  11.442  0.3229 -0.2291 -0.0088
    3MPD1    H614147   3.358   3.871  11.528  1.9189  1.5912 -0.6419
    3MPD1    H714148   3.308   3.762  11.404 -0.5041  0.9379 -0.2438
    4MPD2     C14149   0.554   0.445  11.223 -0.5309  0.1771  0.2521
    4MPD2    C114150   0.557   0.363  11.337  0.5456  0.1146 -0.1253
    4MPD2    C214151   0.486   0.241  11.326  0.4675  0.7015  0.3932
    4MPD2    C314152   0.420   0.203  11.210  0.0748  0.9250  0.3541
    4MPD2    C414153   0.416   0.296  11.107  0.0901  0.5192 -0.1018
    4MPD2    C514154   0.485   0.410  11.113 -0.2555 -0.7146  0.4132
    4MPD2     H14155   0.482   0.173  11.411 -2.4458  1.0748  0.5555
    4MPD2    H114156   0.351   0.272  11.024  1.1506  2.5921 -1.5345
    4MPD2    H214157   0.586   0.548  11.227 -1.2442  0.4136 -0.1527
    4MPD2    H314158   0.476   0.477  11.028 -0.6004 -1.5287 -0.1903
    4MPD2     N14159   0.367   0.071  11.182 -0.0032  0.2188 -0.0511
    4MPD2    H514160   0.322   0.047  11.094  1.4600 -1.5357 -0.3026
    4MPD2    N114161   0.605   0.391  11.462 -0.7495 -0.0290  0.1075
    4MPD2    H714162   0.599   0.311  11.525 -1.1479 -1.1366 -1.3427
    5TMC3    C114163   0.622   0.514  11.660 -0.3550 -0.0446 -0.1708
    5TMC3    C214164   0.504   0.573  11.708  0.3084 -1.1154  0.0075
    5TMC3    C314165   0.425   0.499  11.789 -0.0272 -0.4491  0.4650
    5TMC3    C414166   0.656   0.384  11.700  0.1786 -0.1414  0.3120
    5TMC3    C514167   0.587   0.325  11.798  0.6553  0.6131 -0.1450
    5TMC3    C614168   0.466   0.377  11.836  0.1837 -0.6017 -0.2241
    5TMC3     C14169   0.622   0.516  11.514  0.1903  0.4403 -0.2728
    5TMC3     O14170   0.610   0.627  11.463 -0.2606  0.2661  0.7970
    5TMC3     H14171   0.466   0.665  11.665 -1.1999  0.0834  3.8765
    5TMC3    H114172   0.756   0.352  11.672  0.0223  0.9867 -1.4814
    5TMC3    H214173   0.401   0.317  11.898 -0.1265  0.9033  0.9001
    5TMC3    C714174   0.580   0.192  11.752 -0.4503 -0.0385 -1.0103
    5TMC3    C814175   0.286   0.551  11.802  0.1546  0.3150 -0.5543
    5TMC3    O114176   0.610   0.166  11.635 -0.6260  0.1694 -0.1379
    5TMC3    O214177   0.263   0.668  11.780  0.2882  0.0441 -0.2265
    6TMC3    C114178   3.820   4.535  11.537 -0.4132  0.6350  0.2342
    6TMC3    C214179   3.778   4.414  11.498 -0.0859 -0.4553 -0.4253
    6TMC3    C314180   3.836   4.350  11.397 -0.2364  0.3326 -0.5929
    6TMC3    C414181   3.912   4.609  11.464  0.2779  0.1845  0.0955
    6TMC3    C514182   3.975   4.541  11.359 -0.6140 -0.2935  1.0102
    6TMC3    C614183   3.944   4.410  11.333 -0.0806 -0.8216  0.7875
    6TMC3     C14184   3.766   4.593  11.660 -0.3430 -0.2431  0.7047
    6TMC3     O14185   3.770   4.717  11.680 -1.0259 -0.2975 -0.3425
    6TMC3     H14186   3.688   4.385  11.551 -0.0147 -0.8389 -0.5109
    6TMC3    H114187   3.948   4.707  11.495 -2.8204  1.3884 -0.1235
    6TMC3    H214188   4.002   4.353  11.261 -1.0761 -0.0754 -0.6067
    6TMC3    C714189   4.088   4.597  11.291  0.5064 -0.4361  0.3949
    6TMC3    C814190   3.762   4.263  11.316  0.5632 -0.7589  0.9739
    6TMC3    O114191   4.150   4.524  11.214  0.1976  0.2439  0.6630
    6TMC3    O214192   3.780   4.278  11.198  0.2794 -0.5492 -0.0051
    7MPD2     C14193   0.408   4.432  11.795 -0.7166  1.1662 -0.2940
    7MPD2    C114194   0.408   4.519  11.687 -0.4114 -0.3509 -0.2104
    7MPD2    C214195   0.463   4.642  11.712  0.1718  0.1792  0.5098
    7MPD2    C314196   0.495   4.690  11.837 -0.7183 -0.0650 -0.2486
    7MPD2    C414197   0.491   4.605  11.949  0.1606  0.1021 -0.7753
    7MPD2    C514198   0.450   4.474  11.923  0.0533  0.7454 -0.7368
    7MPD2     H14199   0.454   4.710  11.628  1.7017 -0.7050 -0.3878
    7MPD2    H114200   0.524   4.632  12.048  0.5107 -0.5407 -0.7177
    7MPD2    H214201   0.371   4.331  11.776  2.7877 -0.1834  0.1088
    7MPD2    H314202   0.446   4.393  11.996 -1.0453  0.2197 -1.3854
    7MPD2     N14203   0.539   0.102  11.853  0.2601 -0.0060 -0.3184
    7MPD2    H514204   0.544   0.134  11.949 -0.2544 -1.3029  0.1318
    7MPD2    N114205   0.350   4.484  11.563 -0.0620  0.0555  0.0677
    7MPD2    H714206   0.372   4.552  11.491  1.4341 -0.4427  0.0594
    8TMC3    C114207   0.198   4.415  11.395  0.2768  0.6127 -0.3219
    8TMC3    C214208   0.067   4.458  11.397  0.0273 -0.8433 -0.3086
    8TMC3    C314209   0.039   4.570  11.319 -0.9138 -0.2120 -0.3870
    8TMC3    C414210   0.296   4.478  11.316 -0.3474 -0.5966  0.2846
    8TMC3    C514211   0.262   4.593  11.257 -0.1012  0.3152 -0.8001
    8TMC3    C614212   0.135   4.643  11.258  0.4880  0.1746 -0.6309
    8TMC3     C14213   0.258   4.380  11.522 -0.1113  0.0912 -0.4442
    8TMC3     O14214   0.211   4.296  11.589  0.4473 -0.0518  0.2376
    8TMC3     H14215   4.716   4.404  11.457 -0.5637 -0.6228 -0.8229
    8TMC3    H114216   0.399   4.446  11.311  0.2305  0.9187  2.2609
    8TMC3    H214217   0.107   0.012  11.206  1.0337 -0.8998 -2.8322
    8TMC3    C714218   0.361   4.695  11.275  0.0627  0.4212 -0.3523
    8TMC3    C814219   4.623   4.614  11.321 -0.1404  0.4522 -0.4254
    8TMC3    O114220   0.427   4.681  11.378  0.2689 -0.2921  0.0307
    8TMC3    O214221   4.537   4.542  11.370  0.1340 -0.4344 -0.3672
    9MPD2     C14222   4.462   0.214  11.306  0.8080  0.0756  0.2562
    9MPD2    C114223   4.465   0.078  11.288 -0.0320 -0.3976  0.5809
    9MPD2    C214224   4.346   0.012  11.296  0.4289  0.0945 -0.0556
    9MPD2    C314225   4.221   0.074  11.312  0.6003 -0.5193  0.2900
    9MPD2    C414226   4.215   0.214  11.321  0.3253  0.2223  0.7505
    9MPD2    C514227   4.339   0.273  11.314 -0.5334 -0.5757 -0.3252
    9MPD2     H14228   4.348   4.626  11.305  0.9971 -0.1782 -3.2159
    9MPD2    H114229   4.127   0.267  11.355  1.6297  0.3589  3.9540
    9MPD2    H214230   4.549   0.278  11.298 -0.2552  1.3933 -0.7975
    9MPD2    H314231   4.326   0.379  11.328 -0.4642 -0.3767 -1.7778
    9MPD2     N14232   4.104   0.002  11.329  0.2403  0.6799  0.1902
    9MPD2    H514233   4.023   0.053  11.363  0.9488  2.8305 -1.3103
    9MPD2    N114234   4.603   0.025  11.278  0.3293  0.2223  0.4275
    9MPD2    H714235   4.678   0.091  11.262 -0.9098  1.7223  0.8463
    1MPD1     C14236   4.204   4.289  16.528  0.3792 -0.1104 -0.6297
    1MPD1    C114237   4.167   4.160  16.564  0.8204 -0.0742  0.3743
    1MPD1    C214238   4.257   4.075  16.612  0.3474 -0.3455 -0.1974
    1MPD1    C314239   4.390   4.117  16.616  0.5028  0.1350  0.1000
    1MPD1    C414240   4.423   4.239  16.580  0.1886 -0.6020 -0.2265
    1MPD1    C514241   4.331   4.329  16.537 -0.6938 -0.7029 -0.0059
    1MPD1     H14242   4.222   3.975  16.634 -0.3223 -0.1862 -0.5471
    1MPD1    H114243   4.526   4.270  16.570  0.1393 -1.1101 -2.3473
    1MPD1    H214244   4.126   4.354  16.490 -0.4119  0.0414  1.2327
    1MPD1    H314245   4.367   4.428  16.509 -0.5145 -1.2346 -1.6775
    1MPD1     N14246   4.496   4.032  16.662 -0.6838 -0.7325 -0.1251
    1MPD1    H514247   4.592   4.046  16.630  0.1129  0.1791  2.6509
    1MPD1    N114248   4.029   4.137  16.572  0.1042 -0.5431 -0.2436
    1MPD1    H614249   3.992   4.042  16.570  1.1772 -0.9743  0.3827
    1MPD1    H714250   3.962   4.200  16.528 -0.5064 -1.5205 -0.7097
    2MPD1     C14251   0.549   3.613  16.217  0.5294 -0.1323  0.6286
    2MPD1    C114252   0.550   3.533  16.330 -0.1041 -0.1188  0.1545
    2MPD1    C214253   0.450   3.547  16.426  0.5799  0.5021  0.2133
    2MPD1    C314254   0.342   3.630  16.400  0.0046  0.9765 -0.3768
    2MPD1    C414255   0.339   3.704  16.278 -0.1218 -0.6764  0.6705
    2MPD1    C514256   0.440   3.693  16.188 -0.0623 -0.3329 -0.2642
    2MPD1     H14257   0.459   3.487  16.516 -1.6731 -3.2089 -2.0204
    2MPD1    H114258   0.258   3.770  16.248  1.1468 -0.2213 -1.6943
    2MPD1    H214259   0.628   3.611  16.143 -2.7144  0.4382 -2.8496
    2MPD1    H314260   0.441   3.756  16.100  2.8113  0.0620  0.0396
    2MPD1     N14261   0.247   3.647  16.502 -0.0757 -0.2269  0.1929
    2MPD1    H514262   0.251   3.594  16.588 -0.9236  0.6246  0.7538
    2MPD1    N114263   0.649   3.439  16.344  0.1133 -0.0044  0.0514
    2MPD1    H614264   0.730   3.441  16.282 -0.8452 -1.4642 -1.2331
    2MPD1    H714265   0.681   3.435  16.441 -0.3973 -0.4709  0.1995
    3TCq2    C114266   0.139   3.739  16.497 -0.1947  0.2590 -0.4336
    3TCq2    O214267   0.104   3.816  16.411 -0.2147  0.6405 -0.3209
    3TCq2    C214268   0.051   3.729  16.613 -0.3198 -0.8255 -0.9179
    3TCq2    C314269   0.024   3.604  16.665 -0.1487  0.1515  0.0425
    3TCq2    C414270   4.642   3.588  16.755 -0.1422  0.2850 -0.0156
    3TCq2    C514271   4.550   3.688  16.782 -0.1626  0.1935 -0.2340
    3TCq2    C614272   4.571   3.811  16.712 -0.4750 -0.1031  0.2860
    3TCq2    C714273   4.685   3.832  16.638 -0.2335 -0.3358  0.1158
    3TCq2    C814274   4.473   3.918  16.731 -0.6517 -0.3720  0.0788
    3TCq2    O414275   4.375   3.887  16.795 -0.2177 -0.1997  0.6434
    3TCq2    C914276   4.618   3.452  16.797  0.1239 -0.5953 -0.0074
    3TCq2    O514277   4.677   3.360  16.739 -0.3494 -0.0610 -0.4614
    3TCq2    O614278   4.528   3.425  16.878 -0.0921  0.5032  0.1531
    3TCq2    H214279   0.081   3.516  16.639  2.7042  1.5753  1.4779
    3TCq2    H314280   4.462   3.666  16.842  0.9771 -0.2408  1.2939
    3TCq2    H414281   4.708   3.929  16.596 -1.7226 -0.0267  0.0279
    1TCq1    O114282   2.335   1.442  12.690 -0.6345 -0.1574 -0.1237
    1TCq1    C114283   2.243   1.451  12.794  0.8159 -0.0105 -0.0438
    1TCq1    O214284   2.123   1.464  12.791 -0.1181 -0.2024 -0.1695
    1TCq1    C214285   2.315   1.537  12.888  0.5477  0.2722  0.1869
    1TCq1    C314286   2.431   1.493  12.935  0.2313  0.0548 -0.3550
    1TCq1    C414287   2.509   1.573  13.014  0.3981  0.1672  0.1739
    1TCq1    C514288   2.456   1.691  13.045  0.0098  0.7446  0.3495
    1TCq1    C614289   2.342   1.733  12.997  0.2864  0.1714  0.0111
    1TCq1    C714290   2.259   1.651  12.925 -0.1553  0.3353 -0.2007
    1TCq1    C814291   2.284   1.865  13.031  0.4895  0.2714  0.0627
    1TCq1    O414292   2.169   1.888  13.011 -0.3208 -0.4687 -0.2110
    1TCq1    C914293   2.640   1.525  13.057  0.7382 -0.6404 -1.4997
    1TCq1    O514294   2.724   1.610  13.092 -0.1688 -0.1995  0.3964
    1TCq1    O614295   2.674   1.421  12.994  0.1263  0.3861 -0.0082
    1TCq1    H114296   2.428   1.443  12.722 -1.0877 -2.2256  1.2542
    1TCq1    H214297   2.457   1.392  12.907  2.2596  0.5812 -0.3946
    1TCq1    H314298   2.511   1.752  13.116 -0.6122  3.1229 -1.2124
    1TCq1    H414299   2.167   1.693  12.888 -0.3767  1.4154  1.6147
    2MPD2     C14300   2.281   2.161  13.071  0.5218  0.3380  0.5824
    2MPD2    C114301   2.390   2.086  13.082 -0.2052 -0.9386  0.0885
    2MPD2    C214302   2.507   2.151  13.115 -0.1067 -0.0959  0.1338
    2MPD2    C314303   2.515   2.286  13.138 -0.1615 -0.6783  0.4427
    2MPD2    C414304   2.398   2.353  13.127  0.3425 -0.7439 -0.5829
    2MPD2    C514305   2.282   2.293  13.093  0.0344 -0.0064 -0.1692
    2MPD2     H14306   2.597   2.089  13.120  0.7796  1.0460 -1.5661
    2MPD2    H114307   2.387   2.460  13.140 -1.5873 -0.9211 -0.7799
    2MPD2    H214308   2.184   2.119  13.050  0.2614  1.5199 -0.5903
    2MPD2    H314309   2.190   2.349  13.080  1.0270  1.3558 -1.2310
    2MPD2     N14310   2.633   2.343  13.173  0.3182  0.1975 -0.5884
    2MPD2    H514311   2.700   2.274  13.206  1.0651  1.3113  0.1936
    2MPD2    N114312   2.394   1.951  13.065  0.0023 -0.0539 -0.1007
    2MPD2    H714313   2.490   1.920  13.066  0.5490  1.6446 -0.9788
    3TCq1    O114314   3.055   2.186  13.287 -0.2644  0.7353  0.0557
    3TCq1    C114315   3.104   2.312  13.278  0.0083  0.5108  0.2206
    3TCq1    O214316   3.219   2.335  13.308  0.6593  0.5654 -0.0664
    3TCq1    C214317   3.001   2.416  13.288  0.5468 -0.1261 -0.5582
    3TCq1    C314318   3.033   2.537  13.345  0.1257 -0.0635  0.2136
    3TCq1    C414319   2.944   2.641  13.337 -0.4114 -0.2346  0.1586
    3TCq1    C514320   2.822   2.620  13.273 -0.0027 -0.3348  0.8485
    3TCq1    C614321   2.795   2.495  13.223 -0.7929  0.7275  0.5615
    3TCq1    C714322   2.883   2.390  13.228 -0.1306 -0.0616 -0.2828
    3TCq1    C814323   2.660   2.478  13.183  0.4477 -0.1247  0.2809
    3TCq1    O414324   2.590   2.577  13.167 -0.1133 -0.2706 -0.7453
    3TCq1    C914325   2.985   2.754  13.413  0.3269  0.1589 -0.2483
    3TCq1    O514326   3.106   2.766  13.438 -0.0318  0.0397  0.2668
    3TCq1    O614327   2.897   2.837  13.439  0.3264  0.3780 -0.3806
    3TCq1    H114328   2.957   2.176  13.287  0.1924 -3.6856  0.5224
    3TCq1    H214329   3.118   2.533  13.413  0.6663  0.1541 -0.4497
    3TCq1    H314330   2.747   2.698  13.267  0.8689  0.4137 -0.5276
    3TCq1    H414331   2.879   2.295  13.176  0.2961 -0.2018 -0.0674
    1MPD2     C14332   2.278   2.961  14.872  0.8411 -0.8987 -0.9933
    1MPD2    C114333   2.235   3.065  14.791  0.1799 -1.0737  0.0081
    1MPD2    C214334   2.185   3.046  14.666  0.3967 -0.1611  0.2619
    1MPD2    C314335   2.171   2.916  14.621  0.6189  0.7612 -0.4190
    1MPD2    C414336   2.221   2.813  14.702  0.1717  0.3568 -0.1237
    1MPD2    C514337   2.270   2.839  14.825  0.6252 -0.4343  0.2273
    1MPD2     H14338   2.146   3.124  14.601  0.1882 -1.1650 -0.8208
    1MPD2    H114339   2.215   2.708  14.679  0.3038 -0.0684  1.8124
    1MPD2    H214340   2.303   2.988  14.974  0.2059  1.3034 -1.4230
    1MPD2    H314341   2.283   2.758  14.896 -2.5528  0.8836  2.2998
    1MPD2     N14342   2.102   2.874  14.502  0.4806 -0.0751 -0.4499
    1MPD2    H514343   2.109   2.777  14.473  1.1274  0.0538 -0.7360
    1MPD2    N114344   2.247   3.192  14.853  0.7718  0.4440 -0.2855
    1MPD2    H714345   2.285   3.186  14.947  0.5720  1.0667 -0.1595
    2TMC3    C114346   2.192   3.413  14.910 -0.1390  0.3616 -0.1458
    2TMC3    C214347   2.109   3.383  15.014 -0.1942  0.6582  0.4400
    2TMC3    C314348   1.980   3.432  15.006  0.1567  0.0462  0.4468
    2TMC3    C414349   2.169   3.533  14.844  0.3677  0.1848  0.5197
    2TMC3    C514350   2.038   3.580  14.836  0.4678  0.4166  0.4908
    2TMC3    C614351   1.942   3.523  14.914  0.0248  0.4503 -0.4848
    2TMC3     C14352   2.190   3.309  14.807 -0.5301 -0.1748  0.6720
    2TMC3     O14353   2.106   3.316  14.717 -0.3276 -0.1750 -0.6728
    2TMC3     H14354   2.131   3.291  15.068  0.8375  0.3563 -0.4951
    2TMC3    H114355   2.234   3.552  14.760 -0.7806 -0.7698 -0.5779
    2TMC3    H214356   1.835   3.539  14.901  0.0354  0.0678 -1.0675
    2TMC3    C714357   1.987   3.663  14.725  0.9188 -0.7266  0.7448
    2TMC3    C814358   1.875   3.329  15.020 -0.1201 -0.5607  0.4399
    2TMC3    O114359   1.864   3.677  14.713 -0.2212  0.0575  0.2959
    2TMC3    O214360   1.784   3.349  15.102  0.3129  0.3079 -0.2423
    3TCq1    O114361   2.270   0.033  14.328 -0.7487 -0.0302  0.2111
    3TCq1    C114362   2.395   4.718  14.350  0.8702  0.1955 -0.0988
    3TCq1    O214363   2.492   0.070  14.374  0.1723  0.0855 -0.1805
    3TCq1    C214364   2.379   4.592  14.412 -0.0927  0.4171  1.3115
    3TCq1    C314365   2.452   4.578  14.523 -0.4017 -0.0189 -0.1852
    3TCq1    C414366   2.438   4.467  14.603  0.5586 -0.0777  0.1829
    3TCq1    C514367   2.357   4.361  14.563  1.1350  0.2680  0.4022
    3TCq1    C614368   2.290   4.373  14.444 -0.1471  0.8497  0.0454
    3TCq1    C714369   2.297   4.488  14.369  0.1441  0.2463  0.0743
    3TCq1    C814370   2.177   4.288  14.412 -0.0324 -0.2194  0.3445
    3TCq1    O414371   2.100   4.325  14.323  0.2160  0.0757 -0.8224
    3TCq1    C914372   2.501   4.471  14.736 -0.1126 -0.4948 -0.7461
    3TCq1    O514373   2.526   4.590  14.776  0.1220  0.0139  0.8455
    3TCq1    O614374   2.549   4.362  14.778 -1.4035  0.6026 -0.2195
    3TCq1    H114375   2.204   4.685  14.351  0.7479 -1.9173 -1.1967
    3TCq1    H214376   2.529   4.649  14.550  0.3033 -1.1474  0.7693
    3TCq1    H314377   2.344   4.282  14.637  0.7240  0.5127  0.5915
    3TCq1    H414378   2.245   4.491  14.274  0.5775 -3.0378 -0.2634
    4MPD2     C14379   1.999   4.060  14.411 -0.0809  0.3606  0.4590
    4MPD2    C114380   2.107   4.066  14.495 -0.6914 -0.2807 -0.1027
    4MPD2    C214381   2.134   3.964  14.577 -0.6328  0.9651  0.1948
    4MPD2    C314382   2.059   3.847  14.571 -0.3426  0.0368 -0.2108
    4MPD2    C414383   1.946   3.838  14.492  0.0330  0.5552  0.1906
    4MPD2    C514384   1.911   3.955  14.418 -0.3645  0.2740  0.7347
    4MPD2     H14385   2.214   3.975  14.649 -0.7280  0.3682  0.3942
    4MPD2    H114386   1.885   3.749  14.500  2.2680 -1.0349 -0.7716
    4MPD2    H214387   1.973   4.141  14.344  0.1663  2.1412  2.4732
    4MPD2    H314388   1.822   3.957  14.356 -0.5328  1.9468  1.0369
    4MPD2     N14389   2.088   3.746  14.668 -0.6287  0.3159 -0.5428
    4MPD2    H514390   2.166   3.766  14.729 -1.4467  0.2415  0.5343
    4MPD2    N114391   2.191   4.177  14.489  0.2536 -0.2850  0.3836
    4MPD2    H714392   2.276   4.169  14.544  2.6029 -0.6569 -3.2281
    5TMC2    C114393   1.708   2.821  14.397  0.0828  0.2794  0.7449
    5TMC2    C214394   1.733   2.689  14.369 -0.6759 -0.0737  0.4925
    5TMC2    C314395   1.860   2.668  14.317  0.6484 -0.0210 -0.0228
    5TMC2    C414396   1.808   2.920  14.369  0.0550 -0.0528  0.2694
    5TMC2    C514397   1.939   2.886  14.340 -0.5325 -0.6635 -0.6095
    5TMC2    C614398   1.962   2.756  14.304 -0.6616  0.1319 -0.6733
    5TMC2     C14399   1.650   2.842  14.535 -0.9252 -0.5927 -0.0898
    5TMC2     O14400   1.567   2.759  14.581  0.1761 -0.1956 -0.6760
    5TMC2     H14401   1.674   2.604  14.401 -0.4428 -0.6891 -0.6790
    5TMC2    H114402   1.775   3.023  14.368 -2.2364 -0.7589  2.8020
    5TMC2    H214403   2.062   2.720  14.286 -0.6688  0.3642 -1.1807
    5TMC2    C714404   2.024   2.961  14.430  0.0821  0.4794  0.2404
    5TMC2    C814405   1.873   2.542  14.240  0.3696 -0.4401 -0.2062
    5TMC2    O114406   1.981   3.071  14.463  0.2574  0.2392 -0.7138
    5TMC2    O214407   1.809   2.441  14.257  0.9249 -0.5172 -0.3116
    5TMC2    O514408   1.911   2.590  14.120 -0.3498 -0.4047  0.8960
    5TMC2    H514409   1.954   2.678  14.126 -0.8607  0.0527 -2.0316
    6MPD2     C14410   1.679   3.106  14.968  0.5963 -0.8409 -0.2997
    6MPD2    C114411   1.781   3.145  14.883  0.4517  0.6160 -0.3640
    6MPD2    C214412   1.789   3.085  14.763  0.2368 -0.2241 -0.3096
    6MPD2    C314413   1.700   2.989  14.719  0.4047  0.0698 -0.1333
    6MPD2    C414414   1.589   2.954  14.801  0.3650  0.2805 -0.2096
    6MPD2    C514415   1.584   3.012  14.929 -0.2937 -0.1233  0.1584
    6MPD2     H14416   1.878   3.108  14.706  0.0149 -0.7056 -0.8548
    6MPD2    H114417   1.517   2.877  14.780  1.3682 -0.4384 -0.9997
    6MPD2    H214418   1.665   3.155  15.064 -2.6068  1.5344 -1.9794
    6MPD2    H314419   1.495   2.988  14.987 -2.3753  0.3924 -2.8022
    6MPD2     N14420   1.726   2.935  14.595  0.2392  0.3038  0.0794
    6MPD2    H514421   1.811   2.965  14.550  0.3616 -0.7648 -0.4043
    6MPD2    N114422   1.879   3.236  14.917 -0.6400 -0.0742  0.5243
    6MPD2    H714423   1.951   3.253  14.847 -1.6393 -2.0728 -0.9703
  945NH3     N114424   4.545   2.483   9.768  0.1453 -0.0484 -0.0948
  945NH3     H214425   4.541   2.521   9.674 -1.7427 -2.0584 -0.8346
  945NH3     H314426   4.575   2.387   9.754 -0.0632 -0.3221  1.3368
  945NH3     H414427   4.450   2.491   9.803 -0.0059 -1.7077 -0.1293
  946SOD     NA14428   1.471   1.533  15.138 -0.2447  0.0392  0.1013
  947SOD     NA14429   1.579   2.695   3.175 -0.1379  0.4183 -0.1462
  948SOD     NA14430   0.481   3.659  15.157 -0.3447  0.5062  0.1100
  949SOD     NA14431   3.049   4.560  10.078  0.2764  0.2663  0.4288
  950SOD     NA14432   1.155   4.687   9.914 -0.0946  0.2672  0.0926
  951SOD     NA14433   2.683   2.601  12.216 -0.2144  0.1842  0.0571
  952SOD     NA14434   0.159   1.018   4.439 -0.2590  0.2448 -0.0728
  953SOD     NA14435   0.692   0.232   9.936  0.1771 -0.0751  0.0604
  954SOD     NA14436   2.754   1.377  12.783 -0.5279 -0.0042 -0.0655
  955SOD     NA14437   4.335   3.076  13.466  0.0128 -0.0636 -0.5239
  956SOD     NA14438   3.549   3.512  17.277  0.2145  0.3462  0.5036
  957SOD     NA14439   2.329   3.682   9.994  0.1785  0.1433  0.3172
  958SOD     NA14440   1.489   2.664  10.609 -0.4592 -0.2659  0.8498
  959SOD     NA14441   4.223   2.066  17.138 -0.1653  0.0676 -0.5137
  960SOD     NA14442   1.110   3.926  11.217 -0.1150 -0.0563 -0.0101
  961SOD     NA14443   2.254   3.995   2.333  0.1943 -0.4097 -0.0789
  962SOD     NA14444   2.394   2.347  12.194  0.0197 -0.1976  0.1934
  963SOD     NA14445   4.365   2.674  15.119 -0.4905  0.2073 -0.6576
  964SOD     NA14446   4.630   0.819  12.490 -0.3891 -0.1660 -0.1976
  965SOD     NA14447   4.153   0.158   5.001 -0.1441  0.6806  0.2450
  966SOD     NA14448   2.032   3.439  13.665  0.0477 -0.0695  0.5826
  967SOD     NA14449   4.226   3.623   2.613  0.8533  0.0480  0.2439
  968SOD     NA14450   2.455   3.271   1.048 -0.0615  0.4300 -0.2821
  969SOD     NA14451   2.193   0.689  11.481 -0.1783 -0.2746  0.0094
  970SOD     NA14452   4.167   2.670   8.855  0.0214 -1.0205  0.1362
  971SOD     NA14453   4.288   1.263  12.685 -0.1197 -0.6681 -0.1076
  972SOD     NA14454   2.612   4.231  15.407 -0.0385 -0.5277  0.4638
  973SOD     NA14455   2.376   2.283  10.246 -0.3060 -0.1842 -0.2702
  974SOD     NA14456   3.659   3.075   7.877 -0.2487 -0.0408 -0.2915
  975SOD     NA14457   2.081   1.812  10.380 -0.3929 -0.3065 -0.3316
  976SOD     NA14458   1.765   1.858  12.846 -0.5509 -0.3882  0.6066
  977SOD     NA14459   2.244   1.610  10.575 -0.5147 -0.0879 -0.2825
  978SOD     NA14460   1.067   0.538   0.949 -0.0842 -0.2896  0.7189
  979SOD     NA14461   4.095   0.742  12.341  0.3323 -0.0158  0.0209
  980SOD     NA14462   3.433   2.107  15.586  0.3559  0.6080  0.2320
  981SOD     NA14463   3.079   1.682  10.963  0.2388  0.8513  0.0494
  982SOD     NA14464   3.184   2.840  13.632  0.4270 -0.5959  0.2643
  983SOD     NA14465   3.506   2.914   5.063  0.6482  0.6832  0.0304
  984SOD     NA14466   0.657   1.545   7.624  0.3723 -0.2223 -0.6944
  985SOD     NA14467   0.833   3.125  11.379  0.1181  0.0494  0.0706
  986SOD     NA14468   1.687   1.728  10.404  0.0990  0.2445 -0.1520
  987SOD     NA14469   1.040   1.972  16.569 -0.1276 -0.0186 -0.1659
  988SOD     NA14470   3.445   1.498  12.896  0.0642  0.0540  0.0317
  989SOD     NA14471   1.848   4.612   3.122  0.6196 -0.3252  0.3800
  990SOD     NA14472   0.640   1.427   0.774 -0.1383  0.0680 -0.7576
  991SOD     NA14473   2.180   2.312   1.205 -0.0975 -0.0715  0.1513
  992SOD     NA14474   3.524   4.552   0.330 -0.3451 -0.0398  0.2118
  993SOD     NA14475   4.430   3.424   2.001 -0.8938 -0.5224  0.8268
  994SOD     NA14476   3.539   2.608  11.950  0.1394 -0.4424  0.1647
  995SOD     NA14477   4.406   3.071  13.778 -0.0305 -0.1217  0.0721
  996SOD     NA14478   2.124   3.551   8.281 -0.5203  0.0412 -0.1047
  997SOD     NA14479   0.379   2.338   3.145 -0.0252  0.5012  0.3403
  998SOD     NA14480   0.293   1.665   1.215  0.1440 -0.1330  0.2216
  999SOD     NA14481   4.095   2.953  15.708  0.1153 -0.1964  0.4474
 1000SOD     NA14482   2.051   1.501  10.349 -0.2709 -0.1747 -0.4197
 1001SOD     NA14483   0.983   0.821  12.139  0.0293 -0.1210 -0.2499
 1002SOD     NA14484   4.488   2.871  13.243  0.1750 -0.1693  0.3791
 1003SOD     NA14485   2.809   2.537  11.646  0.5174  0.1042 -0.1195
 1004SOD     NA14486   4.518   0.718  14.032 -0.6698 -0.1022  0.0611
 1005SOD     NA14487   1.354   1.624  13.206  0.1752 -0.2314  0.1315
 1006SOD     NA14488   3.903   1.873  11.959  0.0634 -0.0449 -0.1719
 1007SOD     NA14489   0.568   0.163   1.335  0.1797 -0.3232 -0.2039
 1008SOD     NA14490   4.662   3.132  13.641 -0.2892  0.8867  0.6608
 1009SOD     NA14491   4.347   2.935  14.986  0.4455 -0.0235  0.0216
 1010SOD     NA14492   0.740   4.026   0.070  0.3407  0.1489 -0.0998
 1011SOD     NA14493   3.096   4.524  14.395 -0.5857  0.1054  0.5942
 1012SOL     OW14494   0.905   3.336   3.914  0.4470 -0.2039 -0.4187
 1012SOL    HW114495   0.884   3.282   3.990 -1.1379 -1.1083 -1.5075
 1012SOL    HW214496   0.891   3.279   3.837  2.0203 -0.5399 -0.4663
 1013SOL     OW14497   0.872   1.318   8.163 -0.8110  0.7290  0.2490
 1013SOL    HW114498   0.904   1.237   8.124  0.1299  0.2901  1.9004
 1013SOL    HW214499   0.861   1.288   8.253 -1.0717 -0.6789 -0.2571
 1014SOL     OW14500   2.385   1.909   4.085 -0.2362 -0.4148 -0.5717
 1014SOL    HW114501   2.318   1.887   4.150 -0.6548 -3.5013 -2.0812
 1014SOL    HW214502   2.439   1.968   4.139  0.1158 -1.7959  0.5872
 1015SOL     OW14503   1.024   2.651   3.837  0.2537  0.1508  0.0592
 1015SOL    HW114504   0.978   2.734   3.842 -0.7407 -0.5280  2.2516
 1015SOL    HW214505   1.000   2.615   3.923  0.4041  0.3092  0.1677
 1016SOL     OW14506   0.018   3.467   7.862 -0.2292  0.0308  0.2661
 1016SOL    HW114507   4.690   3.460   7.944  0.7168 -0.9323  0.7533
 1016SOL    HW214508   4.693   3.401   7.811  1.8302 -1.6750  0.6383
 1017SOL     OW14509   0.748   3.931   1.225 -0.1347 -0.3145  0.0306
 1017SOL    HW114510   0.824   3.912   1.281 -1.1774  1.5323  2.0442
 1017SOL    HW214511   0.695   3.973   1.292  0.1710  3.2073 -1.9545
 1018SOL     OW14512   3.149   1.394   2.946 -0.2184  0.1076  0.7113
 1018SOL    HW114513   3.172   1.319   2.890 -0.6484  0.8300 -0.4223
 1018SOL    HW214514   3.056   1.403   2.928 -0.3699 -2.0072  0.3660
 1019SOL     OW14515   4.428   0.257   5.366 -0.1482  0.5604  0.2781
 1019SOL    HW114516   4.458   0.336   5.321 -1.2852 -0.0084 -1.4481
 1019SOL    HW214517   4.352   0.286   5.415  0.0617  0.9579  0.3682
 1020SOL     OW14518   2.337   2.916   5.428 -0.3532 -0.0586  0.0034
 1020SOL    HW114519   2.324   2.856   5.502 -2.9483 -0.3429 -0.6945
 1020SOL    HW214520   2.389   2.862   5.369 -1.5313 -1.3032  0.1103
 1021SOL     OW14521   1.907   3.307  14.545 -0.0306 -0.2437  0.2191
 1021SOL    HW114522   1.989   3.325  14.590  0.5814  1.2239 -1.4988
 1021SOL    HW214523   1.946   3.241  14.488  1.8153  0.1853  1.0037
 1022SOL     OW14524   2.646   0.859   3.034 -0.2632  0.3488  0.2673
 1022SOL    HW114525   2.675   0.788   2.978  0.7519  1.8565 -1.1209
 1022SOL    HW214526   2.651   0.816   3.120  1.8394  2.4980  1.2369
 1023SOL     OW14527   3.348   2.984   5.390  0.3679 -0.8054  0.0199
 1023SOL    HW114528   3.327   2.997   5.298 -1.2602  2.5455  0.8703
 1023SOL    HW214529   3.351   3.070   5.431 -0.1083 -1.5584  1.6542
 1024SOL     OW14530   3.244   0.007   6.865 -0.2512 -0.0317 -0.5408
 1024SOL    HW114531   3.163   0.047   6.834  1.0565  2.0860 -1.2675
 1024SOL    HW214532   3.228   4.636   6.844  0.1207 -0.3079  0.4023
 1025SOL     OW14533   4.369   2.658   5.959  0.1902  0.2096 -0.1255
 1025SOL    HW114534   4.359   2.754   5.961  0.0995  0.2025 -0.2126
 1025SOL    HW214535   4.313   2.635   5.885 -0.7811 -1.7480  1.2099
 1026SOL     OW14536   4.605   0.776   3.535  0.1005 -0.1113  0.2833
 1026SOL    HW114537   4.561   0.693   3.555  1.5490 -1.0965 -0.6632
 1026SOL    HW214538   4.543   0.837   3.576 -1.5446 -1.6976  0.1593
 1027SOL     OW14539   0.202   0.228   7.114 -0.3075  0.4381 -0.1137
 1027SOL    HW114540   0.107   0.219   7.105 -0.1832 -0.1685 -0.7889
 1027SOL    HW214541   0.212   0.321   7.094  2.7218  0.0659 -0.4329
 1028SOL     OW14542   0.281   1.010   9.380 -0.1971 -0.7098  0.1319
 1028SOL    HW114543   0.260   1.054   9.462  0.2562  0.2059 -0.2347
 1028SOL    HW214544   0.338   0.938   9.404 -0.5463 -0.2973  2.1334
 1029SOL     OW14545   0.449   3.547   6.135 -0.1053  0.7632 -0.3048
 1029SOL    HW114546   0.500   3.474   6.102  0.1755  0.6944  0.2660
 1029SOL    HW214547   0.520   3.612   6.134  2.0296 -1.5485  1.0098
 1030SOL     OW14548   3.014   4.089   9.580 -0.1612  0.4240 -0.0411
 1030SOL    HW114549   3.082   4.030   9.614  0.5996  1.9647  1.0853
 1030SOL    HW214550   3.004   4.074   9.486  1.1997  0.5881 -0.2111
 1031SOL     OW14551   3.696   2.713  10.188 -0.2787 -0.0514 -0.1902
 1031SOL    HW114552   3.622   2.690  10.245  0.2689 -0.5976  0.3008
 1031SOL    HW214553   3.761   2.663  10.237 -1.9754 -2.1611 -0.1081
 1032SOL     OW14554   1.908   0.674   0.485  0.1858  0.9337  0.4058
 1032SOL    HW114555   1.898   0.714   0.572  0.9872  2.0309 -0.0089
 1032SOL    HW214556   2.003   0.661   0.483 -0.0632 -0.5444 -1.2774
 1033SOL     OW14557   3.188   1.444   0.398 -0.3458  0.0211  0.2604
 1033SOL    HW114558   3.152   1.428   0.311 -0.5852  1.9893 -0.0012
 1033SOL    HW214559   3.236   1.362   0.408  0.1722  0.1356 -1.3399
 1034SOL     OW14560   4.006   1.725   9.571 -0.3552 -0.5861 -0.1135
 1034SOL    HW114561   4.096   1.735   9.603 -0.0814 -0.4286 -0.9248
 1034SOL    HW214562   3.961   1.692   9.649  1.2668 -0.2541  0.9586
 1035SOL     OW14563   1.451   1.782   3.884 -0.5202  0.3596  0.1066
 1035SOL    HW114564   1.412   1.828   3.809  1.6252  1.6043 -0.2311
 1035SOL    HW214565   1.384   1.717   3.903 -1.7298  0.8266 -2.5367
 1036SOL     OW14566   3.526   2.031   6.591  0.3937 -0.3240  0.3055
 1036SOL    HW114567   3.602   2.051   6.646  0.7481  0.3409 -0.4429
 1036SOL    HW214568   3.536   1.935   6.589 -1.1389 -0.4674 -0.3155
 1037SOL     OW14569   1.545   2.352   6.884  0.0266  0.4865  0.3189
 1037SOL    HW114570   1.492   2.396   6.950 -0.7039 -0.9841  0.7012
 1037SOL    HW214571   1.478   2.352   6.816  0.3589  0.7218 -0.0070
 1038SOL     OW14572   0.158   2.945   2.287  0.1883  0.3134  0.5580
 1038SOL    HW114573   0.219   2.881   2.250 -1.5915 -0.9344 -0.2108
 1038SOL    HW214574   0.188   3.024   2.242 -0.3891 -0.3215 -0.9661
 1039SOL     OW14575   0.185   0.446   8.187 -0.0050 -0.1892  0.3378
 1039SOL    HW114576   0.121   0.498   8.138  0.1481  0.7693  1.1725
 1039SOL    HW214577   0.122   0.408   8.249 -1.2703  2.9008  0.9591
 1040SOL     OW14578   0.067   0.597   9.099 -0.1988  0.0751 -0.1600
 1040SOL    HW114579   4.717   0.622   9.158 -1.3805  0.7779 -1.8602
 1040SOL    HW214580   0.145   0.608   9.152 -0.3627  1.0694 -0.1214
 1041SOL     OW14581   2.226   0.582  11.274  0.1435 -0.5243 -0.3989
 1041SOL    HW114582   2.240   0.653  11.212 -2.9111  1.1355  0.8213
 1041SOL    HW214583   2.277   0.508  11.240  0.5328 -0.5040  0.1565
 1042SOL     OW14584   0.948   4.207   2.651  0.2464  0.1205  0.8452
 1042SOL    HW114585   1.001   4.133   2.621  0.7335  1.6695 -2.0477
 1042SOL    HW214586   0.945   4.201   2.747  1.7008 -1.6380  0.7781
 1043SOL     OW14587   0.070   3.533   3.051 -0.5770 -0.1484 -0.6516
 1043SOL    HW114588   0.018   3.510   3.128  1.6259  0.0003  0.8879
 1043SOL    HW214589   0.130   3.458   3.053 -0.6412 -0.1722  0.5520
 1044SOL     OW14590   2.593   0.930   2.674  0.3954 -0.5061  0.0106
 1044SOL    HW114591   2.609   0.889   2.589  0.0878  1.0333 -0.7961
 1044SOL    HW214592   2.616   0.851   2.722 -0.9452 -1.9764 -1.7258
 1045SOL     OW14593   4.318   3.282  15.839 -0.1803  0.2872  0.6079
 1045SOL    HW114594   4.256   3.224  15.797  0.4911 -0.6995  0.9681
 1045SOL    HW214595   4.400   3.262  15.794 -0.4160 -0.3102  0.4578
 1046SOL     OW14596   2.426   2.046   5.351  0.5350 -0.1367 -0.0009
 1046SOL    HW114597   2.433   1.979   5.419  3.6540  0.2198  0.0361
 1046SOL    HW214598   2.351   2.003   5.311  0.0313  1.1259 -0.4256
 1047SOL     OW14599   3.269   2.863   1.974  0.3869  0.4227 -0.5912
 1047SOL    HW114600   3.270   2.958   1.980  0.1572  0.5543 -2.5017
 1047SOL    HW214601   3.264   2.849   1.879 -1.0601  1.3160 -0.6426
 1048SOL     OW14602   1.571   1.670   0.588 -0.1608 -0.0694  0.0451
 1048SOL    HW114603   1.519   1.590   0.580 -0.7755  0.3423 -0.1101
 1048SOL    HW214604   1.662   1.644   0.574  0.1336  1.2078 -0.4589
 1049SOL     OW14605   2.468   4.703   5.955 -0.0650  0.5984  0.4033
 1049SOL    HW114606   2.426   0.017   5.876  0.9517  0.5279 -0.1680
 1049SOL    HW214607   2.429   0.046   6.014  0.8189 -0.3912  2.0445
 1050SOL     OW14608   3.419   2.725   6.179 -0.3628  0.5542 -0.5167
 1050SOL    HW114609   3.395   2.713   6.271  2.5443  2.0691  0.4388
 1050SOL    HW214610   3.375   2.649   6.140  0.9611  1.1265 -3.1400
 1051SOL     OW14611   3.427   3.175   6.934  0.1851  0.5415  0.1021
 1051SOL    HW114612   3.341   3.184   6.974 -0.0732  0.8185 -0.5294
 1051SOL    HW214613   3.421   3.095   6.883  0.3595  0.2305  0.5694
 1052SOL     OW14614   2.144   3.872   5.413 -0.5972  0.6045 -0.6922
 1052SOL    HW114615   2.238   3.860   5.424 -0.9012  0.5996  1.7559
 1052SOL    HW214616   2.115   3.782   5.426 -0.0880  0.8145  1.7703
 1053SOL     OW14617   1.030   2.125   8.142 -0.0486  0.3629  0.3733
 1053SOL    HW114618   1.060   2.050   8.092  1.2041  1.0201  0.1409
 1053SOL    HW214619   0.936   2.125   8.124  0.1338  0.4171 -0.5776
 1054SOL     OW14620   0.007   0.020   4.491 -0.8191  0.4286  0.0561
 1054SOL    HW114621   4.633   0.025   4.495 -0.6519  2.4545  1.4843
 1054SOL    HW214622   0.030   4.691   4.413 -0.0749  0.2077  0.4080
 1055SOL     OW14623   0.086   2.357   5.662 -0.4998 -0.0389 -0.3332
 1055SOL    HW114624   0.071   2.452   5.666  0.9295  0.1806  0.1413
 1055SOL    HW214625   0.096   2.332   5.754  0.6880 -0.7277 -0.6477
 1056SOL     OW14626   2.721   2.660  16.152 -0.5182 -0.6496  0.5606
 1056SOL    HW114627   2.676   2.742  16.174 -0.2701 -0.4021  0.1315
 1056SOL    HW214628   2.668   2.622  16.082 -0.0125  2.4804 -1.5159
 1057SOL     OW14629   4.635   4.233   8.888  0.0482  0.2849 -0.7040
 1057SOL    HW114630   4.675   4.319   8.897 -0.5861  0.5087 -0.0326
 1057SOL    HW214631   4.703   4.179   8.849  0.2274  1.8188 -2.4962
 1058SOL     OW14632   1.396   4.718   3.067 -0.0852  0.0873 -0.0394
 1058SOL    HW114633   1.371   4.666   2.990  0.0184  0.3230 -0.2301
 1058SOL    HW214634   1.333   0.066   3.047 -0.1765 -0.0396 -0.1889
 1059SOL     OW14635   1.146   2.492  16.963 -0.1572  0.0422  0.3912
 1059SOL    HW114636   1.104   2.416  16.923  0.6029 -0.4967  0.6096
 1059SOL    HW214637   1.224   2.445  16.991  0.0304  0.4806  0.6089
 1060SOL     OW14638   0.435   4.124   2.856  0.0225 -0.0078  0.4954
 1060SOL    HW114639   0.390   4.043   2.878  0.2366  0.4935  2.7390
 1060SOL    HW214640   0.368   4.155   2.795 -0.4263  0.8723  1.4504
 1061SOL     OW14641   1.803   0.512  10.361 -0.7277  0.6919  0.1946
 1061SOL    HW114642   1.860   0.567  10.307  0.0393 -0.6264 -0.3311
 1061SOL    HW214643   1.819   0.554  10.446  0.3423 -0.0692  0.3670
 1062SOL     OW14644   0.421   2.840   6.385 -0.7571  0.4537 -0.2214
 1062SOL    HW114645   0.454   2.870   6.301  0.1784  0.0752  0.0231
 1062SOL    HW214646   0.384   2.755   6.361  0.1995 -0.0976  0.2570
 1063SOL     OW14647   3.660   1.961   5.710 -0.0427  0.3095 -0.1002
 1063SOL    HW114648   3.708   1.959   5.793 -2.4349 -1.3435  1.2461
 1063SOL    HW214649   3.597   1.890   5.720  0.8257 -0.6396 -1.4043
 1064SOL     OW14650   1.452   1.489  12.765  0.0406 -0.0898  0.2742
 1064SOL    HW114651   1.486   1.572  12.798 -0.6132  0.8087 -1.3189
 1064SOL    HW214652   1.450   1.503  12.670 -2.5436  1.0017  0.4974
 1065SOL     OW14653   3.340   2.527  13.052  0.5778  0.1430 -0.1759
 1065SOL    HW114654   3.303   2.598  13.104 -1.9291 -0.7222 -0.8103
 1065SOL    HW214655   3.419   2.508  13.103  0.0276  1.1527  1.0704
 1066SOL     OW14656   4.456   1.714  17.471 -0.1435 -0.6093  0.5379
 1066SOL    HW114657   4.506   1.636  17.444 -0.3154 -0.3864 -0.3882
 1066SOL    HW214658   4.452   1.764  17.390  3.5128  1.2181  1.4723
 1067SOL     OW14659   3.058   3.408   6.727  0.4486 -0.0117  0.2366
 1067SOL    HW114660   3.039   3.434   6.817  1.0469  1.4788 -0.0668
 1067SOL    HW214661   2.992   3.461   6.682  0.1687 -0.4930  0.0889
 1068SOL     OW14662   3.193   4.126   7.130 -0.0870 -0.1117  0.7987
 1068SOL    HW114663   3.170   4.216   7.104  1.1001  0.2879  1.1435
 1068SOL    HW214664   3.258   4.114   7.062  0.0512 -1.0891  1.1133
 1069SOL     OW14665   4.659   0.846  10.748 -0.2085 -0.0202 -0.3848
 1069SOL    HW114666   4.612   0.779  10.797  0.0911 -0.7372 -1.0813
 1069SOL    HW214667   4.609   0.922  10.778  0.1451 -1.4008  3.6349
 1070SOL     OW14668   0.663   1.312   1.932  0.0150  0.4615 -0.2255
 1070SOL    HW114669   0.606   1.317   2.009 -0.0154  2.4075 -0.3780
 1070SOL    HW214670   0.609   1.258   1.875 -2.1215  0.9973  1.2968
 1071SOL     OW14671   1.956   2.651   7.051  0.2610  0.8249 -0.3252
 1071SOL    HW114672   2.049   2.670   7.042  0.2869  0.3989 -0.9596
 1071SOL    HW214673   1.949   2.555   7.055 -0.0484  0.9746  2.5986
 1072SOL     OW14674   4.520   3.694  12.747  0.1845 -0.3996 -0.5048
 1072SOL    HW114675   4.518   3.626  12.680 -2.1949 -0.2047 -0.6476
 1072SOL    HW214676   4.605   3.668  12.782  1.1211  2.3384 -0.7888
 1073SOL     OW14677   4.506   3.452   2.215 -0.2021 -0.3361 -0.5337
 1073SOL    HW114678   4.486   3.360   2.235  1.0191 -1.1003 -2.8182
 1073SOL    HW214679   4.600   3.449   2.230 -0.2890 -1.2243 -0.1458
 1074SOL     OW14680   0.234   0.831  14.926 -0.1246  0.6024 -0.3743
 1074SOL    HW114681   0.268   0.749  14.962 -1.9275 -0.0471 -0.1490
 1074SOL    HW214682   0.219   0.804  14.835 -0.8114  0.7039 -0.2905
 1075SOL     OW14683   4.688   2.041   2.196 -0.6010  0.0363 -0.6129
 1075SOL    HW114684   4.668   1.966   2.140 -2.3882  0.5162 -0.6192
 1075SOL    HW214685   4.674   2.115   2.137  2.0675  0.5956 -0.5344
 1076SOL     OW14686   3.720   1.853  16.355  0.1127  0.2869  0.5150
 1076SOL    HW114687   3.764   1.911  16.292 -0.7151  0.5345  0.1671
 1076SOL    HW214688   3.780   1.856  16.429  0.5421 -0.3376  0.1908
 1077SOL     OW14689   2.081   2.359   5.736  0.3174  0.2483 -0.3228
 1077SOL    HW114690   2.165   2.399   5.757  1.3544 -2.2180  0.2911
 1077SOL    HW214691   2.109   2.269   5.717  1.1599  0.0799  1.7927
 1078SOL     OW14692   3.682   1.952  13.805 -0.3907  0.5122 -0.4313
 1078SOL    HW114693   3.653   2.041  13.822  0.5970  0.9600 -1.0692
 1078SOL    HW214694   3.605   1.897  13.792  0.1454  0.0576 -1.7088
 1079SOL     OW14695   3.522   1.931   5.105 -0.2275  0.4019  0.2300
 1079SOL    HW114696   3.615   1.951   5.092 -0.5974  1.9950  0.0971
 1079SOL    HW214697   3.486   1.889   5.027  1.5092 -2.4265  0.9513
 1080SOL     OW14698   1.358   4.705   2.635  0.3742 -0.7840  0.1969
 1080SOL    HW114699   1.399   4.706   2.549  0.4706 -1.8365  0.2297
 1080SOL    HW214700   1.276   0.016   2.597  1.0719 -1.0940 -1.5535
 1081SOL     OW14701   3.073   3.538  12.690 -1.0469  0.5669 -0.0189
 1081SOL    HW114702   3.037   3.506  12.773  0.1685  1.4883  0.8721
 1081SOL    HW214703   2.998   3.588  12.658 -3.2358 -1.9365  1.2343
 1082SOL     OW14704   2.800   2.989   5.588  0.0045  0.2094 -0.0378
 1082SOL    HW114705   2.754   2.948   5.514  0.0198 -0.1204  0.1352
 1082SOL    HW214706   2.887   2.950   5.578 -0.0345 -0.1063  0.8701
 1083SOL     OW14707   1.642   1.864   5.216 -0.0886 -0.0638 -0.5211
 1083SOL    HW114708   1.553   1.872   5.181 -0.6006 -0.5975  0.6792
 1083SOL    HW214709   1.673   1.954   5.213 -0.1704 -0.0632 -1.5087
 1084SOL     OW14710   4.321   4.695   4.968 -0.1388  0.0104  0.0958
 1084SOL    HW114711   4.406   0.016   4.962 -0.5974  0.5356 -2.9654
 1084SOL    HW214712   4.350   4.612   5.004 -0.1883 -0.9469 -2.0916
 1085SOL     OW14713   4.137   0.290   6.202  0.1743 -0.1519 -0.5867
 1085SOL    HW114714   4.117   0.341   6.124  1.4317  1.8682  0.4250
 1085SOL    HW214715   4.208   0.339   6.243 -0.4687 -0.7636  1.2611
 1086SOL     OW14716   1.562   4.274   6.393 -1.1887  0.1599 -0.9008
 1086SOL    HW114717   1.570   4.288   6.487 -1.1373 -0.7240 -0.7757
 1086SOL    HW214718   1.587   4.360   6.359 -1.7580  1.6097  2.3811
 1087SOL     OW14719   0.128   0.049   8.120 -0.3947 -0.2786 -0.0490
 1087SOL    HW114720   0.059   0.028   8.183 -1.2514  1.4260 -0.4182
 1087SOL    HW214721   0.189   0.100   8.172 -3.0363  2.4082  0.4315
 1088SOL     OW14722   1.470   2.723   6.944  0.3294  0.4848  0.0031
 1088SOL    HW114723   1.556   2.725   6.902  0.0234  2.8009 -0.5533
 1088SOL    HW214724   1.483   2.793   7.009 -0.0117  0.4352  0.1220
 1089SOL     OW14725   2.624   0.496   0.786  0.6726  0.1759 -0.3784
 1089SOL    HW114726   2.671   0.476   0.706 -0.4725  1.0427 -1.2813
 1089SOL    HW214727   2.685   0.449   0.842 -0.3128  0.4905  0.9706
 1090SOL     OW14728   4.011   4.357   1.637  0.4297 -0.1416 -0.2923
 1090SOL    HW114729   4.001   4.388   1.547 -0.7461 -0.6165 -0.3211
 1090SOL    HW214730   4.063   4.279   1.617  0.3719 -0.0397 -0.8405
 1091SOL     OW14731   0.608   4.564   8.451 -0.0282  0.9838 -0.4378
 1091SOL    HW114732   0.607   4.468   8.451 -0.9254  0.9904  3.8706
 1091SOL    HW214733   0.599   4.572   8.356 -0.8031  1.4429 -0.3269
 1092SOL     OW14734   4.683   0.792   4.639 -0.4675  0.0239 -0.1862
 1092SOL    HW114735   0.014   0.797   4.559 -2.3067  5.5059 -1.0588
 1092SOL    HW214736   4.626   0.717   4.624 -0.7990  0.5268 -1.4975
 1093SOL     OW14737   4.568   3.640   6.337  0.2767 -0.2676 -0.7046
 1093SOL    HW114738   4.642   3.658   6.396 -1.3115 -0.2686  1.2601
 1093SOL    HW214739   4.564   3.545   6.341 -3.0024 -0.1048 -0.1835
 1094SOL     OW14740   0.681   0.012   8.646  0.4035  0.5597 -0.1430
 1094SOL    HW114741   0.628   4.682   8.585  0.1504 -0.4673  0.9656
 1094SOL    HW214742   0.643   0.002   8.733  2.0728  1.3080  0.6911
 1095SOL     OW14743   3.879   0.330   8.118 -0.4945  0.1661  0.4093
 1095SOL    HW114744   3.835   0.383   8.051  0.8056  1.4000  0.5224
 1095SOL    HW214745   3.965   0.320   8.076  0.4180  0.4046  2.2119
 1096SOL     OW14746   3.673   2.525   7.421  0.1778 -0.3681  0.3015
 1096SOL    HW114747   3.613   2.540   7.495 -1.3776 -0.2559 -0.9732
 1096SOL    HW214748   3.620   2.507   7.344 -2.3013 -0.9492  2.1347
 1097SOL     OW14749   3.490   0.943   5.015 -0.7681 -1.1010  0.4793
 1097SOL    HW114750   3.533   0.865   5.048  2.0859  0.5958  0.7596
 1097SOL    HW214751   3.519   0.943   4.924 -0.7695 -2.3298  0.4836
 1098SOL     OW14752   0.913   1.446   6.488 -0.7171 -0.3268  0.0566
 1098SOL    HW114753   0.898   1.440   6.582 -2.4038  0.0799 -0.2019
 1098SOL    HW214754   0.957   1.530   6.476  1.1676 -1.6107 -2.0133
 1099SOL     OW14755   1.226   2.684   9.760 -0.5462  0.3567  0.2990
 1099SOL    HW114756   1.206   2.591   9.772 -0.3370  0.5023  1.7605
 1099SOL    HW214757   1.298   2.689   9.822 -1.7188  0.7434  1.6212
 1100SOL     OW14758   0.526   3.609   3.463 -0.4702  0.6626 -0.1769
 1100SOL    HW114759   0.531   3.630   3.556  0.4167 -1.3505  0.2311
 1100SOL    HW214760   0.435   3.623   3.437 -0.9593 -0.4163  0.9437
 1101SOL     OW14761   3.760   1.557  16.391 -0.0060  0.6053  1.0308
 1101SOL    HW114762   3.854   1.547  16.377  0.6200  0.7197  5.1182
 1101SOL    HW214763   3.762   1.652  16.400  0.8229  0.5297  1.7263
 1102SOL     OW14764   4.440   1.151  10.616 -0.2233  0.2598  0.1641
 1102SOL    HW114765   4.473   1.240  10.621 -0.5950  0.3359  1.3687
 1102SOL    HW214766   4.465   1.113  10.700 -0.0376 -0.6221 -0.2857
 1103SOL     OW14767   3.175   4.440  15.721 -0.3322 -0.1380  0.1831
 1103SOL    HW114768   3.091   4.477  15.694 -0.9497 -0.4100  1.7072
 1103SOL    HW214769   3.143   4.388  15.795 -3.1540  1.2453 -0.0566
 1104SOL     OW14770   2.529   3.831   1.577 -0.1840  0.5235 -0.2481
 1104SOL    HW114771   2.486   3.747   1.594 -1.9021  1.2557 -1.0411
 1104SOL    HW214772   2.534   3.869   1.665 -2.5761  2.1489 -0.8088
 1105SOL     OW14773   1.662   1.258   6.744 -0.7836  0.0678  0.1125
 1105SOL    HW114774   1.585   1.291   6.697 -0.2159  0.8512 -0.2704
 1105SOL    HW214775   1.620   1.198   6.805  0.7859  0.6510  1.7792
 1106SOL     OW14776   0.568   4.135   7.816  0.5369  0.1114  0.4482
 1106SOL    HW114777   0.655   4.173   7.803  0.7476 -0.7978 -0.8758
 1106SOL    HW214778   0.532   4.141   7.727 -0.7565 -0.4708  0.9305
 1107SOL     OW14779   1.078   0.342   5.550 -0.6467 -0.5924  0.0501
 1107SOL    HW114780   0.998   0.297   5.526 -1.4210  0.4701  0.6316
 1107SOL    HW214781   1.067   0.364   5.643  0.6810 -1.9060  0.5131
 1108SOL     OW14782   4.085   1.383   8.270 -0.5615  0.3484 -0.6122
 1108SOL    HW114783   4.051   1.371   8.359 -1.6441  0.1804 -1.0486
 1108SOL    HW214784   4.160   1.324   8.276  0.9827  2.3663  0.0694
 1109SOL     OW14785   1.114   4.381   8.500 -0.3588  0.1871 -0.5666
 1109SOL    HW114786   1.103   4.312   8.566 -1.6350  2.1465  1.2896
 1109SOL    HW214787   1.038   4.436   8.519 -0.1474  0.8766 -1.7323
 1110SOL     OW14788   1.177   0.793  14.489 -0.1354 -0.4611  0.1455
 1110SOL    HW114789   1.113   0.747  14.543 -0.0802  0.7880  1.2789
 1110SOL    HW214790   1.241   0.800  14.560  2.6222  2.1984 -2.5747
 1111SOL     OW14791   1.000   3.212   5.643  0.4051  0.2077  0.1947
 1111SOL    HW114792   0.969   3.157   5.715  1.2040 -0.9902 -0.3847
 1111SOL    HW214793   1.052   3.158   5.584 -0.3393 -0.4429  0.1321
 1112SOL     OW14794   0.735   1.109   6.378  0.4051  0.0464 -0.7487
 1112SOL    HW114795   0.715   1.203   6.376  0.0737 -0.0265 -0.8956
 1112SOL    HW214796   0.828   1.114   6.398  0.3109  1.4746 -0.6836
 1113SOL     OW14797   0.414   0.451   3.386 -0.9015  0.6066  0.2426
 1113SOL    HW114798   0.334   0.486   3.349 -1.4591  0.3232  1.1674
 1113SOL    HW214799   0.475   0.523   3.400  1.1802 -1.2282  0.7584
 1114SOL     OW14800   0.376   2.968   2.063 -0.2240  0.3371 -0.3896
 1114SOL    HW114801   0.300   2.998   2.014 -0.9731 -1.1630 -0.1309
 1114SOL    HW214802   0.435   2.955   1.989  0.7849 -2.0619  0.8306
 1115SOL     OW14803   3.496   3.271   4.581 -0.0566  0.9613  0.3938
 1115SOL    HW114804   3.414   3.270   4.630  1.2792  2.6659  2.6735
 1115SOL    HW214805   3.525   3.181   4.596 -1.1834  0.8852  2.0244
 1116SOL     OW14806   4.200   3.203   6.141 -0.1285 -0.2238  0.1090
 1116SOL    HW114807   4.147   3.278   6.116 -1.7879 -1.0653  1.0958
 1116SOL    HW214808   4.260   3.195   6.067 -0.3144 -0.6835  0.0107
 1117SOL     OW14809   3.717   4.244  13.913 -0.2915  0.2102 -0.1294
 1117SOL    HW114810   3.646   4.217  13.855  0.4826  1.2733 -1.5804
 1117SOL    HW214811   3.730   4.336  13.887 -1.1864 -0.2359 -2.1247
 1118SOL     OW14812   4.573   0.707   6.498 -0.1509  0.3183 -0.3573
 1118SOL    HW114813   4.657   0.745   6.525  0.0952 -1.4622  1.4010
 1118SOL    HW214814   4.510   0.745   6.559  0.1283  0.7556 -0.3407
 1119SOL     OW14815   3.411   2.934  13.305 -0.9120 -1.0778 -0.3497
 1119SOL    HW114816   3.356   2.873  13.255 -1.0890  0.9881 -2.6604
 1119SOL    HW214817   3.396   2.901  13.393 -2.8957  0.0806 -0.2597
 1120SOL     OW14818   2.267   1.537   1.356 -0.4898  0.6018  0.4079
 1120SOL    HW114819   2.305   1.573   1.276  0.0362  1.2014  0.9320
 1120SOL    HW214820   2.331   1.472   1.385 -1.4829 -1.5268 -2.1457
 1121SOL     OW14821   2.768   4.001   5.983 -0.0748  0.3181  0.0662
 1121SOL    HW114822   2.755   4.059   6.058  0.1018  1.6654 -0.9535
 1121SOL    HW214823   2.859   4.023   5.967 -0.0215 -1.5155 -2.0628
 1122SOL     OW14824   1.365   1.944  13.685 -0.0211 -0.8490 -0.6727
 1122SOL    HW114825   1.446   1.896  13.664 -0.6307 -2.1323 -0.0907
 1122SOL    HW214826   1.371   1.951  13.780  0.6076 -0.4922 -0.7383
 1123SOL     OW14827   3.364   0.475   4.962  0.0683 -0.0585 -0.4805
 1123SOL    HW114828   3.343   0.383   4.975  1.6449 -0.2780  0.4831
 1123SOL    HW214829   3.274   0.508   4.961  0.1447  0.0852 -3.0752
 1124SOL     OW14830   0.323   0.014   6.113  0.4139  0.5691 -0.4532
 1124SOL    HW114831   0.276   0.077   6.058 -1.5624 -2.0057 -1.7104
 1124SOL    HW214832   0.403   0.033   6.064  0.2932  0.9724 -0.4907
 1125SOL     OW14833   3.906   3.934   4.914  0.3480 -0.1223 -0.2965
 1125SOL    HW114834   3.882   3.861   4.858 -5.2071  1.6428 -0.2059
 1125SOL    HW214835   3.921   4.000   4.846 -0.0692 -0.9644 -1.1882
 1126SOL     OW14836   4.642   4.471   6.438 -0.0689 -0.0408 -0.2008
 1126SOL    HW114837   0.009   4.438   6.455 -0.6165 -0.9718  0.7810
 1126SOL    HW214838   4.653   4.557   6.479 -1.9774  1.3059 -2.4452
 1127SOL     OW14839   4.245   3.284  12.579  0.0146 -0.0787 -0.2487
 1127SOL    HW114840   4.293   3.315  12.656  0.7306 -2.0532  0.0971
 1127SOL    HW214841   4.164   3.268  12.629  0.1631 -0.1707 -0.0351
 1128SOL     OW14842   0.784   3.435   9.089  0.2773  0.2676 -0.4838
 1128SOL    HW114843   0.861   3.450   9.034 -0.3926 -1.0271 -1.7719
 1128SOL    HW214844   0.820   3.451   9.176 -0.3971 -1.0574  0.0461
 1129SOL     OW14845   3.059   1.856  11.099 -0.5413 -0.3447 -0.1403
 1129SOL    HW114846   2.993   1.886  11.162  1.3755 -1.0367  2.2121
 1129SOL    HW214847   3.134   1.899  11.140  0.5934 -0.5355 -2.0348
 1130SOL     OW14848   3.051   2.885   5.531  0.9632 -0.3251  0.0567
 1130SOL    HW114849   3.102   2.857   5.455  0.2769 -0.5323 -0.3311
 1130SOL    HW214850   3.082   2.975   5.542 -0.0454 -0.2495  2.2928
 1131SOL     OW14851   0.435   1.236  11.110 -0.5977  0.5033 -0.0421
 1131SOL    HW114852   0.529   1.217  11.111 -0.3081  1.9872  0.7955
 1131SOL    HW214853   0.407   1.196  11.028  0.9014 -0.4789 -0.0668
 1132SOL     OW14854   2.261   2.064   4.569  0.4369 -0.2981  0.3289
 1132SOL    HW114855   2.227   2.150   4.545 -0.6688 -0.4398  1.3631
 1132SOL    HW214856   2.245   2.024   4.484 -2.6917  0.6375  0.4555
 1133SOL     OW14857   3.731   2.886   5.489  0.3164 -0.7975 -0.4531
 1133SOL    HW114858   3.650   2.835   5.497 -0.1800  0.0310 -0.2294
 1133SOL    HW214859   3.790   2.818   5.523  0.5377 -0.7002 -0.6421
 1134SOL     OW14860   2.752   4.477   9.550 -0.3242 -0.4392 -0.2066
 1134SOL    HW114861   2.835   4.496   9.507  0.0036 -3.8046 -1.0987
 1134SOL    HW214862   2.756   4.384   9.571  2.4409 -0.1806  0.4141
 1135SOL     OW14863   2.184   0.860   8.817  0.7534  0.1699  0.0703
 1135SOL    HW114864   2.183   0.841   8.911  1.5778  0.3317  0.1162
 1135SOL    HW214865   2.202   0.954   8.822  0.6062  0.3514 -3.2585
 1136SOL     OW14866   1.211   1.738   8.392  0.0278 -0.2230 -0.0155
 1136SOL    HW114867   1.303   1.715   8.404  0.8227  1.5928 -2.5049
 1136SOL    HW214868   1.227   1.812   8.334 -1.3291  1.4226  1.6768
 1137SOL     OW14869   0.375   3.080   4.121  0.2480  1.1226  0.3796
 1137SOL    HW114870   0.283   3.078   4.096  0.7495  0.9566 -1.4274
 1137SOL    HW214871   0.381   2.993   4.160 -1.5715  0.2253 -1.3338
 1138SOL     OW14872   3.006   0.054  16.552  0.1190 -0.4013 -0.3166
 1138SOL    HW114873   2.985   0.049  16.646 -1.5505  0.7393 -0.6355
 1138SOL    HW214874   2.967   0.137  16.524  3.2706  1.6579  1.2957
 1139SOL     OW14875   3.188   1.435  15.165 -0.1439 -1.0452  0.5219
 1139SOL    HW114876   3.245   1.505  15.197 -0.5223 -0.6662  0.3566
 1139SOL    HW214877   3.149   1.464  15.083 -1.5173 -1.0758  1.1643
 1140SOL     OW14878   2.312   0.888   4.920 -0.2731 -0.0020 -0.1214
 1140SOL    HW114879   2.256   0.925   4.988  1.7507  1.0780  0.9594
 1140SOL    HW214880   2.306   0.956   4.854  0.2043  1.2376  1.1212
 1141SOL     OW14881   2.300   3.893   2.710 -0.5441  0.6468 -0.4034
 1141SOL    HW114882   2.319   3.870   2.620 -3.5093 -0.3984 -0.7858
 1141SOL    HW214883   2.205   3.906   2.700 -0.9985 -2.2643 -0.0091
 1142SOL     OW14884   3.306   2.268   0.795  0.8554  0.0998 -0.0637
 1142SOL    HW114885   3.316   2.191   0.851  0.2074 -1.1005 -1.5886
 1142SOL    HW214886   3.379   2.327   0.811  2.5282 -1.7284 -0.8818
 1143SOL     OW14887   1.363   2.003   7.004 -0.2300 -0.0049  0.0777
 1143SOL    HW114888   1.365   1.974   6.912  0.3324  0.3728 -0.0337
 1143SOL    HW214889   1.312   2.084   7.003  0.1288  0.2008 -1.6886
 1144SOL     OW14890   3.096   1.916   2.384 -0.2093 -0.0431  0.2429
 1144SOL    HW114891   3.033   1.851   2.414 -0.0690 -0.8150 -1.1220
 1144SOL    HW214892   3.149   1.870   2.318  0.2153  0.7439  0.0265
 1145SOL     OW14893   3.970   2.286   2.537 -0.1216 -0.1096  0.1731
 1145SOL    HW114894   3.984   2.286   2.442 -1.1990 -1.6307  0.0142
 1145SOL    HW214895   3.903   2.220   2.555  0.4874 -0.6722  0.3909
 1146SOL     OW14896   2.576   2.989   3.550  0.3388  0.2131  0.3454
 1146SOL    HW114897   2.648   2.927   3.537 -0.0375  0.2225 -1.7512
 1146SOL    HW214898   2.550   2.960   3.637 -2.5133  2.6456  0.2734
 1147SOL     OW14899   4.167   2.501   2.007  0.2406  0.0683  0.9053
 1147SOL    HW114900   4.205   2.482   1.921  1.2290  3.3866  0.5737
 1147SOL    HW214901   4.080   2.511   1.970  0.5793 -2.7439 -0.6410
 1148SOL     OW14902   0.288   4.277   8.513  0.4494 -0.0334 -0.3266
 1148SOL    HW114903   0.335   4.281   8.430 -1.0621 -1.7034 -1.2720
 1148SOL    HW214904   0.354   4.244   8.573 -1.2240 -1.6916  0.6265
 1149SOL     OW14905   3.194   3.667   5.714  0.0747  0.1857 -0.4788
 1149SOL    HW114906   3.128   3.603   5.691 -0.8025  0.4601  1.2888
 1149SOL    HW214907   3.228   3.710   5.635 -2.0975  1.8794 -0.4865
 1150SOL     OW14908   3.753   2.504  14.156  0.6182 -0.6406 -0.0409
 1150SOL    HW114909   3.824   2.531  14.097  0.3528 -2.1827 -1.0649
 1150SOL    HW214910   3.798   2.433  14.202 -0.1560  0.2935  2.1454
 1151SOL     OW14911   1.977   1.079   5.815  0.1000  0.1331 -0.4220
 1151SOL    HW114912   1.949   1.090   5.906  2.5851 -0.1571  0.3986
 1151SOL    HW214913   1.934   0.995   5.802  4.1226 -2.1444  1.0514
 1152SOL     OW14914   2.863   2.572   6.733  0.4342 -0.3032 -0.0083
 1152SOL    HW114915   2.849   2.658   6.693 -2.0068 -0.3026  0.8414
 1152SOL    HW214916   2.869   2.597   6.825 -0.5359 -1.2641  0.3103
 1153SOL     OW14917   1.339   4.675   3.692  0.0754 -0.5776 -0.2820
 1153SOL    HW114918   1.433   4.660   3.705  0.0528 -2.2560 -2.1397
 1153SOL    HW214919   1.335   4.658   3.598  0.2159  0.4095 -0.4748
 1154SOL     OW14920   3.736   2.633   3.345 -0.2608 -0.0251 -0.6000
 1154SOL    HW114921   3.749   2.676   3.430  1.4748  0.8319 -1.2878
 1154SOL    HW214922   3.804   2.671   3.289  0.8308 -0.2375  0.5731
 1155SOL     OW14923   4.099   2.152  13.653 -0.0174  0.5056 -0.0819
 1155SOL    HW114924   4.138   2.232  13.618  2.6454 -0.8564 -0.2512
 1155SOL    HW214925   4.050   2.180  13.729 -1.3380  1.7110 -1.3955
 1156SOL     OW14926   3.667   3.616   4.980  0.4242 -0.4367  0.5436
 1156SOL    HW114927   3.599   3.671   4.942  0.7885 -1.8679 -2.1572
 1156SOL    HW214928   3.743   3.639   4.928 -0.7953 -0.0683 -1.0650
 1157SOL     OW14929   2.711   4.079   2.296 -0.0686 -0.1283 -0.2186
 1157SOL    HW114930   2.756   4.009   2.249  1.5696 -0.3754  1.7106
 1157SOL    HW214931   2.724   4.166   2.257 -1.6392 -0.2927 -1.1099
 1158SOL     OW14932   0.919   0.039   3.997  0.2460 -0.3006  0.6409
 1158SOL    HW114933   0.886   4.670   3.994  1.1460 -0.5183 -2.8802
 1158SOL    HW214934   0.872   0.067   4.076  0.8109 -2.0675  1.6037
 1159SOL     OW14935   3.327   3.728   2.250  0.2263  0.5038  0.4191
 1159SOL    HW114936   3.370   3.687   2.325  2.0157  2.0365  0.2260
 1159SOL    HW214937   3.351   3.817   2.275  0.9269  0.2816  0.5161
 1160SOL     OW14938   2.023   2.705   0.966  0.5609 -0.7691 -0.2287
 1160SOL    HW114939   2.087   2.746   0.909 -0.2463  1.3249  0.3579
 1160SOL    HW214940   2.009   2.761   1.042  3.2848  0.2610 -0.5172
 1161SOL     OW14941   1.470   1.524  12.490  0.3116 -0.0140  0.2449
 1161SOL    HW114942   1.428   1.454  12.440  0.7935  0.7070 -1.1827
 1161SOL    HW214943   1.527   1.572  12.430  0.7708 -1.1654 -0.2312
 1162SOL     OW14944   3.382   0.150   6.494 -0.6257 -0.2668  0.7040
 1162SOL    HW114945   3.444   0.090   6.535 -1.4601 -0.5215  1.5642
 1162SOL    HW214946   3.314   0.094   6.457 -0.3700  0.8443 -1.4968
 1163SOL     OW14947   4.579   0.289   5.722 -0.4908 -0.2703  0.2339
 1163SOL    HW114948   4.636   0.271   5.646  0.4205  0.8983  0.6373
 1163SOL    HW214949   4.622   0.223   5.776  1.2953  1.0516  0.4356
 1164SOL     OW14950   4.599   3.156   5.751 -0.0314  0.2127  0.1263
 1164SOL    HW114951   4.626   3.235   5.704 -1.0880  0.4692 -0.0597
 1164SOL    HW214952   4.650   3.096   5.697 -0.8441  2.6845 -3.4030
 1165SOL     OW14953   1.740   4.400   7.848 -0.0422 -0.7555 -0.3934
 1165SOL    HW114954   1.648   4.425   7.844 -0.3680 -2.2192 -2.1297
 1165SOL    HW214955   1.790   4.462   7.795 -1.9519  0.8643 -0.2759
 1166SOL     OW14956   1.391   2.342  12.525 -0.3499 -0.3189 -0.6899
 1166SOL    HW114957   1.324   2.305  12.582  0.4794 -0.2622  0.3203
 1166SOL    HW214958   1.403   2.274  12.459 -2.5914 -0.8180 -0.5792
 1167SOL     OW14959   3.395   0.066   5.773  0.4794 -0.8673 -0.1331
 1167SOL    HW114960   3.375   0.156   5.750 -1.9362 -0.8027  2.2302
 1167SOL    HW214961   3.318   0.041   5.823 -0.2843  0.3206 -0.7225
 1168SOL     OW14962   1.004   4.246   0.278  0.1160  0.4093 -0.3520
 1168SOL    HW114963   0.984   4.305   0.350  0.8169  2.6395 -1.9834
 1168SOL    HW214964   1.008   4.166   0.331  0.1772  1.1869  0.8125
 1169SOL     OW14965   1.213   0.847   9.667 -0.0891 -0.2363 -0.3928
 1169SOL    HW114966   1.255   0.930   9.689 -0.4454 -0.0036 -0.5900
 1169SOL    HW214967   1.286   0.786   9.681 -0.0270  0.2188  1.2293
 1170SOL     OW14968   1.882   3.461  15.580 -0.2175 -0.4968 -0.3961
 1170SOL    HW114969   1.868   3.535  15.521 -0.9600  1.2288  1.9869
 1170SOL    HW214970   1.926   3.503  15.654  0.1622 -2.4254  0.4766
 1171SOL     OW14971   1.742   1.083   8.247 -0.0590  0.2752  0.0385
 1171SOL    HW114972   1.800   1.158   8.235 -0.9169  1.1695  1.5310
 1171SOL    HW214973   1.657   1.129   8.244  0.4279  1.1769  0.0760
 1172SOL     OW14974   2.886   4.418   9.119 -0.3506  0.0769  0.1650
 1172SOL    HW114975   2.926   4.456   9.041  0.0611 -1.4336 -0.3588
 1172SOL    HW214976   2.958   4.424   9.182 -1.7027  2.1848  1.4927
 1173SOL     OW14977   0.633   4.553   3.685  0.1127  0.1144 -0.2021
 1173SOL    HW114978   0.684   4.634   3.690 -0.2048  0.3644 -0.9025
 1173SOL    HW214979   0.636   4.532   3.591  1.4026 -1.0711  0.1119
 1174SOL     OW14980   2.180   1.314  15.308  0.0281  0.9191  0.1163
 1174SOL    HW114981   2.121   1.263  15.362  1.6184  1.4615  2.3471
 1174SOL    HW214982   2.155   1.400  15.342  1.0577  1.0585  0.5205
 1175SOL     OW14983   0.622   4.417  14.439 -0.1079  0.1827  0.0643
 1175SOL    HW114984   0.673   4.471  14.499 -0.4955 -0.7115  1.1945
 1175SOL    HW214985   0.680   4.341  14.453 -0.4637 -0.3355 -1.3094
 1176SOL     OW14986   3.162   1.484  12.226  0.2759 -0.0553 -0.1307
 1176SOL    HW114987   3.087   1.543  12.229  0.5534  0.3895 -2.3365
 1176SOL    HW214988   3.221   1.528  12.165  0.5869 -0.2755  0.0099
 1177SOL     OW14989   0.768   2.840   5.854 -0.3010  0.2798  0.2005
 1177SOL    HW114990   0.770   2.744   5.853 -3.3264  0.2078 -1.8829
 1177SOL    HW214991   0.684   2.862   5.813  1.1286  1.3985 -2.1634
 1178SOL     OW14992   3.154   1.878  11.414  0.2939  0.1263 -0.2321
 1178SOL    HW114993   3.132   1.960  11.370 -0.9735  0.0380  0.2414
 1178SOL    HW214994   3.072   1.856  11.459  1.3178 -0.9320  1.1485
 1179SOL     OW14995   0.439   3.868   5.716 -0.2480 -0.1480 -0.1415
 1179SOL    HW114996   0.397   3.834   5.637  0.4921 -0.0803 -0.5635
 1179SOL    HW214997   0.531   3.845   5.705  0.0314  1.6213 -1.5277
 1180SOL     OW14998   0.701   3.547  15.174 -0.1996  0.1250  0.2788
 1180SOL    HW114999   0.797   3.545  15.172 -0.2140 -0.7834  0.1199
 1180SOL    HW215000   0.674   3.492  15.100 -0.5084  0.8403 -0.1332
 1181SOL     OW15001   3.168   0.161  10.286  0.2297 -0.4348  0.5857
 1181SOL    HW115002   3.186   0.100  10.358  1.1983  0.7463  1.3618
 1181SOL    HW215003   3.178   0.105  10.209  2.5534  1.2055 -0.3050
 1182SOL     OW15004   1.683   4.683   8.924  0.1451 -0.4039 -0.3854
 1182SOL    HW115005   1.592   4.655   8.911 -0.6928  1.7061  0.9135
 1182SOL    HW215006   1.730   4.648   8.848  0.4042  0.6944 -0.7414
 1183SOL     OW15007   1.199   3.746   6.432  0.1428  0.9544  0.0745
 1183SOL    HW115008   1.214   3.671   6.489  1.8329 -0.8666 -2.7519
 1183SOL    HW215009   1.172   3.706   6.349  0.9866 -0.7635  0.6216
 1184SOL     OW15010   0.232   1.072   7.431 -0.0015 -0.4773  0.0415
 1184SOL    HW115011   0.302   1.071   7.496 -0.1641 -1.4443  0.2003
 1184SOL    HW215012   0.167   1.029   7.486  1.5493 -0.3120  2.0092
 1185SOL     OW15013   3.641   1.564   3.368 -0.3033  0.2394 -0.5152
 1185SOL    HW115014   3.714   1.598   3.419 -0.8361  0.8384 -0.1527
 1185SOL    HW215015   3.618   1.640   3.315  3.8613 -0.0608 -2.7126
 1186SOL     OW15016   1.223   2.776   9.411 -0.8442  0.2010 -0.0138
 1186SOL    HW115017   1.142   2.770   9.461  2.1321 -1.1197  4.6624
 1186SOL    HW215018   1.229   2.868   9.385  3.5708 -0.3319 -0.9337
 1187SOL     OW15019   3.629   2.929   2.021 -0.1923  0.5476 -0.0890
 1187SOL    HW115020   3.713   2.902   1.984 -1.5484 -0.9277 -2.0863
 1187SOL    HW215021   3.607   3.006   1.970  1.7799 -0.4770 -2.4639
 1188SOL     OW15022   4.175   2.790   8.523  0.4711  0.3583 -0.0024
 1188SOL    HW115023   4.100   2.732   8.509  1.4786 -0.8721 -0.2971
 1188SOL    HW215024   4.246   2.744   8.479  2.7901  3.6336  0.3060
 1189SOL     OW15025   0.083   0.022   3.362 -0.2495  0.3171 -0.2023
 1189SOL    HW115026   0.126   0.017   3.447 -2.2312 -1.0571  0.7360
 1189SOL    HW215027   0.054   0.113   3.359 -1.0853  0.0462 -0.2782
 1190SOL     OW15028   2.000   1.080  14.488  0.0265 -0.3070 -0.1045
 1190SOL    HW115029   1.974   0.988  14.494  0.1957 -0.3464  0.0221
 1190SOL    HW215030   2.077   1.066  14.433  0.0267 -2.7944  0.5452
 1191SOL     OW15031   1.678   1.360   2.820 -0.4935 -0.3433  0.1451
 1191SOL    HW115032   1.760   1.316   2.799  0.5424  0.5803  2.1754
 1191SOL    HW215033   1.682   1.448   2.784 -2.9451 -0.8896 -1.4964
 1192SOL     OW15034   3.410   2.854   8.649  0.1516  0.0294 -0.8298
 1192SOL    HW115035   3.378   2.820   8.733 -0.3209  1.7127 -0.3204
 1192SOL    HW215036   3.396   2.948   8.661  2.0529  0.2450 -0.2762
 1193SOL     OW15037   0.114   3.008   7.635 -0.1041 -0.0996 -0.5912
 1193SOL    HW115038   0.092   3.033   7.545  2.4111  1.3412 -0.8220
 1193SOL    HW215039   0.195   3.060   7.630  0.6476 -1.1364  0.6316
 1194SOL     OW15040   1.693   3.803  15.760  0.1172 -0.0126 -0.3238
 1194SOL    HW115041   1.712   3.743  15.688  1.1016 -0.2598  0.1409
 1194SOL    HW215042   1.714   3.892  15.732  3.0035  0.4044  3.1124
 1195SOL     OW15043   2.872   1.050   2.603 -0.3370 -0.1717  0.2989
 1195SOL    HW115044   2.845   0.986   2.537 -3.8978  0.9206  0.6882
 1195SOL    HW215045   2.868   0.990   2.678  0.5680 -2.2487 -1.3055
 1196SOL     OW15046   2.967   0.428   4.375 -0.1542  0.3848 -0.5321
 1196SOL    HW115047   3.016   0.453   4.297 -0.5140 -0.2663 -0.9629
 1196SOL    HW215048   2.931   0.346   4.341 -1.0201  1.3572 -1.9595
 1197SOL     OW15049   1.361   1.868   5.152  0.6727  0.1031 -0.1111
 1197SOL    HW115050   1.343   1.953   5.192  0.3085  0.3693 -0.8307
 1197SOL    HW215051   1.287   1.859   5.092  1.1054  0.8947 -0.7630
 1198SOL     OW15052   0.602   1.784   4.150 -0.0991 -0.3620  0.4325
 1198SOL    HW115053   0.572   1.750   4.066 -1.1388  2.8049 -0.4942
 1198SOL    HW215054   0.526   1.747   4.195 -1.2221 -0.4955 -1.5693
 1199SOL     OW15055   2.827   2.705   5.016  0.3932 -0.0657  0.2358
 1199SOL    HW115056   2.777   2.646   4.960  0.0997  2.3490 -2.0261
 1199SOL    HW215057   2.805   2.668   5.102  0.1664  1.2445  0.7399
 1200SOL     OW15058   4.335   2.737  10.702 -0.5536 -0.3342  0.2236
 1200SOL    HW115059   4.295   2.651  10.693  2.8928 -1.5509 -3.7378
 1200SOL    HW215060   4.430   2.722  10.698 -0.6908 -1.4673  1.3037
 1201SOL     OW15061   0.200   1.722   1.006 -0.1081  0.3978  0.1635
 1201SOL    HW115062   0.268   1.696   0.943 -1.0187 -0.1432 -0.5928
 1201SOL    HW215063   0.125   1.725   0.946 -0.5212  2.8509  0.7961
 1202SOL     OW15064   1.031   3.616   7.160 -0.0037  0.1580 -0.1425
 1202SOL    HW115065   1.048   3.651   7.072  1.0112  0.8617  0.3287
 1202SOL    HW215066   1.044   3.524   7.135  2.1811  0.4325 -0.0625
 1203SOL     OW15067   0.980   2.651  14.474  0.2899 -0.1960  0.1747
 1203SOL    HW115068   0.962   2.558  14.485  2.1806 -0.3800  1.6816
 1203SOL    HW215069   0.920   2.686  14.540  0.3312  0.5227 -0.1680
 1204SOL     OW15070   3.543   1.095   3.185  0.3624 -0.4139 -0.1610
 1204SOL    HW115071   3.505   1.110   3.271  0.3793  0.3570 -0.2893
 1204SOL    HW215072   3.543   1.185   3.152  1.6622 -0.7605 -1.1108
 1205SOL     OW15073   0.942   3.019   2.692 -0.0718  0.6008 -0.4752
 1205SOL    HW115074   0.886   2.981   2.625 -0.6076 -0.3422  0.5029
 1205SOL    HW215075   1.022   3.030   2.640 -0.2989 -2.5441 -1.4830
 1206SOL     OW15076   0.874   0.194   6.789 -0.2316 -0.1727  0.2930
 1206SOL    HW115077   0.801   0.236   6.835  1.5437  0.4340  2.5594
 1206SOL    HW215078   0.824   0.147   6.722  0.5694  0.7315 -0.9175
 1207SOL     OW15079   3.844   2.669   9.188  0.1998 -0.6476  0.0708
 1207SOL    HW115080   3.776   2.722   9.147  0.3862  0.0961  0.7385
 1207SOL    HW215081   3.809   2.580   9.179 -2.4848  0.3413  0.7218
 1208SOL     OW15082   2.775   3.376   1.445 -0.3847 -0.0757  0.3033
 1208SOL    HW115083   2.823   3.293   1.434  0.7264  0.6221 -0.1680
 1208SOL    HW215084   2.695   3.358   1.494  1.0290 -2.7422  1.6345
 1209SOL     OW15085   4.411   3.686   5.021  0.3274  0.0306  0.4738
 1209SOL    HW115086   4.491   3.633   5.014  1.2000  1.1629  2.0854
 1209SOL    HW215087   4.363   3.623   5.075  1.0874 -0.7971  0.1879
 1210SOL     OW15088   4.129   4.442   3.580  0.0564 -0.3101 -0.3635
 1210SOL    HW115089   4.161   4.499   3.650  0.9522 -1.3843  0.0932
 1210SOL    HW215090   4.210   4.415   3.536  0.9945 -1.9783  2.3892
 1211SOL     OW15091   3.261   3.659   3.849 -0.5828  0.1485  0.2628
 1211SOL    HW115092   3.352   3.646   3.822 -1.0205  2.6806 -2.4604
 1211SOL    HW215093   3.268   3.752   3.868 -1.6983  0.9770 -3.3052
 1212SOL     OW15094   2.381   3.272   2.121  0.2591 -0.7830  0.3344
 1212SOL    HW115095   2.345   3.360   2.122 -1.5648 -1.5285 -2.2585
 1212SOL    HW215096   2.445   3.294   2.189  1.5107 -2.1541 -0.3947
 1213SOL     OW15097   2.709   3.822   2.780  0.2173  0.3220  0.0349
 1213SOL    HW115098   2.724   3.836   2.687 -0.7148  1.0958 -0.0039
 1213SOL    HW215099   2.707   3.914   2.806 -0.6056  0.3265 -0.0213
 1214SOL     OW15100   3.540   2.194  13.844 -0.3655 -0.0717  0.4343
 1214SOL    HW115101   3.452   2.201  13.879  0.3304  2.9271  1.5607
 1214SOL    HW215102   3.559   2.288  13.840  1.0939 -0.4277 -1.0978
 1215SOL     OW15103   3.207   2.953  17.513 -0.4810  0.3111  0.7718
 1215SOL    HW115104   3.184   2.901  17.589 -1.2003 -3.3422 -1.9574
 1215SOL    HW215105   3.122   2.949  17.469  0.7437  1.4486 -1.7369
 1216SOL     OW15106   4.035   3.368   7.351 -0.6309  0.1688 -0.1149
 1216SOL    HW115107   3.943   3.341   7.357 -0.8999  0.5426 -2.8362
 1216SOL    HW215108   4.050   3.406   7.438  0.0286  0.5935 -0.4225
 1217SOL     OW15109   1.403   1.974  16.811 -0.0687  0.1130  0.1051
 1217SOL    HW115110   1.318   2.017  16.800 -0.3388 -1.0128 -2.1322
 1217SOL    HW215111   1.468   2.045  16.814  0.3038 -0.2387  0.3457
 1218SOL     OW15112   4.063   0.966   1.325  0.0694  0.2955  0.1459
 1218SOL    HW115113   4.014   1.018   1.387  1.3617  1.3776  0.2577
 1218SOL    HW215114   3.989   0.924   1.281 -0.5683  1.6471 -0.0695
 1219SOL     OW15115   4.244   3.728   9.737  0.9872  0.4138  0.0873
 1219SOL    HW115116   4.230   3.815   9.772 -0.4889 -0.4868  1.7496
 1219SOL    HW215117   4.286   3.680   9.808 -0.4119  0.7058  1.1155
 1220SOL     OW15118   3.069   3.942   9.078 -1.0921  0.0055  0.7692
 1220SOL    HW115119   3.088   3.859   9.034 -1.8629  0.8999 -1.2700
 1220SOL    HW215120   3.153   3.976   9.107  0.4761 -1.9623 -1.4023
 1221SOL     OW15121   3.938   2.555   7.301 -0.8406  0.0198  0.2596
 1221SOL    HW115122   3.916   2.555   7.208 -1.3371 -1.8425  0.3625
 1221SOL    HW215123   3.847   2.567   7.328 -0.8470  1.2636 -0.3540
 1222SOL     OW15124   2.342   3.803   8.450 -0.5887  0.3565 -0.0429
 1222SOL    HW115125   2.409   3.736   8.462  0.1204  0.6167 -2.5184
 1222SOL    HW215126   2.336   3.823   8.543  0.0027 -0.0588  0.0821
 1223SOL     OW15127   4.690   1.718   4.916 -0.0844  0.1771  0.3279
 1223SOL    HW115128   0.011   1.632   4.916 -0.7802 -0.1691 -0.3643
 1223SOL    HW215129   4.619   1.699   4.855 -0.0257  1.0100 -0.0005
 1224SOL     OW15130   2.025   0.114   5.162  0.2888  0.1536 -0.7302
 1224SOL    HW115131   2.074   0.172   5.220 -0.1121 -0.2594  0.0117
 1224SOL    HW215132   2.096   0.077   5.109  0.5048 -0.1295 -0.2492
 1225SOL     OW15133   3.788   1.570  13.546  0.1313  0.4272  0.0611
 1225SOL    HW115134   3.800   1.654  13.502  2.1998 -0.7303 -1.5888
 1225SOL    HW215135   3.693   1.562  13.550  0.1871 -0.0646  0.5078
 1226SOL     OW15136   2.290   2.476   1.719 -0.4500  0.0866 -0.1518
 1226SOL    HW115137   2.304   2.521   1.802 -1.5007  2.8581 -1.4777
 1226SOL    HW215138   2.381   2.464   1.690 -0.7478  2.3116 -2.0180
 1227SOL     OW15139   1.256   1.925   2.371  0.5499 -0.0003 -0.3460
 1227SOL    HW115140   1.329   1.866   2.387 -0.1000 -0.0888  2.2665
 1227SOL    HW215141   1.232   1.894   2.284 -0.9154  1.3384 -0.4242
 1228SOL     OW15142   0.243   3.027   8.183  0.4987  0.3760 -0.4305
 1228SOL    HW115143   0.178   3.067   8.241 -0.8122 -0.2264 -1.4749
 1228SOL    HW215144   0.199   3.033   8.098 -0.0300  0.2385 -0.1696
 1229SOL     OW15145   2.939   1.582  12.953  0.2349  0.3221 -0.0111
 1229SOL    HW115146   2.895   1.567  12.870 -1.3617 -1.6489  1.1837
 1229SOL    HW215147   2.863   1.587  13.011  1.9473  2.9739  1.9892
 1230SOL     OW15148   3.438   2.601  15.611 -0.3838 -1.1335 -0.1726
 1230SOL    HW115149   3.485   2.629  15.532 -0.3955 -3.0688 -0.8627
 1230SOL    HW215150   3.504   2.613  15.680  0.9044  0.2360 -1.6474
 1231SOL     OW15151   1.229   2.660   8.519  0.2142  0.2612 -0.0223
 1231SOL    HW115152   1.204   2.614   8.440  0.3717  0.8626 -0.4226
 1231SOL    HW215153   1.151   2.710   8.544  0.7627  1.8096 -1.4230
 1232SOL     OW15154   3.949   2.728   3.205  0.1070 -0.0949  0.0275
 1232SOL    HW115155   4.007   2.663   3.245 -0.3506 -0.6631 -0.2459
 1232SOL    HW215156   3.985   2.723   3.117 -0.3588  2.2312 -0.3024
 1233SOL     OW15157   1.546   2.914   1.253 -0.6480  0.2760 -0.7686
 1233SOL    HW115158   1.514   2.855   1.322 -0.1836 -0.9026 -1.5514
 1233SOL    HW215159   1.477   2.894   1.189 -1.1030  0.4988 -0.3434
 1234SOL     OW15160   3.036   4.441  16.159  0.0663  0.6888 -0.3968
 1234SOL    HW115161   2.965   4.403  16.212  0.2038  1.2463  0.1863
 1234SOL    HW215162   3.014   4.405  16.073 -3.1644 -1.0295  1.1420
 1235SOL     OW15163   3.027   0.169   6.217  0.2877 -0.1032 -0.3203
 1235SOL    HW115164   2.968   0.096   6.232  0.9645 -0.6741 -0.4631
 1235SOL    HW215165   3.094   0.120   6.170 -1.4944 -1.6727 -1.1747
 1236SOL     OW15166   2.305   2.640  16.196 -0.2257  0.2020 -0.1219
 1236SOL    HW115167   2.389   2.642  16.150 -0.1897  0.7479 -0.0336
 1236SOL    HW215168   2.287   2.546  16.194  1.0312 -0.0435  0.6804
 1237SOL     OW15169   4.470   1.793  12.194  0.6980 -0.7352 -0.5677
 1237SOL    HW115170   4.551   1.765  12.236  0.9099 -0.3316 -0.7117
 1237SOL    HW215171   4.439   1.852  12.263  0.7248  0.2426 -1.4072
 1238SOL     OW15172   0.483   4.121  10.114  0.1754 -0.1201  0.3016
 1238SOL    HW115173   0.439   4.037  10.123  0.7542 -0.3230  1.2448
 1238SOL    HW215174   0.576   4.103  10.125  0.6444  1.4541 -1.1128
 1239SOL     OW15175   3.208   2.895  14.390  0.1003 -0.2151 -0.3812
 1239SOL    HW115176   3.113   2.893  14.400  0.1450 -0.4258  0.0109
 1239SOL    HW215177   3.236   2.822  14.334  0.4449 -0.3024 -0.0918
 1240SOL     OW15178   2.834   3.275   5.528  0.2963  0.5901 -0.9360
 1240SOL    HW115179   2.808   3.183   5.535 -0.2259  0.9883  2.3206
 1240SOL    HW215180   2.772   3.299   5.459  1.5068 -0.7955 -2.5300
 1241SOL     OW15181   3.636   2.144   3.846  0.1052 -0.4646  0.1576
 1241SOL    HW115182   3.618   2.197   3.923  0.7705 -1.2645  0.8669
 1241SOL    HW215183   3.576   2.189   3.787 -0.8486 -0.6723  0.9786
 1242SOL     OW15184   0.628   1.581  14.868 -0.0333  0.2298 -0.0869
 1242SOL    HW115185   0.547   1.560  14.821 -0.2121  3.0129 -1.0189
 1242SOL    HW215186   0.599   1.650  14.928 -2.6775 -1.3661  0.4848
 1243SOL     OW15187   0.502   0.645   5.402  0.1361 -0.6165  0.0235
 1243SOL    HW115188   0.519   0.687   5.487  0.1506  0.9440 -0.7606
 1243SOL    HW215189   0.409   0.665   5.390  0.4035  1.4186  1.2535
 1244SOL     OW15190   2.864   4.194   7.329  0.4771  0.0068  0.1638
 1244SOL    HW115191   2.928   4.262   7.309  0.3707 -0.0247 -0.2806
 1244SOL    HW215192   2.785   4.247   7.323 -0.1892 -1.1367 -1.1939
 1245SOL     OW15193   3.562   2.874  17.369  0.4153  0.0839 -0.3025
 1245SOL    HW115194   3.498   2.808  17.343 -0.8196  0.9363  0.5636
 1245SOL    HW215195   3.625   2.882  17.298 -0.9366 -0.3914 -1.5691
 1246SOL     OW15196   0.870   1.983   5.982 -0.5714  0.0727  0.0795
 1246SOL    HW115197   0.866   2.044   6.056 -0.9855 -0.0402  0.1515
 1246SOL    HW215198   0.919   2.038   5.920 -0.4378  0.7720  0.8143
 1247SOL     OW15199   3.469   0.512   3.492 -0.5264 -0.1643 -0.1753
 1247SOL    HW115200   3.458   0.560   3.410 -0.5397 -0.1059 -0.1391
 1247SOL    HW215201   3.515   0.443   3.444  1.1396 -0.2276  1.5064
 1248SOL     OW15202   3.852   1.495   8.172 -0.0448  0.2001 -0.7917
 1248SOL    HW115203   3.913   1.446   8.228 -1.1899 -1.2280 -0.8012
 1248SOL    HW215204   3.853   1.451   8.087 -0.2291  1.6563 -1.5456
 1249SOL     OW15205   2.139   3.779   1.346  0.2632 -0.3378  0.0477
 1249SOL    HW115206   2.123   3.743   1.432 -0.2496  2.7348  1.2545
 1249SOL    HW215207   2.125   3.704   1.289 -0.3450  0.6453 -1.1141
 1250SOL     OW15208   2.071   3.307   6.603 -0.2170  0.3692 -0.2118
 1250SOL    HW115209   2.043   3.347   6.686 -0.0863  1.0576 -0.5034
 1250SOL    HW215210   2.135   3.248   6.643  0.9059  0.8233 -1.3466
 1251SOL     OW15211   2.148   1.145   5.544  0.4437  0.1254  0.3030
 1251SOL    HW115212   2.071   1.187   5.504  1.7587  1.7833 -0.4854
 1251SOL    HW215213   2.114   1.142   5.633  1.3462  0.9880  0.6753
 1252SOL     OW15214   0.105   1.436   7.725 -0.4693  0.1637 -0.0937
 1252SOL    HW115215   0.148   1.522   7.719  0.3427 -0.2181  0.2777
 1252SOL    HW215216   0.117   1.413   7.633  0.5409  0.5523 -0.0598
 1253SOL     OW15217   4.188   3.228   4.545  0.0962  0.2151  0.1936
 1253SOL    HW115218   4.224   3.212   4.458 -0.4586  1.0516 -0.1914
 1253SOL    HW215219   4.190   3.148   4.598 -0.7315  1.1717  1.6878
 1254SOL     OW15220   0.705   2.335   1.324  0.1420  0.6524 -0.0185
 1254SOL    HW115221   0.783   2.384   1.348 -0.3242  1.5211 -0.3059
 1254SOL    HW215222   0.653   2.413   1.308 -0.5176  0.3470  0.5894
 1255SOL     OW15223   0.703   2.344   2.707 -0.1889  0.0896 -0.3440
 1255SOL    HW115224   0.736   2.274   2.651 -0.9636 -0.8263  0.3359
 1255SOL    HW215225   0.715   2.415   2.645  0.0046 -0.2803 -0.7350
 1256SOL     OW15226   0.164   2.711   3.010  0.3048  0.0819 -0.6442
 1256SOL    HW115227   0.186   2.786   3.066  2.7042  0.0452 -1.5404
 1256SOL    HW215228   0.132   2.745   2.927 -2.6272  1.0008  0.8409
 1257SOL     OW15229   2.471   4.716  16.120  0.9055  0.7849  0.0111
 1257SOL    HW115230   2.561   4.688  16.107  1.6227  2.7218  0.7044
 1257SOL    HW215231   2.456   4.660  16.196  1.2477  0.7157  0.0279
 1258SOL     OW15232   0.418   3.392   1.153  0.4233  0.3871  0.3281
 1258SOL    HW115233   0.511   3.416   1.150  0.0643  1.5191 -1.5578
 1258SOL    HW215234   0.414   3.335   1.230  0.8924 -0.3826 -0.2076
 1259SOL     OW15235   3.339   2.107   2.201  0.0225  0.3557  0.2620
 1259SOL    HW115236   3.373   2.070   2.119 -1.3352 -2.0346  0.7900
 1259SOL    HW215237   3.382   2.057   2.271 -0.7858 -0.7975 -0.0775
 1260SOL     OW15238   1.974   1.761   4.072  0.2200  0.0606 -0.0631
 1260SOL    HW115239   1.994   1.854   4.059  1.5765 -0.0112  1.3976
 1260SOL    HW215240   1.897   1.761   4.016 -0.0803 -0.7166  0.3440
 1261SOL     OW15241   3.758   3.257   0.198  0.3089  0.9867  0.0247
 1261SOL    HW115242   3.852   3.247   0.210  0.2966  0.8683  0.0204
 1261SOL    HW215243   3.729   3.234   0.286  0.1472  1.3889  0.0793
 1262SOL     OW15244   1.253   0.051   5.342 -0.0050 -0.0422  1.0451
 1262SOL    HW115245   1.311   0.046   5.266 -0.4853 -0.3080  0.6966
 1262SOL    HW215246   1.302   0.110   5.400 -0.8292  0.2712  1.4288
 1263SOL     OW15247   3.714   0.801   8.117  0.4863 -0.4342  0.5030
 1263SOL    HW115248   3.769   0.793   8.039 -1.2812  0.4234 -0.8224
 1263SOL    HW215249   3.644   0.857   8.084  0.8995  0.4618  1.1376
 1264SOL     OW15250   3.860   4.535  10.607  0.0375 -0.4926 -0.4960
 1264SOL    HW115251   3.779   4.491  10.580 -0.7663  0.0472  1.0399
 1264SOL    HW215252   3.919   4.540  10.532 -1.4376 -0.3459 -1.6554
 1265SOL     OW15253   4.458   3.826   4.143 -0.6181  0.1439 -0.4030
 1265SOL    HW115254   4.389   3.841   4.207 -0.2031 -1.6686  0.4620
 1265SOL    HW215255   4.468   3.910   4.099  0.1155  2.4178  4.1264
 1266SOL     OW15256   2.067   0.532   3.707 -0.3643 -0.2338  0.1095
 1266SOL    HW115257   2.026   0.458   3.663 -1.5349  0.4089  0.1333
 1266SOL    HW215258   2.084   0.480   3.786  2.6106  1.4504  0.5463
 1267SOL     OW15259   2.162   4.601   2.710  0.0175  0.5216 -0.6736
 1267SOL    HW115260   2.085   4.561   2.671  0.2550 -0.1055 -0.5035
 1267SOL    HW215261   2.235   4.579   2.651 -1.1674 -0.5946 -1.7149
 1268SOL     OW15262   2.970   3.234   0.315 -0.0516  0.7241 -0.1494
 1268SOL    HW115263   2.953   3.154   0.264  0.9238  1.0858 -1.0521
 1268SOL    HW215264   2.884   3.274   0.316 -1.5081 -2.3433 -2.4390
 1269SOL     OW15265   0.839   0.886   8.175 -0.1034 -0.0974 -1.2465
 1269SOL    HW115266   0.751   0.891   8.213  1.5705  1.8012  2.3920
 1269SOL    HW215267   0.898   0.916   8.244 -0.4280 -1.6732 -0.2883
 1270SOL     OW15268   3.361   0.637   1.011 -0.2359 -0.1573 -0.4979
 1270SOL    HW115269   3.344   0.568   0.947  2.8376 -0.5817 -0.8458
 1270SOL    HW215270   3.354   0.711   0.950  3.0556 -0.3911 -1.1697
 1271SOL     OW15271   4.632   3.344   7.209  0.3332 -0.3856 -0.6109
 1271SOL    HW115272   4.590   3.298   7.136 -0.0757 -0.6781 -0.1883
 1271SOL    HW215273   4.565   3.412   7.219  0.7743  0.3191 -2.5309
 1272SOL     OW15274   0.863   3.145  16.589 -0.1233  0.0346  0.1188
 1272SOL    HW115275   0.889   3.206  16.520  1.5635 -1.8925 -0.9155
 1272SOL    HW215276   0.804   3.200  16.640  0.8790 -0.3709  1.7096
 1273SOL     OW15277   2.199   2.411   9.904 -0.2208  0.3663  0.2843
 1273SOL    HW115278   2.260   2.431   9.833 -1.4679  1.3143 -0.5181
 1273SOL    HW215279   2.206   2.495   9.948  1.4152  0.9052 -1.0210
 1274SOL     OW15280   3.891   3.217  11.236  0.5046 -0.4694 -0.0196
 1274SOL    HW115281   3.943   3.289  11.201 -2.4479  0.4428 -2.5593
 1274SOL    HW215282   3.843   3.263  11.305  1.0045 -0.6993  0.4755
 1275SOL     OW15283   4.277   3.521  15.989 -0.0715 -0.1019  0.0939
 1275SOL    HW115284   4.260   3.443  15.936 -1.2270  0.4535 -0.3498
 1275SOL    HW215285   4.276   3.489  16.079  0.4685 -0.2619  0.0433
 1276SOL     OW15286   0.705   0.654   6.347 -0.2766  0.5765 -0.2277
 1276SOL    HW115287   0.748   0.569   6.360 -0.9914  0.5282  1.8194
 1276SOL    HW215288   0.782   0.710   6.358  1.2565 -1.6161  0.3370
 1277SOL     OW15289   4.368   1.094  12.835  0.2960 -0.3233 -0.3358
 1277SOL    HW115290   4.425   1.125  12.905 -1.4274 -0.9404  1.3525
 1277SOL    HW215291   4.316   1.029  12.882 -1.1072  0.5042 -0.7374
 1278SOL     OW15292   2.034   4.383  12.800 -0.4174 -0.1874  0.2692
 1278SOL    HW115293   2.007   4.294  12.778  1.4754 -0.1314 -2.2674
 1278SOL    HW215294   1.977   4.442  12.751  0.6071 -0.5256 -1.3311
 1279SOL     OW15295   2.922   0.019   1.348 -0.4034  0.3520 -0.4510
 1279SOL    HW115296   3.007   0.042   1.311  0.7183  0.6528  2.3280
 1279SOL    HW215297   2.920   4.645   1.333 -1.1331  0.5254 -1.4595
 1280SOL     OW15298   1.872   3.338   2.966  0.1184  0.3654 -0.1017
 1280SOL    HW115299   1.798   3.289   2.928  0.4896  0.1431 -0.5324
 1280SOL    HW215300   1.866   3.420   2.917 -0.4043  0.6255  0.3972
 1281SOL     OW15301   3.470   1.201  14.327 -0.5727 -0.0170  0.5953
 1281SOL    HW115302   3.463   1.192  14.232 -0.5324  1.8175  0.4181
 1281SOL    HW215303   3.381   1.223  14.353 -0.4381  0.8185  0.3480
 1282SOL     OW15304   3.623   4.623   4.763 -0.1586 -0.3238 -0.2206
 1282SOL    HW115305   3.654   4.709   4.791 -2.5221  0.1109  1.0517
 1282SOL    HW215306   3.569   4.590   4.835 -0.9750 -0.4304 -0.8844
 1283SOL     OW15307   1.805   3.899   7.325  0.2797  0.4970  0.4243
 1283SOL    HW115308   1.780   3.964   7.391 -2.6356 -0.1858 -0.0035
 1283SOL    HW215309   1.754   3.820   7.343  1.8680 -0.3648  1.1267
 1284SOL     OW15310   1.128   1.680   4.194  0.1022  0.3033 -0.5062
 1284SOL    HW115311   1.112   1.691   4.100 -0.6769 -1.9284 -0.6325
 1284SOL    HW215312   1.086   1.757   4.233 -0.8737  0.0575 -1.0757
 1285SOL     OW15313   1.193   1.792   7.397 -0.1940  0.1748  0.0568
 1285SOL    HW115314   1.251   1.840   7.455 -2.2113  2.2076  0.3872
 1285SOL    HW215315   1.240   1.783   7.314 -0.1514 -0.9008  0.2029
 1286SOL     OW15316   2.310   4.118   7.511 -0.1266  0.1909 -0.7582
 1286SOL    HW115317   2.294   4.081   7.597 -0.1671  0.7956 -0.5067
 1286SOL    HW215318   2.393   4.080   7.483 -0.4398 -0.2887 -1.0372
 1287SOL     OW15319   1.161   1.703  12.655 -0.9258 -0.6096 -0.1907
 1287SOL    HW115320   1.181   1.696  12.748 -0.1663 -0.1075 -0.3135
 1287SOL    HW215321   1.142   1.611  12.635 -0.7945 -0.4203 -1.2282
 1288SOL     OW15322   4.422   3.166   7.882  0.0456  0.2057 -0.1895
 1288SOL    HW115323   4.333   3.179   7.847 -1.4485  0.2107  3.6715
 1288SOL    HW215324   4.419   3.203   7.970  2.1578  1.4353 -0.6345
 1289SOL     OW15325   4.454   4.565  11.995 -0.0642 -0.0956 -0.1487
 1289SOL    HW115326   4.522   4.498  11.995 -0.0559 -0.0494  2.9292
 1289SOL    HW215327   4.390   4.523  12.052 -0.9903  0.4545 -0.7658
 1290SOL     OW15328   2.319   1.074  14.064  0.4296  0.5619 -0.1772
 1290SOL    HW115329   2.238   1.087  14.015 -0.9334 -0.9650  1.7179
 1290SOL    HW215330   2.286   1.071  14.153  0.3114  1.7694 -0.1726
 1291SOL     OW15331   0.429   0.834   9.521 -0.3011  0.3673 -0.2328
 1291SOL    HW115332   0.520   0.849   9.547 -0.5404  0.3458  0.6041
 1291SOL    HW215333   0.410   0.754   9.569  0.3929  0.8566  0.8463
 1292SOL     OW15334   4.405   3.980  14.301 -0.3498  0.4266 -0.3961
 1292SOL    HW115335   4.348   4.039  14.350  1.3378  2.4358 -0.8584
 1292SOL    HW215336   4.483   4.035  14.296 -0.3492  0.5442  1.0567
 1293SOL     OW15337   3.626   2.601  12.167  0.5243 -0.1872 -0.0857
 1293SOL    HW115338   3.606   2.694  12.171  2.6009  0.0628  3.8378
 1293SOL    HW215339   3.586   2.583  12.252 -0.2060  1.7782 -0.0211
 1294SOL     OW15340   0.133   2.101  12.788 -0.8888  0.0197  0.7054
 1294SOL    HW115341   0.078   2.116  12.865  0.6997 -1.1177  2.0708
 1294SOL    HW215342   0.188   2.031  12.822 -0.2350  0.3416  0.3202
 1295SOL     OW15343   3.855   0.273   8.374  0.8018 -0.3087  0.2371
 1295SOL    HW115344   3.828   0.364   8.386 -0.9810 -1.0840  2.1172
 1295SOL    HW215345   3.872   0.283   8.281 -0.4242  0.5779  0.1041
 1296SOL     OW15346   2.733   0.321   6.173  0.6285 -0.7418 -0.2163
 1296SOL    HW115347   2.797   0.276   6.228  1.6330  2.9777  1.6818
 1296SOL    HW215348   2.660   0.319   6.236 -0.0605 -2.5965 -1.0608
 1297SOL     OW15349   1.149   2.291  10.804 -0.1849 -0.7183 -0.4043
 1297SOL    HW115350   1.155   2.350  10.729 -0.5870  0.0656  0.1783
 1297SOL    HW215351   1.086   2.343  10.854  1.1195 -0.2727  0.7517
 1298SOL     OW15352   1.445   3.947   4.197  0.1621 -0.1039  0.1027
 1298SOL    HW115353   1.496   3.923   4.119  0.1793 -3.4335  1.1314
 1298SOL    HW215354   1.519   3.988   4.241 -0.4257  4.2328 -2.9159
 1299SOL     OW15355   4.123   2.499   8.176 -0.0735 -0.2430 -0.5451
 1299SOL    HW115356   4.164   2.517   8.091  0.5995 -1.0809 -0.3963
 1299SOL    HW215357   4.199   2.496   8.234 -0.6047 -4.0471 -0.0439
 1300SOL     OW15358   2.396   1.074  10.994  0.6171  0.1269 -1.2332
 1300SOL    HW115359   2.401   1.077  10.898 -0.2435 -1.1797 -1.3129
 1300SOL    HW215360   2.383   1.164  11.022 -0.4001  0.1224 -1.6919
 1301SOL     OW15361   2.639   2.629   0.060 -0.0386  0.0804  0.0960
 1301SOL    HW115362   2.547   2.631   0.088 -0.4437 -0.0563 -1.2191
 1301SOL    HW215363   2.669   2.551   0.107  2.5322 -0.2613 -2.1132
 1302SOL     OW15364   3.073   4.592   4.149 -0.1415  0.1752  0.4459
 1302SOL    HW115365   3.056   4.682   4.176  0.5021  0.8531 -1.3976
 1302SOL    HW215366   3.098   4.554   4.233 -1.2130 -0.1375  0.6226
 1303SOL     OW15367   3.455   0.101  17.524  0.3924  0.0802 -0.0393
 1303SOL    HW115368   3.491   0.180  17.484  1.2625 -0.5124 -0.4164
 1303SOL    HW215369   3.503   0.029  17.483 -0.0210  0.1945 -0.7237
 1304SOL     OW15370   3.161   1.760  11.751  0.1256  0.9589  0.1023
 1304SOL    HW115371   3.081   1.766  11.699 -0.7730 -1.4787  1.2452
 1304SOL    HW215372   3.154   1.670  11.783 -1.6945  1.3509  0.8097
 1305SOL     OW15373   0.095   3.172   3.799  0.4658  0.2332  0.2439
 1305SOL    HW115374   0.117   3.127   3.718 -0.3521  0.8003 -0.3035
 1305SOL    HW215375   0.146   3.252   3.787  1.0179 -0.1712 -0.1044
 1306SOL     OW15376   1.892   2.766   8.504 -0.5461 -0.9029 -0.2078
 1306SOL    HW115377   1.865   2.815   8.582 -0.5942  0.3067 -0.9827
 1306SOL    HW215378   1.832   2.810   8.444 -0.3501  0.3261  0.5058
 1307SOL     OW15379   2.377   3.368   8.441 -0.3210  0.1824  0.5381
 1307SOL    HW115380   2.437   3.303   8.479  1.6245  1.1470 -0.8587
 1307SOL    HW215381   2.301   3.352   8.496  0.1804 -1.7932  0.6761
 1308SOL     OW15382   0.176   4.006   6.016 -0.3207 -0.3698  1.2769
 1308SOL    HW115383   0.266   3.976   6.020  0.5203  2.1266  1.1635
 1308SOL    HW215384   0.161   4.018   6.109  1.0453  0.0597  1.4417
 1309SOL     OW15385   1.968   2.782   1.274 -0.6270  0.2688  0.3223
 1309SOL    HW115386   1.929   2.776   1.361  1.7162  1.0291  1.4336
 1309SOL    HW215387   1.908   2.843   1.230 -1.9528 -2.6665 -1.9099
 1310SOL     OW15388   4.360   1.936   8.488  0.1194  0.0356 -0.2255
 1310SOL    HW115389   4.328   1.849   8.468  0.0513  0.4522 -1.9272
 1310SOL    HW215390   4.279   1.982   8.467 -0.3575 -1.4961 -1.6507
 1311SOL     OW15391   0.148   3.974   4.647  0.6313  0.0624 -0.5298
 1311SOL    HW115392   0.073   3.954   4.704  1.6981 -0.1298  0.8060
 1311SOL    HW215393   0.219   3.974   4.711 -0.7113  1.2411  0.9608
 1312SOL     OW15394   0.988   1.311   7.866 -0.3191 -0.1454 -0.4888
 1312SOL    HW115395   1.064   1.367   7.877 -0.1824  0.1182 -2.6796
 1312SOL    HW215396   1.009   1.226   7.905  1.5021 -0.7015 -2.7075
 1313SOL     OW15397   0.309   3.051   6.963 -0.1133  0.1222  0.0175
 1313SOL    HW115398   0.342   2.978   7.016 -0.8292  0.5136  0.9921
 1313SOL    HW215399   0.286   3.110   7.034 -1.3681  0.2936 -0.5378
 1314SOL     OW15400   2.586   4.675  10.096 -0.6872  0.0110 -0.4574
 1314SOL    HW115401   2.515   4.631  10.049 -0.8987  1.3032 -1.3319
 1314SOL    HW215402   2.540   4.689  10.178  1.6402 -2.1140  1.2391
 1315SOL     OW15403   4.253   3.870   9.124 -0.6560 -0.3378  0.1727
 1315SOL    HW115404   4.347   3.875   9.108 -0.7465 -0.4064 -0.3713
 1315SOL    HW215405   4.259   3.912   9.210 -1.0388  0.4590 -0.1932
 1316SOL     OW15406   0.285   4.472   8.147 -0.1437  0.5411 -0.1510
 1316SOL    HW115407   0.292   4.509   8.059  0.9418 -0.0692 -0.3185
 1316SOL    HW215408   0.223   4.535   8.185 -2.4124 -0.8109 -1.5552
 1317SOL     OW15409   1.886   3.812   3.082  0.5696 -0.5334  0.1306
 1317SOL    HW115410   1.875   3.732   3.031  2.1882 -1.2882  0.9553
 1317SOL    HW215411   1.953   3.856   3.029 -2.9819  2.3608 -1.9135
 1318SOL     OW15412   2.195   3.195   5.959  0.2769  0.6235  0.4850
 1318SOL    HW115413   2.219   3.130   5.894 -0.7899  0.9940 -0.2728
 1318SOL    HW215414   2.264   3.174   6.022  1.6791  0.8637 -0.9767
 1319SOL     OW15415   0.061   3.150   3.520 -0.3120 -0.1779 -0.0649
 1319SOL    HW115416   4.690   3.167   3.499 -0.9422 -2.1033  1.1570
 1319SOL    HW215417   0.069   3.056   3.499 -1.8271 -0.1122 -0.9680
 1320SOL     OW15418   3.833   1.459   4.350 -0.1513 -0.1891 -0.5034
 1320SOL    HW115419   3.820   1.552   4.366  1.6713 -0.0864  0.3828
 1320SOL    HW215420   3.744   1.425   4.361  0.3065 -1.8056 -1.7066
 1321SOL     OW15421   3.573   2.710  14.114 -0.0941  0.4087  0.3901
 1321SOL    HW115422   3.641   2.777  14.123 -0.8511  1.0898  1.1455
 1321SOL    HW215423   3.629   2.633  14.113 -2.8202 -1.6123  3.2075
 1322SOL     OW15424   4.007   2.555   8.999 -0.4590 -0.1232 -0.0598
 1322SOL    HW115425   4.065   2.492   9.043 -1.8581  0.7299  3.0213
 1322SOL    HW215426   3.953   2.580   9.074  0.4019 -0.9129  0.8266
 1323SOL     OW15427   3.698   3.637  17.446  0.6006  0.2858 -0.7123
 1323SOL    HW115428   3.782   3.625  17.400 -0.0668 -2.7520 -1.1648
 1323SOL    HW215429   3.713   3.711  17.504 -0.0870 -1.4201  1.6618
 1324SOL     OW15430   2.551   3.159   8.400 -0.5281 -0.6566 -0.2525
 1324SOL    HW115431   2.608   3.152   8.324 -1.2600  2.3411 -1.0705
 1324SOL    HW215432   2.485   3.094   8.374 -1.2552 -0.0979  0.1814
 1325SOL     OW15433   4.674   3.861   4.819  0.1852  0.5267 -0.0083
 1325SOL    HW115434   4.674   3.769   4.794  1.0724  0.9060 -1.4495
 1325SOL    HW215435   0.015   3.856   4.892  0.2892 -0.0946 -0.1410
 1326SOL     OW15436   1.191   0.740   5.335  0.1677  0.1735 -0.0907
 1326SOL    HW115437   1.229   0.654   5.317  0.1061  0.3284 -0.9531
 1326SOL    HW215438   1.123   0.708   5.395 -0.2748  0.6090 -0.3595
 1327SOL     OW15439   0.934   3.168   6.054  0.7161  0.4460  0.2549
 1327SOL    HW115440   0.933   3.143   5.962  1.4323 -1.0607  0.6588
 1327SOL    HW215441   0.978   3.253   6.060  1.4822 -0.0110  1.0972
 1328SOL     OW15442   2.175   3.701   3.272  0.5998  0.3092  0.6611
 1328SOL    HW115443   2.113   3.717   3.343  1.1480  2.1592  0.7177
 1328SOL    HW215444   2.250   3.669   3.322 -0.4672  0.3457  2.2741
 1329SOL     OW15445   2.769   3.688   8.955 -0.2694  0.4101 -0.0891
 1329SOL    HW115446   2.721   3.613   8.920 -0.9121  2.2164 -3.0850
 1329SOL    HW215447   2.856   3.667   8.921  0.0054 -2.7261  2.5610
 1330SOL     OW15448   1.013   4.017  16.383  0.0112  0.0511 -0.1174
 1330SOL    HW115449   0.930   3.990  16.345 -0.2631 -1.3766  1.5240
 1330SOL    HW215450   1.028   4.102  16.341 -0.0667  0.4579  0.6910
 1331SOL     OW15451   4.261   4.148   9.208 -0.4132 -0.2862 -0.4464
 1331SOL    HW115452   4.341   4.189   9.174 -0.6033  1.0757  0.7298
 1331SOL    HW215453   4.232   4.204   9.279 -0.7377 -2.1375  0.8919
 1332SOL     OW15454   2.929   1.925   2.976  0.4622 -0.8058 -0.0328
 1332SOL    HW115455   2.871   1.960   3.044  1.0390 -0.4872  0.2911
 1332SOL    HW215456   3.011   1.957   3.013  0.6391  0.1567 -1.2446
 1333SOL     OW15457   0.297   3.237  15.017  0.7465 -0.3954  0.3565
 1333SOL    HW115458   0.327   3.319  15.058  0.3783 -0.0308 -0.0987
 1333SOL    HW215459   0.212   3.231  15.059  0.0641 -2.1680 -1.2839
 1334SOL     OW15460   4.344   2.201   0.213  0.1764  0.1950 -0.2969
 1334SOL    HW115461   4.356   2.239   0.126 -2.4341 -1.8501 -1.5531
 1334SOL    HW215462   4.422   2.147   0.211 -1.3637 -2.0672 -0.0011
 1335SOL     OW15463   0.338   0.219   6.745 -0.0357 -0.7252  0.0373
 1335SOL    HW115464   0.356   0.275   6.669 -1.1080 -0.6765 -0.1777
 1335SOL    HW215465   0.341   0.128   6.714  2.3344 -0.9817  1.0397
 1336SOL     OW15466   2.501   3.419   7.769 -0.3800 -0.4487 -0.0016
 1336SOL    HW115467   2.484   3.510   7.794 -2.1128 -1.3557  2.1607
 1336SOL    HW215468   2.476   3.354   7.835 -1.3763 -0.3958 -0.3251
 1337SOL     OW15469   2.802   3.096   6.577  0.3681 -0.1643 -0.0939
 1337SOL    HW115470   2.800   3.000   6.576 -0.1558 -0.1526  0.0620
 1337SOL    HW215471   2.880   3.112   6.630 -0.5641  1.5293  0.7368
 1338SOL     OW15472   1.997   4.338   4.095  0.1665  0.0645 -0.2935
 1338SOL    HW115473   1.905   4.358   4.080  0.4331  0.9368 -0.7489
 1338SOL    HW215474   2.032   4.426   4.110 -2.1057  1.3765 -2.7289
 1339SOL     OW15475   1.803   3.499   5.228  0.2575 -0.2362 -0.4374
 1339SOL    HW115476   1.889   3.459   5.244  0.7243  0.2450 -1.7170
 1339SOL    HW215477   1.763   3.479   5.313 -0.7280  0.3210 -0.7709
 1340SOL     OW15478   2.469   2.040   0.507 -0.0742 -0.1601 -0.0051
 1340SOL    HW115479   2.514   1.972   0.558  2.1732  1.7615  0.5748
 1340SOL    HW215480   2.446   1.982   0.435 -0.4669 -0.5811  0.4538
 1341SOL     OW15481   0.006   2.778   4.456  0.4088 -0.1310 -0.2160
 1341SOL    HW115482   0.063   2.791   4.380  1.3601 -0.4949  0.4383
 1341SOL    HW215483   0.064   2.716   4.499  0.0145  0.3182  0.9684
 1342SOL     OW15484   3.130   3.385  15.698 -0.5003  0.5018 -0.3998
 1342SOL    HW115485   3.159   3.470  15.731 -0.5207  1.1813 -2.1234
 1342SOL    HW215486   3.085   3.404  15.616  1.5923 -0.1785 -1.6959
 1343SOL     OW15487   3.932   2.723   6.484  0.4867 -0.1292  0.1600
 1343SOL    HW115488   3.872   2.656   6.517  0.1321  0.9234  1.6525
 1343SOL    HW215489   3.981   2.674   6.418  2.0369  0.9049  0.5355
 1344SOL     OW15490   2.079   3.029   8.640  0.1354 -0.0380  0.7612
 1344SOL    HW115491   2.127   3.006   8.560  0.4366 -2.1450  1.5429
 1344SOL    HW215492   2.129   2.971   8.696 -1.3508 -1.5471  0.5330
 1345SOL     OW15493   4.539   0.289  16.836  0.0490  0.4032 -0.5484
 1345SOL    HW115494   4.631   0.291  16.861  0.3371  0.6612 -1.6180
 1345SOL    HW215495   4.532   0.239  16.754  0.4675 -0.3989 -0.0913
 1346SOL     OW15496   0.391   0.373   3.757 -0.5841  0.3254 -0.4659
 1346SOL    HW115497   0.388   0.456   3.710 -0.6454  0.8300  0.4249
 1346SOL    HW215498   0.360   0.311   3.691 -0.2018  0.1218 -0.4551
 1347SOL     OW15499   4.196   2.450   7.870  0.0594  0.1018 -0.3247
 1347SOL    HW115500   4.164   2.360   7.865  2.2446 -0.7809  1.3892
 1347SOL    HW215501   4.253   2.451   7.793  2.9923 -0.6189  1.8399
 1348SOL     OW15502   3.839   3.895  14.201  0.6253  0.3720 -0.4798
 1348SOL    HW115503   3.854   3.911  14.294  1.1943 -1.7857 -0.2271
 1348SOL    HW215504   3.900   3.826  14.177  2.8730  2.0969  0.2908
 1349SOL     OW15505   2.658   0.875  17.162 -0.0145  0.0606  0.2140
 1349SOL    HW115506   2.618   0.932  17.227 -0.5747 -0.8273  0.6416
 1349SOL    HW215507   2.660   0.795  17.215  2.0256 -0.4090 -0.5439
 1350SOL     OW15508   2.435   4.559  11.826  0.3452  0.2551  0.3715
 1350SOL    HW115509   2.474   4.592  11.746  0.1271 -0.1868  0.0806
 1350SOL    HW215510   2.398   4.640  11.861 -0.6831 -0.4732  0.9778
 1351SOL     OW15511   4.414   1.549   0.493 -0.8694 -0.9099  0.4769
 1351SOL    HW115512   4.373   1.477   0.446  0.3084 -2.0561  1.1967
 1351SOL    HW215513   4.337   1.605   0.501 -1.2275 -1.2383 -0.7263
 1352SOL     OW15514   2.847   3.390   3.547  0.0119  0.4843 -0.6010
 1352SOL    HW115515   2.927   3.442   3.553 -0.0180  0.3045  1.5546
 1352SOL    HW215516   2.825   3.388   3.640 -1.4326  1.1076 -0.9359
 1353SOL     OW15517   2.478   3.432   6.942 -0.6923  0.1756 -0.3033
 1353SOL    HW115518   2.548   3.493   6.919 -0.0452 -0.8700 -1.0927
 1353SOL    HW215519   2.472   3.388   6.857  1.7656 -3.2058  1.3095
 1354SOL     OW15520   3.211   1.763  12.032  0.6294  0.2036  0.2678
 1354SOL    HW115521   3.306   1.768  12.042  0.6519 -1.4938  0.9423
 1354SOL    HW215522   3.202   1.768  11.936 -0.5714  0.3925  0.3886
 1355SOL     OW15523   2.400   2.821   8.720  0.5425 -0.1094  0.2384
 1355SOL    HW115524   2.448   2.875   8.783 -0.1146  0.1406  0.5193
 1355SOL    HW215525   2.319   2.824   8.771  0.3084  1.6360 -0.2452
 1356SOL     OW15526   0.544   2.550   2.146  0.1724 -0.1575 -0.5306
 1356SOL    HW115527   0.611   2.531   2.211 -0.3038 -0.9713 -0.2758
 1356SOL    HW215528   0.528   2.461   2.114 -0.1775  0.4108 -1.9379
 1357SOL     OW15529   2.469   0.739   3.536  0.2592 -0.3950 -0.1568
 1357SOL    HW115530   2.461   0.834   3.540  0.5566 -0.3747 -0.0457
 1357SOL    HW215531   2.381   0.722   3.567 -0.1940  0.0114 -1.2274
 1358SOL     OW15532   2.280   0.075   8.844  0.1952  0.1450 -0.0807
 1358SOL    HW115533   2.355   0.132   8.831  0.7632 -1.3160 -3.2134
 1358SOL    HW215534   2.305   0.000   8.898 -0.5541 -1.6872 -2.2815
 1359SOL     OW15535   3.852   1.317   7.962 -0.2432 -0.1335  0.1126
 1359SOL    HW115536   3.879   1.234   8.003 -1.1368 -0.0958  0.7770
 1359SOL    HW215537   3.758   1.301   7.952  0.3916 -3.2696 -0.7323
 1360SOL     OW15538   0.576   4.598   4.390 -0.3501  0.4024 -0.1662
 1360SOL    HW115539   0.495   4.561   4.426  0.6786 -1.8786 -0.2109
 1360SOL    HW215540   0.542   4.650   4.317 -1.3575  1.6561  1.1908
 1361SOL     OW15541   4.431   3.875  14.005 -0.4892  0.1251 -0.1085
 1361SOL    HW115542   4.441   3.920  13.921  0.8005  2.0027  1.0525
 1361SOL    HW215543   4.401   3.942  14.066  1.1605  0.2405  0.5694
 1362SOL     OW15544   1.106   0.098   2.581  0.3437  0.3069  0.0766
 1362SOL    HW115545   1.061   0.094   2.665 -2.1626 -0.2870 -1.3149
 1362SOL    HW215546   1.022   0.075   2.542  1.8883 -0.6208 -2.6661
 1363SOL     OW15547   0.414   1.301   7.775  0.3894 -0.3961 -0.6715
 1363SOL    HW115548   0.470   1.378   7.774 -0.4512  0.2841  3.0331
 1363SOL    HW215549   0.398   1.282   7.868  1.2469  1.0430 -0.2328
 1364SOL     OW15550   1.626   0.783  15.474 -0.1907  0.0004  0.2842
 1364SOL    HW115551   1.539   0.743  15.482 -0.9076  1.3915 -0.6300
 1364SOL    HW215552   1.641   0.780  15.380  1.9930  2.2751  0.5780
 1365SOL     OW15553   1.451   3.919   9.183 -0.2010  0.2634 -0.8735
 1365SOL    HW115554   1.524   3.912   9.122 -1.3937 -0.1243 -2.2465
 1365SOL    HW215555   1.474   3.997   9.233  1.6331 -0.2872 -0.8654
 1366SOL     OW15556   2.554   3.273   1.636 -0.1308  0.3583 -0.2201
 1366SOL    HW115557   2.606   3.242   1.709 -0.0866  0.2025 -0.3169
 1366SOL    HW215558   2.486   3.205   1.635  0.5794 -0.3485  0.5977
 1367SOL     OW15559   1.772   2.505   7.696  0.0954 -0.3536 -0.0631
 1367SOL    HW115560   1.783   2.517   7.790 -2.2392  1.2875 -0.0010
 1367SOL    HW215561   1.712   2.578   7.677 -1.7899 -1.7500  0.5829
 1368SOL     OW15562   2.796   2.380   9.443  0.5989  0.3567  0.3646
 1368SOL    HW115563   2.769   2.471   9.457 -1.2028 -0.1304  0.0999
 1368SOL    HW215564   2.714   2.334   9.424 -0.0919  1.0800  1.5422
 1369SOL     OW15565   2.997   2.851  13.756  0.0798 -0.2175  0.6861
 1369SOL    HW115566   2.975   2.783  13.819  1.3152 -1.1085  0.1590
 1369SOL    HW215567   2.991   2.932  13.807  0.8788  0.6286 -0.5689
 1370SOL     OW15568   1.324   0.545   0.331  0.1859  0.0281 -0.2851
 1370SOL    HW115569   1.396   0.560   0.393  1.0072 -0.3068 -1.1623
 1370SOL    HW215570   1.371   0.557   0.249  0.0435 -2.4792 -0.7471
 1371SOL     OW15571   4.481   1.227   3.598  0.1652 -0.1910  0.0598
 1371SOL    HW115572   4.491   1.241   3.504 -0.4827  0.1731  0.0406
 1371SOL    HW215573   4.475   1.132   3.605 -1.0471 -0.1935 -1.0136
 1372SOL     OW15574   0.826   0.380   3.672  0.0049 -0.6753  0.0510
 1372SOL    HW115575   0.902   0.371   3.729 -0.5493  0.7423  1.0156
 1372SOL    HW215576   0.845   0.457   3.618 -0.5524 -0.6445 -0.0989
 1373SOL     OW15577   2.318   2.229   2.327  0.2887  0.0701  0.2337
 1373SOL    HW115578   2.301   2.268   2.241 -1.7993 -0.1385  0.5660
 1373SOL    HW215579   2.282   2.141   2.315 -3.2998  1.8655 -2.1701
 1374SOL     OW15580   4.026   0.440  14.902 -0.1231  0.3018  0.5289
 1374SOL    HW115581   4.076   0.371  14.858  1.2666  1.1670  0.7369
 1374SOL    HW215582   4.065   0.513  14.854  0.7731 -1.2409 -1.0977
 1375SOL     OW15583   4.144   4.329   2.683 -0.3012  0.2047  0.0638
 1375SOL    HW115584   4.087   4.383   2.629 -1.5933  2.2658  3.5166
 1375SOL    HW215585   4.105   4.340   2.769 -0.0596 -4.3632  0.7461
 1376SOL     OW15586   1.194   3.234   2.922  0.1729 -0.2028  0.3261
 1376SOL    HW115587   1.256   3.196   2.861 -0.8084  0.6526 -1.2011
 1376SOL    HW215588   1.188   3.326   2.897 -0.9983 -0.1747  0.7002
 1377SOL     OW15589   4.122   0.804   6.717  0.6860  0.7185  0.4214
 1377SOL    HW115590   4.203   0.851   6.739 -0.3036  2.6463 -0.0052
 1377SOL    HW215591   4.110   0.749   6.794 -1.2695 -2.4720 -2.2226
 1378SOL     OW15592   0.091   4.555   5.861  0.3469 -0.1330  0.0716
 1378SOL    HW115593   0.029   4.483   5.873  1.1373 -0.7564  0.4062
 1378SOL    HW215594   0.100   4.558   5.766 -0.5346  1.5688  0.0327
 1379SOL     OW15595   1.076   2.919   4.031  0.4914 -0.7775 -0.0587
 1379SOL    HW115596   1.071   2.835   4.076 -0.5477  0.0141  1.2926
 1379SOL    HW215597   1.125   2.971   4.094  0.9767 -0.5934 -0.5916
 1380SOL     OW15598   4.141   3.022   4.819 -0.0696 -0.1199 -0.4357
 1380SOL    HW115599   4.235   3.020   4.838 -0.3503  1.4963  1.1472
 1380SOL    HW215600   4.122   3.105   4.862 -1.4951  0.2967 -1.8789
 1381SOL     OW15601   0.457   1.101   3.284 -0.2662 -0.5268  0.5000
 1381SOL    HW115602   0.539   1.074   3.243  0.0890  1.9887 -0.4561
 1381SOL    HW215603   0.390   1.056   3.232  1.2206 -0.7403 -1.2221
 1382SOL     OW15604   1.047   3.430   5.785  0.0708 -0.0887 -0.1931
 1382SOL    HW115605   1.093   3.475   5.714 -0.7553  1.6865  0.4026
 1382SOL    HW215606   1.032   3.347   5.739  0.2439  0.9518 -2.1199
 1383SOL     OW15607   0.932   0.242  17.286 -0.3840  0.0768  0.0910
 1383SOL    HW115608   0.895   0.159  17.315 -1.3775  0.8120  0.9418
 1383SOL    HW215609   0.879   0.252  17.207 -0.9403  0.9873  0.5791
 1384SOL     OW15610   3.436   1.409   7.334 -0.2915  0.3405  0.2585
 1384SOL    HW115611   3.436   1.433   7.241 -1.0451 -1.1692 -0.1425
 1384SOL    HW215612   3.519   1.435   7.373  0.5747  0.1089 -1.4186
 1385SOL     OW15613   3.637   4.663  17.367 -0.2777  0.7419 -0.7123
 1385SOL    HW115614   3.624   4.593  17.303  1.7734  0.9665 -1.3761
 1385SOL    HW215615   3.685   0.003  17.311  0.6263  1.5440  0.9365
 1386SOL     OW15616   2.172   4.085  12.598  0.2744  0.1313 -0.3010
 1386SOL    HW115617   2.094   4.041  12.632  0.3611  1.0271  1.0467
 1386SOL    HW215618   2.134   4.145  12.534  1.1446  1.0380  0.0445
 1387SOL     OW15619   1.681   0.523   7.790  0.4936  0.3318  0.2453
 1387SOL    HW115620   1.720   0.556   7.872  0.2416 -0.9983  0.8999
 1387SOL    HW215621   1.730   0.444   7.769 -1.0118 -0.7024  0.7076
 1388SOL     OW15622   0.646   3.151  16.001 -0.3629 -0.4559 -0.4556
 1388SOL    HW115623   0.582   3.189  16.061 -1.2256  0.0208 -1.6909
 1388SOL    HW215624   0.597   3.098  15.939 -1.1219 -0.3951  0.1012
 1389SOL     OW15625   1.063   3.150  17.291  0.2762  0.1516 -0.4654
 1389SOL    HW115626   1.124   3.078  17.273 -2.1109 -1.5374 -1.7788
 1389SOL    HW215627   1.037   3.167  17.200  1.2808  1.3037 -0.5301
 1390SOL     OW15628   2.658   2.550  16.417  0.8579 -0.2510  0.5502
 1390SOL    HW115629   2.747   2.525  16.439  0.5956 -0.8767  0.9106
 1390SOL    HW215630   2.663   2.586  16.329 -3.8296 -2.0753 -0.5024
 1391SOL     OW15631   0.521   2.647  16.413  0.1908 -0.0180  0.1535
 1391SOL    HW115632   0.517   2.743  16.422  1.0555  0.1136 -0.9540
 1391SOL    HW215633   0.428   2.627  16.406 -0.0907  0.6043  2.0370
 1392SOL     OW15634   0.907   3.946  15.223 -0.2561 -0.4947 -0.1513
 1392SOL    HW115635   0.909   4.020  15.283 -0.6977 -1.9862  1.6956
 1392SOL    HW215636   0.882   3.986  15.140  0.5561  0.7001  0.1843
 1393SOL     OW15637   0.748   1.342   0.572 -0.1239 -0.4676  0.0328
 1393SOL    HW115638   0.665   1.332   0.526 -0.7397  1.6211  0.6892
 1393SOL    HW215639   0.809   1.373   0.505 -1.7800 -0.8670 -1.6508
 1394SOL     OW15640   0.628   0.498   7.166  0.0379  0.1507 -0.2306
 1394SOL    HW115641   0.610   0.572   7.108  0.7151  1.5432  1.3400
 1394SOL    HW215642   0.543   0.463   7.196 -1.1963  2.8786 -0.5937
 1395SOL     OW15643   3.843   4.052   6.196 -0.4049 -0.3982  0.4559
 1395SOL    HW115644   3.899   4.130   6.204  0.0374 -0.6638 -0.0448
 1395SOL    HW215645   3.914   3.989   6.209  1.1334  1.7834  2.8065
 1396SOL     OW15646   1.806   4.538   3.845 -0.1330  0.1736 -0.3764
 1396SOL    HW115647   1.876   4.550   3.781 -2.8622 -0.3681 -3.4595
 1396SOL    HW215648   1.731   4.519   3.788  0.0164  1.6395 -1.0583
 1397SOL     OW15649   1.197   1.622   0.187 -0.6453  0.3133  0.0749
 1397SOL    HW115650   1.256   1.646   0.258 -1.9171  2.3620  0.4148
 1397SOL    HW215651   1.116   1.660   0.218 -0.4782  0.5162  0.2623
 1398SOL     OW15652   4.052   2.926   5.986  0.4786 -0.3815  0.2882
 1398SOL    HW115653   4.003   2.999   6.024 -1.4021 -1.3980 -0.2009
 1398SOL    HW215654   4.027   2.857   6.048 -1.0256 -1.1042 -1.1005
 1399SOL     OW15655   4.592   3.232   2.651  0.1609  0.0242  0.1181
 1399SOL    HW115656   4.651   3.245   2.577  0.2685  0.2863  0.2496
 1399SOL    HW215657   4.596   3.138   2.671 -0.3175  0.6011  2.8714
 1400SOL     OW15658   3.074   3.030  13.286 -0.3829  0.3664  0.4340
 1400SOL    HW115659   3.010   3.063  13.222 -0.4926 -1.8672 -0.6148
 1400SOL    HW215660   3.023   2.973  13.344 -1.4473 -2.1308 -2.9418
 1401SOL     OW15661   3.403   1.829   5.628 -0.0397  0.0497 -0.0397
 1401SOL    HW115662   3.440   1.819   5.541  1.6288  1.6664  0.4696
 1401SOL    HW215663   3.435   1.749   5.669 -1.1016 -0.5544 -0.3977
 1402SOL     OW15664   2.264   0.120   6.312  0.7855 -0.7219 -0.6329
 1402SOL    HW115665   2.307   0.180   6.374 -0.1009  0.1605 -0.8661
 1402SOL    HW215666   2.245   0.042   6.365  0.7424 -0.0009  0.4242
 1403SOL     OW15667   3.373   4.096   5.911  0.1083  0.3315 -0.4327
 1403SOL    HW115668   3.413   4.020   5.956 -0.3660  0.7953  0.7814
 1403SOL    HW215669   3.428   4.164   5.950 -1.0121  0.9817  0.0122
 1404SOL     OW15670   2.873   4.261   4.305  0.2639  0.7714 -0.1431
 1404SOL    HW115671   2.860   4.350   4.337 -0.8543  0.1084  1.2222
 1404SOL    HW215672   2.871   4.210   4.386  0.3234  1.0408  0.0286
 1405SOL     OW15673   3.333   1.983   1.734 -0.0009  0.0631  0.0787
 1405SOL    HW115674   3.311   2.031   1.654 -0.4889  1.9648  1.3794
 1405SOL    HW215675   3.411   2.025   1.770  0.6719 -0.3439 -0.8941
 1406SOL     OW15676   4.569   2.081   5.963  0.1166  0.3835  0.6574
 1406SOL    HW115677   4.585   2.026   5.887  0.5845 -1.3145  1.9927
 1406SOL    HW215678   4.600   2.020   6.030  1.6636 -2.8156 -2.9542
 1407SOL     OW15679   4.175   1.160  13.640  0.5137  0.3020  0.3013
 1407SOL    HW115680   4.136   1.095  13.699 -0.0486  1.2981  1.0179
 1407SOL    HW215681   4.239   1.208  13.692 -1.6212  3.2314  0.1722
 1408SOL     OW15682   2.960   4.184   7.701 -0.6466 -1.4155 -0.1898
 1408SOL    HW115683   2.865   4.173   7.698 -0.8973  1.0272 -0.7307
 1408SOL    HW215684   2.985   4.137   7.781  0.5054 -0.2367  0.1445
 1409SOL     OW15685   1.457   1.016   3.488  0.0116 -0.5341  0.0900
 1409SOL    HW115686   1.507   0.945   3.446 -0.2500 -1.6536  1.6497
 1409SOL    HW215687   1.522   1.085   3.501 -1.2086  0.2402  2.1219
 1410SOL     OW15688   1.749   2.821   7.739 -0.0541  0.1401 -0.2303
 1410SOL    HW115689   1.786   2.838   7.652 -0.3977 -2.4307 -0.8565
 1410SOL    HW215690   1.774   2.905   7.778  2.0823 -0.7222  0.2691
 1411SOL     OW15691   1.989   4.580   2.952 -0.2522  0.5680 -0.2577
 1411SOL    HW115692   1.946   4.589   2.867  2.5025 -0.9161 -1.7738
 1411SOL    HW215693   2.074   4.548   2.924  0.4540  1.2033  1.1972
 1412SOL     OW15694   4.047   1.064   6.411  0.2077  0.0572  0.2246
 1412SOL    HW115695   3.951   1.065   6.413  0.1459 -0.8543 -1.9997
 1412SOL    HW215696   4.070   1.157   6.415  0.2994  0.0260  0.4317
 1413SOL     OW15697   2.462   1.859  17.186  0.0400 -0.4616 -0.4899
 1413SOL    HW115698   2.472   1.954  17.182 -0.9135 -0.2708  1.3571
 1413SOL    HW215699   2.391   1.853  17.250 -0.4839  2.4985 -0.7839
 1414SOL     OW15700   1.176   2.905  11.377 -0.0836 -0.6293  0.0034
 1414SOL    HW115701   1.216   2.985  11.409 -1.2303 -0.1969  0.3497
 1414SOL    HW215702   1.154   2.944  11.293  1.4257  0.5397  0.1549
 1415SOL     OW15703   1.247   1.138   6.541  1.0091 -0.0630 -0.2754
 1415SOL    HW115704   1.314   1.099   6.485  0.7928 -0.1833 -0.4517
 1415SOL    HW215705   1.222   1.067   6.599 -1.3207 -0.7806 -2.1516
 1416SOL     OW15706   3.436   2.505  15.016 -0.1110 -0.3986  0.1556
 1416SOL    HW115707   3.364   2.551  14.975 -1.2540 -2.0204  0.3303
 1416SOL    HW215708   3.434   2.422  14.967  0.1442 -0.9070  0.9909
 1417SOL     OW15709   4.288   0.327  10.945 -0.2466  0.2103  0.0109
 1417SOL    HW115710   4.295   0.382  10.867  1.3233 -1.1710 -0.8226
 1417SOL    HW215711   4.222   0.376  10.993 -0.8990 -0.7402  0.0672
 1418SOL     OW15712   2.665   4.032   7.007 -0.8307  0.5549  0.1318
 1418SOL    HW115713   2.666   3.943   7.044 -1.1909  0.5099  0.0331
 1418SOL    HW215714   2.721   4.016   6.931 -2.1561 -4.3884  0.1621
 1419SOL     OW15715   4.016   1.973   6.183  0.6760  1.1095 -0.0662
 1419SOL    HW115716   4.058   1.913   6.121 -0.5615  1.2583 -1.0481
 1419SOL    HW215717   4.058   2.057   6.160  0.6318  1.3286  0.6657
 1420SOL     OW15718   0.927   4.103   8.462 -0.0874  0.2995  0.2511
 1420SOL    HW115719   0.914   4.019   8.506  1.6430 -0.1913 -0.1999
 1420SOL    HW215720   0.966   4.153   8.534  3.4318 -2.1207  0.0324
 1421SOL     OW15721   4.665   0.831   7.979  0.6755  0.6778 -0.1034
 1421SOL    HW115722   4.652   0.899   7.913  0.1079  1.0649  0.4129
 1421SOL    HW215723   4.689   0.883   8.056 -0.8251 -0.5339  1.1867
 1422SOL     OW15724   2.742   3.124   1.773  0.3393 -0.0697 -0.3450
 1422SOL    HW115725   2.827   3.115   1.816  0.1108  1.3907  0.4193
 1422SOL    HW215726   2.693   3.140   1.855 -0.2850  1.9068 -1.1018
 1423SOL     OW15727   0.872   1.234   6.033 -0.4346  0.1821 -0.1922
 1423SOL    HW115728   0.899   1.306   6.089 -0.2072  0.5028 -0.7185
 1423SOL    HW215729   0.946   1.224   5.973  0.5342 -0.6086  1.1495
 1424SOL     OW15730   1.621   3.752   6.514  0.3924 -0.2289  0.5972
 1424SOL    HW115731   1.550   3.815   6.521 -1.1181 -2.0911  2.0604
 1424SOL    HW215732   1.601   3.718   6.427 -1.3572  1.3259  0.4079
 1425SOL     OW15733   2.233   1.402   6.222  0.9111 -0.0726 -0.0296
 1425SOL    HW115734   2.209   1.398   6.314 -0.6266  0.6488 -0.3923
 1425SOL    HW215735   2.177   1.468   6.181 -1.9845 -2.6339 -0.1330
 1426SOL     OW15736   1.436   1.432   0.513  0.3881 -0.1111  0.1940
 1426SOL    HW115737   1.371   1.377   0.469 -0.3442 -0.8281  2.1819
 1426SOL    HW215738   1.393   1.514   0.491 -1.5516 -0.7065  1.7995
 1427SOL     OW15739   1.386   4.231   9.845 -0.1218 -0.4568 -0.0451
 1427SOL    HW115740   1.406   4.296   9.777  3.0804 -0.4018  0.9747
 1427SOL    HW215741   1.475   4.206   9.869  0.2121  2.2561  1.5714
 1428SOL     OW15742   3.469   0.906   5.374 -0.2006 -0.2927 -0.3382
 1428SOL    HW115743   3.495   0.992   5.408  2.2964 -0.8594 -0.8513
 1428SOL    HW215744   3.375   0.919   5.366 -0.3281 -1.7510 -1.2250
 1429SOL     OW15745   1.649   0.804   3.657 -0.0813 -0.2545  0.5197
 1429SOL    HW115746   1.742   0.792   3.680  0.3932 -0.3912 -1.5006
 1429SOL    HW215747   1.655   0.772   3.567  1.1350  1.4666 -0.0213
 1430SOL     OW15748   3.776   2.648   1.240 -0.7305  0.8206 -0.3094
 1430SOL    HW115749   3.820   2.638   1.324  2.0780  0.7706 -1.7841
 1430SOL    HW215750   3.812   2.575   1.189 -1.3459 -0.4434  1.0513
 1431SOL     OW15751   0.656   1.333   7.993  0.9805 -0.7791  1.0196
 1431SOL    HW115752   0.659   1.252   7.942  1.7494  0.1301 -0.3749
 1431SOL    HW215753   0.732   1.329   8.052  0.4705  0.4346  1.7339
 1432SOL     OW15754   4.002   1.480   0.135  0.0730  0.0076 -0.4549
 1432SOL    HW115755   3.939   1.409   0.122 -0.4547  0.1124  1.4867
 1432SOL    HW215756   4.045   1.439   0.210 -0.2876 -1.2426 -0.9410
 1433SOL     OW15757   3.535   3.453   6.919  0.3696  0.1692  0.5108
 1433SOL    HW115758   3.543   3.466   6.825  0.2933 -0.0807  0.4684
 1433SOL    HW215759   3.517   3.359   6.925  0.4033  0.1110 -0.3547
 1434SOL     OW15760   0.349   2.087   5.474  0.1306 -0.1621 -0.4274
 1434SOL    HW115761   0.404   2.084   5.396 -0.7124 -0.1625 -1.0244
 1434SOL    HW215762   0.400   2.145   5.530 -2.1524 -0.1665  1.6556
 1435SOL     OW15763   3.436   2.241   8.629 -0.1639  0.0115 -0.0049
 1435SOL    HW115764   3.493   2.196   8.566 -2.0790  0.6550 -2.1858
 1435SOL    HW215765   3.383   2.285   8.563  2.3112  3.1216  0.0915
 1436SOL     OW15766   2.604   2.684   0.764  0.3233  0.1799  0.4051
 1436SOL    HW115767   2.631   2.620   0.831 -0.3813 -1.4990 -0.9026
 1436SOL    HW215768   2.695   2.704   0.744  1.2091 -4.2402 -0.0531
 1437SOL     OW15769   1.252   3.188  15.460  0.1367 -0.2173 -0.1781
 1437SOL    HW115770   1.298   3.139  15.391 -1.5874 -2.3292  0.2047
 1437SOL    HW215771   1.329   3.228  15.501  0.9356 -2.4151  0.4427
 1438SOL     OW15772   2.820   4.485   8.274  0.0684  0.7571 -0.1459
 1438SOL    HW115773   2.743   4.437   8.304 -0.1536  0.8014 -0.6469
 1438SOL    HW215774   2.875   4.489   8.352  1.0196 -1.3729 -0.7071
 1439SOL     OW15775   1.863   3.386  10.906  0.3743  0.3824 -0.3882
 1439SOL    HW115776   1.910   3.361  10.986 -3.1616 -0.5760  1.3709
 1439SOL    HW215777   1.936   3.365  10.848 -0.5314 -0.8519 -1.0649
 1440SOL     OW15778   3.943   2.306  15.465  0.3282 -0.0932 -0.0253
 1440SOL    HW115779   3.902   2.221  15.481 -0.3390  0.1736 -0.3389
 1440SOL    HW215780   3.866   2.353  15.495  0.3896  0.5493 -0.8904
 1441SOL     OW15781   2.751   3.727   9.574  0.4247 -0.0828  0.2925
 1441SOL    HW115782   2.745   3.634   9.552 -1.2641  0.0656  0.1146
 1441SOL    HW215783   2.827   3.752   9.522 -1.1035  2.4453 -0.7608
 1442SOL     OW15784   1.930   1.087   2.801  0.5503 -0.3176 -0.1945
 1442SOL    HW115785   2.011   1.057   2.843  0.9096  0.5292 -0.2720
 1442SOL    HW215786   1.909   1.011   2.747 -0.0355 -0.3471  0.0786
 1443SOL     OW15787   2.081   1.632   7.650  0.4517  0.1531  0.3907
 1443SOL    HW115788   2.072   1.622   7.745 -0.8853  0.5460  0.3036
 1443SOL    HW215789   2.009   1.580   7.613  0.3019 -0.3382  1.3611
 1444SOL     OW15790   0.679   4.131   7.214  0.1049  0.5069 -0.2354
 1444SOL    HW115791   0.723   4.086   7.286 -1.0513  0.1731  0.2571
 1444SOL    HW215792   0.628   4.061   7.175 -2.4142  1.1908  1.8684
 1445SOL     OW15793   3.298   3.424   0.362 -0.0870  0.3467  0.1670
 1445SOL    HW115794   3.208   3.441   0.334 -0.5576  0.1368  1.5563
 1445SOL    HW215795   3.287   3.329   0.358 -0.6089  0.3397  1.7722
 1446SOL     OW15796   3.848   2.498   6.628 -0.6433  0.2596  0.0770
 1446SOL    HW115797   3.936   2.536   6.634 -0.5265  0.2220 -1.2108
 1446SOL    HW215798   3.873   2.406   6.640  2.7056  1.4446  2.2507
 1447SOL     OW15799   2.994   3.140   2.376  0.0185 -0.4205 -0.0037
 1447SOL    HW115800   2.993   3.117   2.283  0.5754  0.2193 -0.1703
 1447SOL    HW215801   2.968   3.056   2.413  1.5089  0.1123  2.2668
 1448SOL     OW15802   4.491   0.971   3.241  0.3790 -0.3308  0.4434
 1448SOL    HW115803   4.532   0.979   3.155 -1.5678  2.7754 -0.2183
 1448SOL    HW215804   4.415   0.914   3.230  0.9899 -0.4781 -2.9596
 1449SOL     OW15805   1.805   1.216  15.711 -0.3544 -0.1083 -0.0030
 1449SOL    HW115806   1.870   1.230  15.642  1.0768 -1.7260  1.0182
 1449SOL    HW215807   1.761   1.141  15.671 -0.6467  0.6373 -1.0773
 1450SOL     OW15808   0.547   0.303   8.689  0.4211 -0.4974 -0.6166
 1450SOL    HW115809   0.588   0.339   8.610  3.7407  1.5999  2.0150
 1450SOL    HW215810   0.610   0.241   8.726  2.5972  1.4314 -1.0426
 1451SOL     OW15811   3.296   2.233   0.185 -0.2804 -0.4070  0.2505
 1451SOL    HW115812   3.316   2.185   0.105  1.7272 -0.2432  0.6554
 1451SOL    HW215813   3.206   2.201   0.191 -0.3973 -0.0457  0.3857
 1452SOL     OW15814   4.021   3.024   2.507  0.1165  0.5559 -0.1076
 1452SOL    HW115815   3.950   2.962   2.522  1.6259 -1.5334 -1.5999
 1452SOL    HW215816   4.021   3.080   2.585 -0.6675 -0.7654  0.8462
 1453SOL     OW15817   3.784   1.579  12.264 -0.1835  0.7496 -0.4296
 1453SOL    HW115818   3.786   1.603  12.172 -0.2318  0.3214 -0.5397
 1453SOL    HW215819   3.693   1.555  12.279 -0.4802  1.8306 -0.5225
 1454SOL     OW15820   4.046   0.076  17.376 -0.7467  0.5620  0.2348
 1454SOL    HW115821   4.042   0.058  17.470  3.2824 -2.9247 -0.2696
 1454SOL    HW215822   3.994   0.156  17.361 -1.1637  0.3012  0.2888
 1455SOL     OW15823   3.722   3.756   6.012 -0.1243  0.0783 -0.0582
 1455SOL    HW115824   3.764   3.745   6.097 -0.4197 -0.7478 -0.0162
 1455SOL    HW215825   3.796   3.791   5.964  0.6075 -1.0188  0.2733
 1456SOL     OW15826   0.476   3.639   0.625  0.4405  0.1766  0.0920
 1456SOL    HW115827   0.520   3.617   0.544  1.4079  1.1563  0.3547
 1456SOL    HW215828   0.505   3.729   0.641 -0.2362  0.4518 -0.2196
 1457SOL     OW15829   3.967   0.912   7.721  0.2713  0.0446 -0.3068
 1457SOL    HW115830   4.012   0.997   7.724  0.5656 -0.1405  0.4213
 1457SOL    HW215831   4.042   0.862   7.689  1.1630  0.7280  0.7045
 1458SOL     OW15832   0.252   2.462   3.017 -1.1830 -0.4129  0.2234
 1458SOL    HW115833   0.212   2.549   3.007 -3.0731 -1.2610  0.4745
 1458SOL    HW215834   0.289   2.456   2.929  1.1537  0.5579  1.1505
 1459SOL     OW15835   1.599   2.997   9.574 -0.2972  0.3854 -0.1335
 1459SOL    HW115836   1.675   2.943   9.595 -1.5782 -1.3732  0.0006
 1459SOL    HW215837   1.545   2.920   9.555  0.4458 -0.0948 -0.2608
 1460SOL     OW15838   4.557   1.837   3.777 -0.4582  0.0553  0.3008
 1460SOL    HW115839   4.585   1.745   3.772  1.5211  0.6376  0.5616
 1460SOL    HW215840   4.467   1.835   3.746 -0.3211 -1.9040 -0.0259
 1461SOL     OW15841   2.022   1.821   6.847 -0.5298 -0.6069 -0.2740
 1461SOL    HW115842   2.028   1.779   6.933  1.0963  0.5049  0.1395
 1461SOL    HW215843   1.999   1.909   6.876 -0.2212 -1.1421  1.6077
 1462SOL     OW15844   2.100   4.025   1.651  0.3158 -0.2403  0.0284
 1462SOL    HW115845   2.125   4.111   1.683  0.1999 -0.9713  2.0960
 1462SOL    HW215846   2.006   4.019   1.672  0.0922  0.5616 -0.7175
 1463SOL     OW15847   3.535   4.389   6.353  0.4371 -0.0392  0.0850
 1463SOL    HW115848   3.530   4.355   6.264 -1.1509  0.9049 -0.1828
 1463SOL    HW215849   3.583   4.324   6.405 -1.2774 -1.2273  0.1697
 1464SOL     OW15850   0.852   0.797   9.134  0.6511  0.3421  0.4302
 1464SOL    HW115851   0.807   0.871   9.094  0.5645  0.2877  0.4258
 1464SOL    HW215852   0.945   0.811   9.117  0.2472  1.6521 -0.7106
 1465SOL     OW15853   1.149   3.378   6.058  0.5025 -0.5336  0.0355
 1465SOL    HW115854   1.118   3.410   5.974  0.1409 -1.8215 -0.3310
 1465SOL    HW215855   1.240   3.350   6.044  0.3623 -0.8739 -0.1878
 1466SOL     OW15856   2.530   2.484   9.252  0.1161 -0.1155 -0.3050
 1466SOL    HW115857   2.437   2.499   9.234  0.4248  0.6089 -1.2893
 1466SOL    HW215858   2.515   2.392   9.275  1.6171 -0.1680  0.4430
 1467SOL     OW15859   2.362   4.140   9.377  0.3892  0.0123  0.1851
 1467SOL    HW115860   2.359   4.188   9.294  0.3040 -0.3871 -0.0404
 1467SOL    HW215861   2.455   4.116   9.376  0.6643  1.1592 -1.0151
 1468SOL     OW15862   0.554   1.525   7.822  0.1309  0.5580 -0.3054
 1468SOL    HW115863   0.478   1.552   7.873 -0.3342 -2.1146  0.3902
 1468SOL    HW215864   0.617   1.489   7.885  1.0292  1.7314 -0.5189
 1469SOL     OW15865   4.351   1.771  13.448  0.8630  0.0959 -0.1489
 1469SOL    HW115866   4.422   1.831  13.426 -0.5678  3.1507  3.5875
 1469SOL    HW215867   4.289   1.823  13.500  1.9806  1.3387 -0.0779
 1470SOL     OW15868   1.987   1.287   8.922 -0.4029  0.5908  0.4463
 1470SOL    HW115869   1.911   1.228   8.918  1.6262 -2.0507  1.2553
 1470SOL    HW215870   1.953   1.348   8.856  1.2363 -2.1516 -2.9874
 1471SOL     OW15871   2.883   2.713  17.504 -0.4265  0.1160  0.7694
 1471SOL    HW115872   2.789   2.697  17.496 -0.7871  2.5651  0.1095
 1471SOL    HW215873   2.894   2.798  17.461  1.0019  0.6727  2.2399
 1472SOL     OW15874   3.539   4.063   0.962 -0.2886  0.2760  0.2683
 1472SOL    HW115875   3.572   4.013   0.887 -1.2404 -1.0892  0.7564
 1472SOL    HW215876   3.587   4.145   0.953 -1.5634  1.0519  0.5352
 1473SOL     OW15877   2.993   3.387   0.820 -0.2720 -0.2910  0.5437
 1473SOL    HW115878   3.055   3.343   0.763  0.6266  1.5172  0.1353
 1473SOL    HW215879   3.030   3.475   0.825 -0.1227 -0.1679 -2.7077
 1474SOL     OW15880   1.166   3.046  11.161  0.7147  0.2092 -0.2263
 1474SOL    HW115881   1.185   3.095  11.081  0.8949  1.1611  0.3974
 1474SOL    HW215882   1.220   3.094  11.223 -0.6231  3.0001 -1.2316
 1475SOL     OW15883   0.252   3.381   4.387  0.5450  0.2050 -0.4544
 1475SOL    HW115884   0.182   3.317   4.370  0.3150  0.2017  0.5141
 1475SOL    HW215885   0.333   3.330   4.379  0.2971  0.0092 -1.8434
 1476SOL     OW15886   1.443   4.639   8.847 -0.0420 -0.7447  0.1160
 1476SOL    HW115887   1.399   4.699   8.906  0.7652 -0.0976  0.0629
 1476SOL    HW215888   1.407   4.670   8.764  2.0532 -0.6724 -0.7652
 1477SOL     OW15889   4.584   0.063  10.835 -0.1601 -0.0629 -0.3353
 1477SOL    HW115890   4.513   0.042  10.897 -0.9068 -1.7897 -1.7727
 1477SOL    HW215891   4.657   0.014  10.871  0.8298  1.4897 -0.2596
 1478SOL     OW15892   1.710   0.630  10.863 -0.0605 -0.0822 -0.5164
 1478SOL    HW115893   1.643   0.673  10.916 -0.8841 -1.3827 -0.5038
 1478SOL    HW215894   1.731   0.561  10.926 -0.3927 -0.5677 -0.9381
 1479SOL     OW15895   1.679   0.081   8.143  0.3557 -0.5568  0.0784
 1479SOL    HW115896   1.628   0.137   8.200  1.5840  1.5667 -0.9117
 1479SOL    HW215897   1.620   0.006   8.151 -0.0374 -0.1627  0.9162
 1480SOL     OW15898   3.109   4.268   3.493 -0.2886 -0.0280  0.4248
 1480SOL    HW115899   3.136   4.206   3.425 -0.6387  0.4417 -0.1374
 1480SOL    HW215900   3.032   4.223   3.527 -0.5479 -0.6794 -0.9949
 1481SOL     OW15901   1.855   2.460   7.977  0.1278 -0.3401 -0.1341
 1481SOL    HW115902   1.843   2.367   7.960 -2.1315 -0.2196  0.7628
 1481SOL    HW215903   1.841   2.455   8.071  0.3479  2.4457  0.0433
 1482SOL     OW15904   3.647   1.493  11.047 -0.2270  0.6433 -0.2702
 1482SOL    HW115905   3.619   1.566  10.993  0.1865  0.9198 -0.1125
 1482SOL    HW215906   3.684   1.434  10.981 -0.3406  0.5284 -0.2331
 1483SOL     OW15907   0.477   4.128   3.692  0.0699  0.5162  0.3023
 1483SOL    HW115908   0.483   4.208   3.640 -0.2195  1.0778  1.1478
 1483SOL    HW215909   0.555   4.133   3.746  0.6103 -0.3039 -0.3852
 1484SOL     OW15910   0.324   0.049   2.960 -0.3020  0.2705  0.0512
 1484SOL    HW115911   0.317   0.104   3.038  0.9124  2.4314 -1.3596
 1484SOL    HW215912   0.264   0.096   2.901 -0.8117 -1.5394 -0.8889
 1485SOL     OW15913   1.386   1.187   7.227 -0.1691  0.1579  0.4203
 1485SOL    HW115914   1.347   1.110   7.268 -1.5092 -0.3728 -1.8238
 1485SOL    HW215915   1.349   1.174   7.140 -3.5035  0.5919  1.7563
 1486SOL     OW15916   2.654   1.177   5.175 -0.1201  0.1038 -0.0533
 1486SOL    HW115917   2.595   1.190   5.101  1.9274 -1.0576 -1.8859
 1486SOL    HW215918   2.601   1.111   5.220  0.2066 -0.1981 -0.1184
 1487SOL     OW15919   2.187   2.920   8.858 -0.1581 -0.1066  0.0536
 1487SOL    HW115920   2.126   2.865   8.907 -0.9236  0.3383 -0.4094
 1487SOL    HW215921   2.227   2.973   8.927  2.9236  0.9735 -2.5557
 1488SOL     OW15922   0.196   1.529   8.554  0.6694  0.1291 -0.1354
 1488SOL    HW115923   0.203   1.442   8.515 -2.4039  0.4587 -1.4510
 1488SOL    HW215924   0.100   1.539   8.556  0.7582  0.6866  1.0936
 1489SOL     OW15925   3.308   1.606   9.630 -0.5377  0.4193 -0.2180
 1489SOL    HW115926   3.242   1.666   9.666  1.5175  0.8220  2.9011
 1489SOL    HW215927   3.360   1.590   9.709 -0.3860  0.4834 -0.3055
 1490SOL     OW15928   4.098   3.440   6.533 -0.4733 -0.4767  0.3397
 1490SOL    HW115929   4.132   3.361   6.575 -1.7976 -0.4019  1.5451
 1490SOL    HW215930   4.173   3.498   6.546 -0.0959 -1.7869  4.0604
 1491SOL     OW15931   0.717   2.188   0.238  0.8664  0.1316  0.6880
 1491SOL    HW115932   0.622   2.177   0.245  0.7526  0.6298 -0.0471
 1491SOL    HW215933   0.712   2.258   0.174  0.5111 -0.3516  0.1844
 1492SOL     OW15934   2.237   2.178   3.183  0.2681  0.0476 -1.3703
 1492SOL    HW115935   2.232   2.098   3.131 -0.0083 -0.8319  0.0087
 1492SOL    HW215936   2.154   2.174   3.230  1.0380  1.3670  0.1505
 1493SOL     OW15937   1.975   1.195   2.484  0.1477 -0.0474  0.0880
 1493SOL    HW115938   1.951   1.276   2.530 -0.6116 -0.7693  0.9675
 1493SOL    HW215939   1.887   1.168   2.459  0.4131 -0.1807 -0.6948
 1494SOL     OW15940   0.888   1.980   3.602 -0.3283  0.3058 -0.1697
 1494SOL    HW115941   0.947   1.939   3.665  0.1372 -0.6120 -1.1952
 1494SOL    HW215942   0.870   1.905   3.545 -1.7737 -0.7259  1.6427
 1495SOL     OW15943   4.040   3.241   0.263 -0.2886 -0.0682 -0.3413
 1495SOL    HW115944   4.052   3.336   0.257 -1.5416  0.2718  2.3779
 1495SOL    HW215945   4.110   3.191   0.221 -0.3454 -0.0200 -0.4960
 1496SOL     OW15946   3.333   0.109   5.378  0.1592  0.4459 -0.2843
 1496SOL    HW115947   3.331   0.203   5.360  0.6498  0.3026 -1.0311
 1496SOL    HW215948   3.288   0.113   5.463 -1.3598 -1.7464 -0.9791
 1497SOL     OW15949   1.506   3.556  10.619  0.0441 -0.2347  0.1690
 1497SOL    HW115950   1.600   3.551  10.635 -0.0906 -1.9940  0.3749
 1497SOL    HW215951   1.489   3.502  10.542 -2.2739 -1.4985  1.5601
 1498SOL     OW15952   2.957   3.787   5.439  0.2862 -0.3043  0.7788
 1498SOL    HW115953   3.048   3.787   5.467  1.2889 -2.1212 -2.4453
 1498SOL    HW215954   2.909   3.786   5.521  0.3149 -1.8334  0.7737
 1499SOL     OW15955   0.613   1.615   6.541 -0.7087 -0.4623  0.1694
 1499SOL    HW115956   0.554   1.689   6.553  1.6046  1.7765 -2.1138
 1499SOL    HW215957   0.691   1.644   6.590 -0.7100  1.2658 -0.8464
 1500SOL     OW15958   3.566   0.611   8.781 -0.4374 -0.5494  0.1956
 1500SOL    HW115959   3.478   0.606   8.744 -1.2642  0.2017  2.0310
 1500SOL    HW215960   3.545   0.575   8.867  3.1215 -1.5712  0.6477
 1501SOL     OW15961   4.594   0.313  12.547  0.2841  0.1416 -0.3288
 1501SOL    HW115962   4.565   0.340  12.635  2.3676 -0.3086  0.4873
 1501SOL    HW215963   4.525   0.249  12.531  0.4278  0.1231 -0.8504
 1502SOL     OW15964   0.193   2.208  17.269  0.0024  0.6323 -0.1548
 1502SOL    HW115965   0.268   2.249  17.226 -0.5155  0.9863 -0.7361
 1502SOL    HW215966   0.222   2.118  17.261  2.1890  1.2892  0.5958
 1503SOL     OW15967   0.501   1.486   2.274  0.7264 -0.0729 -0.0324
 1503SOL    HW115968   0.501   1.421   2.204 -0.9364 -0.9781  0.8115
 1503SOL    HW215969   0.406   1.496   2.284  0.5065 -1.6429 -0.5186
 1504SOL     OW15970   3.443   2.428   4.905 -0.4610  0.0558  0.2026
 1504SOL    HW115971   3.507   2.406   4.838 -0.0454 -2.3075  1.3610
 1504SOL    HW215972   3.409   2.342   4.931  1.6848 -0.0051  2.8174
 1505SOL     OW15973   3.024   1.899  16.753 -0.1026  0.2108 -1.1248
 1505SOL    HW115974   2.984   1.878  16.668  0.2228  3.1346 -2.0038
 1505SOL    HW215975   3.113   1.922  16.728 -0.7488  2.1922 -1.6088
 1506SOL     OW15976   4.161   2.093  16.893  0.4000  0.5243 -0.8650
 1506SOL    HW115977   4.210   2.090  16.810  1.7910 -0.8649  0.0061
 1506SOL    HW215978   4.098   2.021  16.886  1.2041 -0.1678 -0.9923
 1507SOL     OW15979   1.397   1.271   5.965 -0.2598 -0.1659 -0.1595
 1507SOL    HW115980   1.461   1.207   5.934 -0.4480 -1.0779  1.3309
 1507SOL    HW215981   1.428   1.347   5.916 -0.2925  0.0607  0.1690
 1508SOL     OW15982   3.088   2.961  17.191  0.4210 -0.1328 -0.1855
 1508SOL    HW115983   3.067   2.868  17.180 -1.0060  0.5163 -2.9422
 1508SOL    HW215984   3.047   2.977  17.276  1.1756 -0.9398  0.3344
 1509SOL     OW15985   4.200   0.437   1.328  0.8043 -0.6753  0.0612
 1509SOL    HW115986   4.244   0.489   1.396 -0.5391 -0.9983  1.1680
 1509SOL    HW215987   4.258   0.463   1.256  2.0443 -0.6543  1.0549
 1510SOL     OW15988   4.142   3.044   6.516 -0.4622 -0.9746 -0.0361
 1510SOL    HW115989   4.135   3.117   6.577 -0.8867 -0.5584 -0.5839
 1510SOL    HW215990   4.058   3.001   6.533 -1.4128  0.9670  0.1482
 1511SOL     OW15991   3.472   3.103   9.388 -0.0106  0.5263  0.0014
 1511SOL    HW115992   3.388   3.085   9.347 -0.3347  3.3365 -0.5715
 1511SOL    HW215993   3.454   3.194   9.411 -4.0187 -0.2754  0.0448
 1512SOL     OW15994   4.714   1.088  14.846 -0.8916  0.1533  0.8034
 1512SOL    HW115995   4.655   1.134  14.785  1.1720  1.9528  0.1715
 1512SOL    HW215996   0.001   1.003  14.804 -0.6537 -0.4821  2.1376
 1513SOL     OW15997   0.844   0.811   2.898  0.8314 -0.1515 -0.2051
 1513SOL    HW115998   0.920   0.869   2.894  0.3499  0.5632  1.0415
 1513SOL    HW215999   0.857   0.753   2.823 -0.9032  1.3223 -1.6607
 1514SOL     OW16000   0.569   1.765   8.758  0.5403 -0.2078  0.2646
 1514SOL    HW116001   0.568   1.756   8.663 -1.8064  0.2549  0.2512
 1514SOL    HW216002   0.494   1.707   8.771 -1.3216  1.5112 -3.0724
 1515SOL     OW16003   1.953   3.795   7.568  0.3306 -0.8653 -0.1711
 1515SOL    HW116004   1.868   3.766   7.534  0.3207  0.2595 -1.1190
 1515SOL    HW216005   1.937   3.857   7.639 -0.0672 -0.2449 -0.8029
 1516SOL     OW16006   1.917   0.852  14.281  0.3579 -0.1904  0.2520
 1516SOL    HW116007   1.990   0.810  14.236 -0.4699 -2.0417  0.6341
 1516SOL    HW216008   1.857   0.874  14.210  2.1147  0.9319 -0.8825
 1517SOL     OW16009   0.996   0.557   9.326  0.6809  0.3218  0.2745
 1517SOL    HW116010   1.043   0.638   9.345 -0.4449  0.8755  0.6909
 1517SOL    HW216011   1.039   0.532   9.245  0.6668 -1.5111  0.8338
 1518SOL     OW16012   4.685   1.564  16.316 -0.2128 -0.3244 -0.2646
 1518SOL    HW116013   4.604   1.612  16.304 -0.4139 -0.6279 -0.1263
 1518SOL    HW216014   4.658   1.472  16.310 -2.2239  0.1217  1.9576
 1519SOL     OW16015   4.617   4.144  15.340 -0.0670  0.8758 -0.0164
 1519SOL    HW116016   4.532   4.105  15.363  0.8575 -0.9234  0.2966
 1519SOL    HW216017   4.580   4.215  15.288 -0.7854 -0.4690 -1.3465
 1520SOL     OW16018   2.400   0.707   4.721 -0.4337 -0.1757 -0.1882
 1520SOL    HW116019   2.365   0.750   4.644  0.8905 -1.4637 -1.5094
 1520SOL    HW216020   2.373   0.760   4.796  1.2664 -0.3730  0.5701
 1521SOL     OW16021   1.137   4.121   4.271  0.1620  0.2805  0.1971
 1521SOL    HW116022   1.175   4.033   4.274  1.5929  0.9252  0.6096
 1521SOL    HW216023   1.115   4.144   4.361 -0.8561  0.1927 -0.0267
 1522SOL     OW16024   2.126   3.913   3.753  0.3873 -0.2211  0.3735
 1522SOL    HW116025   2.106   3.981   3.817  0.8417 -1.0059  1.3481
 1522SOL    HW216026   2.219   3.902   3.772  0.4639  1.9928  1.2946
 1523SOL     OW16027   4.521   1.697   7.956 -0.0438 -0.5599  0.1133
 1523SOL    HW116028   4.458   1.636   7.995  1.4920 -1.8729  0.5824
 1523SOL    HW216029   4.482   1.782   7.974 -1.9863 -1.8385  1.8815
 1524SOL     OW16030   4.496   4.214   5.315  0.2655 -0.0891  0.5947
 1524SOL    HW116031   4.422   4.233   5.257  2.2774 -1.0090 -2.2879
 1524SOL    HW216032   4.524   4.133   5.271 -1.9611 -1.0338  0.9309
 1525SOL     OW16033   1.477   3.707   5.311 -0.0809 -0.1556  0.3408
 1525SOL    HW116034   1.560   3.725   5.357  1.5830  1.7105 -3.3492
 1525SOL    HW216035   1.492   3.617   5.283 -0.2731 -0.8558  2.5299
 1526SOL     OW16036   2.885   0.799   4.731 -0.5259 -0.1035 -0.3531
 1526SOL    HW116037   2.809   0.855   4.746 -0.4984 -0.5452  1.4533
 1526SOL    HW216038   2.875   0.737   4.804 -1.4762  0.0059 -0.3845
 1527SOL     OW16039   0.318   0.222   5.649  0.1019 -0.3854  0.4748
 1527SOL    HW116040   0.290   0.288   5.711  0.9678 -0.7491  1.2562
 1527SOL    HW216041   0.246   0.232   5.586 -1.5946  1.2473  2.6684
 1528SOL     OW16042   3.047   3.251   7.584 -0.4112  0.3395 -0.0362
 1528SOL    HW116043   3.045   3.311   7.510  4.3861  1.8382  1.0480
 1528SOL    HW216044   2.961   3.272   7.621 -0.5832  0.9022 -0.7498
 1529SOL     OW16045   4.068   2.503   5.396  0.2242 -0.0309 -0.0147
 1529SOL    HW116046   4.144   2.471   5.446  0.1744 -1.4885 -0.8758
 1529SOL    HW216047   4.070   2.457   5.312 -0.9846 -0.0802 -0.0123
 1530SOL     OW16048   1.216   1.326  12.615 -0.3738  0.0588  0.4897
 1530SOL    HW116049   1.129   1.350  12.648 -0.9073 -1.0673 -0.1052
 1530SOL    HW216050   1.270   1.302  12.690  3.8430 -1.1781 -2.9602
 1531SOL     OW16051   0.114   4.567  11.788 -0.3425  0.3703 -0.1823
 1531SOL    HW116052   0.202   4.535  11.770 -0.4769  0.1159 -0.3833
 1531SOL    HW216053   0.062   4.491  11.760 -0.9897  0.9116 -0.4396
 1532SOL     OW16054   0.582   1.314  16.859  0.2257 -0.1099  0.4955
 1532SOL    HW116055   0.494   1.351  16.856  0.1364 -0.3005  0.7769
 1532SOL    HW216056   0.589   1.238  16.802  0.6222  0.7625 -0.6307
 1533SOL     OW16057   4.249   3.206  17.081  0.7234 -0.4495  0.2845
 1533SOL    HW116058   4.287   3.193  16.994  0.9477 -0.7574  0.4269
 1533SOL    HW216059   4.324   3.183  17.137  1.2297 -0.8934 -0.5805
 1534SOL     OW16060   1.639   1.054  15.947  0.2513 -0.4889  0.0560
 1534SOL    HW116061   1.659   1.104  16.026  1.3044  0.9646 -1.1217
 1534SOL    HW216062   1.667   1.112  15.877  1.7208 -2.2065 -0.7734
 1535SOL     OW16063   3.793   0.560   3.303  0.7632  0.4070 -0.7439
 1535SOL    HW116064   3.827   0.478   3.269 -2.9274 -1.3570 -0.1895
 1535SOL    HW216065   3.858   0.580   3.370  0.6658 -0.0311 -0.5147
 1536SOL     OW16066   0.445   2.766   8.905 -0.2219  0.1853  0.2087
 1536SOL    HW116067   0.469   2.851   8.944 -0.9478 -0.0540  1.1971
 1536SOL    HW216068   0.350   2.774   8.903 -0.1256  0.5974 -1.9205
 1537SOL     OW16069   1.948   0.317   2.197  0.0343  0.9941 -0.0327
 1537SOL    HW116070   1.871   0.369   2.221 -1.3876 -0.7763 -0.7474
 1537SOL    HW216071   2.015   0.338   2.262 -2.0057  0.4617  2.2525
 1538SOL     OW16072   0.009   0.936  15.938 -0.1967  0.2031 -0.3840
 1538SOL    HW116073   4.672   0.930  15.862 -1.2035  0.2859  0.3655
 1538SOL    HW216074   4.703   0.853  15.977  0.7100 -0.4310 -1.1336
 1539SOL     OW16075   2.094   0.161   9.011  0.4948 -0.6227  0.2739
 1539SOL    HW116076   2.160   0.136   8.946  0.0823 -2.7394  0.6630
 1539SOL    HW216077   2.033   0.205   8.951  1.2302  0.4675  0.3313
 1540SOL     OW16078   3.406   3.128  12.407 -0.1277  0.4343  0.1650
 1540SOL    HW116079   3.464   3.202  12.423  1.5497 -0.7166 -0.6140
 1540SOL    HW216080   3.463   3.087  12.342  1.0620  1.7535  0.3756
 1541SOL     OW16081   3.594   1.585   0.772  0.0102  0.0895  0.4160
 1541SOL    HW116082   3.523   1.649   0.766  0.4241  0.8260  3.4559
 1541SOL    HW216083   3.563   1.528   0.702 -0.3600 -1.0334  1.4997
 1542SOL     OW16084   1.899   0.312  12.533 -0.0579 -0.0205  0.8291
 1542SOL    HW116085   1.839   0.383  12.558 -0.7220 -0.1865 -0.3121
 1542SOL    HW216086   1.880   0.243  12.596 -0.2767 -1.3132 -0.6650
 1543SOL     OW16087   2.118   2.512   8.118 -0.1870 -0.2470  0.0767
 1543SOL    HW116088   2.023   2.521   8.110 -0.4408  0.1162  3.2199
 1543SOL    HW216089   2.144   2.581   8.057 -0.3430 -2.0584 -1.9929
 1544SOL     OW16090   1.039   0.733   6.080  0.3192 -0.1384 -0.0925
 1544SOL    HW116091   1.062   0.796   6.011 -0.5203 -0.8610 -1.0297
 1544SOL    HW216092   1.043   0.778   6.164 -3.0970 -0.0172 -0.0156
 1545SOL     OW16093   1.537   4.662   5.940 -0.4824  0.3564  0.4072
 1545SOL    HW116094   1.459   4.620   5.903 -1.5402 -0.3403  3.3756
 1545SOL    HW216095   1.591   4.602   5.889 -0.0610  2.5091 -1.6678
 1546SOL     OW16096   3.465   2.231  16.642  0.2267  0.2390  0.0912
 1546SOL    HW116097   3.480   2.186  16.725  0.7714 -1.2506 -0.8051
 1546SOL    HW216098   3.530   2.196  16.580  0.2885  2.1153 -0.8978
 1547SOL     OW16099   0.211   4.083   7.055 -0.3400  0.5237  0.0733
 1547SOL    HW116100   0.148   4.042   7.114  0.1206  1.0118  0.9146
 1547SOL    HW216101   0.253   4.005   7.021  0.7027  0.2608  1.9908
 1548SOL     OW16102   3.649   4.367   4.038  0.3922 -0.2069  0.0303
 1548SOL    HW116103   3.642   4.305   4.111 -1.5703  1.3230  1.1622
 1548SOL    HW216104   3.735   4.409   4.047  0.4044 -0.1628 -0.2945
 1549SOL     OW16105   4.208   1.739   7.347 -0.5824 -0.1059  0.3980
 1549SOL    HW116106   4.220   1.675   7.418  0.2654  0.0030  0.3503
 1549SOL    HW216107   4.130   1.708   7.302 -1.2273  0.0897  1.3837
 1550SOL     OW16108   1.063   3.777   8.652 -0.7959  0.1738 -0.0875
 1550SOL    HW116109   1.094   3.800   8.565  0.5059 -1.4147 -0.0411
 1550SOL    HW216110   1.138   3.725   8.680 -0.2935  0.4425 -0.9378
 1551SOL     OW16111   1.726   0.703   7.051 -0.3355  0.3274 -0.4126
 1551SOL    HW116112   1.797   0.654   7.092 -0.8168 -0.5221 -0.5938
 1551SOL    HW216113   1.652   0.692   7.109 -1.0976 -4.1080 -2.2376
 1552SOL     OW16114   3.830   2.947   3.849 -0.6921 -0.1643 -0.4379
 1552SOL    HW116115   3.804   2.939   3.941  1.3963 -1.1343  0.0916
 1552SOL    HW216116   3.749   2.971   3.804 -0.7062  0.1993 -0.2206
 1553SOL     OW16117   1.280   3.078   4.129 -0.0372 -0.0041 -0.5274
 1553SOL    HW116118   1.280   3.132   4.208 -0.7675  0.9782 -1.1905
 1553SOL    HW216119   1.296   3.143   4.060  2.1361  0.8682  0.7755
 1554SOL     OW16120   1.259   3.147   6.850  0.3129 -0.2969  0.1052
 1554SOL    HW116121   1.345   3.124   6.883  0.7148  0.2370 -0.5650
 1554SOL    HW216122   1.269   3.120   6.759  2.2532 -1.6044  0.7122
 1555SOL     OW16123   1.155   2.774   4.940  0.0389  0.1524 -0.3684
 1555SOL    HW116124   1.179   2.762   5.032 -1.4523 -0.1122 -0.0092
 1555SOL    HW216125   1.184   2.864   4.927  3.4195 -1.0436 -0.9456
 1556SOL     OW16126   1.152   2.426  16.071  0.3729  0.2305 -0.2264
 1556SOL    HW116127   1.141   2.331  16.066 -0.1181  0.2847 -0.1339
 1556SOL    HW216128   1.108   2.455  15.990  0.6855  2.0250  0.2491
 1557SOL     OW16129   4.559   0.925  13.331  0.1616  0.3965  0.5972
 1557SOL    HW116130   4.490   0.966  13.382  0.6137 -0.1097  1.6208
 1557SOL    HW216131   4.595   1.001  13.284 -1.3637  1.4351  1.1416
 1558SOL     OW16132   0.432   4.099   8.711  0.2306 -0.7139 -0.3408
 1558SOL    HW116133   0.497   4.169   8.716 -1.2757  0.5726  1.1509
 1558SOL    HW216134   0.485   4.037   8.761  0.8791  0.8632  0.9472
 1559SOL     OW16135   3.519   1.357   1.937  0.2484  0.0161  0.2576
 1559SOL    HW116136   3.593   1.297   1.929  0.1954 -0.0041 -0.1105
 1559SOL    HW216137   3.508   1.355   2.032 -1.0080 -0.2880  0.0989
 1560SOL     OW16138   1.057   1.365   7.399 -0.4326  0.2019  0.6462
 1560SOL    HW116139   1.029   1.449   7.435 -0.1938 -1.3606  4.3978
 1560SOL    HW216140   0.976   1.351   7.350 -0.3200 -2.9492  1.3495
 1561SOL     OW16141   2.363   4.550   0.170  0.1992  0.4619 -0.1996
 1561SOL    HW116142   2.350   4.467   0.124  0.2797  0.5718 -0.4260
 1561SOL    HW216143   2.414   4.518   0.244 -0.9675  2.1863  1.3390
 1562SOL     OW16144   3.729   0.041   8.280  0.5011  0.0223 -0.3561
 1562SOL    HW116145   3.775   0.097   8.342 -1.6860 -0.0058  1.2745
 1562SOL    HW216146   3.673   0.106   8.238 -0.3325  0.7816  1.9325
 1563SOL     OW16147   4.243   4.644  12.453 -0.4564  0.0620 -0.3529
 1563SOL    HW116148   4.198   4.613  12.532  0.5259 -0.0346  0.1651
 1563SOL    HW216149   4.174   4.633  12.387 -0.0220 -0.2495 -0.7564
 1564SOL     OW16150   1.217   2.949  17.209 -0.1528 -0.0105 -0.4455
 1564SOL    HW116151   1.194   2.904  17.128  0.0589  0.0119 -0.5173
 1564SOL    HW216152   1.237   2.880  17.272  0.2907 -0.0786 -0.6660
 1565SOL     OW16153   4.071   4.496   5.010 -0.0329  0.4786  0.0155
 1565SOL    HW116154   4.070   4.506   4.915  0.2198 -1.0223 -0.1402
 1565SOL    HW216155   4.047   4.586   5.032 -1.0063  0.2662 -0.1693
 1566SOL     OW16156   1.336   3.873   3.175  0.4119 -0.3017  0.5652
 1566SOL    HW116157   1.266   3.925   3.213 -0.6729 -0.3909 -1.3238
 1566SOL    HW216158   1.296   3.787   3.165 -1.3656  0.6440 -0.3864
 1567SOL     OW16159   0.991   2.429   5.348  0.1279 -0.6992  0.1991
 1567SOL    HW116160   1.072   2.452   5.393  0.4702  0.7107 -1.1279
 1567SOL    HW216161   1.010   2.343   5.311  1.0017  0.8294 -2.8771
 1568SOL     OW16162   3.064   0.703   6.875 -0.1071  0.1597  0.3661
 1568SOL    HW116163   3.022   0.686   6.960 -1.4729 -1.2765 -0.6054
 1568SOL    HW216164   3.036   0.792   6.852 -0.6743 -0.3352 -0.8221
 1569SOL     OW16165   0.418   1.225   2.507 -0.1076 -0.2671  0.0622
 1569SOL    HW116166   0.345   1.281   2.484 -0.1112 -1.8065 -3.6588
 1569SOL    HW216167   0.457   1.198   2.424  1.1509  2.2857 -0.1892
 1570SOL     OW16168   2.226   1.859   2.685  0.3392  0.1263  0.2679
 1570SOL    HW116169   2.222   1.940   2.737 -0.2650  1.5529 -2.0201
 1570SOL    HW216170   2.165   1.875   2.613  0.4432  1.0253  0.3758
 1571SOL     OW16171   1.170   2.888  11.693  0.4059 -0.0621 -0.2559
 1571SOL    HW116172   1.121   2.907  11.614 -0.8904  0.5109  0.6871
 1571SOL    HW216173   1.157   2.966  11.747  1.8351  0.0846 -0.1271
 1572SOL     OW16174   3.548   0.180   8.514  0.6399  0.1381  0.3609
 1572SOL    HW116175   3.547   0.231   8.433  1.9081 -1.4411 -0.6706
 1572SOL    HW216176   3.484   0.114   8.487 -0.2659  1.1455  0.0629
 1573SOL     OW16177   2.964   2.285   4.635 -0.2091 -0.2412 -0.0839
 1573SOL    HW116178   3.046   2.262   4.592 -0.6007 -1.0318 -0.3998
 1573SOL    HW216179   2.954   2.200   4.678 -1.6753 -0.1846 -0.3014
 1574SOL     OW16180   2.453   3.295   0.160  0.1983 -0.3191 -0.5096
 1574SOL    HW116181   2.527   3.308   0.102 -0.6549 -0.0473 -1.5254
 1574SOL    HW216182   2.457   3.199   0.159  0.1977 -0.3310  0.6855
 1575SOL     OW16183   3.434   2.694   2.118 -0.2439  0.1395  0.7570
 1575SOL    HW116184   3.411   2.775   2.073 -2.8271 -2.6552 -2.9120
 1575SOL    HW216185   3.379   2.701   2.196 -1.6025  0.0734 -0.1889
 1576SOL     OW16186   1.426   0.650   6.308 -0.6189 -0.3979  0.0504
 1576SOL    HW116187   1.431   0.725   6.249  1.8005 -0.6381 -0.0474
 1576SOL    HW216188   1.402   0.578   6.250  0.0054 -1.0351  0.5746
 1577SOL     OW16189   3.554   2.076   2.652  0.0861 -0.3147  0.2203
 1577SOL    HW116190   3.466   2.045   2.630 -0.3412 -0.6187  2.3680
 1577SOL    HW216191   3.594   1.995   2.683  0.1356  0.0537  1.1256
 1578SOL     OW16192   0.600   3.582  11.797 -0.2012  0.1546  0.2867
 1578SOL    HW116193   0.625   3.628  11.878  2.0611  0.1742 -0.4490
 1578SOL    HW216194   0.510   3.609  11.778 -0.3162  0.3022  1.0347
 1579SOL     OW16195   2.806   2.100  13.269 -0.6630  0.5800 -0.6429
 1579SOL    HW116196   2.776   2.065  13.353  1.2329 -1.5546 -0.8743
 1579SOL    HW216197   2.779   2.027  13.214  0.6882 -0.3833 -0.0309
 1580SOL     OW16198   4.656   3.701   7.281 -0.0973  0.0966  0.0893
 1580SOL    HW116199   4.622   3.790   7.269  0.7772  0.3186 -0.7372
 1580SOL    HW216200   4.581   3.648   7.254 -1.5792  2.1465  0.1426
 1581SOL     OW16201   3.194   4.376   9.002  0.5268 -0.3645 -0.7783
 1581SOL    HW116202   3.133   4.304   8.986  1.0637 -0.6175 -1.6757
 1581SOL    HW216203   3.274   4.325   9.014 -0.6724 -1.5736  1.9286
 1582SOL     OW16204   2.329   3.753   3.879 -0.0106  0.5533 -0.3402
 1582SOL    HW116205   2.265   3.798   3.933  0.4055 -0.5621  1.0520
 1582SOL    HW216206   2.411   3.775   3.923  0.3012  0.0412 -0.6641
 1583SOL     OW16207   2.241   1.536   5.751 -0.5157 -0.0807  0.2484
 1583SOL    HW116208   2.332   1.535   5.779  0.3749  0.4597 -2.6705
 1583SOL    HW216209   2.201   1.455   5.783 -0.3711  0.5783  2.0928
 1584SOL     OW16210   4.142   1.489  12.081 -0.2610  0.2066  0.7556
 1584SOL    HW116211   4.155   1.473  11.988 -1.1528 -0.9859  0.8457
 1584SOL    HW216212   4.227   1.466  12.120  0.3909 -0.7429 -1.2393
 1585SOL     OW16213   4.567   3.621   8.453 -0.1798  0.4832 -0.5114
 1585SOL    HW116214   4.632   3.637   8.521  0.9016 -1.0600 -1.1876
 1585SOL    HW216215   4.487   3.641   8.501 -0.4731 -1.3664 -0.2270
 1586SOL     OW16216   3.573   0.279   3.979  0.0602 -0.3720  0.1174
 1586SOL    HW116217   3.528   0.363   3.982 -0.6745 -0.8135  1.1631
 1586SOL    HW216218   3.508   0.219   4.015 -1.6653  1.6351  0.3548
 1587SOL     OW16219   2.475   4.489  17.552 -0.2537  0.6852 -0.3878
 1587SOL    HW116220   2.405   4.546  17.521  0.6638  2.3513  0.5768
 1587SOL    HW216221   2.437   4.443  17.627 -0.4157 -1.1950 -1.6095
 1588SOL     OW16222   4.163   2.437   4.100 -0.6177 -0.1070  0.2674
 1588SOL    HW116223   4.127   2.385   4.028 -1.8792 -0.5576  1.2331
 1588SOL    HW216224   4.251   2.455   4.067 -0.2971  0.6408  1.5491
 1589SOL     OW16225   2.555   3.975   1.803  0.3251 -0.3085 -0.2269
 1589SOL    HW116226   2.472   3.951   1.844  0.3208 -2.3404 -1.4242
 1589SOL    HW216227   2.598   4.008   1.882  1.9009 -1.1652 -0.7276
 1590SOL     OW16228   2.678   1.452   8.096 -0.5779  0.0491 -0.2360
 1590SOL    HW116229   2.673   1.462   8.191 -0.4233  1.5994 -0.3943
 1590SOL    HW216230   2.614   1.516   8.065  0.1237 -0.1214 -2.0540
 1591SOL     OW16231   0.758   4.264   3.758  0.2399 -0.3839  0.2001
 1591SOL    HW116232   0.812   4.341   3.741  0.7436 -0.6147  0.7860
 1591SOL    HW216233   0.827   4.199   3.770 -0.3639 -1.1893 -0.7169
 1592SOL     OW16234   4.034   4.713   5.529  0.1040  0.2734 -0.0651
 1592SOL    HW116235   3.976   4.652   5.483  2.2809 -1.6891 -0.2053
 1592SOL    HW216236   4.117   4.669   5.540 -0.6449 -0.7964  1.2846
 1593SOL     OW16237   2.307   1.675  16.686 -0.2883 -0.4983  0.1668
 1593SOL    HW116238   2.272   1.614  16.622 -0.0854  0.3274 -0.7291
 1593SOL    HW216239   2.289   1.635  16.771  2.2207 -0.8889  0.5252
 1594SOL     OW16240   3.316   2.215   8.137 -0.2328  0.2577  0.0776
 1594SOL    HW116241   3.398   2.213   8.087  0.2013  0.1158  0.7917
 1594SOL    HW216242   3.247   2.243   8.077  2.5942 -0.0060 -3.2771
 1595SOL     OW16243   1.419   4.491  12.715 -0.5218 -0.7275  0.1477
 1595SOL    HW116244   1.462   4.532  12.640  1.4019 -0.9860  1.1231
 1595SOL    HW216245   1.491   4.490  12.778  0.5200  1.5995 -1.0207
 1596SOL     OW16246   2.776   0.220   7.152 -0.1635  0.5210  0.5341
 1596SOL    HW116247   2.817   0.145   7.195  0.0225 -0.2187 -0.9412
 1596SOL    HW216248   2.850   0.247   7.096  0.9986 -0.7066  1.4799
 1597SOL     OW16249   3.264   1.046   6.508  0.4493  0.1167 -0.3032
 1597SOL    HW116250   3.276   0.973   6.448 -0.4289  0.0587 -0.4093
 1597SOL    HW216251   3.213   1.096   6.445  2.0284  0.9252 -0.9335
 1598SOL     OW16252   1.405   3.383   4.667 -0.4878 -0.3588 -0.1136
 1598SOL    HW116253   1.380   3.472   4.689 -0.2650  0.3103 -2.5778
 1598SOL    HW216254   1.441   3.351   4.750  1.3943  2.8871  0.3176
 1599SOL     OW16255   1.520   2.338   5.807  0.0154 -0.1288  0.1460
 1599SOL    HW116256   1.445   2.303   5.759  0.3077  1.1184 -1.2015
 1599SOL    HW216257   1.572   2.371   5.734 -1.2970  0.7287 -0.3943
 1600SOL     OW16258   0.252   2.840  16.290  0.0469  0.3357 -0.0014
 1600SOL    HW116259   0.166   2.843  16.247 -0.0902  4.1631  0.5601
 1600SOL    HW216260   0.232   2.775  16.357 -0.3033  0.4159 -0.0263
 1601SOL     OW16261   4.525   4.300  13.893  0.1195  0.0177 -0.6510
 1601SOL    HW116262   4.513   4.395  13.904 -1.6858 -0.2889  0.0437
 1601SOL    HW216263   4.620   4.289  13.898 -0.3024 -2.6010  1.2210
 1602SOL     OW16264   2.909   1.582  11.098  0.2730  0.1979 -0.2053
 1602SOL    HW116265   2.824   1.607  11.135  0.5076  2.9636 -1.5129
 1602SOL    HW216266   2.921   1.505  11.153 -0.8401  0.1417 -0.0347
 1603SOL     OW16267   4.301   1.619   6.988  0.0227  0.0041  0.1633
 1603SOL    HW116268   4.239   1.563   7.034 -0.0986  1.7269  2.0431
 1603SOL    HW216269   4.362   1.645   7.057 -0.9784  1.9147  0.3244
 1604SOL     OW16270   2.266   4.326   5.017  0.1947  0.3595  0.1095
 1604SOL    HW116271   2.355   4.299   4.997  0.0526  0.3103 -0.4562
 1604SOL    HW216272   2.275   4.414   4.980 -3.1052 -0.3071 -2.2682
 1605SOL     OW16273   0.556   3.146   2.491 -0.4235 -0.4243 -0.2004
 1605SOL    HW116274   0.489   3.157   2.423  1.3834  0.1299 -1.9114
 1605SOL    HW216275   0.603   3.229   2.491  1.6267 -1.5851  1.0037
 1606SOL     OW16276   0.083   1.103   4.226 -0.0847 -0.8533  0.4307
 1606SOL    HW116277   4.708   1.110   4.232  0.0029  1.5762 -1.0506
 1606SOL    HW216278   0.089   1.072   4.136  4.8913 -1.6721  1.0465
 1607SOL     OW16279   4.388   0.991   4.655  0.1120 -0.4380 -0.4058
 1607SOL    HW116280   4.452   1.055   4.623  1.0986 -1.9752 -1.4907
 1607SOL    HW216281   4.311   1.048   4.661  1.6012  1.2691  2.4904
 1608SOL     OW16282   0.067   3.130   1.285 -0.1723  0.4245  0.6091
 1608SOL    HW116283   0.136   3.082   1.239 -1.6762 -1.0900 -0.0282
 1608SOL    HW216284   0.081   3.110   1.378  1.5066 -2.4969 -0.2892
 1609SOL     OW16285   1.170   3.318   7.153 -0.0614  0.3185  0.1512
 1609SOL    HW116286   1.240   3.306   7.088 -1.1604  1.4341 -1.2474
 1609SOL    HW216287   1.222   3.304   7.232  1.2829  0.1138 -0.7581
 1610SOL     OW16288   3.166   4.508   4.374  0.1877 -0.0604 -0.8110
 1610SOL    HW116289   3.260   4.503   4.394 -0.2642 -0.5407  1.1738
 1610SOL    HW216290   3.139   4.546   4.458 -0.2866  0.4387 -1.1908
 1611SOL     OW16291   4.445   1.559   7.241 -0.5574 -0.5032 -0.5339
 1611SOL    HW116292   4.446   1.471   7.202 -1.6928 -0.8284  0.1691
 1611SOL    HW216293   4.383   1.549   7.313 -1.0859  0.0043 -0.9146
 1612SOL     OW16294   4.647   0.866  16.320  0.4822  0.3966 -0.2979
 1612SOL    HW116295   0.020   0.854  16.317  0.3115 -0.6546 -1.1716
 1612SOL    HW216296   4.640   0.879  16.415  2.2411  1.7222 -0.3539
 1613SOL     OW16297   3.184   2.705   1.462 -0.6070 -0.0510  0.4324
 1613SOL    HW116298   3.097   2.745   1.466 -1.0109 -0.4968 -4.0729
 1613SOL    HW216299   3.160   2.614   1.444 -1.0424  0.2203 -0.3668
 1614SOL     OW16300   3.982   2.102   6.901  0.3000  0.5039  0.7863
 1614SOL    HW116301   3.950   2.180   6.946  1.8002  0.9620  1.0602
 1614SOL    HW216302   3.941   2.032   6.951  1.0060  0.2627  1.0278
 1615SOL     OW16303   0.863   3.966   6.310  0.4269  0.3210 -0.2863
 1615SOL    HW116304   0.915   3.942   6.234 -1.7955 -1.3579 -1.2833
 1615SOL    HW216305   0.786   3.988   6.257 -0.3315  0.6980  0.9460
 1616SOL     OW16306   1.937   1.555   4.614 -0.3248 -0.0856 -0.2802
 1616SOL    HW116307   1.988   1.636   4.602 -0.2728  0.1488  1.4665
 1616SOL    HW216308   1.867   1.552   4.549 -0.2405 -0.2819 -0.3609
 1617SOL     OW16309   1.761   4.185   4.275 -0.4451  0.5536 -0.3640
 1617SOL    HW116310   1.690   4.177   4.339  1.0956 -0.6192  1.1863
 1617SOL    HW216311   1.839   4.186   4.330 -0.7935 -0.0259  0.1440
 1618SOL     OW16312   3.280   2.453   3.299  0.4964  0.1013 -0.3800
 1618SOL    HW116313   3.231   2.481   3.221  0.3419 -0.9676 -0.6701
 1618SOL    HW216314   3.355   2.512   3.298 -0.6917  1.6252 -0.4237
 1619SOL     OW16315   3.965   1.858  10.336  0.2437  0.2339 -0.0728
 1619SOL    HW116316   4.055   1.858  10.304 -0.8589 -2.2454 -3.1255
 1619SOL    HW216317   3.973   1.935  10.393 -0.1638  1.4352 -1.6311
 1620SOL     OW16318   3.192   1.052   9.971 -0.0478  0.1208  0.2895
 1620SOL    HW116319   3.224   0.976  10.021  3.2124  1.0662 -0.3672
 1620SOL    HW216320   3.218   1.033   9.881 -2.3697 -0.6391 -0.2337
 1621SOL     OW16321   2.980   4.442   5.756 -0.5049  0.1323  0.1220
 1621SOL    HW116322   2.932   4.501   5.697  1.7054  1.1714 -0.6206
 1621SOL    HW216323   3.067   4.481   5.766 -0.6036  0.5354 -0.5623
 1622SOL     OW16324   3.850   2.444  12.544 -0.0272  0.0655  0.1378
 1622SOL    HW116325   3.824   2.499  12.618 -0.1342  0.1848  0.0108
 1622SOL    HW216326   3.780   2.464  12.482 -2.0272 -0.4872  2.2212
 1623SOL     OW16327   1.910   3.094   8.288 -0.1853 -0.1804  0.2225
 1623SOL    HW116328   1.855   3.143   8.350 -0.7442  0.5762 -0.8808
 1623SOL    HW216329   1.877   3.006   8.303  0.3596 -0.4387 -0.0765
 1624SOL     OW16330   4.174   0.479   8.579  0.0948  0.6976  0.3337
 1624SOL    HW116331   4.080   0.468   8.595  0.1964 -1.4622 -0.7057
 1624SOL    HW216332   4.163   0.550   8.516  2.3079  1.2825  0.5986
 1625SOL     OW16333   0.874   3.274   2.969  0.3006  0.1152 -0.3216
 1625SOL    HW116334   0.872   3.313   2.882  2.5104  0.8746 -0.0144
 1625SOL    HW216335   0.955   3.224   2.959 -1.0651 -2.3777  0.9131
 1626SOL     OW16336   1.563   1.511  10.726 -0.3393 -0.4869 -0.3212
 1626SOL    HW116337   1.602   1.423  10.727 -2.1865 -1.2968 -0.9451
 1626SOL    HW216338   1.525   1.517  10.639  0.3081 -2.5296 -0.7437
 1627SOL     OW16339   0.983   4.380   3.627 -0.6588  0.2731 -0.1824
 1627SOL    HW116340   0.995   4.459   3.680  1.5555 -1.1017  1.3744
 1627SOL    HW216341   1.071   4.344   3.633 -0.8953 -0.2835 -0.0314
 1628SOL     OW16342   3.891   4.025   1.382  0.6673 -0.2987  0.5412
 1628SOL    HW116343   3.916   4.054   1.294 -0.4729  1.8555  0.9481
 1628SOL    HW216344   3.969   4.053   1.430 -0.7182 -0.2065  2.7236
 1629SOL     OW16345   2.192   0.731  10.363 -0.0689 -0.0148  0.3431
 1629SOL    HW116346   2.108   0.707  10.324 -0.0609  2.7443 -1.3778
 1629SOL    HW216347   2.258   0.680  10.316  0.4827  2.2968 -1.4171
 1630SOL     OW16348   1.727   1.552   5.894  0.2279 -0.1860  0.2096
 1630SOL    HW116349   1.656   1.490   5.877 -0.0959 -0.4091  2.3083
 1630SOL    HW216350   1.777   1.553   5.813  1.9253  1.3674  1.2948
 1631SOL     OW16351   0.290   1.888   3.689 -0.4382  0.1767 -0.1450
 1631SOL    HW116352   0.266   1.807   3.644 -3.0095  0.8247  0.0499
 1631SOL    HW216353   0.337   1.856   3.766  2.8008  1.7811 -1.4489
 1632SOL     OW16354   4.282   2.357   5.543 -0.5854 -0.2048 -0.6953
 1632SOL    HW116355   4.333   2.285   5.581 -1.0857 -0.5843 -0.7483
 1632SOL    HW216356   4.346   2.393   5.482  0.3481  0.4600  0.6616
 1633SOL     OW16357   0.297   2.427   1.957  0.3947  0.1074 -0.1285
 1633SOL    HW116358   0.236   2.390   2.020 -0.3403 -0.2731 -1.0637
 1633SOL    HW216359   0.366   2.361   1.955 -0.2922 -0.6338  0.3025
 1634SOL     OW16360   1.661   1.885  11.400  0.0994 -0.0100 -0.0051
 1634SOL    HW116361   1.631   1.840  11.479  1.3179  0.1207  0.5405
 1634SOL    HW216362   1.719   1.939  11.454  1.5557 -1.7802  0.2221
 1635SOL     OW16363   4.149   0.552   2.923 -0.3733  0.5721  0.7313
 1635SOL    HW116364   4.058   0.552   2.892 -0.0391 -0.9440 -0.3007
 1635SOL    HW216365   4.184   0.483   2.866  0.4297  1.7072 -0.1441
 1636SOL     OW16366   3.161   1.941   8.617  0.1153  0.4168 -0.7934
 1636SOL    HW116367   3.189   1.863   8.569  2.6470  1.1885 -0.5754
 1636SOL    HW216368   3.182   1.932   8.710 -0.0320 -0.0081 -0.8008
 1637SOL     OW16369   3.708   4.181   6.461  0.5020 -0.3896  0.1968
 1637SOL    HW116370   3.802   4.178   6.476  0.8116  2.0763 -1.1479
 1637SOL    HW216371   3.673   4.189   6.550  0.7621 -0.3094  0.2897
 1638SOL     OW16372   2.393   4.070   8.635  0.8319 -0.0289  0.1912
 1638SOL    HW116373   2.374   3.977   8.651 -0.6388  0.4032  0.9769
 1638SOL    HW216374   2.363   4.116   8.713  1.5364 -0.7184  0.8632
 1639SOL     OW16375   4.054   3.327  15.718 -0.1491 -0.3804  0.4849
 1639SOL    HW116376   4.006   3.317  15.800 -0.7719 -0.8952  0.0619
 1639SOL    HW216377   4.103   3.245  15.711 -1.2611 -1.0527  0.4665
 1640SOL     OW16378   1.639   2.925  11.910  0.6155  0.0796  0.0071
 1640SOL    HW116379   1.700   2.913  11.983  0.7503  1.0350  0.0496
 1640SOL    HW216380   1.693   2.939  11.832  0.8088 -1.1692 -0.0834
 1641SOL     OW16381   0.051   0.630  11.580 -0.1365 -0.2378  0.0821
 1641SOL    HW116382   0.103   0.678  11.645  1.8015 -0.2284 -1.4564
 1641SOL    HW216383   0.119   0.600  11.519  0.4962  1.2778  0.0382
 1642SOL     OW16384   1.920   2.450   0.873 -0.1999 -0.2702  0.1796
 1642SOL    HW116385   1.951   2.541   0.874 -0.9623 -0.0123  0.3852
 1642SOL    HW216386   1.828   2.474   0.885  0.7344  2.4792  1.7110
 1643SOL     OW16387   0.292   3.588   8.754  0.3127  0.0765  0.0543
 1643SOL    HW116388   0.309   3.606   8.661 -0.7338  0.3576 -0.0839
 1643SOL    HW216389   0.238   3.664   8.777  0.2422  0.2057 -0.5343
 1644SOL     OW16390   0.775   3.769  15.402  0.3994 -0.0231 -0.1747
 1644SOL    HW116391   0.818   3.844  15.361  2.4887 -0.7222  0.7529
 1644SOL    HW216392   0.733   3.722  15.330 -0.9189 -0.7683  1.0734
 1645SOL     OW16393   2.561   1.849   7.178  0.2694 -0.2413 -0.5437
 1645SOL    HW116394   2.630   1.799   7.133 -0.6846 -2.1141  0.0510
 1645SOL    HW216395   2.582   1.937   7.147 -1.2420  1.1806  2.5166
 1646SOL     OW16396   4.428   1.106  13.502  0.0076 -0.3952 -0.3087
 1646SOL    HW116397   4.334   1.112  13.519  0.6354  0.9376  2.6927
 1646SOL    HW216398   4.436   1.176  13.438  0.6069  0.3835  0.6174
 1647SOL     OW16399   0.866   2.634   7.300 -0.2378 -0.2674 -0.2506
 1647SOL    HW116400   0.954   2.596   7.292 -0.7491 -1.2719 -0.9979
 1647SOL    HW216401   0.883   2.727   7.285  1.4142 -0.2804  1.4668
 1648SOL     OW16402   0.745   2.130   4.725 -0.4739  0.5242 -0.1968
 1648SOL    HW116403   0.701   2.189   4.664  0.2495  1.9099  0.6395
 1648SOL    HW216404   0.698   2.141   4.808  0.5833  0.8040  0.3612
 1649SOL     OW16405   0.484   0.414  10.716  0.0538 -0.2235 -0.2085
 1649SOL    HW116406   0.493   0.427  10.621 -1.1314  2.2612  0.0096
 1649SOL    HW216407   0.549   0.477  10.747  0.0194 -0.1122 -0.3578
 1650SOL     OW16408   3.398   2.912  13.964  0.3296  0.3867 -0.0735
 1650SOL    HW116409   3.346   2.837  13.936  1.1698 -0.0574 -0.4570
 1650SOL    HW216410   3.465   2.870  14.019  0.7814  0.7007 -0.3813
 1651SOL     OW16411   3.130   3.628   0.786  0.6103 -0.1000 -0.1644
 1651SOL    HW116412   3.203   3.588   0.833  0.5838  2.4141  2.0604
 1651SOL    HW216413   3.142   3.721   0.805 -2.8133  0.0440  1.4226
 1652SOL     OW16414   0.716   0.809   0.473 -0.3295 -0.4901  0.1877
 1652SOL    HW116415   0.701   0.857   0.392  0.8613 -1.5045 -0.6385
 1652SOL    HW216416   0.752   0.880   0.525 -1.5592 -0.5452  1.1162
 1653SOL     OW16417   2.588   4.241   3.017  0.5836  0.5060 -0.5220
 1653SOL    HW116418   2.633   4.295   2.952 -2.0478 -0.1891 -2.8910
 1653SOL    HW216419   2.534   4.183   2.964 -0.8200  0.3177  1.1424
 1654SOL     OW16420   4.205   0.227   6.529  0.1274 -0.3194 -0.2248
 1654SOL    HW116421   4.180   0.291   6.463 -0.7159  3.6032  3.8676
 1654SOL    HW216422   4.299   0.243   6.537  0.2214 -0.7420 -0.5208
 1655SOL     OW16423   3.971   4.478   2.485  0.5066 -0.9730 -0.7647
 1655SOL    HW116424   3.952   4.418   2.412 -0.2525  0.1026 -1.4588
 1655SOL    HW216425   3.933   4.557   2.447  0.2158 -0.6609  0.1820
 1656SOL     OW16426   3.185   2.453   1.253  0.0091 -0.4211  0.0239
 1656SOL    HW116427   3.163   2.364   1.280 -2.4140  0.3035  0.3874
 1656SOL    HW216428   3.278   2.455   1.278  0.4341  0.8440 -1.7041
 1657SOL     OW16429   0.568   2.166   8.306 -0.2580  0.0922 -0.3691
 1657SOL    HW116430   0.522   2.082   8.309  0.3980 -0.1871  1.8343
 1657SOL    HW216431   0.603   2.169   8.395  0.1848 -0.7412 -0.5119
 1658SOL     OW16432   0.944   3.192   6.596  0.9488  0.2330 -0.1670
 1658SOL    HW116433   0.954   3.223   6.505  0.4185 -1.1114 -0.6723
 1658SOL    HW216434   0.867   3.136   6.597 -0.4587  2.1569 -0.3294
 1659SOL     OW16435   1.974   0.466   9.470 -0.3392 -0.0622 -0.1854
 1659SOL    HW116436   1.948   0.532   9.533 -1.2967 -0.8625  0.2454
 1659SOL    HW216437   2.013   0.520   9.401  1.1161 -0.4476  0.3366
 1660SOL     OW16438   0.305   2.680   0.284 -0.9714  0.3992 -0.6591
 1660SOL    HW116439   0.333   2.772   0.285  3.1168 -0.8239 -1.9872
 1660SOL    HW216440   0.286   2.674   0.378 -1.6914 -1.1062 -0.9084
 1661SOL     OW16441   0.763   1.605   2.211  0.2560  0.1510  0.7628
 1661SOL    HW116442   0.672   1.578   2.222 -0.8115  2.6033 -1.7438
 1661SOL    HW216443   0.773   1.676   2.275  0.1428  2.0463 -1.3061
 1662SOL     OW16444   2.323   3.825   8.722 -0.2071  0.0100  0.1774
 1662SOL    HW116445   2.371   3.828   8.805  1.4826 -2.1510 -0.7181
 1662SOL    HW216446   2.239   3.789   8.749  0.0465 -0.6758  0.0689
 1663SOL     OW16447   3.096   3.997  17.095 -0.2483  0.4525  0.3184
 1663SOL    HW116448   3.133   4.076  17.134 -0.3661  0.7222 -0.1232
 1663SOL    HW216449   3.062   3.954  17.174 -1.5987 -0.6754 -0.8890
 1664SOL     OW16450   2.642   4.404   3.678  0.4849 -0.0037  0.1141
 1664SOL    HW116451   2.635   4.309   3.691 -0.7629 -0.3831 -3.3154
 1664SOL    HW216452   2.708   4.411   3.609  1.2599 -1.8649  0.6639
 1665SOL     OW16453   0.925   0.315  10.018  0.3685  0.3855  0.2662
 1665SOL    HW116454   0.971   0.240  10.056 -0.9838  0.2190  1.5628
 1665SOL    HW216455   0.957   0.387  10.072  1.5690 -0.6791  0.9583
 1666SOL     OW16456   1.292   3.864  10.432  0.1332  0.1370  0.2939
 1666SOL    HW116457   1.275   3.854  10.525 -1.0159 -0.8030 -0.0100
 1666SOL    HW216458   1.375   3.912  10.427  0.0557  0.2800  0.3933
 1667SOL     OW16459   2.896   1.049   7.206 -0.4289 -0.2505  0.1904
 1667SOL    HW116460   2.980   1.081   7.240  0.1247  0.4592 -1.8259
 1667SOL    HW216461   2.847   1.130   7.195  0.2064 -0.2901 -2.9496
 1668SOL     OW16462   1.539   1.035   5.262 -0.2699  0.2059 -0.4515
 1668SOL    HW116463   1.556   0.943   5.239  1.4782  0.4020  0.0659
 1668SOL    HW216464   1.558   1.086   5.183  3.7322  2.3706  1.9238
 1669SOL     OW16465   4.601   3.481   3.827 -0.5393 -0.1580  0.4754
 1669SOL    HW116466   4.669   3.445   3.884  0.3894 -0.1699 -0.6112
 1669SOL    HW216467   4.622   3.574   3.838  1.3969 -0.5090 -0.2015
 1670SOL     OW16468   0.789   3.699   7.495  0.0815 -0.5147  0.2977
 1670SOL    HW116469   0.695   3.720   7.496  0.5240  1.5343 -0.5697
 1670SOL    HW216470   0.791   3.631   7.562  1.0105 -2.2008 -1.4190
 1671SOL     OW16471   2.633   0.328   7.958 -0.0191 -0.1153  0.1078
 1671SOL    HW116472   2.683   0.316   8.039  0.3354  0.4996 -0.0184
 1671SOL    HW216473   2.545   0.339   7.992  0.5947  3.7909  0.4643
 1672SOL     OW16474   4.707   1.518   3.242 -0.0474 -0.2417 -0.4303
 1672SOL    HW116475   0.043   1.595   3.238  1.7350 -1.6063 -1.5378
 1672SOL    HW216476   4.655   1.548   3.168  1.6714  1.6839 -0.8614
 1673SOL     OW16477   2.872   1.648   2.981 -0.0818  0.5891 -0.2043
 1673SOL    HW116478   2.887   1.739   2.954 -2.8882  1.5015  1.2546
 1673SOL    HW216479   2.952   1.647   3.035 -0.0346 -1.3278 -0.3327
 1674SOL     OW16480   0.528   1.017  14.092 -1.0204  0.5006 -0.2111
 1674SOL    HW116481   0.593   1.083  14.069 -0.0510  0.3019  1.9958
 1674SOL    HW216482   0.547   0.955  14.022 -0.7662  0.5651 -0.1967
 1675SOL     OW16483   2.588   3.842   6.190  0.2264  0.3768 -0.1483
 1675SOL    HW116484   2.599   3.934   6.214 -0.3003  1.4313 -4.0364
 1675SOL    HW216485   2.545   3.802   6.266 -1.2514  1.2858 -0.5211
 1676SOL     OW16486   2.814   0.687  16.441  0.0407  0.4885  0.9549
 1676SOL    HW116487   2.776   0.602  16.462 -0.0728 -0.2720 -2.3701
 1676SOL    HW216488   2.738   0.744  16.428  1.2069  1.6613 -0.6968
 1677SOL     OW16489   3.493   2.461  17.017  0.4742  0.0694 -0.6104
 1677SOL    HW116490   3.580   2.426  17.000  0.1758 -0.0415 -1.8588
 1677SOL    HW216491   3.510   2.556  17.019  2.0483 -0.2422  0.4476
 1678SOL     OW16492   1.936   3.148  15.266  0.3723 -0.0322  0.0750
 1678SOL    HW116493   1.906   3.138  15.357 -0.2446  1.2277  0.0082
 1678SOL    HW216494   1.876   3.212  15.229 -1.7845 -1.2295  1.4900
 1679SOL     OW16495   3.038   4.022   2.342 -0.0294  0.1428 -0.0382
 1679SOL    HW116496   3.020   3.950   2.282  2.8690 -0.7195  0.1167
 1679SOL    HW216497   3.020   3.969   2.419  0.4012  0.3688  0.2196
 1680SOL     OW16498   1.620   4.434  15.621  0.6018  0.1153  0.4805
 1680SOL    HW116499   1.681   4.364  15.599 -0.3077 -0.3007 -0.6944
 1680SOL    HW216500   1.571   4.450  15.541 -1.7295 -1.4713  1.6000
 1681SOL     OW16501   1.664   1.086   4.210  0.3608  0.1973 -0.5901
 1681SOL    HW116502   1.612   1.137   4.273  0.0636  1.3568 -1.7734
 1681SOL    HW216503   1.619   1.003   4.195  2.5684 -0.9011 -1.1032
 1682SOL     OW16504   0.811   1.756   2.474 -0.1013 -0.1734  0.5577
 1682SOL    HW116505   0.782   1.841   2.507  2.0308  1.7375 -2.4632
 1682SOL    HW216506   0.898   1.750   2.511  0.4108 -1.1978 -0.8179
 1683SOL     OW16507   1.914   1.606   7.163 -0.4926  0.5761  0.4876
 1683SOL    HW116508   1.941   1.522   7.200  0.3231 -0.9254 -3.5591
 1683SOL    HW216509   1.820   1.595   7.179 -0.5807  0.3905 -0.1668
 1684SOL     OW16510   2.172   1.078  10.338 -0.0289 -0.2105  0.1431
 1684SOL    HW116511   2.236   1.066  10.408 -0.0422 -1.0343  0.0125
 1684SOL    HW216512   2.192   0.997  10.290 -0.9757  1.2227 -2.7030
 1685SOL     OW16513   0.911   1.267   4.156  0.1250  0.2286 -0.6680
 1685SOL    HW116514   0.838   1.224   4.113  1.5582 -2.3726 -0.5231
 1685SOL    HW216515   0.971   1.193   4.167  0.5127  0.6455  0.0171
 1686SOL     OW16516   1.721   3.628   6.143  0.6619  0.2104  0.3963
 1686SOL    HW116517   1.666   3.586   6.209 -0.1441 -1.1913 -1.1511
 1686SOL    HW216518   1.786   3.674   6.196  1.0191  0.0943  0.0610
 1687SOL     OW16519   4.662   1.401   6.169  0.3814  0.2492  0.8244
 1687SOL    HW116520   4.622   1.353   6.097  2.1979 -0.9948  0.6466
 1687SOL    HW216521   0.019   1.354   6.197  0.4563  0.0994  0.3722
 1688SOL     OW16522   2.719   4.025   4.995  0.4688 -0.2866 -0.3136
 1688SOL    HW116523   2.799   3.992   5.035 -0.2518 -1.5427  0.1151
 1688SOL    HW216524   2.678   3.955   4.944 -1.6568  0.9308 -0.2753
 1689SOL     OW16525   3.679   2.146   9.782 -0.5459  0.2397  0.2248
 1689SOL    HW116526   3.700   2.226   9.733  0.4600 -0.2012 -0.0575
 1689SOL    HW216527   3.761   2.102   9.801  0.5314  1.5596 -1.2912
 1690SOL     OW16528   4.595   0.810   7.165  0.0850 -0.3402  0.2282
 1690SOL    HW116529   4.535   0.745   7.202  0.5147  0.0669  1.6133
 1690SOL    HW216530   4.552   0.895   7.178  2.4765  0.5914  2.0729
 1691SOL     OW16531   3.715   4.502   1.454 -0.1089  0.5295  0.3892
 1691SOL    HW116532   3.724   4.596   1.471 -0.3826  0.6267  0.0136
 1691SOL    HW216533   3.802   4.475   1.426 -0.6349 -0.3441 -0.4077
 1692SOL     OW16534   0.832   1.223   7.003  0.8016  0.0997  0.6111
 1692SOL    HW116535   0.740   1.248   6.995  0.7132  0.1475  1.6585
 1692SOL    HW216536   0.824   1.128   7.015 -2.3423  0.3490  0.3724
 1693SOL     OW16537   1.660   2.565  10.731 -0.8739 -0.3035 -0.5634
 1693SOL    HW116538   1.711   2.596  10.806 -1.0837 -0.0686 -0.5166
 1693SOL    HW216539   1.704   2.612  10.660 -0.6370  1.9362  1.0472
 1694SOL     OW16540   2.641   3.391   8.084 -0.0719  0.1310 -0.5240
 1694SOL    HW116541   2.666   3.302   8.108  2.0549  0.5117 -1.3689
 1694SOL    HW216542   2.571   3.366   8.024 -1.7087  0.3622  1.2769
 1695SOL     OW16543   1.212   0.607   0.791  0.6112  0.0082 -0.5022
 1695SOL    HW116544   1.303   0.585   0.774  0.8566  0.5256  0.1750
 1695SOL    HW216545   1.204   0.668   0.718  1.7569  0.6917 -0.0495
 1696SOL     OW16546   3.803   0.697   8.893  0.2087 -0.0156  0.2517
 1696SOL    HW116547   3.716   0.680   8.856 -0.1239 -0.6668  1.3355
 1696SOL    HW216548   3.818   0.617   8.944  2.0421 -0.1593 -0.5179
 1697SOL     OW16549   2.206   2.905   7.216  0.1464  0.4836 -0.1723
 1697SOL    HW116550   2.142   2.962   7.258 -1.0187 -0.4112 -0.7192
 1697SOL    HW216551   2.262   2.879   7.288  0.9750 -0.8446 -1.2991
 1698SOL     OW16552   0.795   0.560  15.694  0.2532  0.4118 -0.1802
 1698SOL    HW116553   0.856   0.622  15.734 -1.6063  1.3893  1.1251
 1698SOL    HW216554   0.802   0.578  15.600  1.6787  0.9003  0.0236
 1699SOL     OW16555   4.499   0.062  11.841  0.9023 -0.7585  0.1921
 1699SOL    HW116556   4.479   0.001  11.912 -0.1410  1.5473  1.8734
 1699SOL    HW216557   4.437   0.022  11.780 -1.9601  0.8843  2.0401
 1700SOL     OW16558   0.084   0.754  12.336  0.2338  0.3629  0.1245
 1700SOL    HW116559   0.150   0.821  12.350 -0.8978  1.4951  0.0623
 1700SOL    HW216560   0.035   0.799  12.266  1.7078 -0.4322 -1.4104
 1701SOL     OW16561   0.436   1.815   6.557 -0.0682  0.6183 -0.1699
 1701SOL    HW116562   0.348   1.806   6.594  0.2545  0.2807  0.5154
 1701SOL    HW216563   0.417   1.879   6.489 -1.7802 -0.1188 -0.3674
 1702SOL     OW16564   2.783   3.395   8.525  0.1644  0.2387  0.1559
 1702SOL    HW116565   2.808   3.329   8.461 -1.6146  0.3275 -0.6440
 1702SOL    HW216566   2.730   3.453   8.470  0.6515 -0.1583 -0.7258
 1703SOL     OW16567   2.129   4.598   4.083 -0.7820 -0.1806 -0.4256
 1703SOL    HW116568   2.153   4.614   3.992 -1.6460 -1.3539 -0.8639
 1703SOL    HW216569   2.208   4.553   4.113 -0.9142  0.1926  0.4983
 1704SOL     OW16570   0.617   3.707   8.682  0.3040  0.4993  0.1715
 1704SOL    HW116571   0.655   3.788   8.648  1.2528  0.0423  0.1436
 1704SOL    HW216572   0.539   3.735   8.730  0.7802  2.0883  0.0130
 1705SOL     OW16573   1.183   4.279   5.573  0.3436  0.3828  0.2245
 1705SOL    HW116574   1.088   4.264   5.577  0.4268 -0.2589 -0.1255
 1705SOL    HW216575   1.199   4.363   5.532  1.1512  0.8450  1.4752
 1706SOL     OW16576   3.580   0.178   4.432 -0.4865 -0.2694  0.2238
 1706SOL    HW116577   3.559   0.270   4.417  0.1081 -0.2916 -0.7335
 1706SOL    HW216578   3.639   0.162   4.358 -0.9641  1.5765 -0.5438
 1707SOL     OW16579   4.022   0.406   7.597  0.1014 -0.1767  0.5168
 1707SOL    HW116580   4.045   0.498   7.590  0.8411 -0.2311  2.1908
 1707SOL    HW216581   3.999   0.379   7.508  0.0904  2.8394 -0.4020
 1708SOL     OW16582   1.566   1.846   5.751 -0.0211 -0.4298  0.1578
 1708SOL    HW116583   1.541   1.889   5.669 -4.1764 -0.3166  1.4407
 1708SOL    HW216584   1.510   1.769   5.756  0.0639 -0.5799 -1.2356
 1709SOL     OW16585   3.517   3.131  17.029  0.3187 -0.2532  0.3288
 1709SOL    HW116586   3.538   3.219  16.997  2.5058 -0.5526  0.9152
 1709SOL    HW216587   3.566   3.121  17.110 -2.5694 -1.1393  1.9373
 1710SOL     OW16588   4.530   2.594   6.770  0.2494  0.5489 -0.0201
 1710SOL    HW116589   4.471   2.667   6.788  1.2212  0.8278  2.0777
 1710SOL    HW216590   4.556   2.565   6.858 -0.4694 -1.0854 -0.3479
 1711SOL     OW16591   3.475   1.938   6.290 -0.1756 -0.7036  0.7891
 1711SOL    HW116592   3.457   2.007   6.354 -0.3456 -0.2121  0.2138
 1711SOL    HW216593   3.570   1.952   6.280 -0.2986  0.1973  0.8754
 1712SOL     OW16594   3.213   3.637   6.882  0.5400  0.0062 -0.5374
 1712SOL    HW116595   3.154   3.572   6.920  1.1075  1.0393  2.1508
 1712SOL    HW216596   3.155   3.712   6.893 -0.0258 -0.4672 -0.2629
 1713SOL     OW16597   4.141   4.138   4.145  0.2901  0.1436  0.6364
 1713SOL    HW116598   4.179   4.191   4.075 -1.1724  0.1295 -0.1768
 1713SOL    HW216599   4.136   4.055   4.097 -0.2125  0.3824  0.2701
 1714SOL     OW16600   0.782   1.807   8.281 -0.3646 -0.7508 -0.0603
 1714SOL    HW116601   0.734   1.802   8.198  1.0528  1.4812 -1.0277
 1714SOL    HW216602   0.849   1.738   8.273  0.7354  0.4331 -1.0857
 1715SOL     OW16603   4.109   4.577   3.932 -0.0579  0.1735  0.3428
 1715SOL    HW116604   4.127   4.624   4.013  0.4472  1.3230 -0.4300
 1715SOL    HW216605   4.127   4.648   3.870  0.7208  0.4851  0.9329
 1716SOL     OW16606   2.917   3.453   2.362  0.1752  0.2625  0.3103
 1716SOL    HW116607   2.906   3.382   2.425 -0.9323  0.2779  0.1326
 1716SOL    HW216608   2.838   3.503   2.383 -2.6067 -3.8637 -0.2671
 1717SOL     OW16609   3.674   3.928  16.199  0.3673 -0.1545  0.3664
 1717SOL    HW116610   3.651   3.913  16.107 -2.2868  0.7194  0.8841
 1717SOL    HW216611   3.631   4.012  16.216  2.4951  0.7547  1.3807
 1718SOL     OW16612   1.748   3.210   6.209 -0.3158  0.2233  0.4953
 1718SOL    HW116613   1.715   3.251   6.289  0.4693 -0.3689  1.1273
 1718SOL    HW216614   1.842   3.210   6.227 -0.1364 -1.4507 -0.3938
 1719SOL     OW16615   4.478   3.871   5.967  0.1762 -0.5596  0.2970
 1719SOL    HW116616   4.545   3.851   5.902 -0.5242  0.9348 -0.8997
 1719SOL    HW216617   4.533   3.872   6.045  1.1803 -0.7417 -0.4091
 1720SOL     OW16618   3.539   0.453  14.013 -0.4087 -0.3711  0.6065
 1720SOL    HW116619   3.542   0.431  13.920  2.0308 -0.8397  0.7808
 1720SOL    HW216620   3.445   0.459  14.025 -0.7683 -1.7362 -1.5470
 1721SOL     OW16621   1.415   0.056   2.377  0.0362  0.2045  0.1843
 1721SOL    HW116622   1.425   4.692   2.336  2.3060 -0.0509  1.3056
 1721SOL    HW216623   1.350   0.096   2.318 -0.6897 -1.0801  0.1236
 1722SOL     OW16624   0.493   2.510   3.244  0.1293 -0.4117 -0.8523
 1722SOL    HW116625   0.520   2.597   3.216  1.1200 -0.3233  0.4018
 1722SOL    HW216626   0.532   2.482   3.327  3.0946 -0.3093 -2.2400
 1723SOL     OW16627   0.733   1.449  11.623 -0.3415  0.2294 -1.1482
 1723SOL    HW116628   0.760   1.500  11.547  1.0855  0.1344 -0.7015
 1723SOL    HW216629   0.815   1.423  11.666 -1.3097  1.3721  1.3815
 1724SOL     OW16630   3.910   1.077   1.519  0.1104 -0.4969  0.0453
 1724SOL    HW116631   3.954   1.130   1.586 -2.8985  1.1141  0.7440
 1724SOL    HW216632   3.834   1.041   1.564  1.1246 -2.8241 -0.0843
 1725SOL     OW16633   1.032   2.344   3.804  0.3650 -0.1514  0.5113
 1725SOL    HW116634   1.122   2.375   3.811  0.7302 -0.8804 -0.9586
 1725SOL    HW216635   0.990   2.410   3.860  1.9350 -0.6109  2.2437
 1726SOL     OW16636   4.527   4.109  10.890 -0.1376  0.3261 -0.5858
 1726SOL    HW116637   4.463   4.147  10.831 -1.3544 -0.3240  0.3190
 1726SOL    HW216638   4.533   4.175  10.960 -0.7847  0.3707 -0.5750
 1727SOL     OW16639   2.771   1.794  14.887  0.2759  0.0021  0.1120
 1727SOL    HW116640   2.857   1.776  14.849 -1.7169  0.0530 -4.4822
 1727SOL    HW216641   2.782   1.751  14.971  2.1678 -1.3973 -0.8526
 1728SOL     OW16642   2.569   1.639   9.636  0.1918 -0.2088 -0.0705
 1728SOL    HW116643   2.530   1.578   9.700 -0.9024  0.7138  0.1276
 1728SOL    HW216644   2.505   1.709   9.633  0.1981 -0.1357  1.4203
 1729SOL     OW16645   3.628   0.318   8.725 -0.1185 -0.9614 -0.2896
 1729SOL    HW116646   3.559   0.383   8.743  1.8028  0.5906  1.4502
 1729SOL    HW216647   3.592   0.283   8.644  0.9637 -1.8730 -0.3663
 1730SOL     OW16648   4.463   1.812   5.170 -0.1460 -0.1675 -0.0489
 1730SOL    HW116649   4.405   1.737   5.167 -2.8666  1.9555 -1.1792
 1730SOL    HW216650   4.479   1.840   5.079  1.6403 -0.3505  0.2189
 1731SOL     OW16651   4.449   0.626   4.539  0.1797 -0.0083 -0.7301
 1731SOL    HW116652   4.365   0.598   4.502 -0.5044  1.7724 -0.4932
 1731SOL    HW216653   4.494   0.555   4.493  2.0394 -0.1744  1.3272
 1732SOL     OW16654   2.121   4.618   4.971  0.2790  0.4816 -0.1652
 1732SOL    HW116655   2.158   4.559   4.906  1.0894 -0.7338  1.4033
 1732SOL    HW216656   2.094   4.689   4.912 -0.8274  0.1182 -0.0949
 1733SOL     OW16657   2.100   0.289  12.353 -0.3803  0.3168  0.3254
 1733SOL    HW116658   2.163   0.250  12.415 -2.0605  0.2906  2.0230
 1733SOL    HW216659   2.027   0.298  12.414 -0.1782 -0.4830  0.6991
 1734SOL     OW16660   1.109   1.638   2.264  0.2033 -0.0748  0.1152
 1734SOL    HW116661   1.186   1.634   2.320 -1.0954 -0.2687  1.9114
 1734SOL    HW216662   1.114   1.552   2.222  0.6766  0.1236 -0.2349
 1735SOL     OW16663   3.660   2.511   8.735 -0.0569  0.3172 -0.2423
 1735SOL    HW116664   3.717   2.436   8.751 -0.9121  0.2076  2.2150
 1735SOL    HW216665   3.580   2.478   8.775  0.7814 -2.2202 -0.7046
 1736SOL     OW16666   1.245   4.614   6.719 -0.0416  0.2493  0.2309
 1736SOL    HW116667   1.168   4.641   6.769  2.0629  0.2592  3.4045
 1736SOL    HW216668   1.296   4.615   6.800  0.6875 -1.6081 -0.1953
 1737SOL     OW16669   0.617   4.247   3.981 -0.0126 -0.0295 -0.1193
 1737SOL    HW116670   0.612   4.154   3.957  0.5680 -1.0149  3.5439
 1737SOL    HW216671   0.642   4.287   3.898  1.2158 -0.4945  0.0329
 1738SOL     OW16672   4.478   4.681   7.910  0.8998  0.0490 -0.0251
 1738SOL    HW116673   4.437   4.618   7.969 -1.3249  1.5361  0.0363
 1738SOL    HW216674   4.417   4.675   7.836  0.9530 -0.3484 -0.0357
 1739SOL     OW16675   4.436   1.231   4.456  0.4377 -0.5516 -0.1618
 1739SOL    HW116676   4.415   1.286   4.531  1.1264 -0.1183 -0.2820
 1739SOL    HW216677   4.447   1.296   4.386 -1.0035  0.0318  0.1698
 1740SOL     OW16678   0.508   3.608   7.869 -0.0207  0.2065 -0.6769
 1740SOL    HW116679   0.519   3.671   7.941 -1.8495  1.4756 -1.5140
 1740SOL    HW216680   0.413   3.613   7.858 -0.3263 -4.6389 -0.4143
 1741SOL     OW16681   2.380   4.524   5.455  0.1644 -0.7022  0.0124
 1741SOL    HW116682   2.313   4.490   5.396 -1.1646  1.8087  0.0634
 1741SOL    HW216683   2.458   4.475   5.428  0.0342  1.4988 -4.3538
 1742SOL     OW16684   2.391   0.673  11.596 -0.4817 -0.2430  0.1655
 1742SOL    HW116685   2.480   0.684  11.563 -0.0882 -4.7421 -0.2695
 1742SOL    HW216686   2.409   0.702  11.685  0.7558  2.8963 -1.1131
 1743SOL     OW16687   4.331   1.436   6.107  0.2437  0.2950 -0.6116
 1743SOL    HW116688   4.329   1.523   6.145  0.8846  0.1128 -0.1555
 1743SOL    HW216689   4.367   1.388   6.182 -0.7150 -0.1253 -0.4190
 1744SOL     OW16690   4.409   0.117   6.290 -0.1933 -0.4541  0.3030
 1744SOL    HW116691   4.370   0.049   6.345  0.1075 -0.3233  0.6852
 1744SOL    HW216692   4.417   0.072   6.206  1.0093  2.3099 -1.0663
 1745SOL     OW16693   2.348   0.492  10.273 -0.0749 -0.9579  0.9222
 1745SOL    HW116694   2.426   0.542  10.248 -1.1550 -0.6664 -1.8748
 1745SOL    HW216695   2.378   0.410  10.312  0.8895 -0.3978  1.3714
 1746SOL     OW16696   4.452   2.808   8.020  0.0345 -0.1808 -0.0283
 1746SOL    HW116697   4.546   2.821   8.029 -0.0790 -0.3336  1.4055
 1746SOL    HW216698   4.463   2.736   7.958  1.1824 -0.4078  0.4436
 1747SOL     OW16699   3.040   4.163   8.874 -0.0001  0.0027  0.1959
 1747SOL    HW116700   3.009   4.093   8.932  3.1969 -1.9370 -0.4267
 1747SOL    HW216701   3.125   4.135   8.841 -0.1514  0.7742 -0.8354
 1748SOL     OW16702   2.744   0.746   5.978 -0.1799  0.3196  0.4498
 1748SOL    HW116703   2.734   0.710   6.067 -0.1695  1.2083  0.8102
 1748SOL    HW216704   2.775   0.836   5.979  2.0594 -0.4593  1.6436
 1749SOL     OW16705   0.485   3.961   3.301 -0.3573  0.3338  0.5144
 1749SOL    HW116706   0.567   3.922   3.332  0.2759  1.4109  0.1858
 1749SOL    HW216707   0.434   3.882   3.281  1.4661 -0.5102 -0.7761
 1750SOL     OW16708   4.305   3.681   5.804 -0.3742 -0.5055 -0.2074
 1750SOL    HW116709   4.273   3.767   5.777  0.4091 -0.5758 -1.3956
 1750SOL    HW216710   4.396   3.704   5.822 -0.1490 -0.5466 -1.2472
 1751SOL     OW16711   1.244   2.516   5.426 -0.3091 -0.3057 -0.0201
 1751SOL    HW116712   1.321   2.536   5.372 -0.2429 -2.1354 -0.5940
 1751SOL    HW216713   1.255   2.585   5.492  2.0729 -0.8318  0.1483
 1752SOL     OW16714   1.724   3.810   0.791 -0.2858 -0.2537 -0.1211
 1752SOL    HW116715   1.721   3.906   0.789  0.8812 -0.1878  2.1766
 1752SOL    HW216716   1.674   3.795   0.871  1.8431 -1.7400  0.9068
 1753SOL     OW16717   2.351   2.354   6.888 -0.3201 -0.2021  0.1844
 1753SOL    HW116718   2.294   2.284   6.857  2.3022 -2.0044 -0.5374
 1753SOL    HW216719   2.335   2.421   6.822 -0.7580  1.3255  1.8134
 1754SOL     OW16720   2.223   4.237   6.478 -0.2393 -0.4263  0.1604
 1754SOL    HW116721   2.143   4.277   6.512 -0.0465 -0.9277  1.2086
 1754SOL    HW216722   2.282   4.255   6.551  1.3224 -2.7290 -0.5537
 1755SOL     OW16723   0.363   3.032  15.286 -0.0537 -0.0245 -0.1510
 1755SOL    HW116724   0.291   3.056  15.227  0.4516  3.8566  0.8106
 1755SOL    HW216725   0.394   3.117  15.317 -0.7727 -0.1733  1.0103
 1756SOL     OW16726   3.520   3.181   3.265 -0.1853  0.0100 -0.0651
 1756SOL    HW116727   3.476   3.173   3.350 -2.0071  1.9267 -0.8099
 1756SOL    HW216728   3.439   3.181   3.213  0.1111  1.3854 -0.5379
 1757SOL     OW16729   3.264   4.508   7.773 -0.3880 -0.3487  0.4367
 1757SOL    HW116730   3.211   4.464   7.706  1.9494 -0.5073 -1.2752
 1757SOL    HW216731   3.344   4.457   7.779  0.3026  0.5924 -0.9472
 1758SOL     OW16732   0.490   4.578   2.819 -0.1394 -0.2116 -0.1262
 1758SOL    HW116733   0.411   4.524   2.814  0.8326 -1.3317 -3.4703
 1758SOL    HW216734   0.472   4.631   2.896  1.1199  0.7076 -0.4683
 1759SOL     OW16735   0.737   1.938  12.995 -0.2506  0.6055  0.1001
 1759SOL    HW116736   0.741   1.996  13.071  1.1322 -1.0876  1.3244
 1759SOL    HW216737   0.685   1.868  13.034  0.0982  1.1398  1.5387
 1760SOL     OW16738   3.033   1.243   5.069  0.2058  0.1096  0.4606
 1760SOL    HW116739   3.105   1.182   5.053 -0.7153 -0.4954 -1.3945
 1760SOL    HW216740   3.019   1.284   4.983  0.7784  0.5285  0.5663
 1761SOL     OW16741   1.776   4.698   2.455 -0.1169 -0.5052 -0.6758
 1761SOL    HW116742   1.761   4.682   2.362  0.0640 -2.0535 -0.4403
 1761SOL    HW216743   1.810   0.067   2.459 -1.2701 -0.0006 -2.3105
 1762SOL     OW16744   2.326   4.298   8.036 -0.0997  0.9273  0.1187
 1762SOL    HW116745   2.341   4.359   8.108  4.2757 -2.0934  1.7918
 1762SOL    HW216746   2.400   4.320   7.980 -0.1448 -2.8741 -1.4764
 1763SOL     OW16747   1.898   2.823  14.998  0.2973  0.0407 -0.3730
 1763SOL    HW116748   1.864   2.904  14.962 -1.9980  0.6983  3.2305
 1763SOL    HW216749   1.957   2.853  15.067 -0.1041  1.3579 -0.6198
 1764SOL     OW16750   3.770   0.464   7.868  0.2232 -0.5056  0.3692
 1764SOL    HW116751   3.700   0.502   7.815 -1.2616 -1.1949  1.8489
 1764SOL    HW216752   3.804   0.549   7.897  1.2554 -1.2542  1.3447
 1765SOL     OW16753   3.241   2.589   4.750  0.0515  0.0898 -0.2542
 1765SOL    HW116754   3.299   2.551   4.817  0.3805 -0.0356 -0.6079
 1765SOL    HW216755   3.162   2.535   4.756 -1.4233  2.1686 -1.0345
 1766SOL     OW16756   1.087   2.035  10.109 -0.1498  0.2490  0.3565
 1766SOL    HW116757   0.997   2.043  10.140 -1.0589 -1.0548 -2.0289
 1766SOL    HW216758   1.111   2.127  10.097  0.8263  0.2237  1.9998
 1767SOL     OW16759   4.488   0.630   8.982  0.2000  0.0222 -0.2351
 1767SOL    HW116760   4.490   0.543   9.022 -0.7217  1.1737  2.3252
 1767SOL    HW216761   4.400   0.656   9.010  0.5174  0.3523  0.4471
 1768SOL     OW16762   0.663   0.386   8.056 -0.4420 -0.1668  0.1433
 1768SOL    HW116763   0.696   0.450   7.993  1.9658 -2.0971 -0.5667
 1768SOL    HW216764   0.569   0.405   8.048 -0.9581 -2.5463  0.4794
 1769SOL     OW16765   4.148   0.024   9.627  0.5517  0.3924  0.0938
 1769SOL    HW116766   4.067   0.017   9.576  0.1149 -0.7765  0.9356
 1769SOL    HW216767   4.217   0.054   9.568  0.4754 -0.9485 -0.6623
 1770SOL     OW16768   3.682   0.750  15.417  0.0299 -0.3665 -0.2127
 1770SOL    HW116769   3.749   0.756  15.349  1.5137 -0.3284  1.2684
 1770SOL    HW216770   3.625   0.685  15.376 -1.0479  1.1248 -1.0799
 1771SOL     OW16771   3.467   1.179  12.157  0.3395 -0.0197  0.0860
 1771SOL    HW116772   3.372   1.191  12.162  0.2770 -0.0046 -1.2994
 1771SOL    HW216773   3.469   1.091  12.119  0.5443  0.8322 -1.8417
 1772SOL     OW16774   0.571   2.509   4.264 -0.0299 -0.2876 -0.0902
 1772SOL    HW116775   0.533   2.422   4.273  2.4276 -1.0780  2.3401
 1772SOL    HW216776   0.500   2.567   4.292 -1.4610 -0.8246 -2.5279
 1773SOL     OW16777   1.044   2.346  11.726  0.4802  0.0851 -0.2795
 1773SOL    HW116778   1.040   2.442  11.728 -0.6546  0.0186  1.0597
 1773SOL    HW216779   0.967   2.339  11.669 -0.2231  1.1120  0.5321
 1774SOL     OW16780   3.077   4.642   2.417  0.1924 -0.0440 -0.7930
 1774SOL    HW116781   3.081   4.710   2.350 -1.8919  0.9054  0.0582
 1774SOL    HW216782   3.155   4.593   2.391 -1.0743 -0.8089 -3.2444
 1775SOL     OW16783   0.905   0.166   0.973  0.3318 -0.5180 -0.0874
 1775SOL    HW116784   0.896   0.106   1.047 -0.2057  1.1342  1.1865
 1775SOL    HW216785   0.815   0.170   0.941  0.7069  1.8065 -0.8955
 1776SOL     OW16786   4.476   3.324  12.187  0.2297 -0.3501 -0.2985
 1776SOL    HW116787   4.531   3.271  12.244 -0.1404 -0.6481 -0.2168
 1776SOL    HW216788   4.409   3.261  12.160  0.0498  0.5298 -1.9258
 1777SOL     OW16789   1.412   4.541   2.240 -0.3607  0.1031  0.0663
 1777SOL    HW116790   1.445   4.462   2.281  2.1383  1.3095  0.3962
 1777SOL    HW216791   1.321   4.520   2.218 -1.0881  0.4379  2.7321
 1778SOL     OW16792   2.762   1.208  10.695 -0.2823 -0.2732  0.7823
 1778SOL    HW116793   2.715   1.149  10.754 -0.6209  0.5629  1.3709
 1778SOL    HW216794   2.725   1.193  10.608 -0.2949  0.1056  0.7192
 1779SOL     OW16795   0.221   1.845   4.405  0.1343  0.1786  0.4141
 1779SOL    HW116796   0.266   1.928   4.420  0.4118  0.1749 -0.4004
 1779SOL    HW216797   0.194   1.825   4.494 -2.3443 -1.8327 -0.7910
 1780SOL     OW16798   2.183   3.523   9.433 -0.0556 -0.0341 -0.3705
 1780SOL    HW116799   2.224   3.489   9.513 -1.7069  0.6309  0.7750
 1780SOL    HW216800   2.092   3.533   9.461 -0.5826 -2.5695 -1.1793
 1781SOL     OW16801   2.386   3.228   3.514  0.2167  0.8024 -0.1417
 1781SOL    HW116802   2.455   3.164   3.531  0.4545  1.0859 -0.0473
 1781SOL    HW216803   2.411   3.304   3.567 -1.1904  0.8227  0.5165
 1782SOL     OW16804   0.977   0.862   2.501 -0.7247  0.1401 -0.7495
 1782SOL    HW116805   0.944   0.948   2.529 -0.8451 -0.5222  1.1273
 1782SOL    HW216806   0.981   0.816   2.585  1.0136  1.1209 -0.2986
 1783SOL     OW16807   2.686   2.045   5.697  0.2929  0.2202  0.3115
 1783SOL    HW116808   2.606   2.027   5.746 -0.2987 -0.8207 -1.0109
 1783SOL    HW216809   2.741   2.063   5.773  2.0096 -3.1573 -0.1198
 1784SOL     OW16810   1.671   0.975  11.126  0.1847 -0.1942 -0.4006
 1784SOL    HW116811   1.756   0.942  11.096  1.4155  1.2305  1.4589
 1784SOL    HW216812   1.625   1.008  11.049 -1.2138 -0.2655  0.4076
 1785SOL     OW16813   2.188   1.150   2.626 -0.0008  0.0881 -0.4801
 1785SOL    HW116814   2.123   1.152   2.556  0.1751  2.2399 -0.5724
 1785SOL    HW216815   2.259   1.198   2.584  2.2194 -2.7205  0.0317
 1786SOL     OW16816   0.739   0.537   9.407 -0.5448  0.4213 -0.0494
 1786SOL    HW116817   0.833   0.518   9.404 -0.8552 -0.8431 -1.8962
 1786SOL    HW216818   0.722   0.542   9.313 -1.0054 -0.8795 -0.0253
 1787SOL     OW16819   2.676   0.360  15.225 -0.0091 -0.0712  0.1356
 1787SOL    HW116820   2.688   0.448  15.261 -1.5944  0.0114  0.4601
 1787SOL    HW216821   2.728   0.306  15.285  1.4492  0.6547 -0.4890
 1788SOL     OW16822   3.625   0.111  12.706 -0.0388  0.0595 -0.7899
 1788SOL    HW116823   3.652   0.022  12.728  1.5697  0.5618 -0.7779
 1788SOL    HW216824   3.556   0.101  12.640  0.9036 -1.0043 -1.6013
 1789SOL     OW16825   1.826   3.817   8.830  0.0567 -0.0837 -0.6549
 1789SOL    HW116826   1.799   3.751   8.766  0.2956 -1.2344  0.4060
 1789SOL    HW216827   1.920   3.796   8.829 -0.0629 -0.6013 -0.8644
 1790SOL     OW16828   3.264   2.527   1.955  0.6241  0.3100 -0.3296
 1790SOL    HW116829   3.198   2.468   1.993 -0.7652  1.2996 -1.2126
 1790SOL    HW216830   3.273   2.587   2.028  1.4798 -0.7191  0.4117
 1791SOL     OW16831   3.006   4.252   5.101 -0.6760  0.1268  0.5972
 1791SOL    HW116832   2.971   4.341   5.109  0.2807  0.3901  1.9523
 1791SOL    HW216833   2.928   4.205   5.128 -0.3535 -1.2261 -0.8611
 1792SOL     OW16834   3.812   2.368   2.982 -0.2451  0.5302  0.0432
 1792SOL    HW116835   3.835   2.402   2.896 -0.3823 -0.4879 -0.3891
 1792SOL    HW216836   3.729   2.414   2.996  0.1307 -0.1265  4.4609
 1793SOL     OW16837   2.811   1.379   0.144  0.5248  0.3546 -0.3227
 1793SOL    HW116838   2.853   1.312   0.197 -0.4919 -1.1459 -1.4356
 1793SOL    HW216839   2.866   1.360   0.068  1.8578 -0.6760  0.8902
 1794SOL     OW16840   1.537   0.824   4.019 -0.1412  0.5645  0.0975
 1794SOL    HW116841   1.528   0.860   3.930  1.5461  2.6879  0.7914
 1794SOL    HW216842   1.467   0.759   4.012  1.0005 -0.7397  0.7489
 1795SOL     OW16843   4.533   4.033  12.311  0.1915  0.8653  0.1475
 1795SOL    HW116844   4.474   3.973  12.265  2.6021 -1.7731  0.4781
 1795SOL    HW216845   4.542   3.980  12.391  1.1596  1.4781  0.4447
 1796SOL     OW16846   1.048   3.752   7.395  0.6976 -0.2448 -0.0938
 1796SOL    HW116847   1.041   3.700   7.315 -2.5003 -0.6861  0.4665
 1796SOL    HW216848   0.963   3.729   7.432  1.2965 -0.1163  1.3607
 1797SOL     OW16849   2.009   1.584   3.043 -0.4910  0.3431 -0.3935
 1797SOL    HW116850   2.058   1.573   2.962 -1.0165  1.5167 -0.8762
 1797SOL    HW216851   2.045   1.512   3.095 -1.8264  0.6337  0.9233
 1798SOL     OW16852   0.552   4.317   5.134  0.3475 -0.0040 -0.3185
 1798SOL    HW116853   0.561   4.295   5.226 -0.2219  3.1740  0.4978
 1798SOL    HW216854   0.478   4.376   5.142 -1.1520 -2.0411  0.7569
 1799SOL     OW16855   3.299   1.612   3.407 -0.4302 -0.1658 -0.2602
 1799SOL    HW116856   3.327   1.520   3.417  0.8072  0.0136 -2.1551
 1799SOL    HW216857   3.213   1.599   3.367 -0.7382 -1.1195  0.6806
 1800SOL     OW16858   1.535   3.067  16.839  0.6615  0.3209 -0.0119
 1800SOL    HW116859   1.503   3.132  16.902  1.2606  1.0047 -0.4076
 1800SOL    HW216860   1.554   3.120  16.762  0.3246 -1.3558 -1.2274
 1801SOL     OW16861   0.908   3.971   0.248  0.2059  0.6437  0.2414
 1801SOL    HW116862   0.913   3.979   0.343 -1.5102 -2.3971  0.5737
 1801SOL    HW216863   0.950   3.888   0.229 -0.6863  0.9400 -3.0139
 1802SOL     OW16864   0.233   1.525  13.096  0.2886  0.0918 -0.3523
 1802SOL    HW116865   0.193   1.498  13.014  2.3183  0.6347 -1.5384
 1802SOL    HW216866   0.260   1.447  13.144  0.0012 -0.1674 -0.6103
 1803SOL     OW16867   1.920   1.461  13.116  0.1052  0.1084  0.5451
 1803SOL    HW116868   1.878   1.414  13.188 -0.3198  0.0442  0.2559
 1803SOL    HW216869   1.967   1.392  13.070  1.4136  0.5948  1.1592
 1804SOL     OW16870   1.092   3.887  13.268 -0.2473  0.4644  0.4319
 1804SOL    HW116871   1.166   3.845  13.311 -0.8592 -0.8395  0.2264
 1804SOL    HW216872   1.012   3.879  13.321 -0.7246  0.4280 -0.2893
 1805SOL     OW16873   2.358   4.226   5.601 -0.1277  0.5075 -0.0097
 1805SOL    HW116874   2.449   4.249   5.584 -0.2384  0.0261 -1.2718
 1805SOL    HW216875   2.359   4.131   5.608  0.9203  0.6225  1.3922
 1806SOL     OW16876   0.780   3.401  16.086  0.4689  0.0362 -0.5012
 1806SOL    HW116877   0.715   3.331  16.088  0.6119 -0.0948 -0.3860
 1806SOL    HW216878   0.790   3.408  15.991 -1.9586  0.5195 -0.7140
 1807SOL     OW16879   2.509   4.304   6.830 -0.0519  0.2369  0.0155
 1807SOL    HW116880   2.456   4.370   6.874  0.9517  1.2818 -0.3491
 1807SOL    HW216881   2.440   4.237   6.822 -0.6235  0.8850 -0.5253
 1808SOL     OW16882   4.425   4.128   8.697 -0.4149  0.0757 -0.2975
 1808SOL    HW116883   4.409   4.040   8.731 -0.2545  0.3989  0.6206
 1808SOL    HW216884   4.480   4.162   8.768 -0.4658 -0.2050 -0.1230
 1809SOL     OW16885   1.782   3.835  11.619  0.4257 -0.0175  0.4503
 1809SOL    HW116886   1.736   3.754  11.598  0.4116  0.0345  0.2854
 1809SOL    HW216887   1.718   3.906  11.609 -0.5101 -0.8841  0.3967
 1810SOL     OW16888   2.273   2.674   7.438  0.0020 -0.3267 -0.2358
 1810SOL    HW116889   2.343   2.688   7.375 -0.9359  0.6391 -1.0772
 1810SOL    HW216890   2.265   2.579   7.448  0.7176 -0.3915 -0.2805
 1811SOL     OW16891   1.875   2.934   7.186 -0.1408  0.3644  0.5797
 1811SOL    HW116892   1.800   2.878   7.167 -0.5244  0.9203  0.4569
 1811SOL    HW216893   1.940   2.898   7.125 -0.0220  2.7084 -0.6577
 1812SOL     OW16894   2.316   3.673   4.860  0.2295 -0.2090  0.2857
 1812SOL    HW116895   2.221   3.688   4.860  0.0163 -1.5418 -1.7559
 1812SOL    HW216896   2.337   3.740   4.926 -1.3639  0.4962  0.0880
 1813SOL     OW16897   3.515   1.321   5.120  0.1134 -0.2736 -0.2812
 1813SOL    HW116898   3.424   1.292   5.120 -0.5150  1.7589 -0.9312
 1813SOL    HW216899   3.561   1.246   5.160 -0.0290 -1.8624 -3.0849
 1814SOL     OW16900   2.555   0.413  11.761  0.1448  1.2159  0.5198
 1814SOL    HW116901   2.487   0.426  11.694 -0.8316  0.3590  1.3354
 1814SOL    HW216902   2.498   0.404  11.837 -1.0531  0.6547 -0.4302
 1815SOL     OW16903   3.044   0.599   7.660  0.1469  0.2312  0.3226
 1815SOL    HW116904   2.950   0.591   7.677  0.3335 -0.6417  0.9914
 1815SOL    HW216905   3.066   0.685   7.695 -2.2955  0.1937  1.9811
 1816SOL     OW16906   2.205   0.493   2.982  0.1099  0.2102 -0.8009
 1816SOL    HW116907   2.126   0.547   2.985 -1.7624 -2.6809  1.4172
 1816SOL    HW216908   2.240   0.509   2.895  0.0990  2.8674 -0.3133
 1817SOL     OW16909   2.056   2.161  12.538  0.2214  0.4261  0.0712
 1817SOL    HW116910   2.117   2.232  12.520  0.4214  0.4413  0.7859
 1817SOL    HW216911   2.105   2.088  12.501 -0.6341  0.2823 -0.7731
 1818SOL     OW16912   1.502   3.320  11.086 -0.3226 -0.5027  0.0858
 1818SOL    HW116913   1.489   3.253  11.018  3.0884  0.7902 -1.8036
 1818SOL    HW216914   1.540   3.396  11.042 -1.5609 -0.6939 -1.3112
 1819SOL     OW16915   0.731   4.548   3.985  0.6079 -0.3104  0.5456
 1819SOL    HW116916   0.657   4.589   3.939  0.3187  0.4621  1.6855
 1819SOL    HW216917   0.693   4.470   4.025 -0.5641 -0.9827 -1.8325
 1820SOL     OW16918   3.269   0.372   6.642  0.0467  0.4216  0.5281
 1820SOL    HW116919   3.282   0.280   6.620 -0.4442  0.3580  0.4996
 1820SOL    HW216920   3.337   0.373   6.708 -1.7327  1.7615  2.3504
 1821SOL     OW16921   2.847   0.574   5.769  0.4382 -0.1165  0.1801
 1821SOL    HW116922   2.807   0.616   5.845  3.7453  1.6409  0.9750
 1821SOL    HW216923   2.798   0.624   5.704  0.6009 -1.6169 -1.1012
 1822SOL     OW16924   4.430   3.855   2.934 -0.0523 -0.1647  0.3312
 1822SOL    HW116925   4.519   3.824   2.950  0.7137  1.2926 -0.9784
 1822SOL    HW216926   4.412   3.792   2.864  1.5888 -0.1759 -0.0832
 1823SOL     OW16927   0.088   3.211   4.223 -0.5348 -0.0400  0.4803
 1823SOL    HW116928   0.080   3.158   4.302  1.7283 -0.7531  0.2279
 1823SOL    HW216929   0.074   3.152   4.149  2.2805 -2.6656  2.0340
 1824SOL     OW16930   3.063   4.377   7.321 -0.3120  0.1009  0.1939
 1824SOL    HW116931   3.082   4.343   7.408 -0.6368 -0.3226  0.1036
 1824SOL    HW216932   3.154   4.375   7.291 -0.1169  0.9000  0.7659
 1825SOL     OW16933   4.066   0.931   4.999  0.2548  0.0753  0.0271
 1825SOL    HW116934   4.114   0.875   5.061 -2.6903 -0.8125  1.5232
 1825SOL    HW216935   4.097   1.017   5.028  3.5886 -0.2798 -2.5537
 1826SOL     OW16936   2.429   2.809   0.594 -0.2708  0.2642  0.2495
 1826SOL    HW116937   2.499   2.764   0.642 -1.1898 -1.1101  0.3212
 1826SOL    HW216938   2.480   2.859   0.531 -1.6378  2.5307  0.9626
 1827SOL     OW16939   1.401   4.098   2.612  0.7141  0.7250 -0.6476
 1827SOL    HW116940   1.448   4.152   2.675  2.0934  1.9695 -2.7593
 1827SOL    HW216941   1.426   4.013   2.648 -1.8638  0.3702  0.3173
 1828SOL     OW16942   3.817   1.804   3.057 -0.2061  0.2747  0.7748
 1828SOL    HW116943   3.753   1.767   3.116 -0.9412  1.5019  0.7445
 1828SOL    HW216944   3.864   1.859   3.119  1.5816  0.6232 -0.8553
 1829SOL     OW16945   4.193   3.608   4.039  0.3111  0.0476 -0.0343
 1829SOL    HW116946   4.119   3.594   3.980 -0.9534  1.0934  1.3110
 1829SOL    HW216947   4.158   3.569   4.119  2.2857  0.0778  0.8584
 1830SOL     OW16948   2.573   2.921   4.609  0.2309  0.4065 -0.0173
 1830SOL    HW116949   2.521   2.978   4.666 -0.4829  1.5404 -1.7920
 1830SOL    HW216950   2.635   2.887   4.672  1.6850 -1.4848 -2.4629
 1831SOL     OW16951   0.514   1.336   4.042  0.5132  0.0638  0.0640
 1831SOL    HW116952   0.422   1.327   4.016  0.4130 -1.2537  0.8458
 1831SOL    HW216953   0.557   1.251   4.028  0.3912  0.5691 -3.2706
 1832SOL     OW16954   0.821   1.934   8.675  0.0626  0.7271 -0.9541
 1832SOL    HW116955   0.884   1.879   8.628 -1.2051  0.6501 -2.5551
 1832SOL    HW216956   0.782   1.869   8.734 -1.7081  3.6432  1.0654
 1833SOL     OW16957   0.565   3.287   3.020  0.0009 -0.0901  0.8608
 1833SOL    HW116958   0.560   3.227   2.946  0.3656  1.0044 -0.0399
 1833SOL    HW216959   0.657   3.311   3.013 -0.4149  1.2786  0.0402
 1834SOL     OW16960   0.842   4.115   4.938 -0.2634 -0.0227 -0.4336
 1834SOL    HW116961   0.839   4.019   4.938 -0.6486 -0.0088 -0.5998
 1834SOL    HW216962   0.895   4.139   4.862 -2.6079  1.1464 -1.6846
 1835SOL     OW16963   2.719   4.527   4.335 -0.9924  0.2584 -0.4364
 1835SOL    HW116964   2.670   4.603   4.367 -2.8888 -0.8440 -0.7311
 1835SOL    HW216965   2.699   4.546   4.243 -1.4536 -2.0650 -0.8057
 1836SOL     OW16966   3.527   3.250   4.295  0.1116 -0.4353  0.0277
 1836SOL    HW116967   3.508   3.257   4.389 -0.4473 -1.8075  0.0239
 1836SOL    HW216968   3.593   3.181   4.292  0.8913  0.1379  4.1826
 1837SOL     OW16969   0.657   2.704   6.668 -0.1713 -0.2038  0.4842
 1837SOL    HW116970   0.653   2.610   6.687  2.6784 -0.1111  1.5298
 1837SOL    HW216971   0.565   2.729   6.676  0.3041  1.3737  1.0109
 1838SOL     OW16972   0.214   1.597   2.509  0.0591  0.6829 -0.4353
 1838SOL    HW116973   0.292   1.649   2.530  0.8412 -0.1774 -1.1960
 1838SOL    HW216974   0.159   1.623   2.583 -0.6936  1.2076 -1.1812
 1839SOL     OW16975   2.723   3.350   0.286 -0.5006  0.2925 -0.1292
 1839SOL    HW116976   2.634   3.328   0.314  0.7589 -1.1872  2.7613
 1839SOL    HW216977   2.711   3.353   0.191 -0.5204 -2.6369 -0.2296
 1840SOL     OW16978   4.137   4.280  10.272  0.3406  0.1336  0.5302
 1840SOL    HW116979   4.129   4.245  10.360  3.9369 -1.2752  0.2952
 1840SOL    HW216980   4.227   4.251  10.255  0.7939  2.0813 -0.3374
 1841SOL     OW16981   1.988   1.976   4.713 -0.3843 -0.1213  0.1322
 1841SOL    HW116982   2.022   1.911   4.652 -0.0325 -0.8944  1.1591
 1841SOL    HW216983   2.064   2.034   4.722 -0.2599  0.0551 -2.0022
 1842SOL     OW16984   0.254   3.715  14.230  0.0635  0.1244 -0.4786
 1842SOL    HW116985   0.196   3.734  14.303  0.3408  0.3332 -0.3099
 1842SOL    HW216986   0.214   3.773  14.165 -1.0990 -0.9482 -0.7059
 1843SOL     OW16987   3.171   3.786   2.038 -0.3587 -0.4922  0.1992
 1843SOL    HW116988   3.224   3.762   2.114  1.7481  1.2754 -0.7155
 1843SOL    HW216989   3.237   3.745   1.981  0.6362 -0.1907  1.1313
 1844SOL     OW16990   2.803   4.136   8.318  0.0385 -0.1231  0.6477
 1844SOL    HW116991   2.804   4.140   8.413 -1.2030 -0.5785  0.6793
 1844SOL    HW216992   2.884   4.185   8.311  0.4899 -0.7134  1.8020
 1845SOL     OW16993   2.714   1.030   5.785  0.0790 -0.2155  0.7071
 1845SOL    HW116994   2.637   0.995   5.829  0.1788 -2.5302 -0.9408
 1845SOL    HW216995   2.680   1.027   5.696  2.5069  0.5966 -0.2690
 1846SOL     OW16996   3.710   0.104   0.074 -0.0065 -0.3224  0.0203
 1846SOL    HW116997   3.655   0.129   0.149 -1.0293  1.7319 -1.4147
 1846SOL    HW216998   3.713   0.185   0.023 -1.9161 -1.6790 -2.2283
 1847SOL     OW16999   4.401   1.975   7.865 -0.3718 -0.0886  0.3500
 1847SOL    HW117000   4.351   1.894   7.868  1.0865 -1.0596 -1.6477
 1847SOL    HW217001   4.400   2.006   7.956  0.3771 -0.6861  0.5551
 1848SOL     OW17002   1.530   1.903   2.076  0.5152  0.3764  0.1422
 1848SOL    HW117003   1.440   1.870   2.074  0.9100 -0.8998  3.7911
 1848SOL    HW217004   1.514   1.958   1.999  0.7284 -0.2730 -0.3663
 1849SOL     OW17005   1.194   3.760  11.079  0.4069  0.2731  0.2084
 1849SOL    HW117006   1.172   3.709  11.001 -1.1622 -1.6041  1.8549
 1849SOL    HW217007   1.270   3.711  11.109 -0.0607 -1.3680 -1.2976
 1850SOL     OW17008   4.225   3.381   9.123 -0.3404  0.2695  0.2351
 1850SOL    HW117009   4.233   3.469   9.160  0.8739  0.8835 -1.5020
 1850SOL    HW217010   4.133   3.383   9.096 -0.3906 -2.8127  0.2120
 1851SOL     OW17011   2.935   1.786  15.953 -0.4494 -0.7831 -0.4293
 1851SOL    HW117012   2.960   1.876  15.971 -1.7523 -0.1825 -1.5759
 1851SOL    HW217013   2.885   1.756  16.029 -2.6636 -0.6106 -1.8230
 1852SOL     OW17014   3.268   1.476   4.357 -0.3767 -0.2133  0.2074
 1852SOL    HW117015   3.219   1.424   4.294 -0.1065 -1.2129  0.8121
 1852SOL    HW217016   3.314   1.534   4.296 -0.7653 -1.4174 -1.2243
 1853SOL     OW17017   3.551   3.283   5.192 -0.4984  0.1078 -0.1674
 1853SOL    HW117018   3.541   3.211   5.130  0.5551 -0.0044 -0.2155
 1853SOL    HW217019   3.641   3.310   5.176 -0.2826 -0.6275 -0.2012
 1854SOL     OW17020   0.854   3.312   2.707 -0.1086  0.1888  0.4674
 1854SOL    HW117021   0.877   3.229   2.665 -3.5439 -0.8094  0.5630
 1854SOL    HW217022   0.859   3.371   2.632  1.8856 -1.0804 -0.3852
 1855SOL     OW17023   3.005   3.931  11.154 -0.5793 -0.0679  0.2769
 1855SOL    HW117024   2.930   3.957  11.100 -0.8388 -0.3541  0.4965
 1855SOL    HW217025   3.049   4.016  11.161 -1.3179  0.0924  3.1309
 1856SOL     OW17026   4.072   1.463   2.119 -0.1067  0.0804 -0.7179
 1856SOL    HW117027   4.044   1.514   2.195 -0.8152 -1.1826 -0.1188
 1856SOL    HW217028   4.156   1.429   2.151  0.1162  0.4588 -0.9058
 1857SOL     OW17029   1.493   1.513   8.626 -0.4719  0.4101  0.5162
 1857SOL    HW117030   1.403   1.546   8.632  0.2100  1.4691  4.7499
 1857SOL    HW217031   1.541   1.591   8.653  0.6864 -0.4395  0.8816
 1858SOL     OW17032   2.310   2.114   6.806 -0.2011  0.1527  0.3387
 1858SOL    HW117033   2.398   2.079   6.813 -0.2901  0.1542  1.4503
 1858SOL    HW217034   2.282   2.077   6.890  0.2206  0.1228  0.4679
 1859SOL     OW17035   3.915   2.234   5.662  0.1895  0.3560  0.1086
 1859SOL    HW117036   3.959   2.318   5.678 -0.1611  0.5443  0.0857
 1859SOL    HW217037   3.823   2.260   5.666 -0.7837 -3.1903  0.6857
 1860SOL     OW17038   4.215   1.052   3.441 -0.2308  0.6647 -0.5989
 1860SOL    HW117039   4.267   0.986   3.395 -1.0436 -0.1752 -0.3177
 1860SOL    HW217040   4.221   1.115   3.369  0.7696  1.8335  0.5260
 1861SOL     OW17041   2.951   2.946   9.965 -0.1764  0.4428  0.0780
 1861SOL    HW117042   2.939   2.949  10.060 -0.7648 -0.4757  0.0241
 1861SOL    HW217043   2.966   3.040   9.951 -1.8230  0.4421 -1.5581
 1862SOL     OW17044   0.279   1.340  13.299 -0.1422 -0.4197 -0.2646
 1862SOL    HW117045   0.368   1.352  13.335 -0.9839  0.7141  1.4554
 1862SOL    HW217046   0.231   1.276  13.352 -1.1267  0.7158  0.1897
 1863SOL     OW17047   1.348   4.597   1.648 -0.1984  0.7098 -0.6767
 1863SOL    HW117048   1.341   4.528   1.582 -1.5127  1.0210 -0.8595
 1863SOL    HW217049   1.284   4.568   1.713  2.2236 -1.7127  0.6701
 1864SOL     OW17050   4.051   3.404   7.818  0.7816  0.2471  0.0037
 1864SOL    HW117051   4.105   3.336   7.857 -0.1946  0.0023  0.9261
 1864SOL    HW217052   3.988   3.411   7.890 -0.0226  0.0706 -0.6776
 1865SOL     OW17053   1.810   0.280   5.114 -0.2377  0.1974 -0.0080
 1865SOL    HW117054   1.868   0.205   5.125 -0.4742 -0.1965 -1.3735
 1865SOL    HW217055   1.801   0.266   5.020 -0.8370  0.8391 -0.0515
 1866SOL     OW17056   0.428   0.370   4.445  0.2909  0.2975 -0.0671
 1866SOL    HW117057   0.479   0.362   4.526  2.5037  2.0824 -1.2771
 1866SOL    HW217058   0.494   0.399   4.382 -0.5665  0.0328 -1.0845
 1867SOL     OW17059   1.845   3.543   9.039 -0.1847 -0.6633 -0.6840
 1867SOL    HW117060   1.785   3.607   9.003  0.5156 -0.7480 -2.0253
 1867SOL    HW217061   1.847   3.482   8.965  0.0994 -0.3824 -0.9114
 1868SOL     OW17062   3.870   1.971  17.344 -0.1286  0.4730 -0.1041
 1868SOL    HW117063   3.854   1.876  17.346  0.2930  0.4630  2.0566
 1868SOL    HW217064   3.784   2.011  17.356 -1.3831 -2.0691 -0.5953
 1869SOL     OW17065   3.827   1.961   9.019 -0.3402  0.2879 -0.1612
 1869SOL    HW117066   3.890   2.011   9.071 -1.2657  0.5874  0.6721
 1869SOL    HW217067   3.746   1.973   9.069  1.2666  2.1066  1.9984
 1870SOL     OW17068   2.924   3.516  17.657 -0.0007 -0.5180 -0.5937
 1870SOL    HW117069   3.014   3.508   0.001 -0.3173 -0.3828  0.3570
 1870SOL    HW217070   2.931   3.608  17.635  2.8085 -0.0395  2.3591
 1871SOL     OW17071   1.402   2.221   8.272 -0.0212  0.8387 -0.2061
 1871SOL    HW117072   1.327   2.269   8.237 -0.4573 -1.3910 -2.3264
 1871SOL    HW217073   1.369   2.198   8.360  0.7864  1.1062  0.1621
 1872SOL     OW17074   0.838   2.780  16.066 -0.1932  0.0125  0.5826
 1872SOL    HW117075   0.766   2.717  16.055  0.6555 -0.3890 -2.6361
 1872SOL    HW217076   0.798   2.841  16.128 -0.6935 -0.7117  0.9795
 1873SOL     OW17077   4.597   1.923   5.739  0.0695 -0.2982  0.0306
 1873SOL    HW117078   4.651   1.934   5.661 -0.8218  0.1124 -0.5280
 1873SOL    HW217079   4.573   1.831   5.734 -0.6630 -0.0150 -1.4342
 1874SOL     OW17080   2.190   1.361   8.504  0.6555  0.2403 -0.3864
 1874SOL    HW117081   2.231   1.325   8.425  0.3290 -1.4835  0.2359
 1874SOL    HW217082   2.197   1.288   8.565  0.9408  0.2548 -0.4013
 1875SOL     OW17083   1.613   4.390   6.826 -0.2683 -0.3898 -0.1378
 1875SOL    HW117084   1.534   4.344   6.798 -0.1768 -0.0714 -0.8930
 1875SOL    HW217085   1.607   4.369   6.920  2.5727  0.1627  0.1742
 1876SOL     OW17086   3.197   1.465  12.497 -0.2638  0.0456 -0.2522
 1876SOL    HW117087   3.200   1.469  12.401  0.5327  0.7336 -0.1945
 1876SOL    HW217088   3.116   1.512  12.518  0.4717  1.0718  0.2768
 1877SOL     OW17089   3.791   0.342   5.116  0.1260  0.0921 -0.4018
 1877SOL    HW117090   3.697   0.334   5.100 -0.0582  3.8590 -1.1146
 1877SOL    HW217091   3.808   0.285   5.192  2.6868  1.2050 -0.1420
 1878SOL     OW17092   3.838   1.133   8.486  0.1140 -0.0158 -0.2128
 1878SOL    HW117093   3.864   1.067   8.550  0.1781  0.7998  0.5896
 1878SOL    HW217094   3.825   1.071   8.413 -0.7273  0.1967 -0.2378
 1879SOL     OW17095   4.365   3.151   5.910  0.5725  1.1887 -0.7704
 1879SOL    HW117096   4.444   3.156   5.857 -0.7201  0.8905 -2.7383
 1879SOL    HW217097   4.299   3.182   5.848 -1.3482  0.8508  1.0651
 1880SOL     OW17098   1.954   1.880   3.715  0.4963 -0.0377 -0.3512
 1880SOL    HW117099   1.888   1.910   3.777 -0.4966 -0.2948 -1.2801
 1880SOL    HW217100   2.032   1.895   3.768 -0.4405  2.4211  0.3360
 1881SOL     OW17101   0.096   0.526   2.969  0.0564 -0.0487  0.1855
 1881SOL    HW117102   0.060   0.561   2.888  0.2031 -1.2199 -0.3882
 1881SOL    HW217103   0.156   0.598   2.991 -0.0342 -0.3442  1.4206
 1882SOL     OW17104   4.133   2.379  12.623  0.3243  0.2208 -0.6145
 1882SOL    HW117105   4.173   2.421  12.546  0.9823  1.5076  0.4375
 1882SOL    HW217106   4.041   2.385  12.597  0.6434 -1.9122 -2.2383
 1883SOL     OW17107   0.348   2.741  16.749  0.4541 -0.4359  0.1848
 1883SOL    HW117108   0.337   2.794  16.829 -2.7016 -0.7858 -0.0102
 1883SOL    HW217109   0.283   2.783  16.692 -1.1352 -1.2780  1.3836
 1884SOL     OW17110   2.158   3.097   5.608  0.0582 -0.3745 -0.0200
 1884SOL    HW117111   2.245   3.125   5.635 -0.5786 -1.0405  2.7627
 1884SOL    HW217112   2.095   3.166   5.630  0.9289  0.9024 -1.5156
 1885SOL     OW17113   3.933   3.136   5.514  0.0517  0.7387 -0.0162
 1885SOL    HW117114   3.878   3.076   5.463 -0.9273  1.3503  0.3275
 1885SOL    HW217115   3.894   3.150   5.600  0.0183 -1.3020  0.3047
 1886SOL     OW17116   3.266   3.159   8.018  0.0249  0.1824  0.1130
 1886SOL    HW117117   3.298   3.154   7.928  0.8505 -0.5981  0.4561
 1886SOL    HW217118   3.263   3.066   8.041  0.2339  0.8025  2.5830
 1887SOL     OW17119   1.259   2.214  16.308 -0.1674  0.9764 -0.0802
 1887SOL    HW117120   1.321   2.249  16.244  1.2371 -0.9659  0.2222
 1887SOL    HW217121   1.178   2.266  16.307 -0.3513  0.7295  3.9121
 1888SOL     OW17122   0.631   4.020   4.623 -0.1569  0.4601  0.3068
 1888SOL    HW117123   0.725   4.028   4.632 -0.1703  1.6511 -0.6505
 1888SOL    HW217124   0.619   3.925   4.629  0.3538  0.2220 -2.2434
 1889SOL     OW17125   2.101   3.235   1.195  0.3987 -0.2134  0.3759
 1889SOL    HW117126   2.146   3.241   1.111 -1.2967  1.0068 -0.4532
 1889SOL    HW217127   2.090   3.141   1.208  1.3781 -0.3676  0.0935
 1890SOL     OW17128   2.948   0.220  11.992  0.2638  0.4859 -0.0708
 1890SOL    HW117129   2.950   0.307  12.032  1.5843  0.9425 -1.1173
 1890SOL    HW217130   2.867   0.182  12.027  1.2851 -0.1342  1.5985
 1891SOL     OW17131   3.948   0.172   2.900 -0.5761 -0.1794 -0.1973
 1891SOL    HW117132   4.017   0.195   2.962 -0.3588  4.1022 -2.0318
 1891SOL    HW217133   3.927   0.083   2.927  0.4612 -1.2240 -2.7988
 1892SOL     OW17134   1.048   1.630   3.210 -0.4125 -0.1016  0.2013
 1892SOL    HW117135   0.974   1.671   3.165 -1.3274  0.0789  1.8794
 1892SOL    HW217136   1.109   1.615   3.137 -1.9385  1.3264 -1.3687
 1893SOL     OW17137   0.968   2.713   4.198 -0.1669  0.0080 -0.8407
 1893SOL    HW117138   0.898   2.763   4.156  1.1269  3.1096  0.6790
 1893SOL    HW217139   0.916   2.639   4.228  1.9099 -1.1781 -0.1579
 1894SOL     OW17140   3.607   0.653  15.105 -0.0162 -0.1791 -0.2512
 1894SOL    HW117141   3.668   0.584  15.080  1.3031 -0.3416  3.4460
 1894SOL    HW217142   3.525   0.643  15.056 -0.2289 -0.6542  0.1992
 1895SOL     OW17143   3.791   2.091   4.272  0.4582 -0.8717  0.0363
 1895SOL    HW117144   3.820   2.076   4.362  1.4706 -0.8300 -0.2817
 1895SOL    HW217145   3.865   2.057   4.220  0.4477 -0.7575 -0.0521
 1896SOL     OW17146   3.731   2.080   6.775 -0.0150  0.2677  0.1128
 1896SOL    HW117147   3.740   2.054   6.867  2.5206  4.2256  0.9940
 1896SOL    HW217148   3.764   2.169   6.783 -0.9512  0.4405  1.8790
 1897SOL     OW17149   1.338   1.082   9.694  0.8045 -0.3401 -0.0240
 1897SOL    HW117150   1.330   1.175   9.716 -1.6809 -1.0873  2.2523
 1897SOL    HW217151   1.431   1.070   9.712  0.8253  1.0999  0.8373
 1898SOL     OW17152   2.893   1.384   5.955 -0.4875 -0.0947 -0.1295
 1898SOL    HW117153   2.798   1.371   5.956 -0.7500  1.6427 -1.1298
 1898SOL    HW217154   2.914   1.291   5.958 -1.1304 -0.1593  1.9569
 1899SOL     OW17155   1.150   1.957   9.261 -0.0083 -0.0526 -0.1830
 1899SOL    HW117156   1.095   1.886   9.229 -1.4794  0.9404  0.1458
 1899SOL    HW217157   1.172   2.000   9.178 -1.0559 -0.0382 -0.4524
 1900SOL     OW17158   4.385   3.620   3.456  0.4287  0.6615  0.0005
 1900SOL    HW117159   4.398   3.570   3.375  1.4004  1.5675 -0.3976
 1900SOL    HW217160   4.414   3.562   3.526 -1.2716  0.8299  0.8286
 1901SOL     OW17161   4.490   4.263   9.106  0.2455  0.4854  0.1012
 1901SOL    HW117162   4.577   4.302   9.115  0.4692  0.2153 -0.7908
 1901SOL    HW217163   4.507   4.208   9.030  0.1194  0.3746  0.1527
 1902SOL     OW17164   0.381   2.582   7.982  0.1338  0.2437  0.9460
 1902SOL    HW117165   0.351   2.606   8.069 -0.7034  1.3100  0.3641
 1902SOL    HW217166   0.399   2.668   7.943  1.8372  0.3361  1.9217
 1903SOL     OW17167   2.792   3.600  10.822  0.4120  0.0871 -0.2858
 1903SOL    HW117168   2.748   3.681  10.847  1.6347  1.2442 -1.8906
 1903SOL    HW217169   2.821   3.611  10.732 -1.2603  2.5700 -0.5141
 1904SOL     OW17170   3.597   4.499   3.465 -0.5605  0.6939 -0.7031
 1904SOL    HW117171   3.621   4.559   3.536  0.1925 -0.3219 -0.1053
 1904SOL    HW217172   3.684   4.468   3.441 -0.3005  0.1773  0.8828
 1905SOL     OW17173   0.845   4.451  12.574  0.0807  0.5175  0.1773
 1905SOL    HW117174   0.885   4.366  12.591  1.2017  1.2904  1.4349
 1905SOL    HW217175   0.782   4.470  12.644  0.8962  1.1840  0.7352
 1906SOL     OW17176   4.399   2.127   5.686 -0.0948 -0.2990 -0.0985
 1906SOL    HW117177   4.382   2.171   5.770  0.4627  0.7009 -0.5049
 1906SOL    HW217178   4.463   2.057   5.702 -0.0643 -0.1127  0.5938
 1907SOL     OW17179   2.833   0.854   0.140 -0.6669 -0.9222  0.0715
 1907SOL    HW117180   2.918   0.888   0.112 -0.3746 -2.6809 -1.2354
 1907SOL    HW217181   2.800   0.925   0.195  0.6954  0.9777 -1.5548
 1908SOL     OW17182   1.698   2.128   6.738 -0.2049 -0.2384  0.0550
 1908SOL    HW117183   1.700   2.222   6.754 -0.6667 -0.1393 -0.4800
 1908SOL    HW217184   1.608   2.096   6.740 -0.4645  0.3868 -1.1489
 1909SOL     OW17185   2.076   0.665   3.326 -0.0989  0.3290 -0.4620
 1909SOL    HW117186   2.043   0.665   3.237  1.6461  1.5204 -1.1066
 1909SOL    HW217187   2.138   0.591   3.327 -0.1141  0.3160 -0.5306
 1910SOL     OW17188   3.732   0.318   5.442 -0.0506 -0.0312  0.2890
 1910SOL    HW117189   3.658   0.322   5.381  0.0899 -1.5054  0.0352
 1910SOL    HW217190   3.796   0.263   5.397  0.1442 -0.0676  0.6097
 1911SOL     OW17191   3.581   2.561   1.917 -0.1667 -0.2928 -0.1988
 1911SOL    HW117192   3.592   2.483   1.971 -1.2222 -0.5216 -0.3268
 1911SOL    HW217193   3.542   2.617   1.984  0.8242 -1.1488  1.0858
 1912SOL     OW17194   2.093   4.054   1.377 -0.1116 -0.6152  0.7408
 1912SOL    HW117195   2.108   3.960   1.371  0.4082 -0.5439  0.9104
 1912SOL    HW217196   2.101   4.071   1.470  0.3693  1.3027  0.3548
 1913SOL     OW17197   3.655   0.336  17.604  0.0850 -0.2283  0.6755
 1913SOL    HW117198   3.669   0.391  17.527 -1.6198 -0.4107  0.2425
 1913SOL    HW217199   3.602   0.397  17.655 -0.6408  1.1480 -1.7242
 1914SOL     OW17200   1.559   3.519   6.345 -0.4174 -0.1589  0.0408
 1914SOL    HW117201   1.623   3.455   6.377 -1.6746 -1.9557 -1.0983
 1914SOL    HW217202   1.476   3.474   6.335 -0.5318 -0.0454  0.4963
 1915SOL     OW17203   4.060   2.220   9.523  0.5130 -0.1841  0.1783
 1915SOL    HW117204   4.023   2.135   9.498  1.1977 -0.1080 -1.0806
 1915SOL    HW217205   4.131   2.198   9.583  0.2207  2.3354  1.4645
 1916SOL     OW17206   4.582   2.477   2.839  0.3803 -0.6547 -0.2972
 1916SOL    HW117207   4.570   2.408   2.774  1.9430  0.0364 -1.3133
 1916SOL    HW217208   4.604   2.426   2.916 -2.6430  0.3478  1.2463
 1917SOL     OW17209   0.434   0.979   6.992  0.2947 -0.1666 -0.0626
 1917SOL    HW117210   0.375   1.025   6.932  1.4398 -0.9943 -1.8191
 1917SOL    HW217211   0.506   1.037   7.019  0.6090 -0.0663 -1.1258
 1918SOL     OW17212   0.614   2.335   1.583 -0.0884 -0.1518  0.4694
 1918SOL    HW117213   0.590   2.424   1.556  2.7631 -0.1937 -2.2505
 1918SOL    HW217214   0.646   2.301   1.499  0.1480 -0.1529  0.5605
 1919SOL     OW17215   3.892   2.927   1.626 -0.4648  0.0813  0.1663
 1919SOL    HW117216   3.981   2.934   1.661 -0.8051  0.6897  0.9337
 1919SOL    HW217217   3.907   2.878   1.546  1.2617 -1.3825  1.3836
 1920SOL     OW17218   4.485   1.070   0.589  0.1334  0.4113 -0.5455
 1920SOL    HW117219   4.553   1.007   0.564  1.0781  0.5499  1.6547
 1920SOL    HW217220   4.435   1.011   0.645 -0.4623  0.6119 -0.8668
 1921SOL     OW17221   2.029   3.317  11.131  0.1694  0.1790  0.3871
 1921SOL    HW117222   2.088   3.242  11.120 -1.9225 -1.3850 -0.2154
 1921SOL    HW217223   2.009   3.295  11.222 -0.3723 -1.2772 -0.0754
 1922SOL     OW17224   1.817   4.673   7.445 -0.2400  0.1453 -0.1342
 1922SOL    HW117225   1.902   4.696   7.480 -0.6224 -0.0148  0.9078
 1922SOL    HW217226   1.756   0.012   7.488  1.1527  0.8423  0.8209
 1923SOL     OW17227   0.636   1.584   7.399  0.1085 -0.0767 -1.0860
 1923SOL    HW117228   0.583   1.663   7.392 -0.3185 -0.1382  1.9087
 1923SOL    HW217229   0.571   1.522   7.365 -0.6926  0.9072 -1.3426
 1924SOL     OW17230   0.514   4.268  10.764 -0.0985 -0.0511  0.4720
 1924SOL    HW117231   0.538   4.185  10.723  2.0757  1.5578 -1.4923
 1924SOL    HW217232   0.571   4.256  10.839  1.1338 -0.0520 -0.4671
 1925SOL     OW17233   1.668   2.535   0.939  0.1933  0.7274 -0.2082
 1925SOL    HW117234   1.677   2.585   1.020 -0.3000 -0.0828  0.3499
 1925SOL    HW217235   1.594   2.480   0.964  1.2922 -1.1448 -1.0431
 1926SOL     OW17236   1.415   0.049   1.233 -0.1365 -0.2862  0.0245
 1926SOL    HW117237   1.401   0.106   1.157 -2.6080 -0.1533  0.5782
 1926SOL    HW217238   1.501   0.016   1.209 -0.8586 -0.9503 -1.6493
 1927SOL     OW17239   2.649   4.116   3.679  0.3965 -0.2039  0.2397
 1927SOL    HW117240   2.679   4.070   3.758 -1.8195  1.8968  2.2948
 1927SOL    HW217241   2.561   4.079   3.675  0.0326  1.1595 -4.0763
 1928SOL     OW17242   0.995   4.034   7.929 -0.3014  0.1752  0.4606
 1928SOL    HW117243   0.958   4.108   7.881  1.7418  0.5756 -0.4769
 1928SOL    HW217244   0.977   4.046   8.022  3.0167  1.1773  0.9571
 1929SOL     OW17245   3.416   0.363  17.338 -0.3013  0.0974 -0.1768
 1929SOL    HW117246   3.329   0.326  17.347  0.3892 -1.2981  0.8234
 1929SOL    HW217247   3.407   0.428  17.408  0.9259  1.9443 -1.7303
 1930SOL     OW17248   0.200   1.136   9.610  0.5265  0.1083  0.3567
 1930SOL    HW117249   0.254   1.145   9.689 -1.1181  1.4677  1.3143
 1930SOL    HW217250   0.135   1.071   9.639 -0.1071  0.5354 -0.1167
 1931SOL     OW17251   2.596   1.660   2.994 -1.1021  0.3280  0.3594
 1931SOL    HW117252   2.560   1.573   2.977 -1.1361  0.3461  0.3401
 1931SOL    HW217253   2.688   1.633   2.984 -1.1050  0.0626  1.0631
 1932SOL     OW17254   3.481   0.917   6.644 -0.5374 -0.4939 -1.0675
 1932SOL    HW117255   3.402   0.941   6.596 -1.2752 -1.2823 -0.2514
 1932SOL    HW217256   3.542   0.890   6.575 -1.5972  1.8922 -2.9633
 1933SOL     OW17257   1.689   3.643   7.673 -0.6431 -0.0327 -0.3651
 1933SOL    HW117258   1.700   3.708   7.742  1.5165 -1.6317  0.7834
 1933SOL    HW217259   1.605   3.668   7.635 -0.9540 -1.7888 -0.8225
 1934SOL     OW17260   3.922   1.236   4.474 -0.3124  0.2939  0.3298
 1934SOL    HW117261   3.886   1.148   4.462  1.2219 -0.4502  1.1313
 1934SOL    HW217262   3.846   1.286   4.443 -1.4697 -2.2249 -0.9055
 1935SOL     OW17263   4.597   2.667   8.742  0.3377  0.2273 -0.6632
 1935SOL    HW117264   4.614   2.762   8.742  0.9284  0.1179  0.7214
 1935SOL    HW217265   4.573   2.658   8.834 -0.0601 -0.1466 -0.8016
 1936SOL     OW17266   1.200   2.569  16.388  0.0871 -0.1829 -0.5123
 1936SOL    HW117267   1.265   2.638  16.380 -0.1287  0.1741  0.7660
 1936SOL    HW217268   1.181   2.559  16.295  0.2452  0.1075 -0.5735
 1937SOL     OW17269   3.163   3.532   6.319 -0.0265 -0.1680  0.0934
 1937SOL    HW117270   3.087   3.509   6.265 -0.2317 -1.0189  0.7434
 1937SOL    HW217271   3.133   3.537   6.409  1.1960 -2.7602  0.6270
 1938SOL     OW17272   4.417   1.122  12.488  0.4491  0.0153 -0.2604
 1938SOL    HW117273   4.418   1.044  12.544  0.3346 -0.5450 -1.0425
 1938SOL    HW217274   4.511   1.133  12.472  0.4462  0.8092  0.2680
 1939SOL     OW17275   3.874   2.996   4.811  0.2451  0.2961  0.2531
 1939SOL    HW117276   3.948   2.953   4.854  0.6104  0.6816  0.0095
 1939SOL    HW217277   3.921   3.077   4.789 -1.2324  0.6442 -1.6667
 1940SOL     OW17278   1.558   4.361   5.165 -0.1268 -0.2560  0.3539
 1940SOL    HW117279   1.583   4.445   5.204  0.0073  1.7484 -4.0932
 1940SOL    HW217280   1.634   4.335   5.113 -2.3251  0.3207 -3.1496
 1941SOL     OW17281   0.307   1.984   3.428 -0.1871 -0.3254 -0.7626
 1941SOL    HW117282   0.318   1.977   3.523  2.3344  1.7907 -0.9064
 1941SOL    HW217283   0.339   1.900   3.397  0.9324 -0.9279  2.0052
 1942SOL     OW17284   2.050   4.407  13.625 -0.3414 -0.0222  0.1611
 1942SOL    HW117285   2.019   4.472  13.562 -3.0814  0.6409  2.1643
 1942SOL    HW217286   2.070   4.459  13.704  2.2055 -0.6725 -0.0636
 1943SOL     OW17287   1.913   2.067   6.904  0.1605  0.6454 -0.5245
 1943SOL    HW117288   1.917   2.117   6.986 -3.2319  0.8632 -0.4812
 1943SOL    HW217289   1.838   2.102   6.856 -0.4794  0.7540  0.5558
 1944SOL     OW17290   3.792   3.548   4.566  0.4857  0.6221  0.1484
 1944SOL    HW117291   3.853   3.507   4.504 -0.4425  0.2461 -0.5182
 1944SOL    HW217292   3.719   3.560   4.505 -0.5204 -0.8394  1.0720
 1945SOL     OW17293   1.819   3.961   5.699 -0.4308 -0.0708  0.2380
 1945SOL    HW117294   1.803   3.868   5.719  2.0204 -1.1019 -2.6392
 1945SOL    HW217295   1.913   3.970   5.713 -0.7184  2.2905  0.5900
 1946SOL     OW17296   3.965   3.768   8.757 -0.3437  0.3239  0.1929
 1946SOL    HW117297   3.987   3.852   8.796 -1.5219  0.6969  0.0474
 1946SOL    HW217298   3.869   3.765   8.755 -0.3575 -0.8004  2.4524
 1947SOL     OW17299   3.796   3.033   1.300  0.1382  0.3819  0.5938
 1947SOL    HW117300   3.773   3.020   1.208  4.0723 -0.3098 -0.2825
 1947SOL    HW217301   3.751   2.958   1.341  3.0195 -2.5852 -1.6177
 1948SOL     OW17302   1.395   3.915   6.517 -0.3558  0.0895 -0.0360
 1948SOL    HW117303   1.353   3.999   6.499 -2.6845 -0.9322  0.6147
 1948SOL    HW217304   1.325   3.865   6.474  0.8842 -1.4334 -0.2686
 1949SOL     OW17305   0.006   0.949  15.097 -0.4685  0.4416  0.1720
 1949SOL    HW117306   0.085   0.918  15.054 -1.7478 -0.4896 -1.4948
 1949SOL    HW217307   4.705   1.018  15.035 -2.4192 -0.1921  0.1699
 1950SOL     OW17308   1.523   2.880   7.179  0.6819 -0.3527 -0.5369
 1950SOL    HW117309   1.544   2.796   7.220  1.2597  1.0253  2.0214
 1950SOL    HW217310   1.546   2.948   7.243 -0.2830  0.0470 -0.6121
 1951SOL     OW17311   2.224   2.117   7.072  0.2256 -0.3214  0.0441
 1951SOL    HW117312   2.246   2.054   7.141  2.7273  2.0808  1.4352
 1951SOL    HW217313   2.270   2.191   7.112 -0.0625  0.6882 -1.5033
 1952SOL     OW17314   0.729   0.434   4.437  0.5729 -0.1615 -0.2331
 1952SOL    HW117315   0.768   0.350   4.413  0.4804 -0.2756  0.0220
 1952SOL    HW217316   0.715   0.431   4.532 -1.2428 -0.2663 -0.5197
 1953SOL     OW17317   1.800   2.810   1.497  0.2132  0.2402  0.6407
 1953SOL    HW117318   1.822   2.884   1.554  2.0749 -0.2672  0.5877
 1953SOL    HW217319   1.710   2.831   1.472  0.2062 -1.1530 -0.5156
 1954SOL     OW17320   3.505   0.261   5.165  0.6340 -0.2389 -0.4081
 1954SOL    HW117321   3.440   0.311   5.214  1.2807  1.2644 -1.0895
 1954SOL    HW217322   3.455   0.216   5.097  1.7770 -2.7587  0.4082
 1955SOL     OW17323   3.457   1.347  16.540  0.0469 -0.2746  0.3682
 1955SOL    HW117324   3.475   1.253  16.544  1.7687  0.0053 -1.0838
 1955SOL    HW217325   3.414   1.366  16.456 -0.3599 -1.1528  0.3772
 1956SOL     OW17326   4.159   4.000   3.220  0.2476 -0.4051  0.7275
 1956SOL    HW117327   4.251   4.027   3.221 -0.1402  0.9458  0.4827
 1956SOL    HW217328   4.126   4.052   3.294 -2.3629  0.7337 -1.2614
 1957SOL     OW17329   1.244   0.790   8.748 -0.3077 -0.0079  0.4958
 1957SOL    HW117330   1.218   0.715   8.694 -0.3814 -1.3131  2.3561
 1957SOL    HW217331   1.330   0.811   8.712 -0.1617  0.0791  0.8995
 1958SOL     OW17332   2.258   0.401  12.872 -0.2182 -0.5535 -0.1545
 1958SOL    HW117333   2.335   0.351  12.844  1.4550  1.8713  0.1308
 1958SOL    HW217334   2.253   0.461  12.797  2.3414  0.2561  0.3065
 1959SOL     OW17335   3.339   0.927   8.408  0.0067 -0.2375 -0.2486
 1959SOL    HW117336   3.338   0.854   8.470 -1.8289  0.5218  0.6361
 1959SOL    HW217337   3.250   0.962   8.411 -0.1282 -0.5422 -0.7744
 1960SOL     OW17338   0.561   1.132   1.076  0.2562  0.0411  0.0347
 1960SOL    HW117339   0.589   1.219   1.104 -1.2420  0.7502 -0.6392
 1960SOL    HW217340   0.553   1.092   1.163  0.0463  2.1677  1.0161
 1961SOL     OW17341   3.672   1.424   3.620 -0.4526 -0.5099  0.6123
 1961SOL    HW117342   3.651   1.463   3.535  0.3718 -0.5589  0.3883
 1961SOL    HW217343   3.742   1.365   3.594 -0.1837  0.3978 -0.7499
 1962SOL     OW17344   1.556   0.229   8.354 -0.0235  0.8378  0.0826
 1962SOL    HW117345   1.502   0.196   8.426 -1.3796  2.0575 -0.3716
 1962SOL    HW217346   1.629   0.268   8.402  0.0489  0.6128  0.1547
 1963SOL     OW17347   1.552   1.775  12.949  0.6787 -0.5808  0.1227
 1963SOL    HW117348   1.503   1.800  13.027 -4.4325 -0.5633 -3.0624
 1963SOL    HW217349   1.486   1.795  12.883  0.0540 -0.5548  0.7654
 1964SOL     OW17350   4.183   3.549   7.068  0.2059  0.2671 -0.2922
 1964SOL    HW117351   4.125   3.596   7.008  0.3271  0.5068 -0.2217
 1964SOL    HW217352   4.243   3.508   7.007  0.7210 -0.6409  0.8263
 1965SOL     OW17353   0.657   0.028  14.769  0.1480  0.1883  0.3095
 1965SOL    HW117354   0.627   4.674  14.820 -1.6078  1.3580  0.9761
 1965SOL    HW217355   0.676   4.706  14.686 -1.1163 -0.8376  0.5491
 1966SOL     OW17356   2.399   1.627  16.360  0.2949  0.1858 -0.2778
 1966SOL    HW117357   2.338   1.577  16.305 -0.1749  0.4311  0.0140
 1966SOL    HW217358   2.462   1.561  16.388 -0.0909  0.9171  2.3097
 1967SOL     OW17359   1.464   1.582   3.023 -0.5857 -0.1387 -0.3816
 1967SOL    HW117360   1.557   1.575   3.002 -0.6915  0.1364 -0.9234
 1967SOL    HW217361   1.475   1.638   3.100  1.3073  0.5994 -1.2062
 1968SOL     OW17362   3.930   4.074  14.892  0.1390  0.4372  0.1992
 1968SOL    HW117363   4.020   4.064  14.922  0.3781  0.8109 -0.3822
 1968SOL    HW217364   3.891   4.142  14.945  0.9919  1.6079 -0.6721
 1969SOL     OW17365   2.250   0.465  15.047  0.2405 -0.3009  0.0314
 1969SOL    HW117366   2.156   0.459  15.061  0.5357  0.7446  2.4825
 1969SOL    HW217367   2.282   0.525  15.115 -0.8635 -1.7316  1.8112
 1970SOL     OW17368   1.936   2.032   4.257 -0.6585  0.1540 -0.1817
 1970SOL    HW117369   1.890   1.997   4.333 -2.0596 -1.3510 -1.7398
 1970SOL    HW217370   1.915   2.125   4.264  0.5764  0.4332 -0.1779
 1971SOL     OW17371   1.208   2.787  17.007 -0.5802  0.0601  0.0609
 1971SOL    HW117372   1.178   2.701  16.976  1.9492 -1.1012  0.8793
 1971SOL    HW217373   1.211   2.841  16.928 -0.0742 -1.1658 -0.7530
 1972SOL     OW17374   0.290   4.251  12.298 -0.6837 -0.1464  0.0088
 1972SOL    HW117375   0.243   4.234  12.216 -0.6448  2.3753 -0.5381
 1972SOL    HW217376   0.284   4.166  12.342 -2.6948 -1.2776 -2.4186
 1973SOL     OW17377   3.147   1.884  12.442 -0.2738  0.1343  0.6670
 1973SOL    HW117378   3.211   1.816  12.422 -0.2309  0.0648  1.0492
 1973SOL    HW217379   3.110   1.916  12.359 -0.2204 -0.9967  0.2049
 1974SOL     OW17380   0.967   1.387  11.746 -0.7564  0.3881  0.0677
 1974SOL    HW117381   1.052   1.426  11.768 -0.1661  0.0468 -1.6001
 1974SOL    HW217382   0.987   1.298  11.775 -0.0100  0.5317  0.0089
 1975SOL     OW17383   4.248   3.075   6.922 -0.2574  1.1367 -0.0090
 1975SOL    HW117384   4.182   3.020   6.964  1.0679 -0.6989 -0.3531
 1975SOL    HW217385   4.256   3.141   6.990 -0.7719  1.0782  0.1100
 1976SOL     OW17386   3.198   2.831   6.686 -0.8008  0.1543 -0.4602
 1976SOL    HW117387   3.238   2.744   6.692 -0.0643  0.3707 -2.4922
 1976SOL    HW217388   3.169   2.835   6.595  0.8028  0.7379 -0.9514
 1977SOL     OW17389   2.464   0.687   5.881 -0.4516 -0.2313 -0.1158
 1977SOL    HW117390   2.553   0.689   5.916 -0.1724 -0.9830 -0.7958
 1977SOL    HW217391   2.413   0.727   5.952  0.5573 -0.3227  0.6610
 1978SOL     OW17392   1.228   3.805   5.398  0.6015 -0.3702  0.4142
 1978SOL    HW117393   1.239   3.900   5.390 -1.8104 -0.0785  0.3983
 1978SOL    HW217394   1.318   3.782   5.376  0.3965 -1.0967  0.3191
 1979SOL     OW17395   4.629   4.391  11.730  0.8116 -0.4378 -0.4639
 1979SOL    HW117396   4.577   4.392  11.810  0.4125  0.6906 -0.7483
 1979SOL    HW217397   4.582   4.339  11.664 -0.1236 -1.9506  1.4033
 1980SOL     OW17398   2.041   1.992   1.092  0.6794  0.3091  0.0064
 1980SOL    HW117399   2.061   2.085   1.080 -1.0576  0.8612  1.3988
 1980SOL    HW217400   2.120   1.943   1.070  1.0578 -0.0172  2.0863
 1981SOL     OW17401   3.203   1.704   8.427 -0.5836  0.5152  0.2406
 1981SOL    HW117402   3.150   1.685   8.350  0.4130 -0.3033 -0.2342
 1981SOL    HW217403   3.262   1.767   8.386  0.3277  0.7382  1.9007
 1982SOL     OW17404   3.407   0.845   1.793  0.1176  0.3622 -0.4549
 1982SOL    HW117405   3.458   0.903   1.737  2.7249  0.6107  2.2065
 1982SOL    HW217406   3.403   0.883   1.881  0.1745  0.3493 -0.4469
 1983SOL     OW17407   4.455   4.084   4.026  0.3269  0.0655  0.2266
 1983SOL    HW117408   4.514   4.128   3.966 -0.2297 -0.8282 -0.9647
 1983SOL    HW217409   4.372   4.120   3.995 -0.2510 -0.1386  1.5458
 1984SOL     OW17410   4.630   3.086   0.916  0.2162 -0.2901  0.3948
 1984SOL    HW117411   4.720   3.054   0.922  0.3513  0.0559  0.2259
 1984SOL    HW217412   4.631   3.158   0.978  0.3872 -1.5394  1.8549
 1985SOL     OW17413   3.586   0.087   2.605  0.3028  0.1516  0.1560
 1985SOL    HW117414   3.547   0.174   2.617  2.3198  0.7936  1.9358
 1985SOL    HW217415   3.618   0.102   2.516 -0.9219  0.1997 -0.2849
 1986SOL     OW17416   0.279   0.809  10.470 -0.3476  0.3625 -0.1065
 1986SOL    HW117417   0.284   0.728  10.522  1.2149  0.5045 -0.0531
 1986SOL    HW217418   0.351   0.868  10.489 -1.3986  1.7013 -0.2733
 1987SOL     OW17419   2.621   4.468  16.675  0.1184 -0.3292 -0.3238
 1987SOL    HW117420   2.663   4.526  16.738 -0.2531  0.6775 -1.0038
 1987SOL    HW217421   2.632   4.514  16.591 -0.8374  0.0648 -0.2327
 1988SOL     OW17422   4.068   2.728   0.504  0.0176 -0.1610 -0.5240
 1988SOL    HW117423   4.135   2.794   0.492  0.2713 -0.3620 -0.2251
 1988SOL    HW217424   4.001   2.758   0.442 -1.7535 -1.4975  0.7040
 1989SOL     OW17425   2.284   2.865   2.572 -0.3187  0.2859 -0.5341
 1989SOL    HW117426   2.224   2.872   2.646 -1.6971  0.6235 -1.6793
 1989SOL    HW217427   2.250   2.948   2.538 -3.6489 -0.5235  0.8246
 1990SOL     OW17428   0.636   4.555   6.847  0.8524 -0.5808 -0.3172
 1990SOL    HW117429   0.663   4.617   6.780 -2.8025 -0.1150 -1.3319
 1990SOL    HW217430   0.550   4.519   6.824 -0.0459  2.2049 -1.3381
 1991SOL     OW17431   3.134   1.277   6.655 -0.2121 -0.3921 -0.1944
 1991SOL    HW117432   3.156   1.184   6.647  1.2921 -0.1797  1.6747
 1991SOL    HW217433   3.075   1.289   6.730 -0.1919  0.7588 -0.3693
 1992SOL     OW17434   2.031   4.298   5.149 -0.0891 -0.0728  0.2335
 1992SOL    HW117435   2.123   4.287   5.125 -0.0587  0.1223  0.2600
 1992SOL    HW217436   2.020   4.225   5.209  1.9617  0.0292  0.7584
 1993SOL     OW17437   4.395   3.409   5.765  0.0283  0.3221  0.0829
 1993SOL    HW117438   4.338   3.486   5.759 -0.8141 -0.2817  0.3670
 1993SOL    HW217439   4.451   3.426   5.841  0.2643 -2.9789  0.6341
 1994SOL     OW17440   1.185   0.581   3.440 -0.7333 -0.6236  0.1811
 1994SOL    HW117441   1.190   0.665   3.393 -0.8967 -0.5127  0.3615
 1994SOL    HW217442   1.198   0.616   3.528 -2.3048  0.4996 -0.0221
 1995SOL     OW17443   0.316   0.571   7.727  0.5877 -0.4317 -0.2504
 1995SOL    HW117444   0.367   0.543   7.652  0.3291 -0.3219 -0.4651
 1995SOL    HW217445   0.364   0.649   7.755 -0.4415  0.2152 -0.2723
 1996SOL     OW17446   0.446   3.051  16.775  0.3758 -0.1570 -0.1581
 1996SOL    HW117447   0.402   2.985  16.827  1.1700 -1.6399 -1.3747
 1996SOL    HW217448   0.506   3.096  16.835  0.9005  0.2872 -1.0144
 1997SOL     OW17449   0.235   1.543  16.122  0.0890  0.4057 -0.7544
 1997SOL    HW117450   0.207   1.461  16.081 -3.2872  0.8055  0.7299
 1997SOL    HW217451   0.163   1.554  16.184  2.1669  0.7827  1.6160
 1998SOL     OW17452   4.031   2.221  13.172  0.1093 -0.3978 -0.4086
 1998SOL    HW117453   4.013   2.187  13.260 -1.7824  3.7521  0.7775
 1998SOL    HW217454   4.093   2.155  13.141  0.6179  0.0587 -0.3607
 1999SOL     OW17455   3.119   1.276   3.950 -0.3474  0.2154  0.4497
 1999SOL    HW117456   3.167   1.329   3.886  0.6266 -1.6557 -0.3381
 1999SOL    HW217457   3.081   1.340   4.010  3.2803  2.0210  0.8754
 2000SOL     OW17458   3.598   0.832  14.383  0.3034 -0.2900 -0.0653
 2000SOL    HW117459   3.660   0.902  14.362 -1.3229  1.1747 -0.0008
 2000SOL    HW217460   3.649   0.757  14.352 -0.5768 -1.1960  0.6593
 2001SOL     OW17461   0.248   1.780  13.189  0.1441 -0.4026  0.3169
 2001SOL    HW117462   0.338   1.783  13.220  0.4618 -1.7934 -0.4147
 2001SOL    HW217463   0.233   1.691  13.154 -0.6189 -0.7953  1.6607
 2002SOL     OW17464   2.545   2.912   0.294 -0.2585  0.0430 -0.4265
 2002SOL    HW117465   2.575   2.985   0.347 -2.0051 -1.7053  2.9561
 2002SOL    HW217466   2.607   2.841   0.309 -0.5232 -0.1451 -0.2180
 2003SOL     OW17467   2.865   4.654   5.652 -0.1044 -0.8627  0.0910
 2003SOL    HW117468   2.911   0.013   5.677  2.0716 -2.0202 -0.2449
 2003SOL    HW217469   2.773   4.673   5.635 -0.2304 -2.7157 -1.2423
 2004SOL     OW17470   2.231   3.124   6.723  0.8235  0.0471 -0.2971
 2004SOL    HW117471   2.216   3.107   6.816 -1.7513  1.3703 -0.4722
 2004SOL    HW217472   2.244   3.040   6.678 -2.3691 -0.7445  0.3141
 2005SOL     OW17473   2.408   4.433   6.548 -0.0785  0.5788  0.0332
 2005SOL    HW117474   2.462   4.369   6.596 -0.6947 -0.8136 -1.1231
 2005SOL    HW217475   2.409   4.509   6.606 -0.2618 -0.4118  1.3387
 2006SOL     OW17476   2.703   1.928   8.654  0.7761  0.2239 -0.4278
 2006SOL    HW117477   2.710   1.833   8.664 -0.4907  0.5289  3.3176
 2006SOL    HW217478   2.783   1.968   8.687  1.0722  1.6579 -2.8988
 2007SOL     OW17479   2.270   2.340  12.521 -0.2458 -0.0602  0.2318
 2007SOL    HW117480   2.307   2.353  12.608  0.5939 -1.9092  0.1473
 2007SOL    HW217481   2.349   2.340  12.466  0.3173  0.6578  1.0343
 2008SOL     OW17482   3.961   4.470   1.372  0.4624 -0.2784 -0.3938
 2008SOL    HW117483   4.019   4.435   1.305  0.4643  0.4383 -0.7642
 2008SOL    HW217484   3.990   4.560   1.363 -0.2084  0.0582  0.7809
 2009SOL     OW17485   0.209   3.265  16.763 -0.0747  0.0651 -0.1693
 2009SOL    HW117486   0.198   3.171  16.747  1.4357 -0.1215 -0.1114
 2009SOL    HW217487   0.119   3.296  16.762  0.2873  1.0709 -1.0570
 2010SOL     OW17488   1.017   0.121   5.218  0.0587 -0.4583 -0.2139
 2010SOL    HW117489   1.071   0.127   5.297 -0.5436  3.1147 -0.1027
 2010SOL    HW217490   1.070   0.068   5.158  0.7638 -2.4935  2.1858
 2011SOL     OW17491   3.188   3.592   7.839  0.4752  0.1266 -0.1685
 2011SOL    HW117492   3.252   3.560   7.774  0.8736  1.5006 -0.4612
 2011SOL    HW217493   3.152   3.665   7.789  0.4975 -0.6914 -1.3927
 2012SOL     OW17494   4.260   3.730   7.819 -0.1613 -0.1246  0.3255
 2012SOL    HW117495   4.188   3.792   7.815  0.5732  0.8815  2.7298
 2012SOL    HW217496   4.291   3.763   7.903 -2.3028 -0.1827  1.1301
 2013SOL     OW17497   1.640   0.022   6.646 -0.3098 -0.1882  0.3871
 2013SOL    HW117498   1.729   4.710   6.661 -0.4513 -1.1477 -0.8498
 2013SOL    HW217499   1.626   0.009   6.552 -0.8476 -1.6496  0.6720
 2014SOL     OW17500   0.993   1.107   7.544 -0.8080 -0.0954 -0.3549
 2014SOL    HW117501   1.028   1.167   7.478 -3.3778  1.1158 -0.6155
 2014SOL    HW217502   1.068   1.088   7.600 -2.0516 -0.5245  1.1660
 2015SOL     OW17503   3.072   0.835  13.997  0.3287 -0.1546 -0.1772
 2015SOL    HW117504   3.046   0.764  14.055 -0.6853 -0.7311 -1.3296
 2015SOL    HW217505   2.999   0.897  14.008 -0.9911 -2.2958  3.2124
 2016SOL     OW17506   4.593   0.953   3.000  0.3111  0.3116 -0.5170
 2016SOL    HW117507   4.582   1.021   2.934 -0.6883  3.1930  2.6010
 2016SOL    HW217508   4.685   0.935   2.981 -0.1728 -1.6505 -0.9764
 2017SOL     OW17509   4.588   3.103   8.141  0.0034 -0.2980  0.5081
 2017SOL    HW117510   4.654   3.135   8.202 -0.6221  2.1628 -0.1133
 2017SOL    HW217511   4.512   3.094   8.199 -1.2750  1.9077 -0.8474
 2018SOL     OW17512   2.948   2.850   1.474 -0.5466 -0.3227 -0.1529
 2018SOL    HW117513   2.938   2.828   1.382  1.2173 -0.7931 -0.2284
 2018SOL    HW217514   2.871   2.811   1.516 -0.9326  1.8626  1.1732
 2019SOL     OW17515   1.354   1.572  10.233  0.0624 -0.1077  0.0540
 2019SOL    HW117516   1.329   1.662  10.217  0.8639 -0.1682 -1.5199
 2019SOL    HW217517   1.316   1.531  10.155  0.3445  1.6517 -0.9977
 2020SOL     OW17518   1.130   4.594   6.467  0.3047  0.0484 -0.1975
 2020SOL    HW117519   1.078   4.517   6.488  0.5270  0.0825  0.5039
 2020SOL    HW217520   1.167   4.610   6.554  1.9553 -0.0950 -0.8555
 2021SOL     OW17521   2.117   4.485   9.096  0.2706  0.7357 -0.1930
 2021SOL    HW117522   2.187   4.486   9.161  0.2856 -3.4325 -0.1037
 2021SOL    HW217523   2.083   4.572   9.119 -0.6950  0.9475 -2.4689
 2022SOL     OW17524   2.652   0.526   3.530 -0.1904 -0.5555 -0.3633
 2022SOL    HW117525   2.583   0.583   3.563 -2.0048 -2.6132 -0.5397
 2022SOL    HW217526   2.600   0.451   3.501 -1.7830  0.0109  1.0880
 2023SOL     OW17527   1.686   2.181  10.191 -0.2869  0.2592  0.0029
 2023SOL    HW117528   1.678   2.220  10.278  0.7158  0.4868  0.0001
 2023SOL    HW217529   1.593   2.164  10.179 -0.2900  0.0483  0.3103
 2024SOL     OW17530   0.883   0.199   4.428 -0.2546 -0.7936 -0.1569
 2024SOL    HW117531   0.970   0.181   4.464  0.2461  2.5031  0.3013
 2024SOL    HW217532   0.870   0.129   4.364 -0.5258 -1.6952  0.8895
 2025SOL     OW17533   3.565   1.631   5.719 -0.0182  0.3043 -0.2140
 2025SOL    HW117534   3.559   1.642   5.814  1.3769  0.3221 -0.1263
 2025SOL    HW217535   3.660   1.629   5.714  0.0261 -0.3194  0.9601
 2026SOL     OW17536   4.701   1.878  12.621 -0.0655  0.3423  0.7520
 2026SOL    HW117537   4.696   1.834  12.706 -0.1256 -0.0287  0.5562
 2026SOL    HW217538   4.646   1.955  12.634 -0.4495  0.5263 -1.9348
 2027SOL     OW17539   1.864   4.221  13.594  0.0238  0.4670  0.6454
 2027SOL    HW117540   1.945   4.270  13.604  0.5728  0.0481 -1.7079
 2027SOL    HW217541   1.801   4.291  13.612 -1.5922 -0.5714 -0.9993
 2028SOL     OW17542   3.188   0.334   8.342 -0.9666  0.4077 -0.7119
 2028SOL    HW117543   3.224   0.283   8.269 -0.6199 -0.2561 -0.0699
 2028SOL    HW217544   3.268   0.373   8.378 -1.2070  1.1408 -0.9650
 2029SOL     OW17545   0.711   2.513   6.333 -0.5722  0.2559  0.0466
 2029SOL    HW117546   0.790   2.561   6.360 -0.2977  0.2401 -0.7277
 2029SOL    HW217547   0.654   2.529   6.408  0.2155  1.1798  0.4630
 2030SOL     OW17548   0.420   0.090   4.942  0.0359  0.3623  0.3748
 2030SOL    HW117549   0.334   0.108   4.979 -0.2653  0.5293 -0.4172
 2030SOL    HW217550   0.476   0.153   4.988 -3.9226  3.1155  1.4516
 2031SOL     OW17551   3.678   0.943   7.554  0.5043  0.1507 -0.0210
 2031SOL    HW117552   3.731   0.893   7.493  0.3325 -1.0346  0.7961
 2031SOL    HW217553   3.709   1.033   7.542  2.4895 -0.2780  1.8743
 2032SOL     OW17554   1.292   2.310   3.043  0.4702  0.2589 -0.3943
 2032SOL    HW117555   1.214   2.356   3.011  1.1587  2.2126  0.7088
 2032SOL    HW217556   1.317   2.255   2.968  0.2279 -0.4761  0.0640
 2033SOL     OW17557   3.428   2.774   4.349 -0.0705  0.1839  0.4619
 2033SOL    HW117558   3.466   2.824   4.421  0.3631 -0.9354  1.0094
 2033SOL    HW217559   3.502   2.754   4.292  0.4637  1.8667  0.5595
 2034SOL     OW17560   1.238   3.227   4.496  0.0508 -0.4613 -0.4245
 2034SOL    HW117561   1.315   3.283   4.488  0.1373 -0.4997  0.1507
 2034SOL    HW217562   1.282   3.145   4.515  2.1303  0.9222  0.7691
 2035SOL     OW17563   3.365   3.394   7.431 -0.2941  0.1491  0.1189
 2035SOL    HW117564   3.308   3.369   7.357 -0.2535  0.6246 -0.0718
 2035SOL    HW217565   3.433   3.330   7.411  0.1365  0.5523  0.2973
 2036SOL     OW17566   4.693   1.081   7.825 -0.2769 -0.9692 -0.0844
 2036SOL    HW117567   4.668   1.124   7.743  2.0840  1.5161  0.4830
 2036SOL    HW217568   0.054   1.037   7.801  0.5273  0.0223  0.8486
 2037SOL     OW17569   3.759   1.889   1.698  1.0916 -0.0130 -0.3829
 2037SOL    HW117570   3.709   1.840   1.632 -1.1229  1.1473  0.4284
 2037SOL    HW217571   3.740   1.980   1.675 -1.4784 -1.4729 -4.2394
 2038SOL     OW17572   0.738   3.970  16.912  0.0097  0.0184  0.1599
 2038SOL    HW117573   0.814   3.977  16.970 -0.5040 -0.4997  0.8969
 2038SOL    HW217574   0.783   3.989  16.829  3.6213  0.0259  2.1258
 2039SOL     OW17575   1.588   2.856   5.462 -0.3627  0.0952 -0.5754
 2039SOL    HW117576   1.654   2.839   5.394  1.0484  1.2788  0.4813
 2039SOL    HW217577   1.636   2.912   5.523 -0.1506 -0.9969  0.2701
 2040SOL     OW17578   0.481   3.431   4.735  0.5837 -0.3140  0.1383
 2040SOL    HW117579   0.409   3.474   4.689  0.4372 -1.6979 -0.9263
 2040SOL    HW217580   0.531   3.402   4.658  0.7487  0.2082  0.0513
 2041SOL     OW17581   2.569   1.685   5.864 -0.0083 -0.0289  0.5002
 2041SOL    HW117582   2.599   1.661   5.777  0.7032  1.3710  0.3466
 2041SOL    HW217583   2.570   1.601   5.910  3.1809  0.3036  1.0599
 2042SOL     OW17584   0.456   0.274  16.993  0.7300 -0.0540  0.2934
 2042SOL    HW117585   0.514   0.344  17.022  1.5248 -1.3511  1.8105
 2042SOL    HW217586   0.459   0.294  16.900  2.2489  1.6915  0.7204
 2043SOL     OW17587   1.492   1.762   9.185  1.1201 -0.1005 -0.2404
 2043SOL    HW117588   1.486   1.834   9.122 -0.9133  0.3877  0.5103
 2043SOL    HW217589   1.433   1.693   9.156  0.8545  0.1590 -0.3148
 2044SOL     OW17590   4.386   2.807  15.380  0.8620  0.1536 -0.2922
 2044SOL    HW117591   4.334   2.873  15.427 -0.4033 -0.3607 -0.9562
 2044SOL    HW217592   4.343   2.733  15.421  1.7286 -0.7338 -0.9928
 2045SOL     OW17593   0.480   3.175  16.559 -0.0397  0.9580  0.1749
 2045SOL    HW117594   0.548   3.231  16.597  0.5965 -1.5523  2.7344
 2045SOL    HW217595   0.457   3.118  16.633  0.8049  1.1139  0.5539
 2046SOL     OW17596   0.356   2.943   0.321 -0.5865 -0.4173 -0.3487
 2046SOL    HW117597   0.269   2.970   0.291 -0.0163  0.7400 -0.9432
 2046SOL    HW217598   0.359   2.968   0.414  2.4779 -0.0361 -0.5750
 2047SOL     OW17599   0.812   2.915   7.026  0.5262 -0.4487  0.3190
 2047SOL    HW117600   0.845   2.926   7.115  0.3012  0.6360  0.2729
 2047SOL    HW217601   0.878   2.962   6.976 -2.6546  4.5972  0.8678
 2048SOL     OW17602   3.756   0.194  16.681  0.0313  0.2908 -0.8076
 2048SOL    HW117603   3.792   0.264  16.627  0.5579  0.3952 -0.3231
 2048SOL    HW217604   3.757   0.122  16.618 -2.9252 -0.3567 -0.1253
 2049SOL     OW17605   3.389   2.206  16.951  0.3491  0.0832  0.4588
 2049SOL    HW117606   3.435   2.133  16.992 -0.2937  0.0428  1.1077
 2049SOL    HW217607   3.419   2.291  16.984 -0.5041  1.4167 -2.1027
 2050SOL     OW17608   3.726   4.204   7.284 -0.7565 -0.4942  0.6217
 2050SOL    HW117609   3.766   4.227   7.368  0.6055 -0.5416 -0.0293
 2050SOL    HW217610   3.667   4.279   7.274  1.0459  0.5383 -2.2348
 2051SOL     OW17611   3.532   0.464   7.211 -0.0755  0.0051 -0.3241
 2051SOL    HW117612   3.534   0.497   7.121  0.7038 -1.1657 -0.7379
 2051SOL    HW217613   3.562   0.544   7.254  0.4151 -0.9629  1.1242
 2052SOL     OW17614   4.365   2.604   6.454  0.8467  0.0455  0.1818
 2052SOL    HW117615   4.317   2.629   6.375 -0.0088  0.9732  0.9897
 2052SOL    HW217616   4.362   2.686   6.504 -0.1359  0.5625 -0.7285
 2053SOL     OW17617   0.402   4.107   6.412 -0.4523  0.1125  0.7355
 2053SOL    HW117618   0.358   4.122   6.495  0.4877 -0.5585  1.3515
 2053SOL    HW217619   0.326   4.069   6.367  0.0780 -0.7523  0.5718
 2054SOL     OW17620   2.912   3.647   0.598 -0.0199 -0.6219 -0.4015
 2054SOL    HW117621   2.993   3.635   0.648 -1.3640 -0.6977  1.7727
 2054SOL    HW217622   2.925   3.738   0.575 -0.9203 -1.3070 -3.5420
 2055SOL     OW17623   1.925   0.737  17.108 -0.5540 -0.0545  0.5445
 2055SOL    HW117624   2.012   0.760  17.075  0.0868 -0.1971  2.1157
 2055SOL    HW217625   1.891   0.665  17.055 -0.0628 -0.0019  0.1537
 2056SOL     OW17626   3.488   2.400   7.905 -0.1033  0.4595  0.4394
 2056SOL    HW117627   3.466   2.427   7.816 -1.1661  0.8869  0.8333
 2056SOL    HW217628   3.583   2.395   7.898 -0.2657 -1.4292 -0.5460
 2057SOL     OW17629   3.239   4.185   8.085 -0.1129 -0.5636  0.0195
 2057SOL    HW117630   3.264   4.179   8.177 -0.3934 -2.8704 -0.0564
 2057SOL    HW217631   3.187   4.265   8.094 -0.1028 -0.0141 -4.7261
 2058SOL     OW17632   4.431   1.950  12.453  0.2421  0.5877  0.1983
 2058SOL    HW117633   4.389   1.994  12.527  0.2106 -0.2461  0.6662
 2058SOL    HW217634   4.493   2.014  12.417  2.3539 -1.5389  0.0511
 2059SOL     OW17635   1.137   2.744   8.141 -0.2037  0.0521  0.6787
 2059SOL    HW117636   1.131   2.833   8.174 -0.6554  1.5154 -3.3049
 2059SOL    HW217637   1.203   2.756   8.073  1.3701 -0.6682  2.0948
 2060SOL     OW17638   1.820   0.927  17.285 -0.0712  0.1469  0.3375
 2060SOL    HW117639   1.865   0.877  17.217 -0.8733 -1.4196  0.9625
 2060SOL    HW217640   1.895   0.972  17.325  0.7151 -0.7483 -0.1247
 2061SOL     OW17641   2.827   2.870   3.195 -0.0004  0.2788  0.1501
 2061SOL    HW117642   2.743   2.859   3.150 -1.3554  1.1437  2.4391
 2061SOL    HW217643   2.800   2.943   3.251  0.6601  0.8723 -0.3043
 2062SOL     OW17644   4.252   0.895   7.276  0.0398 -0.1544 -0.2552
 2062SOL    HW117645   4.274   0.952   7.350 -1.0648  0.4024 -0.3525
 2062SOL    HW217646   4.323   0.832   7.264 -1.5390 -2.3383  1.9912
 2063SOL     OW17647   0.820   1.756   6.736  0.5113  0.5910  0.1016
 2063SOL    HW117648   0.905   1.734   6.776  1.4339  1.7233 -1.2332
 2063SOL    HW217649   0.763   1.788   6.805  1.4608 -0.6086  1.4454
 2064SOL     OW17650   3.797   0.775   2.603 -0.2819 -0.4124  0.6553
 2064SOL    HW117651   3.888   0.756   2.582 -0.2263 -1.3004  1.7070
 2064SOL    HW217652   3.786   0.853   2.549 -2.3273 -0.0378  1.6210
 2065SOL     OW17653   3.449   3.351   2.932 -0.1390  0.2899 -0.1586
 2065SOL    HW117654   3.507   3.425   2.915 -0.9560  0.6171 -1.5650
 2065SOL    HW217655   3.497   3.293   2.991 -1.1802  0.7398  1.1474
 2066SOL     OW17656   0.820   3.258   2.204 -0.1985 -0.0391 -0.0029
 2066SOL    HW117657   0.758   3.299   2.264  1.2670  0.3259  1.2629
 2066SOL    HW217658   0.789   3.168   2.209  0.8656 -0.3448  1.0564
 2067SOL     OW17659   0.346   2.816   8.305 -0.0963 -0.5527  0.0785
 2067SOL    HW117660   0.274   2.770   8.263 -0.7139  0.6126 -0.1575
 2067SOL    HW217661   0.346   2.896   8.253  1.6492  0.2074  1.2179
 2068SOL     OW17662   1.812   1.797   5.986  0.2845 -0.0445 -0.5367
 2068SOL    HW117663   1.778   1.714   5.953 -1.2665  0.3711  0.0198
 2068SOL    HW217664   1.731   1.846   6.002  1.4312  1.7626 -0.1668
 2069SOL     OW17665   4.416   2.836   6.932  0.0374  0.1893  0.6586
 2069SOL    HW117666   4.504   2.862   6.957  0.5999  0.2079 -1.3419
 2069SOL    HW217667   4.376   2.921   6.915  2.1025  1.1329  0.5724
 2070SOL     OW17668   0.609   1.419   3.750  0.3658 -0.2234 -0.1846
 2070SOL    HW117669   0.622   1.362   3.825 -1.1913  0.4050  0.5687
 2070SOL    HW217670   0.552   1.365   3.695  0.9190  0.2445 -1.2317
 2071SOL     OW17671   2.732   3.875  17.156 -0.6326  0.9668 -0.2839
 2071SOL    HW117672   2.805   3.816  17.175 -0.9582  0.5402 -0.3687
 2071SOL    HW217673   2.684   3.843  17.233 -0.4050 -0.2705 -0.6522
 2072SOL     OW17674   0.043   2.265   7.026 -0.3357  0.3651  0.0206
 2072SOL    HW117675   0.095   2.238   7.101 -2.0867  0.7541  1.3672
 2072SOL    HW217676   0.089   2.344   6.999 -1.3877  0.7802 -0.5665
 2073SOL     OW17677   3.130   3.162   9.859  0.1602 -0.3493  0.0064
 2073SOL    HW117678   3.118   3.160   9.764  1.3270  1.5784 -0.1964
 2073SOL    HW217679   3.180   3.081   9.872 -1.8171 -1.7877 -1.4223
 2074SOL     OW17680   2.313   4.337   4.423  0.3264 -0.3848 -0.3862
 2074SOL    HW117681   2.404   4.313   4.407  0.4542 -0.3693  0.3111
 2074SOL    HW217682   2.280   4.248   4.410  2.3515 -1.1631 -0.1552
 2075SOL     OW17683   1.418   3.565   7.838 -0.3030 -0.0835 -0.5613
 2075SOL    HW117684   1.371   3.586   7.757 -0.9775  2.0019  0.3657
 2075SOL    HW217685   1.450   3.651   7.863 -1.5748  0.1429  0.3155
 2076SOL     OW17686   1.406   3.337  13.213 -0.1656  0.5214 -0.4356
 2076SOL    HW117687   1.485   3.307  13.257  0.7401  3.1215 -0.2747
 2076SOL    HW217688   1.340   3.269  13.228 -0.3310  0.7219 -0.2544
 2077SOL     OW17689   3.880   4.476   4.030 -0.3801  0.2534 -0.4124
 2077SOL    HW117690   3.953   4.488   3.970 -0.5901 -0.2585 -0.7677
 2077SOL    HW217691   3.923   4.490   4.115 -0.3823  1.9566 -0.7063
 2078SOL     OW17692   2.458   2.220   9.065  0.8444  0.6439  0.0607
 2078SOL    HW117693   2.426   2.188   8.981  0.3155 -2.9136  1.6357
 2078SOL    HW217694   2.540   2.256   9.032  1.6028 -1.0129  0.1304
 2079SOL     OW17695   4.282   0.006   4.128 -0.6387 -0.6135  0.3480
 2079SOL    HW117696   4.315   4.664   4.192  0.9113 -2.2494 -2.0595
 2079SOL    HW217697   4.349   4.716   4.061  0.2825 -1.0646  1.3441
 2080SOL     OW17698   4.220   1.432  12.542  0.2741 -0.1416  0.1307
 2080SOL    HW117699   4.167   1.436  12.462 -0.8077 -0.6145  0.8329
 2080SOL    HW217700   4.290   1.496  12.529 -0.4555  0.3186 -1.4755
 2081SOL     OW17701   2.933   3.034   0.933 -0.4829  0.7607  0.4086
 2081SOL    HW117702   3.005   2.980   0.966  0.0368  0.2163 -1.6140
 2081SOL    HW217703   2.953   3.028   0.839  1.1276 -3.3502  1.0502
 2082SOL     OW17704   1.878   2.126   5.302  0.0793 -0.0297  0.3918
 2082SOL    HW117705   1.796   2.113   5.254  1.4139  0.4229 -2.0116
 2082SOL    HW217706   1.880   2.034   5.330  0.4233 -0.3522 -0.6752
 2083SOL     OW17707   1.431   1.151  13.795 -0.2699  0.5639  0.1175
 2083SOL    HW117708   1.453   1.244  13.794 -0.6993  0.6650  0.2379
 2083SOL    HW217709   1.345   1.158  13.835 -1.2826  1.3422 -2.2188
 2084SOL     OW17710   3.802   1.690   8.911  0.9695 -0.1746 -0.4278
 2084SOL    HW117711   3.863   1.763   8.919  1.7520 -0.9967  1.2365
 2084SOL    HW217712   3.726   1.739   8.943  0.6048 -2.0506  1.5772
 2085SOL     OW17713   4.276   0.688   9.153 -0.1583 -0.3111  0.3414
 2085SOL    HW117714   4.242   0.769   9.112  0.5055  0.9267  2.2520
 2085SOL    HW217715   4.308   0.716   9.238  1.4971  0.1474 -0.4271
 2086SOL     OW17716   0.775   2.799  16.401 -0.0948  0.1170  0.0901
 2086SOL    HW117717   0.745   2.879  16.358  0.2231 -1.1251 -2.4399
 2086SOL    HW217718   0.691   2.773  16.439 -0.9112  1.1710 -1.0020
 2087SOL     OW17719   1.898   0.234   4.188 -0.3086 -0.2769 -0.3219
 2087SOL    HW117720   1.846   0.296   4.137  0.2853 -0.0532 -0.6510
 2087SOL    HW217721   1.845   0.154   4.184 -0.3927 -0.2816  0.8531
 2088SOL     OW17722   4.360   2.973  13.994 -0.2056 -0.4433  0.2041
 2088SOL    HW117723   4.451   2.942  13.995 -0.7681 -2.1466 -0.2914
 2088SOL    HW217724   4.364   3.050  14.050 -0.5493 -0.2832  0.0089
 2089SOL     OW17725   0.047   4.713   3.695  0.3410 -0.0976 -0.1071
 2089SOL    HW117726   4.717   0.057   3.742  1.1856  0.0817  0.5546
 2089SOL    HW217727   4.700   4.681   3.636 -0.7870 -0.9285  1.6626
 2090SOL     OW17728   1.927   0.498   7.042 -0.2993 -0.8836  0.6183
 2090SOL    HW117729   1.955   0.407   7.050 -0.5917 -1.0422 -0.2333
 2090SOL    HW217730   1.938   0.523   7.134 -2.0550 -0.9661  0.8456
 2091SOL     OW17731   2.695   1.033  11.603 -0.3790 -0.7688  0.2951
 2091SOL    HW117732   2.765   1.092  11.632 -1.6777  0.8779  0.0667
 2091SOL    HW217733   2.747   0.958  11.576  2.2422  1.0846  0.1057
 2092SOL     OW17734   0.165   0.653   3.742 -0.2234 -0.2846  0.1447
 2092SOL    HW117735   0.159   0.671   3.836 -0.1687 -0.2714  0.1457
 2092SOL    HW217736   0.259   0.640   3.732  0.2391  2.3158  1.0608
 2093SOL     OW17737   0.888   1.954   4.564 -0.5931  0.1538 -0.3714
 2093SOL    HW117738   0.838   2.005   4.628 -1.5429  1.7885 -2.4280
 2093SOL    HW217739   0.947   1.912   4.627  2.6474  2.9421 -1.5902
 2094SOL     OW17740   0.493   4.434  12.600  0.0998  0.3040 -0.3944
 2094SOL    HW117741   0.540   4.511  12.630 -0.9056 -0.1974  2.4875
 2094SOL    HW217742   0.412   4.474  12.567 -0.0135 -0.3538 -0.9292
 2095SOL     OW17743   2.281   3.217   2.767 -0.1791 -0.3193 -0.3400
 2095SOL    HW117744   2.318   3.283   2.825 -1.5056 -0.1404  0.2989
 2095SOL    HW217745   2.207   3.192   2.822  0.8783  0.5722  1.4990
 2096SOL     OW17746   1.117   0.519   5.096 -0.1038 -0.4566 -0.0750
 2096SOL    HW117747   1.031   0.526   5.137  0.6459  1.8082  1.0898
 2096SOL    HW217748   1.105   0.569   5.015  2.5915 -0.2703 -0.3437
 2097SOL     OW17749   4.621   1.416   9.274 -0.3760  1.0300 -0.0803
 2097SOL    HW117750   4.598   1.500   9.313  3.8453  2.0266  0.2820
 2097SOL    HW217751   4.612   1.362   9.352  4.0623  0.2362 -0.1016
 2098SOL     OW17752   1.112   3.999   8.845  0.0011  0.5722 -0.1734
 2098SOL    HW117753   1.133   3.927   8.785  0.7955  1.0831 -0.5088
 2098SOL    HW217754   1.147   3.963   8.927 -0.0023 -2.3432 -1.4420
 2099SOL     OW17755   3.847   3.925  14.679 -0.3230 -0.4106  0.3772
 2099SOL    HW117756   3.859   3.989  14.749 -3.7821 -3.0588  3.4371
 2099SOL    HW217757   3.889   3.847  14.716  2.0403  1.1832  1.0350
 2100SOL     OW17758   2.975   3.191   3.411  0.5328  0.0917  0.6673
 2100SOL    HW117759   2.946   3.281   3.423 -0.7711  0.1026 -2.3757
 2100SOL    HW217760   2.897   3.142   3.384  1.5274 -0.7302 -0.7323
 2101SOL     OW17761   3.312   3.949   7.294  0.5606  0.1777  0.3558
 2101SOL    HW117762   3.260   4.002   7.234  1.8126  1.0111  0.0053
 2101SOL    HW217763   3.297   4.008   7.369 -2.8072 -0.2629  0.0608
 2102SOL     OW17764   0.302   2.852   1.240  0.2574  0.1793 -0.0027
 2102SOL    HW117765   0.291   2.945   1.220 -1.6127  0.1261  0.7215
 2102SOL    HW217766   0.306   2.843   1.335  0.0475  0.6382  0.0481
 2103SOL     OW17767   3.156   2.896   0.846 -0.1202  0.0617  0.3250
 2103SOL    HW117768   3.214   2.943   0.786 -1.6906 -0.5313 -1.6569
 2103SOL    HW217769   3.158   2.808   0.810  1.6201  0.1341  0.2383
 2104SOL     OW17770   2.743   0.662   6.253 -0.7544  0.0167 -0.3936
 2104SOL    HW117771   2.800   0.680   6.327 -1.9558 -3.1867  1.3175
 2104SOL    HW217772   2.739   0.566   6.258 -0.6976  0.0990  1.2207
 2105SOL     OW17773   1.550   0.654   4.404  0.1851  0.2297  0.4674
 2105SOL    HW117774   1.582   0.721   4.465  0.4815  0.7267 -0.2416
 2105SOL    HW217775   1.611   0.673   4.334 -0.3122  0.0324 -0.0170
 2106SOL     OW17776   2.029   1.874  15.409 -0.1222  0.0969  0.7234
 2106SOL    HW117777   2.038   1.965  15.381  0.3895  0.5354  2.2975
 2106SOL    HW217778   1.981   1.876  15.492 -0.6537 -0.7708  0.4352
 2107SOL     OW17779   4.324   2.391   6.186  0.3575 -0.1728 -0.2373
 2107SOL    HW117780   4.412   2.387   6.223 -1.0653 -2.6871  2.8399
 2107SOL    HW217781   4.304   2.484   6.196 -1.1550 -0.4736 -0.3950
 2108SOL     OW17782   4.450   3.003   8.836 -0.6689  0.2653 -0.2274
 2108SOL    HW117783   4.435   3.089   8.797 -0.3762  0.5427  0.2735
 2108SOL    HW217784   4.358   2.978   8.841 -0.7914  0.4648 -1.3011
 2109SOL     OW17785   4.339   1.600   9.323  0.5152  0.7862  0.4653
 2109SOL    HW117786   4.404   1.629   9.387  2.3342 -0.0599 -1.0031
 2109SOL    HW217787   4.363   1.644   9.241  0.6419 -0.8167 -0.3539
 2110SOL     OW17788   0.920   0.192   4.965  0.1045 -0.4236  0.1827
 2110SOL    HW117789   0.985   0.159   5.026  1.9119 -0.1869 -1.6422
 2110SOL    HW217790   0.856   0.122   4.980 -0.1423 -0.0471  0.9257
 2111SOL     OW17791   4.095   3.897   6.540 -0.0247  0.1231  0.3489
 2111SOL    HW117792   4.130   3.953   6.469 -1.4311  1.7335  0.9219
 2111SOL    HW217793   4.163   3.913   6.605  0.6479  0.0330 -0.3273
 2112SOL     OW17794   1.979   2.329  12.763 -0.0833 -0.2147 -0.2499
 2112SOL    HW117795   1.904   2.371  12.722 -1.5663 -3.0004 -0.4222
 2112SOL    HW217796   1.975   2.254  12.704 -2.1203  0.0811 -0.4776
 2113SOL     OW17797   2.675   0.183   0.888  0.3717  0.5340 -0.2149
 2113SOL    HW117798   2.737   0.255   0.880 -0.3870  1.2451  0.3720
 2113SOL    HW217799   2.650   0.169   0.796 -0.7435  0.0339  0.1677
 2114SOL     OW17800   2.203   1.775   3.446  0.0840  0.0034 -0.1521
 2114SOL    HW117801   2.267   1.838   3.480 -2.0145  2.0381  0.0522
 2114SOL    HW217802   2.195   1.815   3.359 -2.2810  0.0033  0.0847
 2115SOL     OW17803   3.556   1.348   5.544  0.7296 -0.2950  0.2023
 2115SOL    HW117804   3.557   1.419   5.608  5.2628 -0.0696 -0.0797
 2115SOL    HW217805   3.519   1.397   5.471  0.4900  0.5964  0.9205
 2116SOL     OW17806   2.486   3.738   9.214 -0.2354  0.3736  0.1102
 2116SOL    HW117807   2.476   3.818   9.162  1.2327  0.6405  0.2521
 2116SOL    HW217808   2.414   3.742   9.278 -0.5586  0.3365 -0.2502
 2117SOL     OW17809   3.263   2.061  17.165  0.1340  0.0673  0.0089
 2117SOL    HW117810   3.278   2.116  17.241 -2.5123 -0.5690  0.9883
 2117SOL    HW217811   3.235   2.125  17.099 -1.1125  0.4426  0.9015
 2118SOL     OW17812   4.671   2.326   3.060 -0.1936  0.3751  0.5111
 2118SOL    HW117813   4.702   2.415   3.080 -2.4823  1.2189  0.3135
 2118SOL    HW217814   0.027   2.269   3.069  0.3112  0.8705 -0.6501
 2119SOL     OW17815   3.720   1.436  16.634 -0.3847  0.2714  0.0114
 2119SOL    HW117816   3.734   1.456  16.541 -0.7257 -2.1886 -0.5850
 2119SOL    HW217817   3.625   1.430  16.641 -0.5631  0.0595 -2.7263
 2120SOL     OW17818   3.751   4.369   2.660  0.6539  0.1053 -0.5632
 2120SOL    HW117819   3.707   4.451   2.685 -0.1991 -0.8886  1.1247
 2120SOL    HW217820   3.800   4.404   2.585  0.7118  0.8072 -0.1993
 2121SOL     OW17821   2.944   1.933   4.980  0.4433  0.1302  0.5520
 2121SOL    HW117822   3.037   1.921   4.999  0.5517  2.0813  1.2603
 2121SOL    HW217823   2.903   1.905   5.062 -1.1048 -2.3534 -1.0707
 2122SOL     OW17824   4.047   3.385   3.040 -0.1444  0.3685 -0.4827
 2122SOL    HW117825   4.021   3.329   2.967  0.3247  1.4931 -1.5283
 2122SOL    HW217826   4.137   3.359   3.058 -0.1712  0.6425  0.0660
 2123SOL     OW17827   1.468   2.992   6.614 -1.2600  0.5113  0.1268
 2123SOL    HW117828   1.412   3.053   6.567  0.4452 -0.3319 -2.9994
 2123SOL    HW217829   1.432   2.909   6.582 -0.2654  1.0750 -2.4675
 2124SOL     OW17830   2.274   1.736  15.330  0.6444  0.4786  0.1799
 2124SOL    HW117831   2.224   1.814  15.355 -1.2319 -0.0766 -1.8504
 2124SOL    HW217832   2.203   1.673  15.341  1.1004 -0.2192 -0.8168
 2125SOL     OW17833   3.002   1.116  16.460 -0.0047  0.3310  0.5889
 2125SOL    HW117834   2.908   1.126  16.445  0.5009 -0.3499 -2.9135
 2125SOL    HW217835   3.031   1.138  16.372  0.6305  1.1668  1.0110
 2126SOL     OW17836   3.569   1.404  12.209  0.1040 -0.0104  0.1036
 2126SOL    HW117837   3.523   1.321  12.198 -0.1473  0.2914 -1.1415
 2126SOL    HW217838   3.587   1.421  12.116 -3.8246  1.8470 -0.3466
 2127SOL     OW17839   0.186   4.344   7.052  0.6083 -0.4920  0.0238
 2127SOL    HW117840   0.195   4.261   7.098  0.6558 -1.2636 -1.3926
 2127SOL    HW217841   0.166   4.324   6.961  0.9908 -3.0511  0.5229
 2128SOL     OW17842   2.020   1.518   5.205 -0.1524  0.0569 -0.1610
 2128SOL    HW117843   1.931   1.540   5.232  0.0293 -1.8008  1.9060
 2128SOL    HW217844   2.060   1.494   5.288 -0.1350 -3.7439 -1.2580
 2129SOL     OW17845   3.238   3.755  12.753  0.2153 -0.3463  0.5829
 2129SOL    HW117846   3.172   3.698  12.715  3.4588 -0.9694 -4.1481
 2129SOL    HW217847   3.275   3.806  12.680 -1.0697  1.9469  1.5276
 2130SOL     OW17848   0.931   4.152   1.587  0.1586  0.1464 -0.3450
 2130SOL    HW117849   0.896   4.136   1.675 -0.1986  0.5398 -0.4141
 2130SOL    HW217850   0.903   4.241   1.566 -1.1753  0.0646  1.0533
 2131SOL     OW17851   2.971   1.134   5.294 -0.0917 -0.1417 -0.2972
 2131SOL    HW117852   2.935   1.045   5.293 -0.7093  0.1141 -0.6647
 2131SOL    HW217853   2.957   1.155   5.202  1.0811 -3.6877 -1.2625
 2132SOL     OW17854   0.548   3.723   4.366 -0.2615 -0.3966 -0.1352
 2132SOL    HW117855   0.469   3.776   4.356 -0.5432 -0.9897 -1.1244
 2132SOL    HW217856   0.515   3.640   4.400  0.0044  0.0634  1.2532
 2133SOL     OW17857   0.470   2.288   8.075 -0.2707  0.1980 -0.4183
 2133SOL    HW117858   0.500   2.225   8.140  1.9267  1.2987 -0.3865
 2133SOL    HW217859   0.500   2.375   8.102 -2.3751  1.0629 -0.8679
 2134SOL     OW17860   2.706   0.907   0.385 -0.2994 -0.1284  0.2274
 2134SOL    HW117861   2.788   0.884   0.428  0.9456  0.6261 -1.7323
 2134SOL    HW217862   2.687   0.993   0.423 -1.6326 -0.2058 -0.2445
 2135SOL     OW17863   3.336   3.689  10.867 -0.6108  0.4036  0.1991
 2135SOL    HW117864   3.280   3.763  10.891 -1.5946 -1.4645  3.6369
 2135SOL    HW217865   3.347   3.703  10.773 -0.6945 -0.8910 -0.0124
 2136SOL     OW17866   1.966   0.762   6.229  0.3788  0.4118 -0.0648
 2136SOL    HW117867   2.015   0.841   6.252 -1.9334  1.4462  1.2157
 2136SOL    HW217868   1.891   0.759   6.288 -1.3969 -1.3319 -2.3862
 2137SOL     OW17869   4.152   2.483   6.623  0.1740  0.4267 -0.4008
 2137SOL    HW117870   4.216   2.500   6.553  0.2941  0.7297 -0.2167
 2137SOL    HW217871   4.182   2.394   6.643 -0.6104  0.5458  1.2565
 2138SOL     OW17872   3.973   2.675  14.973 -0.0838 -0.1165 -0.2737
 2138SOL    HW117873   3.917   2.608  15.013  0.4654 -0.4072  0.0047
 2138SOL    HW217874   4.019   2.630  14.902  0.8135 -1.4411  1.1491
 2139SOL     OW17875   0.712   2.426  15.623 -0.1186  0.5414  0.1159
 2139SOL    HW117876   0.647   2.356  15.622  0.9659 -0.4314 -2.1851
 2139SOL    HW217877   0.787   2.381  15.663 -0.4216  0.0883  0.1709
 2140SOL     OW17878   2.548   2.427  10.980  0.3894  0.3163 -0.3219
 2140SOL    HW117879   2.492   2.436  11.057  0.3761 -0.1126 -0.2786
 2140SOL    HW217880   2.560   2.519  10.958  0.3266  1.1754  3.2675
 2141SOL     OW17881   3.084   2.987  15.000  0.3857 -0.2645 -0.0971
 2141SOL    HW117882   3.079   3.054  14.932 -0.3489  0.1668  0.3876
 2141SOL    HW217883   3.171   2.950  14.984 -0.3957 -1.5986 -1.3104
 2142SOL     OW17884   3.282   3.524   1.998 -0.3284 -0.8537 -0.3455
 2142SOL    HW117885   3.292   3.516   2.093 -1.1286  0.6696 -0.1233
 2142SOL    HW217886   3.205   3.472   1.978  0.0646 -1.6040  0.0914
 2143SOL     OW17887   0.676   0.622   3.359 -0.3339 -0.1513  0.2430
 2143SOL    HW117888   0.749   0.634   3.420  0.0941 -2.8982  0.3074
 2143SOL    HW217889   0.696   0.668   3.278 -2.0338  1.1886  0.6023
 2144SOL     OW17890   2.487   2.324  16.521  0.4764  0.6427 -0.3667
 2144SOL    HW117891   2.517   2.409  16.490  0.0596  0.0830 -2.2695
 2144SOL    HW217892   2.411   2.353  16.573  1.8146 -0.4418  2.1958
 2145SOL     OW17893   0.404   2.542   6.427 -0.3506 -0.1568  0.2809
 2145SOL    HW117894   0.308   2.550   6.428 -0.4823 -1.5207 -0.6385
 2145SOL    HW217895   0.415   2.466   6.485  0.2754 -0.9530 -0.8863
 2146SOL     OW17896   2.812   3.622   1.636 -0.0896  0.6920 -0.0772
 2146SOL    HW117897   2.788   3.713   1.623  0.3031  0.8647  0.4023
 2146SOL    HW217898   2.754   3.564   1.586  0.9174  1.2043 -1.8268
 2147SOL     OW17899   4.610   2.792   6.582 -0.3067 -0.3400 -0.4783
 2147SOL    HW117900   4.689   2.833   6.547  0.0891 -0.8741 -0.2024
 2147SOL    HW217901   4.622   2.698   6.596 -0.1259  0.0793  2.2062
 2148SOL     OW17902   3.944   0.927  12.326  0.0584  0.5740  0.0100
 2148SOL    HW117903   3.982   1.014  12.316  0.2814  0.6358  1.4196
 2148SOL    HW217904   3.875   0.941  12.391 -1.2092  1.0046 -1.4423
 2149SOL     OW17905   0.027   2.470  17.496  0.4982 -0.5486 -0.3049
 2149SOL    HW117906   0.118   2.479  17.523  0.9011 -1.1771 -1.4933
 2149SOL    HW217907   0.010   2.380  17.525  0.4129 -0.7112 -0.8605
 2150SOL     OW17908   4.698   3.075   5.476 -0.1628 -0.4752  0.0956
 2150SOL    HW117909   4.604   3.085   5.464 -0.0306  1.4707  0.5857
 2150SOL    HW217910   4.710   2.984   5.451 -1.1674  0.3097 -3.1631
 2151SOL     OW17911   0.965   3.521   9.276  0.9506 -0.0604 -0.3187
 2151SOL    HW117912   1.021   3.592   9.244  0.6785 -0.8218 -2.4842
 2151SOL    HW217913   0.957   3.533   9.371  1.9720  0.9378 -0.3668
 2152SOL     OW17914   1.738   4.370  17.582  0.3580  0.2400 -0.2123
 2152SOL    HW117915   1.763   4.435  17.517 -0.1307  0.2173 -0.4200
 2152SOL    HW217916   1.808   4.398  17.642  0.1485  1.0569 -0.3553
 2153SOL     OW17917   1.530   3.171   4.496  0.6428  0.5316 -0.1641
 2153SOL    HW117918   1.625   3.184   4.502  0.5202  1.0219  0.8245
 2153SOL    HW217919   1.503   3.241   4.556  1.0503 -0.8499  1.6364
 2154SOL     OW17920   0.154   0.750   7.164 -0.1277 -0.0887  0.0446
 2154SOL    HW117921   0.191   0.835   7.140  1.4948 -0.3440  1.6772
 2154SOL    HW217922   0.064   0.779   7.177 -0.3662 -1.6233  1.8294
 2155SOL     OW17923   0.200   2.901   8.553 -0.3095  0.0296 -0.0839
 2155SOL    HW117924   0.242   2.969   8.605  0.7605 -0.5762 -0.1532
 2155SOL    HW217925   0.259   2.895   8.477  3.0376  1.0235  2.4657
 2156SOL     OW17926   3.361   0.047   1.740 -0.2383 -0.0293 -0.2477
 2156SOL    HW117927   3.371   0.133   1.699  2.1918 -0.9596 -1.6094
 2156SOL    HW217928   3.443   0.047   1.788 -0.3403 -0.6830 -0.0719
 2157SOL     OW17929   0.640   0.316  13.262  0.2252 -0.0858 -0.3693
 2157SOL    HW117930   0.650   0.223  13.243 -0.2322  0.2815 -2.3633
 2157SOL    HW217931   0.721   0.345  13.218  1.0266  0.3118  1.3581
 2158SOL     OW17932   1.498   3.041  16.525 -0.3465  0.1659 -0.2053
 2158SOL    HW117933   1.560   3.033  16.452 -1.1258  0.4953 -0.9050
 2158SOL    HW217934   1.413   3.027  16.485  0.4989 -1.9161 -1.2951
 2159SOL     OW17935   3.271   0.602  12.601 -0.1773  0.4058  0.4024
 2159SOL    HW117936   3.196   0.656  12.626 -1.9371 -0.7230 -2.4418
 2159SOL    HW217937   3.339   0.668  12.590  0.1034  0.0745  0.1374
 2160SOL     OW17938   2.729   1.959   5.434 -0.7326  0.1224 -0.2044
 2160SOL    HW117939   2.715   1.993   5.522  3.8557 -0.0704  0.5837
 2160SOL    HW217940   2.760   1.874   5.465  1.4525  1.3194  0.8510
 2161SOL     OW17941   2.582   4.653   9.459 -0.0707  0.5871 -0.2651
 2161SOL    HW117942   2.499   4.616   9.488  0.2915 -1.1482 -1.4445
 2161SOL    HW217943   2.643   4.586   9.489  1.1675  1.4291 -0.9187
 2162SOL     OW17944   2.349   1.804  10.727  0.0551 -0.3963  0.4284
 2162SOL    HW117945   2.407   1.780  10.799  1.1324  1.1051  0.0418
 2162SOL    HW217946   2.336   1.896  10.748  1.9797  0.1641 -0.8118
 2163SOL     OW17947   3.102   3.140   3.760 -0.2412 -0.5382 -0.3920
 2163SOL    HW117948   3.152   3.131   3.842  0.1329  2.3582 -0.3184
 2163SOL    HW217949   3.144   3.216   3.721 -0.3840 -0.8376 -1.1232
 2164SOL     OW17950   0.516   1.373  11.739  0.4510 -0.5583 -0.3252
 2164SOL    HW117951   0.590   1.394  11.681  0.0686  0.0667 -0.5759
 2164SOL    HW217952   0.570   1.359  11.817 -1.6384 -4.1461  0.4673
 2165SOL     OW17953   3.137   3.243   4.659  0.1920  0.3289 -0.0325
 2165SOL    HW117954   3.189   3.182   4.606  1.0681 -0.6494  1.9606
 2165SOL    HW217955   3.055   3.252   4.610  0.5617  5.0834  0.1593
 2166SOL     OW17956   2.517   0.061  14.959  0.0623  0.9866 -0.7415
 2166SOL    HW117957   2.432   0.104  14.952 -0.3662  0.2495 -0.0667
 2166SOL    HW217958   2.504   4.716  14.891  1.4054  1.6417 -1.6289
 2167SOL     OW17959   4.072   1.614   6.311 -0.2040 -0.8018 -0.1585
 2167SOL    HW117960   4.022   1.597   6.232 -0.8434 -1.1561  0.3183
 2167SOL    HW217961   4.137   1.681   6.289  0.9764 -0.7054  3.4627
 2168SOL     OW17962   4.291   3.484   7.956  0.6402 -0.9241 -0.1248
 2168SOL    HW117963   4.272   3.535   7.877 -0.9617 -1.3794 -0.0478
 2168SOL    HW217964   4.217   3.523   8.003  1.0783 -0.0837 -0.1406
 2169SOL     OW17965   4.650   2.685   5.636 -0.3926 -0.3871 -0.0166
 2169SOL    HW117966   4.565   2.659   5.602 -0.6578  2.3359 -1.3831
 2169SOL    HW217967   4.707   2.690   5.559  0.5681 -1.2530  0.6325
 2170SOL     OW17968   3.328   3.839   6.737 -0.0841 -0.1774 -0.1048
 2170SOL    HW117969   3.261   3.813   6.674  2.0906 -2.1681 -1.5676
 2170SOL    HW217970   3.309   3.768   6.798  1.6755  0.6671  1.4337
 2171SOL     OW17971   3.579   4.486   0.543 -0.0128  0.2047 -0.2416
 2171SOL    HW117972   3.526   4.442   0.609 -1.1945 -0.0457 -1.3689
 2171SOL    HW217973   3.656   4.501   0.597  0.2013  0.9627 -0.7555
 2172SOL     OW17974   0.749   3.386   3.542  0.0313 -0.0805  0.1567
 2172SOL    HW117975   0.666   3.390   3.493  0.7645  0.0179 -1.0747
 2172SOL    HW217976   0.779   3.476   3.538 -3.6742  1.2022  1.0088
 2173SOL     OW17977   0.609   1.461   8.448  0.3530 -0.1276 -0.2461
 2173SOL    HW117978   0.635   1.372   8.475  0.9693  0.5065  1.3002
 2173SOL    HW217979   0.553   1.448   8.372  0.7749  0.7866 -0.7182
 2174SOL     OW17980   0.725   1.859  11.320 -0.1190  0.7018 -0.3981
 2174SOL    HW117981   0.680   1.921  11.263  1.1213  0.8518 -1.2146
 2174SOL    HW217982   0.695   1.900  11.401 -2.8200  0.0949 -1.0777
 2175SOL     OW17983   1.434   0.210   8.008  0.3874  0.1904 -0.1224
 2175SOL    HW117984   1.352   0.215   7.958  1.1063  0.9360 -1.2319
 2175SOL    HW217985   1.438   0.114   8.010  0.2271  0.2332  2.2474
 2176SOL     OW17986   1.775   0.405   6.651  0.0302 -0.1189  0.4465
 2176SOL    HW117987   1.705   0.343   6.670  0.9956 -0.8834  1.5105
 2176SOL    HW217988   1.730   0.469   6.596 -0.8441 -1.6482 -0.5882
 2177SOL     OW17989   3.275   3.062   4.287  0.5678  0.4638  0.7686
 2177SOL    HW117990   3.299   3.015   4.208 -1.7533 -1.6945  1.3585
 2177SOL    HW217991   3.310   3.149   4.266  2.6590 -0.6691 -0.3658
 2178SOL     OW17992   2.464   3.929  14.476 -0.7339 -0.1284 -0.1443
 2178SOL    HW117993   2.555   3.955  14.467 -1.2941  3.1808  3.9787
 2178SOL    HW217994   2.444   4.005  14.530 -0.3791  0.3996 -0.7661
 2179SOL     OW17995   1.761   0.840   8.961  0.1279  0.0181 -0.1813
 2179SOL    HW117996   1.836   0.788   8.989 -0.8362 -0.1094  2.1676
 2179SOL    HW217997   1.743   0.897   9.036  3.8630 -0.7727  1.2888
 2180SOL     OW17998   0.431   1.289   2.091  0.3222  0.6335 -0.1790
 2180SOL    HW117999   0.339   1.269   2.074  0.6688 -0.9729 -0.1202
 2180SOL    HW218000   0.455   1.211   2.142  0.6310  0.9008  0.0900
 2181SOL     OW18001   0.958   4.427   8.092 -0.0144  0.0220  0.0035
 2181SOL    HW118002   1.030   4.489   8.105 -1.2785  1.2675  1.0921
 2181SOL    HW218003   0.964   4.427   7.997  1.3156 -0.7541  0.0927
 2182SOL     OW18004   4.399   0.943  10.402  0.0408  0.5234 -0.2489
 2182SOL    HW118005   4.415   1.027  10.445  0.3327 -0.9838  2.5886
 2182SOL    HW218006   4.303   0.948  10.399  0.0399 -0.3692 -2.1343
 2183SOL     OW18007   3.574   2.268   7.133 -0.5694  0.3081 -0.6510
 2183SOL    HW118008   3.666   2.278   7.106 -0.2203  2.3450  1.2955
 2183SOL    HW218009   3.575   2.184   7.178  0.0068  1.4205  1.4137
 2184SOL     OW18010   4.326   2.167   1.674  0.3112 -0.1436 -0.4006
 2184SOL    HW118011   4.417   2.152   1.699 -0.5084 -0.8265  2.1421
 2184SOL    HW218012   4.278   2.092   1.708 -0.2769  0.5754  0.3659
 2185SOL     OW18013   2.951   0.085  15.866  0.4867  0.0805 -0.0542
 2185SOL    HW118014   3.035   0.058  15.830  0.7170  0.2846  0.3313
 2185SOL    HW218015   2.989   0.072  15.953 -2.4556  0.3906  1.2862
 2186SOL     OW18016   0.384   3.759   9.844  0.1885 -0.2269 -0.1424
 2186SOL    HW118017   0.468   3.715   9.855 -0.1418 -0.3894  1.8274
 2186SOL    HW218018   0.403   3.793   9.757 -3.0236  1.0550 -0.3694
 2187SOL     OW18019   3.038   2.010   8.032  0.4049  0.3910 -0.0415
 2187SOL    HW118020   3.088   2.087   8.005 -1.3598  1.1781 -1.0850
 2187SOL    HW218021   3.114   1.953   8.021 -0.5764 -1.2471  1.5113
 2188SOL     OW18022   2.592   0.470   8.573  0.4430  0.2575  0.0977
 2188SOL    HW118023   2.523   0.458   8.639  0.7884  1.8001  0.7388
 2188SOL    HW218024   2.631   0.383   8.581 -1.4570 -0.4868  1.2584
 2189SOL     OW18025   2.403   4.622   6.725 -0.7652 -0.0804  0.0061
 2189SOL    HW118026   2.395   4.559   6.796  1.2978 -3.3556 -2.6596
 2189SOL    HW218027   2.419   4.697   6.782 -0.9434  0.8118 -1.1060
 2190SOL     OW18028   2.788   0.975   6.182  0.0927 -0.2273 -0.4750
 2190SOL    HW118029   2.783   0.900   6.242  2.1347 -1.1690 -1.4941
 2190SOL    HW218030   2.771   1.036   6.254 -0.5842 -1.3507  0.3243
 2191SOL     OW18031   1.829   1.128   3.981 -0.0935  0.2054  0.2629
 2191SOL    HW118032   1.848   1.203   4.037 -0.6554 -0.6190  1.5607
 2191SOL    HW218033   1.767   1.073   4.029  1.5353 -1.5161  0.4094
 2192SOL     OW18034   3.203   4.187  17.263 -0.2436  0.0052 -0.1654
 2192SOL    HW118035   3.221   4.237  17.184  2.7175  0.9324  1.1149
 2192SOL    HW218036   3.200   4.255  17.330 -0.9778 -1.6631  1.5250
 2193SOL     OW18037   3.356   2.654   1.669  0.3912 -0.0570  0.2449
 2193SOL    HW118038   3.308   2.707   1.732 -2.0452 -1.4147 -0.4627
 2193SOL    HW218039   3.301   2.673   1.593  3.1211  2.9640 -0.9857
 2194SOL     OW18040   3.717   4.647   3.177 -0.6218  0.3519  0.1669
 2194SOL    HW118041   3.767   4.647   3.096  0.4467 -0.0382  0.8277
 2194SOL    HW218042   3.797   4.637   3.229 -0.6721 -0.1258  0.1552
 2195SOL     OW18043   2.239   2.487   9.183 -0.6315 -0.0818  0.0764
 2195SOL    HW118044   2.254   2.427   9.110 -1.8846  0.8545 -0.9543
 2195SOL    HW218045   2.174   2.448   9.241 -0.2113  1.0040  1.2800
 2196SOL     OW18046   0.909   3.323   7.040 -0.4197 -0.2219  0.0429
 2196SOL    HW118047   0.971   3.273   7.092 -2.2760 -1.2754  1.2728
 2196SOL    HW218048   0.901   3.253   6.975 -2.9245 -2.0094  2.2682
 2197SOL     OW18049   1.329   1.875   3.634 -0.4070 -0.2379  0.1804
 2197SOL    HW118050   1.271   1.942   3.670 -0.0618  0.7030 -0.9885
 2197SOL    HW218051   1.269   1.833   3.573  1.5239 -0.9115 -1.2552
 2198SOL     OW18052   4.233   4.415   7.619 -0.5064  0.1337  0.2137
 2198SOL    HW118053   4.254   4.424   7.526  2.4313 -3.0376  0.5933
 2198SOL    HW218054   4.311   4.394   7.669 -1.2894 -0.8218  1.0336
 2199SOL     OW18055   2.340   1.354  10.984 -0.7400  0.0034 -0.0312
 2199SOL    HW118056   2.402   1.406  11.036  1.0531 -1.5994 -0.5575
 2199SOL    HW218057   2.290   1.424  10.942 -1.9380 -0.3336  0.8517
 2200SOL     OW18058   2.961   2.188   3.241  0.2517 -0.6000  0.8184
 2200SOL    HW118059   2.884   2.138   3.218 -0.7265  1.5567 -0.6235
 2200SOL    HW218060   3.026   2.124   3.211  1.0655  1.2306 -1.2870
 2201SOL     OW18061   2.592   3.261  10.632  0.1092  0.5211  0.0880
 2201SOL    HW118062   2.527   3.324  10.663  1.0371  0.0062  3.0780
 2201SOL    HW218063   2.640   3.224  10.706 -0.2269 -0.2778 -0.0923
 2202SOL     OW18064   2.045   1.436   3.839  0.0582  0.3529  0.7960
 2202SOL    HW118065   2.005   1.354   3.810 -1.3873  1.5437 -0.5679
 2202SOL    HW218066   1.996   1.500   3.787 -1.5345  0.7174  2.7411
 2203SOL     OW18067   3.083   0.443   4.904  0.1426  0.2585  0.1854
 2203SOL    HW118068   3.101   0.450   4.810  1.5585 -2.1947  0.2562
 2203SOL    HW218069   3.052   0.352   4.903 -3.0266  1.3537  0.1303
 2204SOL     OW18070   3.306   4.194   6.872  0.1048  0.6379 -0.6621
 2204SOL    HW118071   3.282   4.163   6.785 -1.5260 -0.1990  0.0812
 2204SOL    HW218072   3.247   4.268   6.884 -0.8965 -0.0059 -1.6006
 2205SOL     OW18073   1.669   3.312   5.966  0.5027 -0.2502  0.0470
 2205SOL    HW118074   1.712   3.245   5.913  1.8807  1.4715 -1.0150
 2205SOL    HW218075   1.723   3.307   6.046  0.0537  0.2452  0.3791
 2206SOL     OW18076   3.393   0.666  17.095 -0.3507  0.0254 -0.1548
 2206SOL    HW118077   3.488   0.673  17.105 -0.4686  1.4728 -0.0496
 2206SOL    HW218078   3.388   0.619  17.012  0.0440 -1.0693  0.4416
 2207SOL     OW18079   3.194   1.251   2.278 -0.1200  0.5564 -0.5301
 2207SOL    HW118080   3.141   1.328   2.299 -1.3568 -1.2909  3.1036
 2207SOL    HW218081   3.140   1.205   2.214 -2.6066  3.3448 -0.4061
 2208SOL     OW18082   0.812   0.596   5.949  0.0547 -0.3974  0.3311
 2208SOL    HW118083   0.806   0.638   5.863  0.5057  2.3765  1.6672
 2208SOL    HW218084   0.888   0.642   5.984  1.3789  0.2230 -3.3052
 2209SOL     OW18085   2.689   3.070   4.413  0.0101  0.2675  1.0983
 2209SOL    HW118086   2.731   2.996   4.370  0.0147  0.4062  0.8655
 2209SOL    HW218087   2.645   3.019   4.480  0.0785  0.1679  1.0682
 2210SOL     OW18088   1.489   2.793   8.988 -0.1052 -0.0868  0.1006
 2210SOL    HW118089   1.442   2.800   8.906 -0.8023 -1.1586  0.4055
 2210SOL    HW218090   1.420   2.770   9.050  0.1776  0.0098  0.4539
 2211SOL     OW18091   1.048   4.460   4.946  0.2593  0.1766  0.6943
 2211SOL    HW118092   0.957   4.432   4.958  0.0424  1.1357  1.3281
 2211SOL    HW218093   1.083   4.383   4.991 -0.7440 -1.3825 -1.1619
 2212SOL     OW18094   0.429   2.119   5.194 -0.1447  0.6891  0.2377
 2212SOL    HW118095   0.390   2.206   5.203  0.1312  0.8566 -0.1898
 2212SOL    HW218096   0.402   2.103   5.103  2.3078  0.0594 -0.3765
 2213SOL     OW18097   2.054   4.080   5.278 -0.5953  0.3685  0.1025
 2213SOL    HW118098   2.105   4.016   5.328  0.5441  1.0986 -0.1389
 2213SOL    HW218099   1.987   4.023   5.241  0.9321 -0.4130 -1.4399
 2214SOL     OW18100   0.775   4.238   0.116  0.1752  0.0218  0.0848
 2214SOL    HW118101   0.849   4.270   0.167  0.4235 -0.1255 -0.1788
 2214SOL    HW218102   0.729   4.310   0.073 -2.0599 -0.9406  0.8790
 2215SOL     OW18103   3.775   3.260   7.765  0.5378  0.5050  0.1952
 2215SOL    HW118104   3.858   3.240   7.723  0.0102 -0.3034 -0.4731
 2215SOL    HW218105   3.755   3.352   7.748  0.5210  0.7164  1.4149
 2216SOL     OW18106   0.223   1.041   7.152  0.2119 -0.7118  0.1431
 2216SOL    HW118107   0.304   0.999   7.122  1.0119  1.6747 -1.0076
 2216SOL    HW218108   0.227   1.051   7.247 -1.4297 -0.3780  0.1667
 2217SOL     OW18109   2.709   0.207   3.657 -0.3533 -0.1983 -0.7628
 2217SOL    HW118110   2.727   0.119   3.690  0.5745  0.2480 -0.1091
 2217SOL    HW218111   2.618   0.204   3.688 -0.3672  3.6450 -0.3791
 2218SOL     OW18112   2.684   2.612   3.254 -0.0318 -0.5840 -0.3668
 2218SOL    HW118113   2.748   2.666   3.208  0.9957  1.1841  3.1137
 2218SOL    HW218114   2.749   2.553   3.291  0.9435  0.6416 -0.1199
 2219SOL     OW18115   0.806   3.780   4.330  0.0903 -0.0745 -0.0410
 2219SOL    HW118116   0.846   3.693   4.336  0.2629 -0.0900 -1.3723
 2219SOL    HW218117   0.712   3.761   4.319 -0.1266 -0.3320  2.2355
 2220SOL     OW18118   3.490   4.397   8.570  0.0470 -0.2141 -0.0733
 2220SOL    HW118119   3.557   4.465   8.560 -0.9344  0.6828 -0.5924
 2220SOL    HW218120   3.552   4.324   8.578  1.0483  0.4798 -1.4235
 2221SOL     OW18121   2.773   3.780   7.092  0.0053  0.7098 -0.2979
 2221SOL    HW118122   2.866   3.798   7.104  0.5362 -2.1581 -0.2730
 2221SOL    HW218123   2.746   3.775   7.184 -1.2552  1.2455 -0.6426
 2222SOL     OW18124   0.300   0.668   4.689 -0.3830  0.2242  0.0339
 2222SOL    HW118125   0.299   0.746   4.634  2.1928  2.2332  2.8193
 2222SOL    HW218126   0.271   0.700   4.774  0.7409  1.1340  0.0707
 2223SOL     OW18127   2.413   0.157   4.155  0.8437  0.2399  0.5137
 2223SOL    HW118128   2.438   0.105   4.079 -0.5885 -0.7252  0.6882
 2223SOL    HW218129   2.439   0.246   4.133  1.1250 -0.6386 -2.7556
 2224SOL     OW18130   1.834   3.607   6.578  0.0256  0.5078  0.3646
 2224SOL    HW118131   1.808   3.523   6.540  0.7829 -0.1061  1.2054
 2224SOL    HW218132   1.756   3.663   6.578  0.8692  1.6825  2.1876
 2225SOL     OW18133   4.477   2.441  11.995  0.5246 -0.0744  0.2149
 2225SOL    HW118134   4.505   2.423  12.085  3.3965  0.3731 -0.5922
 2225SOL    HW218135   4.461   2.358  11.951 -0.3981  0.5418 -0.6139
 2226SOL     OW18136   4.251   1.889   9.230  0.2311  0.0356 -0.9032
 2226SOL    HW118137   4.267   1.884   9.324  1.0481  1.3055 -0.9697
 2226SOL    HW218138   4.326   1.837   9.199  0.7051 -0.0960  0.4828
 2227SOL     OW18139   4.547   0.446  14.405  0.1430  0.3609  0.2722
 2227SOL    HW118140   4.582   0.356  14.407  0.8101  0.6363  1.1586
 2227SOL    HW218141   4.585   0.470  14.490 -0.5247 -0.6101  0.8443
 2228SOL     OW18142   3.208   2.711   7.086  0.5150 -0.1566  0.3491
 2228SOL    HW118143   3.301   2.690   7.082  0.4250 -0.4862 -0.0523
 2228SOL    HW218144   3.216   2.807   7.086  0.3631 -0.1462  0.7465
 2229SOL     OW18145   2.497   0.538   8.814  0.0344 -0.4292  0.4979
 2229SOL    HW118146   2.405   0.512   8.825  0.6362 -2.2889  1.2732
 2229SOL    HW218147   2.507   0.608   8.878 -0.2120 -1.2263  1.4104
 2230SOL     OW18148   0.374   2.348   6.628  0.2906  0.4550  0.1222
 2230SOL    HW118149   0.299   2.301   6.592  2.0146 -0.3127 -2.4354
 2230SOL    HW218150   0.382   2.303   6.713  0.8850  0.7765  0.2319
 2231SOL     OW18151   0.264   1.217   5.832  0.0243 -0.1024 -0.4220
 2231SOL    HW118152   0.229   1.295   5.875 -1.5004 -0.6764 -0.6300
 2231SOL    HW218153   0.314   1.185   5.907 -0.7798  0.6106  0.4235
 2232SOL     OW18154   2.267   4.169   3.273  0.3456  0.4278  0.1423
 2232SOL    HW118155   2.224   4.189   3.356 -2.2357 -0.7976 -0.8891
 2232SOL    HW218156   2.209   4.099   3.242 -0.1743  1.3615 -1.0174
 2233SOL     OW18157   3.799   2.596  17.659  0.2256 -0.3790  0.1655
 2233SOL    HW118158   3.862   2.528  17.634  0.5052  0.1522 -0.5755
 2233SOL    HW218159   3.857   2.652   0.022  0.1650 -1.9174  1.9780
 2234SOL     OW18160   4.550   1.699   7.556  0.8102  0.0670 -0.6052
 2234SOL    HW118161   4.473   1.701   7.614 -0.1130  2.8636 -1.9208
 2234SOL    HW218162   4.611   1.771   7.574 -1.5099  1.7175  0.7836
 2235SOL     OW18163   3.417   1.131   4.295  0.0901  0.0970  0.2796
 2235SOL    HW118164   3.323   1.148   4.306 -0.1470 -0.1879 -1.3056
 2235SOL    HW218165   3.414   1.095   4.207 -1.3586 -0.2924  0.4885
 2236SOL     OW18166   4.055   0.046   6.160 -0.0609  0.6201  1.1071
 2236SOL    HW118167   4.133   4.713   6.150 -0.4837 -0.2437  2.4273
 2236SOL    HW218168   4.090   0.133   6.145  2.2305 -0.8509 -2.0559
 2237SOL     OW18169   3.110   1.408   7.069 -0.7158  0.3521  0.5588
 2237SOL    HW118170   3.075   1.333   7.020 -1.7128  1.3824 -0.2945
 2237SOL    HW218171   3.162   1.357   7.131  2.1278  0.5262 -1.6659
 2238SOL     OW18172   0.887   1.964   5.652 -0.0761  0.4598  0.3118
 2238SOL    HW118173   0.908   1.878   5.687 -2.3158 -0.6227 -1.0819
 2238SOL    HW218174   0.804   1.950   5.607 -1.6766 -0.5628  3.6156
 2239SOL     OW18175   0.331   1.248   8.055 -0.2689  0.4026 -0.0665
 2239SOL    HW118176   0.309   1.180   8.119 -0.5101 -0.3938 -0.9864
 2239SOL    HW218177   0.259   1.310   8.064  1.3996  2.0643  1.6988
 2240SOL     OW18178   0.963   3.556   6.699 -0.0397  0.6553 -0.8101
 2240SOL    HW118179   1.006   3.534   6.617 -1.3913  0.0820 -1.3696
 2240SOL    HW218180   0.884   3.501   6.702  0.9330 -0.7770 -1.6693
 2241SOL     OW18181   3.748   3.751   5.616 -0.6071  0.1917  0.1836
 2241SOL    HW118182   3.762   3.799   5.534 -0.0619  1.2554  0.9023
 2241SOL    HW218183   3.833   3.763   5.658 -0.8311 -0.4013  0.8092
 2242SOL     OW18184   2.493   1.506   6.233 -0.1813 -0.3565  0.1792
 2242SOL    HW118185   2.414   1.455   6.251 -0.2039  0.0691  1.2411
 2242SOL    HW218186   2.521   1.474   6.147 -1.2702 -1.0686  0.0948
 2243SOL     OW18187   4.534   0.473   7.029 -0.0445  0.4443  0.4003
 2243SOL    HW118188   4.530   0.418   6.951 -2.0384 -0.2269  0.9827
 2243SOL    HW218189   4.590   0.430   7.094  0.7318  1.0266  0.1274
 2244SOL     OW18190   2.647   3.607   2.023  0.3516 -0.0241  0.1467
 2244SOL    HW118191   2.673   3.683   2.075  0.5492  1.8347 -2.6644
 2244SOL    HW218192   2.732   3.565   2.009  0.3583  0.2559 -0.6159
 2245SOL     OW18193   0.167   0.309  14.388 -0.3582  0.0602 -0.1385
 2245SOL    HW118194   0.176   0.328  14.482 -0.8385  0.3655 -0.1573
 2245SOL    HW218195   0.081   0.269  14.378 -0.5304  0.6831 -1.1962
 2246SOL     OW18196   4.223   0.051  12.106 -0.0190 -0.6224  0.4963
 2246SOL    HW118197   4.160   0.020  12.171 -1.0919  1.1929  0.3342
 2246SOL    HW218198   4.167   0.102  12.048  1.1164 -0.8468 -0.7973
 2247SOL     OW18199   0.181   2.899  15.546 -0.7207 -0.1905  0.3131
 2247SOL    HW118200   0.146   2.845  15.475  0.7115  0.5092 -0.9082
 2247SOL    HW218201   0.263   2.941  15.522 -1.0979  0.6941  0.5548
 2248SOL     OW18202   0.604   1.499   4.658  0.5165  0.0850 -0.0210
 2248SOL    HW118203   0.675   1.526   4.600 -0.9002  1.0708 -1.2999
 2248SOL    HW218204   0.591   1.405   4.648  0.9876  0.1313 -1.0512
 2249SOL     OW18205   1.006   1.709   5.303 -0.1311  0.3630  0.3944
 2249SOL    HW118206   0.944   1.650   5.346  1.4324 -0.1424  1.9814
 2249SOL    HW218207   1.008   1.652   5.226 -0.2059 -0.2675  0.8534
 2250SOL     OW18208   3.659   2.782   2.244 -0.9922  0.6443 -0.6264
 2250SOL    HW118209   3.680   2.852   2.183  1.5965 -0.2973 -0.8257
 2250SOL    HW218210   3.568   2.767   2.219 -1.3074  0.5267  0.5705
 2251SOL     OW18211   4.038   4.555   4.242 -0.0057 -0.1678  0.2048
 2251SOL    HW118212   4.046   4.571   4.336  3.3846  1.2288 -0.3256
 2251SOL    HW218213   4.111   4.606   4.207  1.1529 -0.9847  1.4228
 2252SOL     OW18214   2.908   3.221   4.495  0.3050 -0.5668 -0.8245
 2252SOL    HW118215   2.846   3.150   4.480 -1.2013  0.7041 -0.5954
 2252SOL    HW218216   2.923   3.268   4.412  1.3086  0.8678  0.1617
 2253SOL     OW18217   1.336   1.557  14.580 -0.3470 -0.0191 -0.0374
 2253SOL    HW118218   1.381   1.641  14.589 -2.9220  1.5301 -1.6579
 2253SOL    HW218219   1.273   1.561  14.652 -1.0404 -0.0003 -0.6439
 2254SOL     OW18220   3.047   3.793   3.447  0.3434  0.0128  0.0353
 2254SOL    HW118221   3.064   3.775   3.354 -1.9097  1.4316 -0.6511
 2254SOL    HW218222   3.074   3.884   3.455  0.1293 -0.0125  0.9494
 2255SOL     OW18223   2.271   3.210   0.364 -0.3591  0.1494  0.0984
 2255SOL    HW118224   2.319   3.275   0.313 -2.8957  3.9106  2.5519
 2255SOL    HW218225   2.279   3.138   0.301 -0.9607  2.0251 -2.1160
 2256SOL     OW18226   0.239   3.312   6.162  0.0855 -0.0201  0.4059
 2256SOL    HW118227   0.314   3.289   6.107 -0.1135  1.3599 -0.4468
 2256SOL    HW218228   0.169   3.252   6.136 -0.4528  1.0896 -0.7480
 2257SOL     OW18229   0.226   0.213  10.273  0.1731 -0.4053  0.0659
 2257SOL    HW118230   0.147   0.174  10.235 -1.5063  2.3938  0.7087
 2257SOL    HW218231   0.255   0.154  10.343  2.1747  1.5365  0.8581
 2258SOL     OW18232   0.447   1.656   5.906  0.1719  0.6368 -0.1016
 2258SOL    HW118233   0.537   1.672   5.936  0.3793  0.0681 -0.4388
 2258SOL    HW218234   0.455   1.586   5.841 -1.3355 -1.0767  1.5514
 2259SOL     OW18235   2.264   0.194   7.977  0.4339  0.6083 -0.1769
 2259SOL    HW118236   2.250   0.121   7.916  2.0267  0.4097 -0.2972
 2259SOL    HW218237   2.177   0.206   8.015 -0.3023  1.2579 -2.0337
 2260SOL     OW18238   1.230   3.830   0.415  0.2709  0.0463  0.1062
 2260SOL    HW118239   1.220   3.919   0.449 -1.2461  0.8576 -2.5362
 2260SOL    HW218240   1.325   3.827   0.400  0.7052  4.5340  2.1391
 2261SOL     OW18241   3.771   3.611   8.975  0.0768 -0.1053  0.2655
 2261SOL    HW118242   3.700   3.656   9.021  1.7625 -1.3797  4.1216
 2261SOL    HW218243   3.844   3.665   9.005  1.1814 -1.1510 -0.5856
 2262SOL     OW18244   3.218   0.007   7.309 -0.1856  0.4100  0.4053
 2262SOL    HW118245   3.275   4.661   7.345  0.5132  2.8504  3.8583
 2262SOL    HW218246   3.284   0.064   7.270  1.1902 -0.9286  0.7722
 2263SOL     OW18247   1.065   2.943  16.042  0.8536 -0.2856  0.1635
 2263SOL    HW118248   1.135   2.893  16.000  1.4897  0.6874  0.0407
 2263SOL    HW218249   0.996   2.881  16.063 -0.3236  1.6359  1.9664
 2264SOL     OW18250   3.249   4.162   1.561  0.5223 -0.1162 -0.1661
 2264SOL    HW118251   3.301   4.105   1.616 -1.9921 -0.4158  1.9013
 2264SOL    HW218252   3.304   4.172   1.483  2.5353  0.2406  1.2975
 2265SOL     OW18253   3.898   3.340  11.500 -0.9598  0.2934  0.2749
 2265SOL    HW118254   3.975   3.288  11.480  0.1450  1.6168  1.0737
 2265SOL    HW218255   3.921   3.429  11.471  0.1648 -0.2120 -0.3827
 2266SOL     OW18256   1.111   0.858   6.957 -0.0064 -0.1678  0.6098
 2266SOL    HW118257   1.103   0.766   6.984  2.2582 -0.4869  0.1299
 2266SOL    HW218258   1.024   0.881   6.924  1.1685  0.6556 -1.9088
 2267SOL     OW18259   4.038   4.138  16.874  0.6042 -0.7202  0.3010
 2267SOL    HW118260   4.131   4.118  16.885  0.5961 -1.7260 -1.3482
 2267SOL    HW218261   4.037   4.152  16.779 -0.0195 -2.0550  0.1117
 2268SOL     OW18262   0.877   3.125   7.531 -0.3327  0.0205 -0.3427
 2268SOL    HW118263   0.829   3.185   7.474 -1.3532  0.7113  1.2463
 2268SOL    HW218264   0.937   3.184   7.577 -0.4788 -0.4320  0.4248
 2269SOL     OW18265   3.895   2.465  17.136 -0.2930  0.2962  0.6626
 2269SOL    HW118266   3.920   2.547  17.094 -1.1842 -1.4510 -3.2814
 2269SOL    HW218267   3.855   2.502  17.215  0.4849  0.9830  0.7311
 2270SOL     OW18268   2.703   4.427   2.855 -0.2781 -0.3763 -0.4569
 2270SOL    HW118269   2.754   4.505   2.877 -0.7806  0.4080 -2.1217
 2270SOL    HW218270   2.640   4.474   2.801 -0.7351  0.8385  1.1289
 2271SOL     OW18271   0.762   4.279   9.201  0.0609 -0.5915 -0.0552
 2271SOL    HW118272   0.790   4.368   9.223  0.5976 -0.0744 -2.9006
 2271SOL    HW218273   0.824   4.223   9.248  0.5786  0.4624  0.5243
 2272SOL     OW18274   2.855   3.087  11.890  0.1204 -0.0002 -0.5035
 2272SOL    HW118275   2.827   2.998  11.872 -1.1492  0.4685 -0.8493
 2272SOL    HW218276   2.883   3.077  11.981  1.2834 -3.0285 -1.2252
 2273SOL     OW18277   0.223   2.501  10.917  0.1213  0.1928 -0.2096
 2273SOL    HW118278   0.298   2.553  10.890  1.0289 -1.0750 -0.0892
 2273SOL    HW218279   0.261   2.423  10.957  1.2255  0.5976 -0.4680
 2274SOL     OW18280   1.101   2.070   7.216 -0.1676 -0.0150 -0.4109
 2274SOL    HW118281   1.032   2.068   7.282 -0.2699  2.7039 -0.4325
 2274SOL    HW218282   1.169   2.027   7.268  0.0879  1.7433  0.7257
 2275SOL     OW18283   1.193   3.535   4.447 -0.2029 -0.1890  0.6681
 2275SOL    HW118284   1.277   3.497   4.420 -0.3389  0.6617 -0.9514
 2275SOL    HW218285   1.207   3.526   4.542 -1.6015 -1.2177  0.7861
 2276SOL     OW18286   3.416   0.551  16.828  0.0710 -0.3300  0.5605
 2276SOL    HW118287   3.455   0.468  16.800 -0.8170 -0.9265  1.1009
 2276SOL    HW218288   3.351   0.564  16.760  1.3386 -1.6171 -0.9004
 2277SOL     OW18289   4.402   3.460   6.913  0.8592 -0.2914 -0.6877
 2277SOL    HW118290   4.432   3.525   6.850  0.5542  0.7900  0.2845
 2277SOL    HW218291   4.424   3.376   6.872  2.1280 -0.5718  0.5593
 2278SOL     OW18292   3.825   3.167  17.081  0.1352 -0.2618 -0.3211
 2278SOL    HW118293   3.894   3.101  17.091 -1.1817 -1.5342  0.3468
 2278SOL    HW218294   3.859   3.234  17.021 -0.0348 -0.3900 -0.5628
 2279SOL     OW18295   3.275   1.802   7.877 -0.3470 -0.0173  0.5692
 2279SOL    HW118296   3.230   1.726   7.839  0.1037  0.2756 -0.5461
 2279SOL    HW218297   3.307   1.755   7.955  0.1483  0.9358  0.9331
 2280SOL     OW18298   2.927   1.252  15.955  0.7798 -0.0170  0.1677
 2280SOL    HW118299   2.883   1.336  15.955 -1.0080 -0.9636 -0.7746
 2280SOL    HW218300   3.020   1.268  15.935  0.8059 -1.2278 -0.6883
 2281SOL     OW18301   2.619   0.743   3.304  0.2841 -0.0072 -0.0439
 2281SOL    HW118302   2.651   0.653   3.302  2.2793  0.7040 -0.4688
 2281SOL    HW218303   2.563   0.747   3.382  0.8218 -1.0148  0.3935
 2282SOL     OW18304   4.671   2.918   7.005 -0.0977  0.6844 -0.0320
 2282SOL    HW118305   0.011   2.907   6.933 -1.5196 -1.9650 -0.8630
 2282SOL    HW218306   0.001   2.893   7.082 -0.0487  1.0766  0.0607
 2283SOL     OW18307   0.646   2.534   5.882  0.2966 -0.0296  0.2869
 2283SOL    HW118308   0.565   2.498   5.847 -0.3202  1.8201 -0.2052
 2283SOL    HW218309   0.629   2.540   5.976  0.3988 -1.3107  0.3765
 2284SOL     OW18310   1.855   1.962   3.450  0.2889  0.4783 -0.2018
 2284SOL    HW118311   1.907   1.946   3.528  1.1862 -0.9952 -1.1129
 2284SOL    HW218312   1.826   1.878   3.415  1.4013  1.0155 -2.4101
 2285SOL     OW18313   4.272   2.999   1.165 -0.0180 -0.3275 -0.0922
 2285SOL    HW118314   4.348   3.016   1.221  0.7617 -3.1729 -0.2744
 2285SOL    HW218315   4.211   3.071   1.176  3.2907  2.2941  1.0505
 2286SOL     OW18316   0.008   4.721  10.478  0.2075  0.1471  0.1705
 2286SOL    HW118317   4.695   4.633  10.460 -0.3576  0.5678 -0.7824
 2286SOL    HW218318   4.660   0.057  10.447  1.4285  2.0891  1.0349
 2287SOL     OW18319   1.881   1.194  15.347  0.3484 -0.0343 -0.4028
 2287SOL    HW118320   1.939   1.222  15.418  0.1432  0.2573 -0.3546
 2287SOL    HW218321   1.937   1.148  15.284  2.8764 -0.6535  2.3049
 2288SOL     OW18322   4.410   1.304   4.745  0.7836 -0.2134 -0.2188
 2288SOL    HW118323   4.484   1.317   4.804  0.7688 -0.3110 -0.1796
 2288SOL    HW218324   4.371   1.233   4.795 -1.9356  0.2749 -1.6206
 2289SOL     OW18325   0.653   0.160   8.213  0.2075  0.6027  0.3121
 2289SOL    HW118326   0.744   0.132   8.202  0.0750  0.0740  0.5687
 2289SOL    HW218327   0.649   0.231   8.149  2.2756  0.7393  0.3379
 2290SOL     OW18328   0.146   1.332   9.187  0.6328 -0.0308  0.0194
 2290SOL    HW118329   0.067   1.379   9.214  0.2823 -1.1360  0.9006
 2290SOL    HW218330   0.203   1.373   9.252  0.3727  1.3740 -0.6407
 2291SOL     OW18331   4.030   1.607   9.261  0.0749 -0.4514  0.0599
 2291SOL    HW118332   3.987   1.618   9.346 -1.5029 -1.1444 -0.6576
 2291SOL    HW218333   4.119   1.630   9.288  0.2463 -0.1141 -0.7959
 2292SOL     OW18334   1.091   4.569  15.641 -0.0868 -0.3840 -0.4320
 2292SOL    HW118335   1.015   4.579  15.697  0.0521  3.2792 -0.9066
 2292SOL    HW218336   1.072   4.504  15.574  1.9524 -0.5960 -0.8202
 2293SOL     OW18337   3.957   0.558   4.056  0.6121  0.0598  0.2189
 2293SOL    HW118338   3.995   0.643   4.081  0.3264 -0.2763  1.8364
 2293SOL    HW218339   4.034   0.502   4.064 -0.3450 -1.2644  0.1611
 2294SOL     OW18340   3.972   2.590   8.422 -0.1768 -0.3564  0.0776
 2294SOL    HW118341   4.020   2.574   8.341 -0.4730  0.4438 -0.2473
 2294SOL    HW218342   3.918   2.512   8.435 -0.4477  0.4251  3.7650
 2295SOL     OW18343   3.042   3.684   7.344 -0.1280 -0.1347 -0.0358
 2295SOL    HW118344   3.091   3.726   7.415 -0.2532 -1.6287  0.9204
 2295SOL    HW218345   2.969   3.745   7.333 -0.1298 -0.1293  0.0057
 2296SOL     OW18346   1.149   4.147   9.883 -0.0918 -0.3578  0.2554
 2296SOL    HW118347   1.232   4.184   9.853 -0.6149  0.3598 -0.3210
 2296SOL    HW218348   1.121   4.235   9.910 -1.8309 -1.1514  1.0400
 2297SOL     OW18349   1.487   3.079   6.968 -0.2482  0.7697  0.3565
 2297SOL    HW118350   1.473   3.034   7.051 -2.4323  0.9379  0.0933
 2297SOL    HW218351   1.563   3.043   6.924 -0.1235 -1.1775  2.1791
 2298SOL     OW18352   1.821   3.991   6.451  0.0275  0.2048 -0.1187
 2298SOL    HW118353   1.773   4.028   6.526  0.0529 -1.7741  0.8524
 2298SOL    HW218354   1.759   4.004   6.379  0.7178  0.5307 -0.6533
 2299SOL     OW18355   0.753   2.780   1.050  0.6841 -0.0236 -0.0409
 2299SOL    HW118356   0.658   2.786   1.060  1.0635  2.2819  2.1146
 2299SOL    HW218357   0.790   2.826   1.125  0.5954 -1.8977  1.1568
 2300SOL     OW18358   4.148   3.691   4.828 -0.0921 -0.0411 -0.4845
 2300SOL    HW118359   4.187   3.647   4.904  0.5151 -0.5645 -1.1027
 2300SOL    HW218360   4.156   3.624   4.760  2.5227 -0.0677 -0.1539
 2301SOL     OW18361   1.489   2.046   5.946  0.4335  0.4972  0.6258
 2301SOL    HW118362   1.490   1.961   5.901  3.5501  2.4115 -2.9112
 2301SOL    HW218363   1.402   2.083   5.932 -0.1864 -0.9205  0.6563
 2302SOL     OW18364   1.833   2.560   8.240  0.2972 -0.0151 -0.2317
 2302SOL    HW118365   1.759   2.515   8.281  1.1482 -0.2837  1.0121
 2302SOL    HW218366   1.843   2.633   8.301  1.8245 -0.7297  0.3740
 2303SOL     OW18367   2.336   2.095   8.563 -0.0993  0.2127 -0.5310
 2303SOL    HW118368   2.304   2.091   8.473 -0.3674 -0.7509 -0.3892
 2303SOL    HW218369   2.361   2.003   8.562  3.0664  1.0857 -1.4391
 2304SOL     OW18370   3.726   2.944  16.877 -0.1708 -0.0839 -0.6332
 2304SOL    HW118371   3.751   2.937  16.969  1.5263  1.5335 -0.9642
 2304SOL    HW218372   3.648   2.998  16.886  0.2070  0.6616 -1.7813
 2305SOL     OW18373   4.706   0.139  10.022 -0.1677 -0.0414  0.4130
 2305SOL    HW118374   0.004   0.068  10.083 -2.6412 -1.5430 -0.5601
 2305SOL    HW218375   0.042   0.118   9.949 -1.1704  0.6732 -0.5827
 2306SOL     OW18376   0.206   0.447   5.772  0.0883 -0.6845  0.4229
 2306SOL    HW118377   0.205   0.529   5.820  1.0233  0.9266 -2.3126
 2306SOL    HW218378   0.129   0.450   5.714  1.0215 -1.9290 -0.8871
 2307SOL     OW18379   3.310   4.022   5.076  0.3922 -0.3383 -0.1415
 2307SOL    HW118380   3.376   4.010   5.008  1.0693 -0.0440  0.4579
 2307SOL    HW218381   3.288   3.929   5.088  2.7214 -0.8477  0.1351
 2308SOL     OW18382   4.157   1.908  13.583 -0.1950 -0.2263  0.3460
 2308SOL    HW118383   4.077   1.876  13.626 -1.5341  1.5684 -0.7926
 2308SOL    HW218384   4.134   2.001  13.592 -0.0005 -0.1111 -0.3390
 2309SOL     OW18385   0.390   1.020  10.277  0.1581  0.1917 -0.0584
 2309SOL    HW118386   0.397   0.929  10.248 -0.7275 -0.1798  0.8657
 2309SOL    HW218387   0.337   1.004  10.355 -1.0685 -0.3740 -0.9983
 2310SOL     OW18388   2.133   4.226   8.371  0.2750 -0.4882 -0.2294
 2310SOL    HW118389   2.082   4.283   8.312 -2.9709 -1.2986  1.7942
 2310SOL    HW218390   2.159   4.289   8.438 -0.3819  0.0627 -0.4872
 2311SOL     OW18391   1.402   0.404  17.222  0.5806 -0.1438 -0.5324
 2311SOL    HW118392   1.442   0.488  17.244  0.4472 -0.3398  0.4370
 2311SOL    HW218393   1.476   0.352  17.190 -1.0249 -1.8684 -1.4844
 2312SOL     OW18394   0.749   1.016   8.958  0.1832 -0.2049  0.2284
 2312SOL    HW118395   0.716   1.104   8.939  2.5256  0.4239 -1.0573
 2312SOL    HW218396   0.824   1.043   9.012  0.1308 -2.2382  1.2963
 2313SOL     OW18397   2.119   2.592   9.557 -0.4233 -0.0359  0.2993
 2313SOL    HW118398   2.071   2.518   9.593 -2.0215  0.2630 -1.1898
 2313SOL    HW218399   2.187   2.612   9.621 -0.4718 -0.0746  0.3628
 2314SOL     OW18400   2.329   0.401  11.575  0.0853  0.3238  0.4264
 2314SOL    HW118401   2.311   0.347  11.498  3.4736 -1.4284  0.8185
 2314SOL    HW218402   2.255   0.459  11.593 -0.8612 -0.7786  0.0961
 2315SOL     OW18403   3.082   3.282  17.448  0.2917 -0.2711  0.4603
 2315SOL    HW118404   3.125   3.352  17.398 -0.1255 -0.1239  0.3021
 2315SOL    HW218405   3.105   3.298  17.539 -0.4886  1.5295  0.3557
 2316SOL     OW18406   2.524   1.380   5.712  0.6432  0.5093 -0.3296
 2316SOL    HW118407   2.578   1.441   5.661  2.3992 -0.7632  0.0187
 2316SOL    HW218408   2.496   1.325   5.639 -1.2639  0.5358  0.3787
 2317SOL     OW18409   3.445   0.602   4.196  0.0421 -0.2130 -0.3878
 2317SOL    HW118410   3.467   0.694   4.178  0.2085 -0.2158 -0.1983
 2317SOL    HW218411   3.425   0.584   4.104 -0.6226  0.1453 -0.3085
 2318SOL     OW18412   1.417   0.470   2.113  0.0659  0.8130  0.4506
 2318SOL    HW118413   1.430   0.444   2.022 -0.3558 -2.1726  1.2283
 2318SOL    HW218414   1.482   0.540   2.119  0.8641  0.1782 -0.7191
 2319SOL     OW18415   2.367   0.826   3.038 -0.1763  0.1462 -0.2919
 2319SOL    HW118416   2.457   0.847   3.013 -0.6149  1.4342 -0.7765
 2319SOL    HW218417   2.385   0.742   3.079 -0.1996 -0.7762 -2.1849
 2320SOL     OW18418   2.401   1.459   6.537  0.0482  0.1088  0.3279
 2320SOL    HW118419   2.426   1.485   6.448 -2.2631  2.2066  0.2720
 2320SOL    HW218420   2.418   1.531   6.597 -0.0326 -0.5541  1.1380
 2321SOL     OW18421   3.911   2.020   9.764 -0.4722 -0.1025 -0.4153
 2321SOL    HW118422   3.942   1.944   9.813 -1.4908  0.1595  0.6269
 2321SOL    HW218423   3.998   2.040   9.728 -0.0263 -3.7826 -1.4572
 2322SOL     OW18424   2.367   3.644   2.777 -0.0628  0.6888 -0.1098
 2322SOL    HW118425   2.289   3.612   2.822  0.1397  0.2792 -0.0481
 2322SOL    HW218426   2.351   3.737   2.764 -0.5213  0.4095 -1.5093
 2323SOL     OW18427   1.057   2.446   3.009 -0.0211 -0.3180 -0.3443
 2323SOL    HW118428   1.055   2.409   2.921  4.9557 -1.9284  0.2409
 2323SOL    HW218429   0.962   2.443   3.024  0.4531  0.2093  2.7840
 2324SOL     OW18430   2.614   3.213  10.343 -0.2926  0.1615 -0.4907
 2324SOL    HW118431   2.601   3.304  10.318 -0.5341  0.5891  1.1952
 2324SOL    HW218432   2.619   3.220  10.438 -0.4756  2.3133 -0.6282
 2325SOL     OW18433   1.094   4.172   0.040 -0.0581  0.5284 -0.2485
 2325SOL    HW118434   1.181   4.135   0.056  0.8814  2.1558 -1.5738
 2325SOL    HW218435   1.086   4.215   0.125 -1.1162  0.0370 -0.1011
 2326SOL     OW18436   3.770   0.645  14.285 -0.3286  0.1425  0.0243
 2326SOL    HW118437   3.863   0.622  14.279 -1.0354 -2.8594  0.2192
 2326SOL    HW218438   3.744   0.554  14.269 -0.3989  0.0336  0.7391
 2327SOL     OW18439   4.136   0.299  12.697  0.0643  0.5382 -0.3184
 2327SOL    HW118440   4.051   0.288  12.654 -0.4938  3.3222  0.0786
 2327SOL    HW218441   4.165   0.208  12.702 -0.5547  0.2570 -1.7174
 2328SOL     OW18442   1.454   1.130  12.493 -1.0390 -0.3319 -0.0335
 2328SOL    HW118443   1.419   1.203  12.443  1.0534 -0.1214 -1.1608
 2328SOL    HW218444   1.448   1.162  12.583 -3.4778 -3.3369  0.8822
 2329SOL     OW18445   1.292   4.529  14.366 -0.7624 -0.7543  0.0956
 2329SOL    HW118446   1.380   4.563  14.355 -0.1898 -1.5913  2.1347
 2329SOL    HW218447   1.259   4.587  14.435 -0.0310  0.5051 -0.6182
 2330SOL     OW18448   2.808   2.203  12.122 -0.4930  0.5692 -0.0701
 2330SOL    HW118449   2.866   2.275  12.146  1.3183 -0.5197 -1.2358
 2330SOL    HW218450   2.863   2.162  12.056  0.8923 -1.5220  2.4465
 2331SOL     OW18451   0.361   0.367   6.183  0.3263 -0.3022  0.1471
 2331SOL    HW118452   0.342   0.458   6.159 -1.3897 -0.2434  1.7506
 2331SOL    HW218453   0.452   0.360   6.154  0.2758  0.1891 -0.1209
 2332SOL     OW18454   0.204   1.720   8.283 -0.4080 -0.3808  0.4482
 2332SOL    HW118455   0.297   1.700   8.274 -0.6750 -0.2981 -2.3574
 2332SOL    HW218456   0.179   1.735   8.192 -0.8364 -0.7063  0.5119
 2333SOL     OW18457   2.925   0.981   4.359 -0.2682  0.0281  0.3261
 2333SOL    HW118458   2.899   0.903   4.408 -3.2294 -0.6087 -2.2237
 2333SOL    HW218459   2.837   1.019   4.352  0.5633  1.6870 -1.0381
 2334SOL     OW18460   3.740   1.833  13.457 -0.2249 -0.0559  0.4271
 2334SOL    HW118461   3.700   1.919  13.446 -0.2486  0.0912  1.6721
 2334SOL    HW218462   3.744   1.808  13.365 -1.7560 -2.2932  0.9890
 2335SOL     OW18463   3.659   4.402   8.200 -0.0989 -0.5168 -0.4033
 2335SOL    HW118464   3.652   4.311   8.227  1.1850 -0.5930 -0.3406
 2335SOL    HW218465   3.745   4.404   8.158 -0.2126  0.0553 -0.6073
 2336SOL     OW18466   2.233   4.500   5.684  0.1067 -0.0490 -0.2062
 2336SOL    HW118467   2.274   4.507   5.598  0.2293  2.0316  0.0226
 2336SOL    HW218468   2.247   4.407   5.705  0.4002  0.7163  3.0053
 2337SOL     OW18469   4.635   3.312   8.609  0.2235 -0.2423 -0.1221
 2337SOL    HW118470   4.641   3.400   8.646 -1.1244  0.0860 -0.6845
 2337SOL    HW218471   4.701   3.268   8.664  0.4275  0.7142  0.3959
 2338SOL     OW18472   2.882   2.300   5.793  0.3099  0.1396 -0.1248
 2338SOL    HW118473   2.830   2.315   5.713 -1.4256  0.2215  1.0134
 2338SOL    HW218474   2.927   2.219   5.769  0.4465 -0.1741  1.1912
 2339SOL     OW18475   4.003   2.987   8.257 -0.2381  0.2555  0.4145
 2339SOL    HW118476   3.955   2.912   8.292  1.3473 -0.4058  1.1881
 2339SOL    HW218477   4.081   2.952   8.215 -1.9502 -1.3356 -1.3747
 2340SOL     OW18478   0.672   4.469   3.436  0.5562 -0.2375  0.4878
 2340SOL    HW118479   0.753   4.425   3.410 -0.5048 -2.7560  1.4279
 2340SOL    HW218480   0.607   4.398   3.430 -1.1540  1.3193  0.6976
 2341SOL     OW18481   0.801   4.199  15.373 -0.7660  0.7725  0.1432
 2341SOL    HW118482   0.809   4.202  15.468 -1.1262 -3.0926  0.2923
 2341SOL    HW218483   0.859   4.267  15.339 -0.5485  0.9318  0.8428
 2342SOL     OW18484   0.614   0.507  17.112 -0.1630 -0.4793  0.0513
 2342SOL    HW118485   0.634   0.600  17.119  0.7945 -0.8683  2.2898
 2342SOL    HW218486   0.608   0.485  17.205 -0.6582 -0.0714  0.1189
 2343SOL     OW18487   0.365   0.109   8.255 -0.2971 -0.0874 -0.0957
 2343SOL    HW118488   0.333   0.151   8.335 -2.3286  1.3651 -1.7055
 2343SOL    HW218489   0.458   0.106   8.276 -0.4729  2.1258  1.0214
 2344SOL     OW18490   0.010   2.524   7.897 -0.8460  0.1452  0.4841
 2344SOL    HW118491   4.687   2.447   7.932 -0.2582  0.2597  1.4744
 2344SOL    HW218492   4.657   2.581   7.875 -1.1170 -0.8972 -1.2170
 2345SOL     OW18493   3.704   2.835   9.778 -0.2209  0.3635 -0.3683
 2345SOL    HW118494   3.682   2.743   9.792  2.1058  0.1714  2.0887
 2345SOL    HW218495   3.616   2.873   9.778 -0.0361  0.8339  1.3975
 2346SOL     OW18496   2.478   2.887  14.534 -0.7876  0.0885  0.4147
 2346SOL    HW118497   2.439   2.925  14.455 -0.1546  1.6151  0.8396
 2346SOL    HW218498   2.398   2.870  14.584 -1.6452  3.5876  0.2386
 2347SOL     OW18499   2.878   1.281  13.024 -0.2906  0.7685 -0.0511
 2347SOL    HW118500   2.943   1.345  12.996  1.3959 -2.0416 -2.5795
 2347SOL    HW218501   2.801   1.337  13.016 -0.3439  0.4764 -1.5957
 2348SOL     OW18502   3.276   4.148   7.495  0.4686  0.4304 -0.0454
 2348SOL    HW118503   3.201   4.196   7.529 -0.0399 -1.1930  1.1402
 2348SOL    HW218504   3.335   4.216   7.464  1.3478  0.4014  1.5266
 2349SOL     OW18505   3.481   0.264  10.501  0.6421 -0.0559  1.0125
 2349SOL    HW118506   3.422   0.329  10.538  1.7154  0.5144  1.7017
 2349SOL    HW218507   3.484   0.193  10.566 -1.2477 -0.6189  0.4860
 2350SOL     OW18508   4.324   0.300   5.063  0.2054  0.4163  0.2566
 2350SOL    HW118509   4.335   0.390   5.032  2.3855 -0.1409 -0.5663
 2350SOL    HW218510   4.415   0.277   5.082  1.1069  1.5805 -2.5384
 2351SOL     OW18511   3.363   3.601   7.648  0.1344  0.0155  0.4533
 2351SOL    HW118512   3.342   3.691   7.623 -0.0275  0.0948  0.8897
 2351SOL    HW218513   3.381   3.556   7.566  2.8950 -1.3066  1.7938
 2352SOL     OW18514   3.343   4.083   8.586  0.0212 -0.1234 -0.1564
 2352SOL    HW118515   3.412   4.034   8.629 -0.6667 -1.8517 -1.0264
 2352SOL    HW218516   3.332   4.032   8.506  1.9454 -1.1198  0.2379
 2353SOL     OW18517   2.745   4.562  16.918 -0.8550 -0.1834 -0.1858
 2353SOL    HW118518   2.651   4.554  16.928 -0.9860 -0.5084 -1.6439
 2353SOL    HW218519   2.773   4.505  16.990  1.0207  0.2151 -0.5907
 2354SOL     OW18520   4.073   3.946  17.686 -0.1980  0.3614  0.4791
 2354SOL    HW118521   4.071   3.980   0.089  1.3195  0.7171  0.3831
 2354SOL    HW218522   4.157   3.902   0.009 -0.5147 -0.3663 -0.0963
 2355SOL     OW18523   1.201   4.313   9.533  0.0188  0.1603 -0.5039
 2355SOL    HW118524   1.111   4.280   9.529 -1.2721  3.4971  1.1814
 2355SOL    HW218525   1.251   4.276   9.460 -0.6250  1.6428 -1.6926
 2356SOL     OW18526   1.206   4.143   4.582  0.3297 -0.1264 -0.1653
 2356SOL    HW118527   1.130   4.125   4.636 -0.7262 -0.0055 -1.6118
 2356SOL    HW218528   1.262   4.075   4.618  1.6590  1.1652  0.2106
 2357SOL     OW18529   4.379   1.304   3.973 -0.8689 -0.5147 -0.5028
 2357SOL    HW118530   4.428   1.247   3.915 -1.0186 -0.0019 -1.1344
 2357SOL    HW218531   4.371   1.381   3.917 -1.1057 -0.8711 -0.9632
 2358SOL     OW18532   2.990   1.044   2.882  0.1348 -0.3434 -0.5722
 2358SOL    HW118533   3.077   1.083   2.882 -0.0824  0.1436  0.4793
 2358SOL    HW218534   3.005   0.950   2.889 -3.0591 -0.6463  2.6409
 2359SOL     OW18535   0.764   2.075  16.736  0.0734  0.4302  0.5709
 2359SOL    HW118536   0.796   2.164  16.726 -0.7902  0.8181  1.2359
 2359SOL    HW218537   0.699   2.091  16.804  1.1541  1.2007  1.4265
 2360SOL     OW18538   1.534   3.743   0.965  0.2470  0.3375  0.2806
 2360SOL    HW118539   1.598   3.787   1.021 -1.1025  2.3246  0.2563
 2360SOL    HW218540   1.524   3.655   1.000 -2.7352 -0.2474 -1.9522
 2361SOL     OW18541   0.055   3.034   5.184  0.0596  0.2240 -0.7671
 2361SOL    HW118542   0.016   3.120   5.196 -1.3597 -0.5808  0.3767
 2361SOL    HW218543   0.145   3.044   5.214 -0.2775  1.4836 -0.1740
 2362SOL     OW18544   1.649   3.087  11.485  0.4975 -0.0397 -0.2008
 2362SOL    HW118545   1.560   3.061  11.511  0.3706 -1.0006 -1.5724
 2362SOL    HW218546   1.664   3.039  11.404  1.7579 -0.2080  0.1452
 2363SOL     OW18547   4.665   3.887  10.955 -0.1539  0.0749 -0.1477
 2363SOL    HW118548   4.618   3.817  10.910 -1.5021  0.3147  0.8914
 2363SOL    HW218549   4.609   3.962  10.935  1.1846  1.0423 -0.2515
 2364SOL     OW18550   4.511   0.202   3.930  0.4895  0.1787  0.1454
 2364SOL    HW118551   4.604   0.218   3.950  0.7829 -0.7151 -0.4939
 2364SOL    HW218552   4.494   0.231   3.840  2.3337  3.5669  0.9079
 2365SOL     OW18553   2.472   2.779   6.987  0.6860  0.3075  0.2134
 2365SOL    HW118554   2.466   2.844   7.057 -0.8395  0.0565  0.3156
 2365SOL    HW218555   2.531   2.815   6.921 -0.2004  0.8488 -0.2812
 2366SOL     OW18556   4.695   3.321   1.113 -0.4014 -0.1878  0.1451
 2366SOL    HW118557   4.704   3.249   1.176 -1.4392 -2.6055 -2.4613
 2366SOL    HW218558   0.030   3.386   1.155  2.1930 -0.8431 -2.3202
 2367SOL     OW18559   0.700   2.960   6.557 -0.4226  0.0360 -0.3229
 2367SOL    HW118560   0.672   2.868   6.552  3.0879 -0.9957 -1.1572
 2367SOL    HW218561   0.736   2.980   6.471 -0.9684 -1.3148 -0.8623
 2368SOL     OW18562   0.856   2.249   3.621 -0.0878 -0.1518 -0.0923
 2368SOL    HW118563   0.869   2.154   3.622  2.2186  0.1949  1.8012
 2368SOL    HW218564   0.925   2.275   3.682 -1.5885  1.9624  0.6995
 2369SOL     OW18565   4.535   1.013   7.370 -0.2842  0.0875 -0.0686
 2369SOL    HW118566   4.568   1.097   7.337 -0.2650 -1.1020 -3.1017
 2369SOL    HW218567   4.612   0.971   7.333  1.2425  1.3406  1.6578
 2370SOL     OW18568   0.649   4.664   1.920  0.1423  0.4785 -0.6973
 2370SOL    HW118569   0.556   4.651   1.903 -0.2034  1.6638  0.2798
 2370SOL    HW218570   0.643   0.018   1.978  2.7786 -1.5186  2.1736
 2371SOL     OW18571   2.523   1.167   4.124  0.4255  0.4563 -0.0932
 2371SOL    HW118572   2.493   1.248   4.166 -2.2392 -0.8515  0.5291
 2371SOL    HW218573   2.449   1.166   4.062  1.8526 -1.3128 -1.7623
 2372SOL     OW18574   1.697   1.714   8.382 -0.1640  0.3140 -0.3983
 2372SOL    HW118575   1.719   1.744   8.470  2.0178  2.0401 -1.5291
 2372SOL    HW218576   1.654   1.793   8.349 -0.4059  0.9595  1.4452
 2373SOL     OW18577   0.857   2.605   4.642 -0.0373  0.7486 -0.1361
 2373SOL    HW118578   0.949   2.619   4.622  0.3105 -2.1392 -0.6739
 2373SOL    HW218579   0.860   2.532   4.705  0.7232  1.9739  1.2560
 2374SOL     OW18580   1.584   1.693   6.191  0.1238  1.2113  0.0412
 2374SOL    HW118581   1.612   1.615   6.238  0.2958  1.5515  0.5029
 2374SOL    HW218582   1.664   1.702   6.139  0.2454 -1.6951 -0.2504
 2375SOL     OW18583   2.667   4.019   4.396 -0.1173  0.2182 -0.0143
 2375SOL    HW118584   2.734   4.064   4.446  1.2769 -1.0248 -0.7418
 2375SOL    HW218585   2.621   3.970   4.464  2.8037 -4.7372 -1.5939
 2376SOL     OW18586   3.875   2.584   5.572 -0.7576  0.2834  0.6934
 2376SOL    HW118587   3.922   2.654   5.619  1.2745 -0.3367 -0.4056
 2376SOL    HW218588   3.946   2.565   5.510 -2.9154  0.8765 -1.9314
 2377SOL     OW18589   2.218   3.745   7.930  1.1970  0.6202  0.2863
 2377SOL    HW118590   2.212   3.733   8.025 -0.4252  1.9702  0.3536
 2377SOL    HW218591   2.138   3.705   7.898  1.0207  0.0763  1.3882
 2378SOL     OW18592   4.290   4.328   3.186 -0.2741  0.1015 -0.1498
 2378SOL    HW118593   4.298   4.370   3.100 -1.2002  0.3315 -0.1293
 2378SOL    HW218594   4.328   4.244   3.159 -0.2382  0.9367 -2.7191
 2379SOL     OW18595   1.528   3.667   8.918 -0.1601 -0.0860  0.1426
 2379SOL    HW118596   1.498   3.577   8.929 -0.6481  0.2496  1.5736
 2379SOL    HW218597   1.535   3.712   9.003  0.7514  0.5943 -0.2943
 2380SOL     OW18598   0.217   4.304   5.701  0.3615  0.3776 -0.2975
 2380SOL    HW118599   0.237   4.302   5.607  1.0701  0.6950 -0.1528
 2380SOL    HW218600   0.239   4.394   5.722  1.4711 -0.1246  0.7023
 2381SOL     OW18601   2.261   2.090   5.049  0.1812 -0.4111  0.5796
 2381SOL    HW118602   2.290   2.163   5.104  0.6223  0.2575 -0.5523
 2381SOL    HW218603   2.237   2.138   4.970  0.1898 -2.2026 -0.4957
 2382SOL     OW18604   0.410   0.823   3.380  0.2625  0.6899  0.2070
 2382SOL    HW118605   0.465   0.808   3.303  0.0301  0.2270  0.1324
 2382SOL    HW218606   0.341   0.868   3.330 -0.4096  0.9577  1.3664
 2383SOL     OW18607   2.269   4.220   5.877 -0.6405  0.4585  0.8081
 2383SOL    HW118608   2.332   4.230   5.806 -1.6474 -1.6249 -0.3899
 2383SOL    HW218609   2.269   4.124   5.881  0.4169  0.4090 -0.5808
 2384SOL     OW18610   3.649   1.801   2.677 -0.1857  0.1433 -0.2034
 2384SOL    HW118611   3.573   1.747   2.697 -0.7502  0.7431 -0.7345
 2384SOL    HW218612   3.694   1.754   2.606  0.4187 -0.0708  0.3242
 2385SOL     OW18613   1.229   1.119   8.090 -0.5404  0.5986 -0.3517
 2385SOL    HW118614   1.319   1.120   8.058 -1.3122 -1.7828 -2.5664
 2385SOL    HW218615   1.246   1.083   8.178  0.1520  0.9832 -0.3328
 2386SOL     OW18616   1.486   2.359   8.027  0.1692  0.5032 -0.4611
 2386SOL    HW118617   1.469   2.453   8.026  3.4325  1.0735 -2.5365
 2386SOL    HW218618   1.403   2.322   8.056  0.1918 -1.4366 -2.7756
 2387SOL     OW18619   0.620   3.829  15.143 -0.3717  0.3404 -0.1817
 2387SOL    HW118620   0.633   3.907  15.197 -2.6054  2.4375 -2.6894
 2387SOL    HW218621   0.687   3.840  15.076  0.8811 -3.5155  0.4209
 2388SOL     OW18622   3.279   4.548  15.446 -0.8575 -0.5163  0.9424
 2388SOL    HW118623   3.262   4.613  15.377 -0.2227 -1.4186 -0.0763
 2388SOL    HW218624   3.212   4.483  15.426  0.6990 -1.4089 -1.4048
 2389SOL     OW18625   1.261   0.473   9.475 -0.3754 -0.2152  0.1315
 2389SOL    HW118626   1.310   0.413   9.419 -0.4979  1.0346 -1.3297
 2389SOL    HW218627   1.320   0.477   9.550  1.3315  1.2851 -1.2613
 2390SOL     OW18628   1.517   2.344   5.257  0.3470 -0.5422  0.3554
 2390SOL    HW118629   1.545   2.408   5.323 -1.8747  2.5006 -1.6724
 2390SOL    HW218630   1.435   2.377   5.220  0.4235 -0.2786  0.4177
 2391SOL     OW18631   4.436   1.318   3.351 -0.0869 -0.0114 -0.2876
 2391SOL    HW118632   4.404   1.408   3.341  2.7334  0.9895 -0.0772
 2391SOL    HW218633   4.370   1.272   3.299 -0.5434  0.8228 -0.4451
 2392SOL     OW18634   2.922   4.655  14.287  0.9328  0.3815  0.2827
 2392SOL    HW118635   2.954   0.021  14.265  0.6552  0.8608  1.7805
 2392SOL    HW218636   2.861   4.675  14.358  0.6607 -0.6803  0.3550
 2393SOL     OW18637   0.215   3.275   7.727 -0.0957 -0.1608 -0.2909
 2393SOL    HW118638   0.143   3.336   7.742  1.9953  1.9034  1.3657
 2393SOL    HW218639   0.207   3.223   7.807  1.0404  1.2014  0.7200
 2394SOL     OW18640   4.166   1.875  14.793 -0.0730 -0.0918 -0.8550
 2394SOL    HW118641   4.107   1.856  14.720  0.3690  0.8938 -1.4515
 2394SOL    HW218642   4.246   1.841  14.753  0.0231  0.3295 -1.0135
 2395SOL     OW18643   2.361   0.391   3.647  0.0531 -0.4168  0.5388
 2395SOL    HW118644   2.426   0.329   3.680  0.2606  0.0807  1.0675
 2395SOL    HW218645   2.364   0.465   3.708  0.1418 -0.9593  1.1948
 2396SOL     OW18646   2.437   3.908  12.561 -0.4490  0.0835  0.4311
 2396SOL    HW118647   2.379   3.929  12.488  0.5256  0.3275 -0.2817
 2396SOL    HW218648   2.368   3.908  12.628 -0.2825  0.5935  0.6013
 2397SOL     OW18649   0.296   3.593   6.666  0.3760  0.5418  0.2064
 2397SOL    HW118650   0.311   3.539   6.588  2.0515  0.3300  0.6805
 2397SOL    HW218651   0.374   3.576   6.719 -0.7160  0.3905  1.7596
 2398SOL     OW18652   4.096   4.130   1.518 -0.0907 -0.1875  0.2630
 2398SOL    HW118653   4.127   4.063   1.579  1.0097  0.9118  0.9094
 2398SOL    HW218654   4.178   4.161   1.480 -1.9221  0.9213 -2.8015
 2399SOL     OW18655   3.063   2.711  14.027 -0.6601  0.5346  0.2748
 2399SOL    HW118656   2.993   2.657  14.063 -1.3860 -0.3712 -2.5104
 2399SOL    HW218657   3.127   2.693  14.096 -0.6177 -0.4731 -0.0279
 2400SOL     OW18658   2.863   0.646   7.396  0.3538 -0.5984  0.1156
 2400SOL    HW118659   2.956   0.666   7.403  0.0990  0.7551 -0.1969
 2400SOL    HW218660   2.854   0.555   7.422  3.6680 -0.6206  1.1628
 2401SOL     OW18661   0.176   2.148  10.514  0.0189 -0.1245  0.4813
 2401SOL    HW118662   0.221   2.227  10.483 -2.6655  1.5119  0.7661
 2401SOL    HW218663   0.185   2.111  10.427 -2.4340  1.0041 -0.2327
 2402SOL     OW18664   3.420   0.799   9.664  0.1925  0.0324 -0.0670
 2402SOL    HW118665   3.422   0.715   9.708 -2.2953 -0.2116 -0.4425
 2402SOL    HW218666   3.501   0.801   9.613  1.3745  0.0351  1.8271
 2403SOL     OW18667   3.293   2.213  16.359 -0.5935 -0.1241 -0.4749
 2403SOL    HW118668   3.369   2.250  16.404 -0.8309  0.7646 -0.7971
 2403SOL    HW218669   3.320   2.122  16.347 -0.8754 -0.7929  4.1017
 2404SOL     OW18670   1.548   0.190  11.058  0.6683 -0.0203  0.1780
 2404SOL    HW118671   1.503   0.177  11.141 -1.2319 -0.8936 -1.0024
 2404SOL    HW218672   1.562   0.106  11.015 -1.2421  1.2207 -2.9344
 2405SOL     OW18673   0.104   2.321   2.108 -0.3922  0.0685 -0.1324
 2405SOL    HW118674   0.049   2.267   2.051  0.9494 -0.1922 -1.1911
 2405SOL    HW218675   0.043   2.384   2.146 -1.0793 -0.6401 -0.0564
 2406SOL     OW18676   1.454   2.501   6.648 -0.2044  0.3948 -0.5985
 2406SOL    HW118677   1.516   2.571   6.669 -0.1054  1.2133 -3.5759
 2406SOL    HW218678   1.368   2.539   6.667  1.2011  2.8925  0.7524
 2407SOL     OW18679   1.761   4.630   3.325 -0.3984  0.4170  0.1060
 2407SOL    HW118680   1.667   4.613   3.320 -0.6281  1.5114  0.7934
 2407SOL    HW218681   1.784   4.601   3.413 -0.0109 -2.4178 -0.9263
 2408SOL     OW18682   3.645   2.430  11.580 -0.0016  0.6930 -0.1258
 2408SOL    HW118683   3.560   2.474  11.582 -1.9266 -3.0345  0.9413
 2408SOL    HW218684   3.667   2.429  11.673 -1.1032  1.2574  0.1457
 2409SOL     OW18685   2.502   3.380  13.982 -0.0864 -0.0726  0.0583
 2409SOL    HW118686   2.415   3.418  13.970 -0.5695 -1.2671 -0.1759
 2409SOL    HW218687   2.519   3.342  13.896  0.2165 -1.3152  0.6644
 2410SOL     OW18688   4.554   0.564   5.592 -0.1881  0.3976  0.2846
 2410SOL    HW118689   4.472   0.612   5.582 -0.1686  0.0313 -1.6164
 2410SOL    HW218690   4.525   0.509   5.665  0.0241  1.0702  0.8719
 2411SOL     OW18691   2.652   3.625   6.885 -0.2108 -0.6670  0.0278
 2411SOL    HW118692   2.682   3.682   6.814 -1.0725  0.3244  0.4682
 2411SOL    HW218693   2.676   3.678   6.961  1.5060 -0.7922 -0.4201
 2412SOL     OW18694   3.187   4.254   4.682  0.2604 -0.5044 -0.2867
 2412SOL    HW118695   3.131   4.181   4.708 -0.6056  0.3375  0.1891
 2412SOL    HW218696   3.266   4.199   4.676 -0.1843 -1.3070  1.2114
 2413SOL     OW18697   1.620   0.673  16.491 -0.6113  0.4813  0.0723
 2413SOL    HW118698   1.698   0.618  16.498 -0.2045  0.6702 -3.0852
 2413SOL    HW218699   1.549   0.614  16.516 -0.4503  0.8790  1.4926
 2414SOL     OW18700   0.920   2.309  14.566  0.4918  0.6391 -0.2861
 2414SOL    HW118701   0.832   2.293  14.533  1.2754 -0.7794 -1.6957
 2414SOL    HW218702   0.972   2.315  14.486 -2.2353 -1.7454 -2.2512
 2415SOL     OW18703   0.806   0.296   7.243  0.1921 -0.1498  0.8491
 2415SOL    HW118704   0.889   0.333   7.214  0.5738 -2.9978 -1.6047
 2415SOL    HW218705   0.756   0.375   7.221  1.7455  0.8626  0.9697
 2416SOL     OW18706   4.376   2.227   6.605 -0.5244 -0.2742  0.3442
 2416SOL    HW118707   4.366   2.193   6.516 -0.5046 -0.5495  0.4472
 2416SOL    HW218708   4.303   2.181   6.648 -0.1575 -0.4714  0.7652
 2417SOL     OW18709   2.779   3.710   3.549  0.3202  0.1622 -0.0588
 2417SOL    HW118710   2.869   3.743   3.558  0.4665 -0.1028 -0.5514
 2417SOL    HW218711   2.772   3.714   3.454  1.1255  0.4974 -0.1056
 2418SOL     OW18712   1.187   0.122   4.013 -0.5575 -0.0190 -0.0871
 2418SOL    HW118713   1.107   0.078   3.984  0.9831 -2.5412 -0.5670
 2418SOL    HW218714   1.155   0.138   4.102 -0.3355 -0.9030  0.1554
 2419SOL     OW18715   0.530   2.566  16.665 -0.6980  0.1084  0.1703
 2419SOL    HW118716   0.535   2.599  16.575 -0.0529 -0.2315  0.0851
 2419SOL    HW218717   0.459   2.624  16.694 -0.0804 -0.0124  1.9257
 2420SOL     OW18718   1.182   1.184  13.883  0.0315  0.8560  0.3668
 2420SOL    HW118719   1.113   1.174  13.949  0.2891 -1.7834  0.2512
 2420SOL    HW218720   1.181   1.277  13.862  0.1710  0.7511 -0.1179
 2421SOL     OW18721   0.170   1.889   2.777  0.1286  0.1325  0.1973
 2421SOL    HW118722   0.255   1.933   2.778  0.6649 -0.8866 -1.1240
 2421SOL    HW218723   0.147   1.897   2.869  0.9452  1.6612  0.2763
 2422SOL     OW18724   2.864   0.506  13.791 -0.0483  0.6348  0.5329
 2422SOL    HW118725   2.777   0.529  13.824 -0.1903  0.8935 -0.0176
 2422SOL    HW218726   2.873   0.549  13.706  0.0521 -1.4074 -0.4978
 2423SOL     OW18727   2.218   3.505   5.181 -0.2016 -0.5257 -0.0469
 2423SOL    HW118728   2.296   3.455   5.156  0.0577 -0.2147  0.1265
 2423SOL    HW218729   2.226   3.502   5.276 -3.5230  2.2057  0.3077
 2424SOL     OW18730   0.281   2.878   3.192 -0.3240  0.4369  0.3037
 2424SOL    HW118731   0.315   2.809   3.249 -2.5861 -1.5928 -0.8749
 2424SOL    HW218732   0.357   2.937   3.201  1.2637 -1.2797 -2.0590
 2425SOL     OW18733   4.116   3.561   8.874  0.2638  1.1429 -0.1158
 2425SOL    HW118734   4.062   3.637   8.850 -2.4469 -1.0545 -1.0570
 2425SOL    HW218735   4.086   3.547   8.964  1.6993 -1.1592  0.0023
 2426SOL     OW18736   1.134   1.215   5.892 -0.2971  0.1642  0.0329
 2426SOL    HW118737   1.153   1.122   5.903  1.9742  0.7057  0.6927
 2426SOL    HW218738   1.217   1.258   5.913  0.2457 -0.7486 -0.2614
 2427SOL     OW18739   0.840   3.553   5.008 -0.6336  0.3409 -0.5356
 2427SOL    HW118740   0.752   3.592   5.012 -1.5432 -1.5460 -1.9746
 2427SOL    HW218741   0.886   3.634   5.029 -0.9941  1.0296 -2.3318
 2428SOL     OW18742   2.693   3.144  10.862  0.3025 -0.7262  0.1073
 2428SOL    HW118743   2.666   3.150  10.953 -1.0317  1.4782 -0.4262
 2428SOL    HW218744   2.775   3.095  10.862  1.5120  1.3231 -1.3733
 2429SOL     OW18745   2.749   3.832   7.340  0.4357 -0.5673  0.6215
 2429SOL    HW118746   2.815   3.886   7.384  0.3063  0.3518 -0.2904
 2429SOL    HW218747   2.706   3.789   7.414  1.4257 -0.4460  1.2620
 2430SOL     OW18748   4.501   0.400  12.777 -0.1514 -0.6188  0.2563
 2430SOL    HW118749   4.549   0.466  12.827  0.9156 -0.3557 -1.1209
 2430SOL    HW218750   4.451   0.353  12.844  2.9399 -2.1253  1.5180
 2431SOL     OW18751   2.049   1.464  11.771  0.0131  0.7221 -0.0780
 2431SOL    HW118752   1.965   1.429  11.740  0.5862  0.4625 -1.3494
 2431SOL    HW218753   2.101   1.384  11.762 -0.6347 -0.2436  4.9082
 2432SOL     OW18754   0.026   2.822   5.373 -0.2831  0.4291 -0.4228
 2432SOL    HW118755   4.721   2.756   5.309  0.1240 -2.0607  1.9631
 2432SOL    HW218756   0.121   2.830   5.369 -0.2123 -0.4950 -0.6072
 2433SOL     OW18757   4.634   0.051   6.474 -0.4046  0.2072  0.2564
 2433SOL    HW118758   4.696   0.107   6.429 -0.8188 -0.3707 -1.0224
 2433SOL    HW218759   4.550   0.087   6.447 -0.9150 -0.4737  0.9115
 2434SOL     OW18760   1.210   3.930   4.925  0.0730  0.0970 -0.3253
 2434SOL    HW118761   1.290   3.891   4.891 -0.8905 -1.8124 -0.4594
 2434SOL    HW218762   1.151   3.914   4.851  0.4872 -1.2642 -0.3698
 2435SOL     OW18763   0.204   4.015  16.208 -0.4320 -0.2626  0.1594
 2435SOL    HW118764   0.144   4.041  16.138 -0.9823  0.4418  0.8940
 2435SOL    HW218765   0.149   3.954  16.258 -0.8783 -1.1965 -1.4745
 2436SOL     OW18766   1.777   1.442  15.410 -0.0018 -0.2597  0.2435
 2436SOL    HW118767   1.685   1.439  15.384  0.5275 -1.4487 -1.5044
 2436SOL    HW218768   1.817   1.363  15.374 -0.9369  0.5999 -2.7462
 2437SOL     OW18769   3.880   3.645   4.839 -0.1951 -0.1260  0.0240
 2437SOL    HW118770   3.850   3.616   4.753 -3.2195  0.3676  0.9388
 2437SOL    HW218771   3.972   3.664   4.818  0.2201  0.4633  2.3930
 2438SOL     OW18772   2.067   2.489   7.686 -0.1857  0.0315 -0.0004
 2438SOL    HW118773   2.075   2.577   7.723  0.6595 -0.0991  0.1299
 2438SOL    HW218774   1.973   2.489   7.672 -0.4995 -0.8488  2.2424
 2439SOL     OW18775   2.638   1.440  17.550  0.1421 -1.0009 -0.4833
 2439SOL    HW118776   2.596   1.487  17.478 -0.5649  0.5066  0.9070
 2439SOL    HW218777   2.685   1.368  17.508 -0.4326 -0.6667 -1.7125
 2440SOL     OW18778   1.935   1.447   9.373 -0.3110  0.0477 -0.0120
 2440SOL    HW118779   1.929   1.499   9.454  1.6991 -0.1171  0.2530
 2440SOL    HW218780   1.895   1.506   9.309 -1.6214 -1.5251 -0.6152
 2441SOL     OW18781   4.644   1.204   7.578  0.1336 -0.2444  0.4803
 2441SOL    HW118782   4.702   1.146   7.530  1.3404  1.3544 -0.0168
 2441SOL    HW218783   4.641   1.282   7.523 -0.9336 -0.4389  0.2684
 2442SOL     OW18784   0.443   1.117   6.025 -0.1129  0.2380  0.5627
 2442SOL    HW118785   0.507   1.187   6.035 -0.8633  1.0848 -0.5290
 2442SOL    HW218786   0.420   1.101   6.117 -0.6249  1.1914  0.5986
 2443SOL     OW18787   1.362   2.068   2.610  0.2405 -0.4730  1.1976
 2443SOL    HW118788   1.337   2.018   2.533  1.3397  0.4853  0.2240
 2443SOL    HW218789   1.426   2.127   2.570 -0.0240  0.1150  1.6365
 2444SOL     OW18790   2.460   2.341  10.055 -0.2380  0.5846  0.2669
 2444SOL    HW118791   2.532   2.303  10.005  0.2924  2.7393 -0.6230
 2444SOL    HW218792   2.420   2.397   9.988 -2.0330  0.7763  1.4791
 2445SOL     OW18793   4.688   1.434  13.249 -0.2177 -0.1994 -0.5647
 2445SOL    HW118794   0.050   1.397  13.279  0.9250  1.7058 -1.3852
 2445SOL    HW218795   4.706   1.528  13.248  0.6264 -0.3612 -0.8307
 2446SOL     OW18796   0.712   4.262   6.633 -0.2386 -0.5638 -0.2621
 2446SOL    HW118797   0.771   4.250   6.558  0.7048 -0.1838  0.4061
 2446SOL    HW218798   0.766   4.307   6.699  0.7161 -1.8815 -0.1415
 2447SOL     OW18799   0.882   1.323   6.732  0.0133  0.5677 -0.1780
 2447SOL    HW118800   0.838   1.251   6.689  0.0146 -0.4422  1.5180
 2447SOL    HW218801   0.887   1.289   6.822 -0.0818 -0.5753 -0.6113
 2448SOL     OW18802   2.290   1.905  17.416  0.0138  0.1595  0.3654
 2448SOL    HW118803   2.213   1.852  17.397 -0.1203  0.2602  0.6219
 2448SOL    HW218804   2.261   1.967  17.483  1.5356 -0.6405  1.7686
 2449SOL     OW18805   1.087   1.627   6.386 -0.1207 -0.2658 -0.0565
 2449SOL    HW118806   1.134   1.709   6.400  1.2874 -1.0939  0.0665
 2449SOL    HW218807   1.156   1.569   6.353 -0.4260  0.0719 -1.2806
 2450SOL     OW18808   4.686   0.883   0.466  0.3368  0.2079  0.5713
 2450SOL    HW118809   4.632   0.882   0.387 -1.8903  0.0916  2.0825
 2450SOL    HW218810   4.707   0.791   0.483 -0.8156 -0.0321  0.6868
 2451SOL     OW18811   1.351   4.687   4.438 -0.1853  0.2335 -0.0100
 2451SOL    HW118812   1.352   4.600   4.480 -1.4438  0.6083  0.8183
 2451SOL    HW218813   1.325   0.023   4.511 -0.6458  0.6962 -0.5421
 2452SOL     OW18814   4.463   4.465   2.640 -0.6300 -0.0035 -0.2283
 2452SOL    HW118815   4.396   4.477   2.572 -0.0715 -0.1666 -0.8079
 2452SOL    HW218816   4.544   4.504   2.606 -1.9675  1.5681 -1.6253
 2453SOL     OW18817   1.528   3.559   7.165 -0.3128 -0.2253 -0.3390
 2453SOL    HW118818   1.550   3.592   7.078 -0.4567 -1.0820 -0.6982
 2453SOL    HW218819   1.468   3.485   7.153  0.4898 -0.9992  0.4003
 2454SOL     OW18820   1.427   3.112  14.519 -0.2719  0.0707  0.2860
 2454SOL    HW118821   1.384   3.118  14.604  0.2637 -1.2649  0.6447
 2454SOL    HW218822   1.468   3.199  14.511 -1.1659  0.3549 -1.2799
 2455SOL     OW18823   0.629   0.944   2.773  0.1306  0.5191  0.2635
 2455SOL    HW118824   0.701   0.904   2.820 -0.3399 -0.7421 -0.0980
 2455SOL    HW218825   0.585   1.007   2.830 -0.9099  0.5722 -0.5824
 2456SOL     OW18826   0.809   1.810   4.877 -0.0317 -0.5117  0.0607
 2456SOL    HW118827   0.797   1.872   4.949 -0.3311  1.8112 -1.9998
 2456SOL    HW218828   0.903   1.805   4.859  0.1175  1.9815  0.0577
 2457SOL     OW18829   3.872   1.388  14.838  0.6185 -0.4693  0.4483
 2457SOL    HW118830   3.883   1.311  14.783 -1.5831 -0.3019 -0.2228
 2457SOL    HW218831   3.781   1.411  14.819  0.4487 -0.1569  1.6223
 2458SOL     OW18832   0.009   1.805   9.589 -0.3456 -0.9128 -0.1925
 2458SOL    HW118833   0.072   1.802   9.661 -0.1122  0.8316 -0.3337
 2458SOL    HW218834   0.057   1.860   9.528 -1.4141 -1.1957 -1.2867
 2459SOL     OW18835   0.047   2.313  11.951 -0.1033  0.7740 -0.6424
 2459SOL    HW118836   0.110   2.285  11.884  1.5656 -1.9174  2.0713
 2459SOL    HW218837   4.697   2.326  11.888  1.2034 -2.6592 -2.8474
 2460SOL     OW18838   0.376   3.303  11.467 -0.2224  0.1852 -0.1127
 2460SOL    HW118839   0.371   3.269  11.556  1.6312  0.5318  0.1287
 2460SOL    HW218840   0.456   3.355  11.472 -1.6957  2.5550 -0.9926
 2461SOL     OW18841   1.435   0.021   9.266 -0.1380  0.4370  0.5107
 2461SOL    HW118842   1.369   4.691   9.313 -1.4747 -0.0715 -1.9225
 2461SOL    HW218843   1.512   4.686   9.272  1.1741  2.2611  0.7228
 2462SOL     OW18844   0.365   3.791   5.476  0.2291  0.1237 -0.0622
 2462SOL    HW118845   0.379   3.855   5.406 -0.4581  0.9888  0.6015
 2462SOL    HW218846   0.359   3.710   5.425 -1.0663  0.0352  0.2505
 2463SOL     OW18847   1.477   2.460   7.132 -0.0976 -0.3838  0.1840
 2463SOL    HW118848   1.448   2.400   7.200  2.5855  1.6712  3.1321
 2463SOL    HW218849   1.390   2.487   7.103  1.2687  1.4125 -2.2453
 2464SOL     OW18850   2.464   3.354   3.913 -0.0222 -0.6689  0.2599
 2464SOL    HW118851   2.417   3.306   3.845 -2.2927  1.2840  0.4941
 2464SOL    HW218852   2.513   3.283   3.956  0.6816 -0.1719  0.2885
 2465SOL     OW18853   0.807   1.054   0.603  0.4207 -0.3337 -0.3965
 2465SOL    HW118854   0.781   1.017   0.687  2.0782 -0.8072 -0.0897
 2465SOL    HW218855   0.781   1.145   0.614 -1.2457 -0.9177  0.6227
 2466SOL     OW18856   2.436   2.669  13.717 -0.0835  0.1898 -0.3543
 2466SOL    HW118857   2.496   2.616  13.771  1.6173  1.2860 -1.1526
 2466SOL    HW218858   2.483   2.752  13.716  0.4533 -0.0492  2.6882
 2467SOL     OW18859   1.842   4.132  12.802  0.2836 -0.0620  0.2689
 2467SOL    HW118860   1.829   4.124  12.896  2.2976 -2.3089  0.3816
 2467SOL    HW218861   1.885   4.050  12.777  1.0145  0.0503  1.1606
 2468SOL     OW18862   0.546   1.137  16.342 -0.2101 -0.0538  0.0576
 2468SOL    HW118863   0.571   1.047  16.363 -0.9334 -0.3998 -0.5439
 2468SOL    HW218864   0.599   1.194  16.396  0.6347  0.2166 -1.0512
 2469SOL     OW18865   1.259   2.846  17.585 -0.3036 -0.7701  0.5269
 2469SOL    HW118866   1.184   2.884  17.632 -0.4456 -1.4596  0.8679
 2469SOL    HW218867   1.297   2.920  17.538 -0.1274 -1.6369 -0.6653
 2470SOL     OW18868   3.363   0.907   4.649 -0.1777  0.3684 -0.3751
 2470SOL    HW118869   3.278   0.903   4.604  0.5421  1.0560 -1.8003
 2470SOL    HW218870   3.374   1.001   4.665 -2.2595  0.4215  0.7064
 2471SOL     OW18871   4.584   0.610  15.467 -0.5082 -0.2099  0.7607
 2471SOL    HW118872   4.501   0.640  15.431 -2.1434 -1.5816  3.4303
 2471SOL    HW218873   4.642   0.677  15.431 -0.3956 -0.5683  0.2797
 2472SOL     OW18874   2.505   3.995   7.390  0.3259 -0.1287  0.4399
 2472SOL    HW118875   2.587   3.961   7.352 -0.0560  1.5551 -1.8639
 2472SOL    HW218876   2.446   3.921   7.374  0.1753 -0.0631  0.7124
 2473SOL     OW18877   4.230   1.297   3.667  0.0439 -0.4391  0.7808
 2473SOL    HW118878   4.318   1.291   3.631  0.1971  4.4186  0.3379
 2473SOL    HW218879   4.200   1.216   3.626 -0.0139 -0.0280  0.0202
 2474SOL     OW18880   1.416   0.865  12.558 -0.0199 -0.6153  0.1405
 2474SOL    HW118881   1.449   0.954  12.541 -1.7980 -0.0046 -0.0398
 2474SOL    HW218882   1.471   0.813  12.499 -0.8925 -1.6061  0.2112
 2475SOL     OW18883   0.014   1.909   2.444  0.0343  0.1324 -0.3136
 2475SOL    HW118884   0.109   1.913   2.450  0.1562 -1.6176 -1.0313
 2475SOL    HW218885   4.717   1.944   2.356  0.4189  1.0198 -0.0388
 2476SOL     OW18886   1.494   0.616   5.476 -0.3950 -0.3022 -0.2447
 2476SOL    HW118887   1.522   0.546   5.536  0.0163 -1.2749 -1.5777
 2476SOL    HW218888   1.437   0.574   5.412 -0.8737  0.4725 -0.3336
 2477SOL     OW18889   3.372   1.668   3.094  0.1180 -0.1081  0.1524
 2477SOL    HW118890   3.281   1.639   3.098  0.6580 -1.9163 -0.5195
 2477SOL    HW218891   3.395   1.667   3.187  1.4307  1.4448 -0.1501
 2478SOL     OW18892   1.915   3.279   4.234 -0.0181 -0.3481  0.2426
 2478SOL    HW118893   1.956   3.264   4.149  2.3509  0.3861  1.2499
 2478SOL    HW218894   1.907   3.191   4.270 -0.6198 -0.2210  0.4305
 2479SOL     OW18895   0.238   4.580  12.534  0.5990  0.1359  0.1188
 2479SOL    HW118896   0.228   4.605  12.443  1.4936 -0.4948 -0.1476
 2479SOL    HW218897   0.172   4.510  12.535  0.7956 -0.0495 -0.0721
 2480SOL     OW18898   4.287   2.196  10.860 -0.4600 -0.1202  0.2843
 2480SOL    HW118899   4.345   2.135  10.906  2.6875  0.7078 -2.6053
 2480SOL    HW218900   4.211   2.194  10.918 -0.9095  0.9174 -0.2640
 2481SOL     OW18901   3.227   0.782   8.868  0.8087  0.1253  0.7774
 2481SOL    HW118902   3.145   0.829   8.882  0.6603  0.5140 -1.3317
 2481SOL    HW218903   3.290   0.854   8.869 -2.0597  2.6459 -1.0447
 2482SOL     OW18904   0.133   1.379  11.937  0.2586  0.2492  0.2849
 2482SOL    HW118905   0.099   1.397  12.025 -0.8586  0.9640 -0.3032
 2482SOL    HW218906   0.060   1.414  11.886 -0.1233 -0.1551  0.5546
 2483SOL     OW18907   0.302   4.569   5.636  0.3695  0.3195  0.0060
 2483SOL    HW118908   0.377   4.522   5.672 -0.6982 -0.0484  1.7490
 2483SOL    HW218909   0.346   4.652   5.618  0.5203  0.2878  0.2257
 2484SOL     OW18910   0.534   0.863   5.896  0.3684 -0.1721 -0.7670
 2484SOL    HW118911   0.583   0.915   5.959  1.7084 -0.3943 -1.6191
 2484SOL    HW218912   0.453   0.914   5.905  1.2547  0.5768  2.8102
 2485SOL     OW18913   2.885   1.512   3.611 -0.2926  0.3230 -0.1292
 2485SOL    HW118914   2.869   1.494   3.704  0.7504  1.6951  0.3295
 2485SOL    HW218915   2.796   1.520   3.577 -0.3867 -1.4401 -0.2888
 2486SOL     OW18916   1.510   0.768   5.231  0.4415 -0.4268 -0.2616
 2486SOL    HW118917   1.477   0.744   5.318 -0.8990 -1.4710 -1.0577
 2486SOL    HW218918   1.577   0.700   5.233  1.5384  0.6438 -0.7050
 2487SOL     OW18919   2.988   0.449   2.502 -0.9622 -0.0019  0.0710
 2487SOL    HW118920   2.976   0.378   2.439  1.3144 -1.1655  0.9449
 2487SOL    HW218921   3.081   0.432   2.519 -1.0823  1.3753  2.0416
 2488SOL     OW18922   4.244   0.260   8.425 -0.1743  0.2274 -0.2784
 2488SOL    HW118923   4.279   0.191   8.482 -0.0869  1.4819  1.2114
 2488SOL    HW218924   4.241   0.335   8.485  2.8810 -0.4406  0.7089
 2489SOL     OW18925   1.541   4.517   5.433  0.2226  0.1112 -0.1905
 2489SOL    HW118926   1.579   4.436   5.467 -2.7604 -1.8150 -1.4330
 2489SOL    HW218927   1.612   4.579   5.449 -3.3344  4.0378  0.5022
 2490SOL     OW18928   4.377   2.126   3.342  0.0340  0.3789  0.0552
 2490SOL    HW118929   4.405   2.206   3.299  0.8762  0.8573  1.4765
 2490SOL    HW218930   4.387   2.140   3.436 -2.1539  0.6696  0.2545
 2491SOL     OW18931   3.956   1.613   6.834 -0.0143 -0.3519 -0.0239
 2491SOL    HW118932   3.929   1.703   6.814  1.4183  0.2592  0.7960
 2491SOL    HW218933   3.996   1.628   6.920 -0.8381 -0.2238  0.3337
 2492SOL     OW18934   3.048   3.042   2.680  0.0806  0.1121  0.1845
 2492SOL    HW118935   2.962   3.038   2.720 -0.6470  0.5060 -1.3291
 2492SOL    HW218936   3.052   3.131   2.644  2.3390 -0.6939 -1.5585
 2493SOL     OW18937   1.083   4.035   6.117 -0.6351 -0.2816  0.7762
 2493SOL    HW118938   1.101   3.993   6.032 -0.6608  1.4251 -0.0659
 2493SOL    HW218939   1.012   4.096   6.101  0.6286  0.7165 -1.0497
 2494SOL     OW18940   3.400   3.705   2.518  0.2553  0.1704  0.1384
 2494SOL    HW118941   3.395   3.797   2.492 -2.0031 -0.6478 -2.3154
 2494SOL    HW218942   3.408   3.719   2.612  1.0634  3.0423 -0.3557
 2495SOL     OW18943   1.715   0.793  16.868  0.3299 -0.5931  0.5055
 2495SOL    HW118944   1.741   0.783  16.777  0.7005 -3.2750  0.9266
 2495SOL    HW218945   1.701   0.701  16.889 -1.5857 -0.5459 -0.5496
 2496SOL     OW18946   0.518   0.318   9.497 -0.2084  0.2533  0.3524
 2496SOL    HW118947   0.571   0.301   9.575 -1.4218  0.7259  1.2793
 2496SOL    HW218948   0.569   0.389   9.458 -0.3038 -0.9880 -2.0019
 2497SOL     OW18949   3.695   4.571   8.502  0.3975 -0.4242  0.0046
 2497SOL    HW118950   3.788   4.546   8.509  0.8536  0.6757 -2.0917
 2497SOL    HW218951   3.704   4.583   8.407 -0.8287 -0.2231 -0.0749
 2498SOL     OW18952   0.819   0.416  16.822  0.2011 -0.4613  0.1900
 2498SOL    HW118953   0.880   0.394  16.751  0.8440  0.0516  0.5836
 2498SOL    HW218954   0.886   0.447  16.882  0.8800 -1.1557 -0.2152
 2499SOL     OW18955   4.477   2.771   1.114  0.6486 -0.2814 -0.1101
 2499SOL    HW118956   4.453   2.778   1.022  3.4232  0.5094 -0.7532
 2499SOL    HW218957   4.415   2.833   1.153 -0.0012  0.6801 -2.7029
 2500SOL     OW18958   1.360   0.782   5.631  0.1627  0.3108  0.0115
 2500SOL    HW118959   1.280   0.789   5.578 -0.2451 -0.4023  0.5420
 2500SOL    HW218960   1.417   0.735   5.570  0.2642 -1.5667  1.5719
 2501SOL     OW18961   0.447   1.014  14.842 -0.1674 -0.0121  0.0982
 2501SOL    HW118962   0.379   0.950  14.862 -1.9338  1.6207 -0.7132
 2501SOL    HW218963   0.420   1.029  14.752 -1.8884 -0.4180  0.5451
 2502SOL     OW18964   1.467   2.414  11.653  0.5310 -0.0571  0.1550
 2502SOL    HW118965   1.506   2.328  11.636 -0.9411 -0.8745  0.8762
 2502SOL    HW218966   1.500   2.429  11.741  0.9841  1.9851 -0.3669
 2503SOL     OW18967   3.152   0.753   9.874  0.7456 -0.0160  0.1950
 2503SOL    HW118968   3.177   0.718   9.960  0.0470  0.4046  0.5715
 2503SOL    HW218969   3.153   0.676   9.818  0.1367 -0.6185  1.0263
 2504SOL     OW18970   2.330   4.662   5.176 -0.8813  0.4926 -0.5840
 2504SOL    HW118971   2.270   4.644   5.247  0.5078 -1.0626  0.1915
 2504SOL    HW218972   2.260   4.665   5.111  0.0319 -0.8652 -1.6232
 2505SOL     OW18973   4.563   3.476   5.498 -0.1451 -0.7714  0.2960
 2505SOL    HW118974   4.511   3.555   5.506 -1.0317 -1.1667 -1.5270
 2505SOL    HW218975   4.488   3.416   5.497 -1.0333  0.3469  0.1032
 2506SOL     OW18976   1.292   1.021   8.378  0.6701 -0.1277 -0.4231
 2506SOL    HW118977   1.320   1.093   8.435 -0.3264 -0.3234  0.3023
 2506SOL    HW218978   1.369   0.966   8.360  0.6578 -0.2222 -0.1878
 2507SOL     OW18979   3.768   0.397   1.316 -0.2151 -0.0769  0.0239
 2507SOL    HW118980   3.680   0.407   1.280  1.0472 -1.0682 -3.4158
 2507SOL    HW218981   3.818   0.355   1.245 -1.5466 -0.3188 -0.7656
 2508SOL     OW18982   2.636   3.278   5.321 -0.1433 -0.5594 -0.3566
 2508SOL    HW118983   2.640   3.299   5.228  0.6511 -0.7044 -0.3536
 2508SOL    HW218984   2.543   3.257   5.328 -0.4794  0.6204 -1.3516
 2509SOL     OW18985   1.654   0.537   6.402  0.4491 -0.3678  0.1784
 2509SOL    HW118986   1.571   0.584   6.390  0.9207  0.4617  0.1518
 2509SOL    HW218987   1.651   0.469   6.334 -1.5395  0.8607 -0.9809
 2510SOL     OW18988   3.010   4.277   1.833 -0.4891  0.2759  0.5905
 2510SOL    HW118989   2.948   4.344   1.803  0.0321 -0.8716 -2.9942
 2510SOL    HW218990   3.064   4.268   1.755 -0.5242  1.0138  0.4791
 2511SOL     OW18991   0.967   3.268   2.447 -0.0344 -0.7012  0.4269
 2511SOL    HW118992   1.042   3.316   2.412  0.8045 -2.9869 -0.8661
 2511SOL    HW218993   0.917   3.245   2.369  1.9027  0.4434 -1.1625
 2512SOL     OW18994   1.583   4.080   0.380  0.3722 -0.2509  0.4718
 2512SOL    HW118995   1.499   4.125   0.381 -0.3676 -1.6024 -1.8686
 2512SOL    HW218996   1.634   4.161   0.387 -1.6362  1.0566 -0.3019
 2513SOL     OW18997   2.345   0.099   5.706 -0.0956 -0.3661 -0.7701
 2513SOL    HW118998   2.352   0.194   5.708  2.7689 -0.5768 -1.3624
 2513SOL    HW218999   2.255   0.075   5.683 -0.5706  0.5417  0.1289
 2514SOL     OW19000   3.902   3.717   2.147  0.6522 -0.1709  0.2954
 2514SOL    HW119001   3.878   3.739   2.057  0.7143 -2.6977 -0.3390
 2514SOL    HW219002   3.905   3.621   2.144  1.6587 -0.1331  0.0124
 2515SOL     OW19003   3.317   0.709   7.754  0.3471  0.1881 -0.5564
 2515SOL    HW119004   3.301   0.640   7.690 -1.5235  0.4789 -0.4050
 2515SOL    HW219005   3.269   0.779   7.711 -1.4164 -2.0285 -2.1915
 2516SOL     OW19006   2.115   1.893   8.274 -0.0750  0.5416  0.0696
 2516SOL    HW119007   2.208   1.902   8.251  0.3477 -1.9945  0.7911
 2516SOL    HW219008   2.116   1.812   8.326  0.6627  1.7638  1.9730
 2517SOL     OW19009   3.634   3.898  15.910 -0.9468  0.6583 -0.0071
 2517SOL    HW119010   3.722   3.925  15.885 -1.1265  0.4171 -0.8988
 2517SOL    HW219011   3.584   3.949  15.847  1.3397  3.0420  0.1199
 2518SOL     OW19012   0.938   3.653   3.926 -0.0239 -0.0833  0.5723
 2518SOL    HW119013   0.884   3.575   3.935  0.0712 -0.2966 -0.6047
 2518SOL    HW219014   0.944   3.666   3.831 -0.7815 -0.8567  0.4204
 2519SOL     OW19015   0.357   2.885   3.883 -0.7244 -0.2254  0.3188
 2519SOL    HW119016   0.367   2.978   3.860 -0.1572 -0.5246 -0.6257
 2519SOL    HW219017   0.444   2.862   3.917  1.2148  0.6009 -4.0567
 2520SOL     OW19018   0.187   0.781   5.021  0.2668 -0.2944 -0.1651
 2520SOL    HW119019   0.163   0.718   5.089  0.3331 -1.3504 -1.1345
 2520SOL    HW219020   0.111   0.790   4.963  0.9603  1.4116 -0.8078
 2521SOL     OW19021   1.796   4.289  15.287 -0.1321 -0.0640 -0.5839
 2521SOL    HW119022   1.718   4.342  15.271  0.1389  0.8868  1.1616
 2521SOL    HW219023   1.792   4.264  15.380 -0.4270 -0.8934 -0.8242
 2522SOL     OW19024   4.251   3.066   7.323  0.3767 -0.5801  0.0275
 2522SOL    HW119025   4.246   3.129   7.251 -1.4574 -1.6075 -0.7392
 2522SOL    HW219026   4.169   3.016   7.318 -0.0593  0.1385 -0.0079
 2523SOL     OW19027   1.574   4.129   4.482 -0.6851 -0.2914  0.2684
 2523SOL    HW119028   1.599   4.161   4.569 -1.9511  0.6030  0.2976
 2523SOL    HW219029   1.494   4.180   4.472 -0.6730 -0.0788  1.2046
 2524SOL     OW19030   3.125   0.146   3.956 -0.3811  0.2967 -0.2308
 2524SOL    HW119031   3.072   0.079   3.911  0.1444 -0.7230  0.6706
 2524SOL    HW219032   3.110   0.228   3.909 -4.3956 -0.5795 -0.4975
 2525SOL     OW19033   2.176   4.493   6.344  0.3962  0.6175 -0.6385
 2525SOL    HW119034   2.251   4.532   6.299  1.0818 -0.3875 -0.3708
 2525SOL    HW219035   2.199   4.401   6.356  0.9568  1.0378  1.4128
 2526SOL     OW19036   2.719   0.318   3.042 -0.0598  0.4557 -0.2141
 2526SOL    HW119037   2.631   0.281   3.034 -0.0252  0.5542 -1.0379
 2526SOL    HW219038   2.764   0.303   2.959  0.3883  2.9126 -0.3855
 2527SOL     OW19039   1.442   2.337   9.106 -0.2716 -0.3319 -0.4098
 2527SOL    HW119040   1.426   2.352   9.012  1.0758 -0.5412 -0.6730
 2527SOL    HW219041   1.507   2.407   9.113 -1.2301  0.4868  0.1442
 2528SOL     OW19042   3.522   2.114   1.843  0.3393  0.3134  0.6817
 2528SOL    HW119043   3.483   2.201   1.836 -1.2545 -0.6235 -1.9637
 2528SOL    HW219044   3.598   2.139   1.790  0.2687 -3.6737 -1.2579
 2529SOL     OW19045   2.327   2.718   4.100 -0.0242 -0.0438  0.2550
 2529SOL    HW119046   2.359   2.633   4.072  1.6536 -0.0448  2.1710
 2529SOL    HW219047   2.277   2.685   4.174 -0.1709 -1.5812 -0.5464
 2530SOL     OW19048   0.013   4.022  15.559  0.3201  0.0954  0.1243
 2530SOL    HW119049   4.703   4.078  15.488  3.3296 -0.4048 -1.5751
 2530SOL    HW219050   4.660   3.985  15.607  0.2834  1.4946  1.1399
 2531SOL     OW19051   0.610   3.614   5.839  0.6068 -0.4991  0.1305
 2531SOL    HW119052   0.607   3.702   5.878  0.8250 -0.7516  0.7132
 2531SOL    HW219053   0.519   3.593   5.858 -0.2213  1.7886 -1.2789
 2532SOL     OW19054   4.474   4.708   7.442  0.6761 -0.1117  0.2485
 2532SOL    HW119055   4.514   4.681   7.524  0.6654  0.7181  0.5356
 2532SOL    HW219056   4.547   4.706   7.380 -0.3771  0.0646 -0.9977
 2533SOL     OW19057   0.165   1.383   3.470 -0.5284  0.1197  0.2412
 2533SOL    HW119058   0.099   1.392   3.401 -0.9400  0.3863  0.6725
 2533SOL    HW219059   0.180   1.289   3.478  3.5393  0.7687  0.3523
 2534SOL     OW19060   1.075   0.437   7.265 -0.1186  0.1169 -0.2722
 2534SOL    HW119061   1.074   0.493   7.343 -0.0015 -1.1699  0.6770
 2534SOL    HW219062   1.166   0.410   7.276 -0.2000 -0.4303 -0.9540
 2535SOL     OW19063   2.776   1.903   0.285  0.0345 -0.2099  0.0798
 2535SOL    HW119064   2.834   1.911   0.209  0.1100  0.2134  0.1843
 2535SOL    HW219065   2.786   1.810   0.308 -0.5380 -1.0945 -3.2529
 2536SOL     OW19066   2.176   1.592  10.953 -0.2163  0.7313 -0.1619
 2536SOL    HW119067   2.156   1.533  10.880 -1.7661 -1.6640  2.1987
 2536SOL    HW219068   2.225   1.661  10.909  0.5612  2.7042  3.7585
 2537SOL     OW19069   2.497   1.665   7.998 -0.7446  0.1365 -0.7840
 2537SOL    HW119070   2.433   1.735   7.983 -1.3153 -0.5431 -1.4849
 2537SOL    HW219071   2.530   1.657   7.908  1.7821  3.5220 -0.1983
 2538SOL     OW19072   2.292   3.237   1.390  0.2724 -0.1390 -0.1104
 2538SOL    HW119073   2.328   3.315   1.348 -0.7060  0.1869 -0.3511
 2538SOL    HW219074   2.224   3.214   1.326 -1.3167  0.3384  1.3872
 2539SOL     OW19075   1.739   1.735   3.921  0.6333 -0.3059  0.9678
 2539SOL    HW119076   1.646   1.716   3.936  0.2541 -0.8478 -2.0047
 2539SOL    HW219077   1.755   1.679   3.845  1.1131  1.7458 -0.4619
 2540SOL     OW19078   3.383   0.451  13.449 -0.4044 -0.3742  0.2982
 2540SOL    HW119079   3.420   0.484  13.530 -2.3294  0.8690  0.6734
 2540SOL    HW219080   3.374   0.359  13.472 -0.2448 -0.5651 -0.3994
 2541SOL     OW19081   2.663   0.941   4.810  0.3578 -0.3728 -0.3089
 2541SOL    HW119082   2.648   0.964   4.902  1.1378 -1.2049  0.0227
 2541SOL    HW219083   2.573   0.938   4.778  0.3164 -1.5070 -0.0858
 2542SOL     OW19084   3.793   4.543  10.979  0.1032  0.3607  0.2439
 2542SOL    HW119085   3.764   4.601  10.908 -0.9297 -2.8481 -1.9312
 2542SOL    HW219086   3.887   4.549  10.965  0.0056  0.5742 -0.3113
 2543SOL     OW19087   2.324   0.393   5.818  0.0114 -0.3555 -0.0969
 2543SOL    HW119088   2.243   0.443   5.829 -0.4771 -0.7917 -1.8062
 2543SOL    HW219089   2.391   0.452   5.853  0.3907 -0.0730 -1.3083
 2544SOL     OW19090   2.606   4.291  16.422 -0.4050 -0.2270 -0.7548
 2544SOL    HW119091   2.604   4.295  16.517 -0.7228  0.2697 -0.7787
 2544SOL    HW219092   2.697   4.266  16.404 -0.1212 -0.1906  0.7007
 2545SOL     OW19093   3.128   0.887   2.468  0.4291  0.5459 -0.0708
 2545SOL    HW119094   3.112   0.978   2.493  0.1643  0.5745 -0.3348
 2545SOL    HW219095   3.041   0.848   2.457  0.1148  0.9554  0.9193
 2546SOL     OW19096   4.421   3.055   7.555 -0.5706  0.1954 -0.0331
 2546SOL    HW119097   4.477   3.071   7.480  2.0815 -1.5419  1.5985
 2546SOL    HW219098   4.343   3.082   7.506 -1.3142 -0.7183  0.6566
 2547SOL     OW19099   1.231   2.679  12.519  0.2533 -0.0089 -0.0963
 2547SOL    HW119100   1.167   2.644  12.582  1.0786 -2.5450 -0.6778
 2547SOL    HW219101   1.298   2.718  12.576  1.6277  0.9479 -2.3823
 2548SOL     OW19102   3.009   2.073   8.317 -0.1747 -0.2435  0.0957
 2548SOL    HW119103   2.918   2.048   8.334 -0.3831 -0.3352 -1.1047
 2548SOL    HW219104   3.017   2.054   8.223 -0.4874 -0.6965  0.1589
 2549SOL     OW19105   3.223   2.316   6.386  0.2511  1.1145  0.0900
 2549SOL    HW119106   3.159   2.383   6.410  0.1382  0.7901  0.7087
 2549SOL    HW219107   3.163   2.241   6.381 -0.6718  2.0633 -2.8594
 2550SOL     OW19108   1.079   2.714   7.657 -0.3284  0.1178 -0.4477
 2550SOL    HW119109   1.058   2.633   7.702  2.3035  0.4945  1.4242
 2550SOL    HW219110   0.993   2.755   7.669  0.0183  0.2903  1.3695
 2551SOL     OW19111   1.113   4.315  12.353 -0.5533 -0.7188  0.3270
 2551SOL    HW119112   1.192   4.329  12.404 -0.0961 -0.1228 -0.5470
 2551SOL    HW219113   1.127   4.226  12.323  1.6620  0.1512 -1.2677
 2552SOL     OW19114   2.280   3.494   0.241  0.2668 -0.2627 -0.3119
 2552SOL    HW119115   2.330   3.429   0.192 -0.2968 -1.2839  0.4468
 2552SOL    HW219116   2.231   3.548   0.179 -1.5240 -0.2056  1.1205
 2553SOL     OW19117   3.901   2.468   1.110  0.4484  0.3136 -0.3329
 2553SOL    HW119118   3.979   2.486   1.056  1.1562  0.5408  0.7785
 2553SOL    HW219119   3.922   2.387   1.156 -0.7117 -0.3464 -0.9556
 2554SOL     OW19120   4.659   2.717   5.911  0.0153  0.1580  0.0673
 2554SOL    HW119121   4.665   2.721   5.815 -0.7881 -2.8431 -0.0989
 2554SOL    HW219122   4.568   2.703   5.936 -1.2382  1.8837 -3.4448
 2555SOL     OW19123   2.609   3.807   4.873  0.3329 -0.2079 -0.0590
 2555SOL    HW119124   2.682   3.749   4.851  0.7669  0.3058  0.0448
 2555SOL    HW219125   2.562   3.755   4.939  2.7031 -0.9385  1.0793
 2556SOL     OW19126   0.685   0.034   2.975  0.1192  0.5525 -0.4122
 2556SOL    HW119127   0.634   4.713   3.045  0.6560 -0.7105 -0.7871
 2556SOL    HW219128   0.672   0.125   3.000 -0.5447  0.8816 -2.0415
 2557SOL     OW19129   3.414   4.204   1.229  0.7449  0.3529  0.0272
 2557SOL    HW119130   3.453   4.119   1.252 -0.9693 -0.2628  0.6909
 2557SOL    HW219131   3.480   4.263   1.265 -1.1578  2.5477 -0.1635
 2558SOL     OW19132   1.418   3.843   8.645  0.4827 -0.1419  0.7450
 2558SOL    HW119133   1.457   3.907   8.704  1.5655 -0.0651 -0.0358
 2558SOL    HW219134   1.367   3.904   8.592  0.2927  0.6414  1.8287
 2559SOL     OW19135   0.757   2.816   0.772 -0.2999 -0.0110  0.3146
 2559SOL    HW119136   0.736   2.809   0.865 -0.0324 -1.6577  0.2645
 2559SOL    HW219137   0.714   2.741   0.731 -0.4700  0.1496  0.1997
 2560SOL     OW19138   4.019   4.183   6.788  0.4895 -0.3429  0.1710
 2560SOL    HW119139   3.999   4.164   6.880  1.7216 -3.2916 -0.1632
 2560SOL    HW219140   4.094   4.124   6.783  0.8901  0.2410 -0.6388
 2561SOL     OW19141   3.272   4.494  10.116 -0.3146  0.7751  0.3669
 2561SOL    HW119142   3.266   4.435  10.191  0.4121  0.6117  0.2914
 2561SOL    HW219143   3.366   4.498  10.101 -0.2497  2.1014  1.1511
 2562SOL     OW19144   2.670   3.350   7.358 -0.3302  0.0411 -0.1623
 2562SOL    HW119145   2.640   3.287   7.423  3.1659 -0.7393  0.6719
 2562SOL    HW219146   2.589   3.395   7.331 -1.1470 -1.0543  0.4712
 2563SOL     OW19147   4.278   4.142   1.789 -0.2798  0.7437 -0.2210
 2563SOL    HW119148   4.362   4.161   1.832  0.4568 -0.1936 -1.2220
 2563SOL    HW219149   4.213   4.134   1.858 -2.1734  1.2594 -1.9255
 2564SOL     OW19150   4.680   0.393  17.099  0.5179 -0.1917  0.1327
 2564SOL    HW119151   4.675   0.484  17.128 -0.7916  0.1551 -1.2113
 2564SOL    HW219152   4.587   0.369  17.104  0.3972  0.3956  0.7110
 2565SOL     OW19153   3.887   2.319  11.446  0.1631 -0.3176  0.3849
 2565SOL    HW119154   3.834   2.397  11.465  0.6380 -0.0943  0.7982
 2565SOL    HW219155   3.831   2.257  11.492 -0.2213 -0.7012 -0.6051
 2566SOL     OW19156   0.637   2.581   7.625 -0.3333  0.0379 -0.5368
 2566SOL    HW119157   0.569   2.641   7.594 -0.9755  0.5947  2.0089
 2566SOL    HW219158   0.715   2.635   7.617 -0.2887 -0.1786 -1.6792
 2567SOL     OW19159   3.769   1.585   7.197 -0.1997  0.3671  0.0675
 2567SOL    HW119160   3.711   1.557   7.126  0.4420 -0.9729  0.0780
 2567SOL    HW219161   3.757   1.680   7.186 -0.5849  0.3763  0.5952
 2568SOL     OW19162   2.440   4.711  10.342 -0.1059  0.1917 -0.1709
 2568SOL    HW119163   2.466   0.081  10.357 -3.4463  1.2140 -0.7001
 2568SOL    HW219164   2.372   4.713  10.409 -1.5571  1.4645 -1.6918
 2569SOL     OW19165   4.132   1.368  13.143 -0.2707  0.4638  0.0727
 2569SOL    HW119166   4.195   1.424  13.189  1.3484 -0.7995 -0.5879
 2569SOL    HW219167   4.078   1.329  13.212 -1.5725  0.2338 -1.0893
 2570SOL     OW19168   0.486   1.712   2.490 -0.4542  0.6677 -0.3508
 2570SOL    HW119169   0.512   1.684   2.402  0.1134 -0.1426  0.0768
 2570SOL    HW219170   0.542   1.789   2.497 -0.0330  0.3425 -0.1027
 2571SOL     OW19171   1.812   3.112   4.772  0.1531 -0.1821  0.0237
 2571SOL    HW119172   1.789   3.026   4.736  1.8534 -0.7848  0.3393
 2571SOL    HW219173   1.907   3.102   4.761  0.0993  0.5726 -1.1122
 2572SOL     OW19174   3.723   3.218   6.767 -0.4239  0.6064  0.3055
 2572SOL    HW119175   3.645   3.174   6.733  1.0607 -2.4961  0.9190
 2572SOL    HW219176   3.765   3.240   6.684 -1.5237  2.5647  0.2592
 2573SOL     OW19177   0.941   4.226  12.684  0.4127  0.6278  0.6428
 2573SOL    HW119178   0.892   4.150  12.716  1.4059 -0.4053 -0.3071
 2573SOL    HW219179   1.022   4.190  12.649 -0.5486 -1.1951  0.2927
 2574SOL     OW19180   3.266   4.390   4.923  0.3695 -0.2476 -0.4393
 2574SOL    HW119181   3.360   4.408   4.919  0.9835 -3.3864 -0.5224
 2574SOL    HW219182   3.256   4.314   4.865  0.2934 -1.1806  0.7836
 2575SOL     OW19183   2.810   3.528  14.065 -0.6201  0.5876  0.1288
 2575SOL    HW119184   2.832   3.531  13.972  4.5125  0.0407  1.3331
 2575SOL    HW219185   2.879   3.586  14.096  0.3187  0.9500 -2.5699
 2576SOL     OW19186   0.815   1.495   0.328 -0.2896 -0.6433 -0.3429
 2576SOL    HW119187   0.826   1.450   0.244 -0.5199  0.1669 -0.8118
 2576SOL    HW219188   0.840   1.586   0.309 -0.9944 -0.6764 -1.4531
 2577SOL     OW19189   3.669   0.645  16.831  0.4414  0.5365 -0.1076
 2577SOL    HW119190   3.582   0.610  16.813  1.3367 -1.9849  0.4695
 2577SOL    HW219191   3.660   0.734  16.797 -4.7108  0.0320 -0.1058
 2578SOL     OW19192   4.134   0.356  14.051 -0.1735  0.6615 -0.3516
 2578SOL    HW119193   4.227   0.361  14.026 -0.5871 -0.6240 -2.1336
 2578SOL    HW219194   4.127   0.435  14.105  1.9498  0.4655  0.2018
 2579SOL     OW19195   4.035   1.291  14.427  0.1042 -0.4532  0.2574
 2579SOL    HW119196   4.066   1.348  14.357  0.7263 -1.2532 -0.1178
 2579SOL    HW219197   4.026   1.216  14.368  1.3761 -0.4667  0.0753
 2580SOL     OW19198   0.115   4.027   8.307  0.0874 -0.1011 -0.3599
 2580SOL    HW119199   0.109   4.071   8.222  0.8488 -1.5954 -1.2014
 2580SOL    HW219200   0.146   3.940   8.281  1.6832  0.6543 -0.9682
 2581SOL     OW19201   2.470   3.689   7.846  0.0640  0.2484  0.6332
 2581SOL    HW119202   2.380   3.698   7.878 -0.7476  0.0416 -1.6450
 2581SOL    HW219203   2.528   3.749   7.893 -1.3223  0.5325  1.9936
 2582SOL     OW19204   2.890   4.682   8.739  0.0701  0.5974 -0.1842
 2582SOL    HW119205   2.950   4.648   8.805  0.2641 -2.9739 -2.2109
 2582SOL    HW219206   2.804   4.665   8.778  0.8742 -0.7987  0.9909
 2583SOL     OW19207   4.513   3.671   6.790 -0.8103 -0.3216 -0.1845
 2583SOL    HW119208   4.593   3.624   6.766 -1.6554 -1.3675 -0.9161
 2583SOL    HW219209   4.465   3.654   6.708  3.5147 -1.7005 -2.4287
 2584SOL     OW19210   4.384   2.816   0.847  0.3314  0.2628 -0.0311
 2584SOL    HW119211   4.456   2.764   0.812  0.0446  1.5875 -2.5293
 2584SOL    HW219212   4.414   2.904   0.824  1.9190 -0.0195  0.9182
 2585SOL     OW19213   0.967   2.933  17.581 -0.0618  0.1419  0.0010
 2585SOL    HW119214   0.885   2.978  17.563  0.1471  0.7022  0.4320
 2585SOL    HW219215   0.989   2.880  17.504 -0.8426 -1.5921  0.9708
 2586SOL     OW19216   3.874   0.698  15.617  0.5358  0.1538  0.2448
 2586SOL    HW119217   3.947   0.730  15.565  1.3486 -3.0416 -0.6037
 2586SOL    HW219218   3.797   0.718  15.564  1.0963 -1.9513 -1.3454
 2587SOL     OW19219   4.219   1.398   3.027 -0.8916 -0.8706 -0.4951
 2587SOL    HW119220   4.162   1.471   3.002 -0.6398 -1.0016 -1.4549
 2587SOL    HW219221   4.259   1.376   2.943 -0.2992 -0.9838 -0.1821
 2588SOL     OW19222   2.995   3.434   6.115 -0.5081 -0.0002 -0.3481
 2588SOL    HW119223   3.028   3.491   6.045 -0.7929  1.8448  1.0037
 2588SOL    HW219224   2.901   3.434   6.100 -0.2524  0.1900 -2.0108
 2589SOL     OW19225   0.101   1.300   3.110 -0.7687 -0.5103 -1.1457
 2589SOL    HW119226   0.080   1.383   3.154  1.1377 -0.5907 -0.0967
 2589SOL    HW219227   0.057   1.239   3.169  0.5140 -0.0408  0.2842
 2590SOL     OW19228   3.325   2.113   4.709  0.3863 -1.0202  0.5737
 2590SOL    HW119229   3.276   2.035   4.736  1.1796 -2.1078 -1.1300
 2590SOL    HW219230   3.348   2.154   4.792 -0.6553 -1.8134  1.2650
 2591SOL     OW19231   2.526   0.501   7.657 -0.1156 -0.6438  0.8264
 2591SOL    HW119232   2.531   0.523   7.564 -0.8637  0.2657  1.0016
 2591SOL    HW219233   2.480   0.583   7.677  0.2192 -0.5550  1.2376
 2592SOL     OW19234   1.121   4.599  12.273  0.0961 -0.6288 -0.5293
 2592SOL    HW119235   1.084   4.603  12.362  0.1928  1.6745 -0.5795
 2592SOL    HW219236   1.055   4.652  12.228  2.5334  1.4803 -1.6466
 2593SOL     OW19237   2.437   0.888  16.241  0.1441 -0.2245  0.1835
 2593SOL    HW119238   2.511   0.888  16.181 -0.1345 -1.0922 -0.1515
 2593SOL    HW219239   2.478   0.861  16.323 -2.1066 -0.6703  1.1637
 2594SOL     OW19240   0.203   3.773   0.998  0.0691 -0.2649  0.2649
 2594SOL    HW119241   0.293   3.754   0.972 -0.4305 -2.5876  0.2140
 2594SOL    HW219242   0.183   3.708   1.066 -2.7446 -2.4065 -2.6126
 2595SOL     OW19243   4.328   1.537   3.241 -0.3830 -0.3008 -0.1970
 2595SOL    HW119244   4.267   1.610   3.228  0.7840  0.9045  1.1011
 2595SOL    HW219245   4.295   1.481   3.170 -0.5258  0.7862 -0.9935
 2596SOL     OW19246   1.873   3.600  13.649 -0.1885  0.2832 -0.1666
 2596SOL    HW119247   1.897   3.691  13.664 -0.0378  0.8597 -3.9024
 2596SOL    HW219248   1.799   3.595  13.710 -0.4756  0.4120 -0.5041
 2597SOL     OW19249   0.944   0.635  16.097  0.2267 -0.0170 -0.5246
 2597SOL    HW119250   1.028   0.682  16.092 -1.3437  2.9853  1.7532
 2597SOL    HW219251   0.920   0.619  16.006 -1.2274  0.9960 -0.3270
 2598SOL     OW19252   3.599   3.489  14.710 -0.3975 -0.3314  0.0502
 2598SOL    HW119253   3.513   3.452  14.691 -0.9116 -0.2997  2.3580
 2598SOL    HW219254   3.589   3.581  14.684 -0.1714 -0.6987 -1.3022
 2599SOL     OW19255   0.266   2.627   5.874  0.4461 -0.1245  0.3970
 2599SOL    HW119256   0.247   2.679   5.796 -1.2733  0.0551  0.9414
 2599SOL    HW219257   0.180   2.629   5.916 -0.5531 -0.0061 -1.7053
 2600SOL     OW19258   3.434   1.976  16.376 -0.7061 -0.5619  0.1814
 2600SOL    HW119259   3.437   1.940  16.464  1.1510 -0.2924  0.2162
 2600SOL    HW219260   3.506   1.929  16.334  0.0854 -1.4292  2.5161
 2601SOL     OW19261   3.300   1.707   5.323 -0.6922  0.1739  0.0959
 2601SOL    HW119262   3.231   1.678   5.383  0.3021 -0.4380  0.9337
 2601SOL    HW219263   3.370   1.648   5.350  1.4241  2.7937  0.3074
 2602SOL     OW19264   3.859   2.456   2.724  0.2801  0.2042 -0.8377
 2602SOL    HW119265   3.796   2.443   2.654  0.2754 -1.2192 -0.5651
 2602SOL    HW219266   3.917   2.380   2.721 -0.6019 -0.5066  0.3218
 2603SOL     OW19267   3.295   4.150   6.490  0.1413 -0.4399  0.0746
 2603SOL    HW119268   3.295   4.108   6.403 -0.5189  1.2171 -0.7170
 2603SOL    HW219269   3.364   4.098   6.531 -0.5188 -1.6721 -0.3721
 2604SOL     OW19270   3.024   0.345   5.178 -0.0672  0.1764 -0.1340
 2604SOL    HW119271   2.991   0.309   5.095 -1.1737  2.3898 -0.6597
 2604SOL    HW219272   2.963   0.305   5.240 -0.2410  1.1267  0.3039
 2605SOL     OW19273   1.696   1.947  16.640  0.0134  0.0585 -0.0770
 2605SOL    HW119274   1.705   1.881  16.709  2.4597  2.0520  1.5330
 2605SOL    HW219275   1.775   1.930  16.588 -2.0718 -1.8836 -2.6599
 2606SOL     OW19276   3.238   3.202   3.272 -0.2149 -0.0966  0.3712
 2606SOL    HW119277   3.162   3.162   3.314 -0.7074  0.1717 -0.2632
 2606SOL    HW219278   3.208   3.290   3.251 -0.9554 -0.0549  1.6063
 2607SOL     OW19279   3.058   4.113   2.708 -0.8481  0.1883  0.5227
 2607SOL    HW119280   2.978   4.109   2.656  0.1745 -0.2044 -1.0441
 2607SOL    HW219281   3.065   4.207   2.725  1.0750  0.0933  0.2979
 2608SOL     OW19282   3.807   1.242   8.883  0.9204 -0.0125  0.5347
 2608SOL    HW119283   3.793   1.269   8.974 -0.2608  0.4672  0.2074
 2608SOL    HW219284   3.782   1.150   8.886  2.0102 -0.4485 -3.2897
 2609SOL     OW19285   1.456   1.682   7.714  0.7037  0.1105  0.3309
 2609SOL    HW119286   1.493   1.616   7.656  1.0176  0.1847  0.4450
 2609SOL    HW219287   1.510   1.662   7.790 -0.8526 -1.5327  0.9970
 2610SOL     OW19288   3.531   3.197   7.316  0.0597  0.0988 -0.6471
 2610SOL    HW119289   3.620   3.210   7.351  0.0126  1.5121 -1.0507
 2610SOL    HW219290   3.542   3.207   7.222 -0.0904  0.2979 -0.6421
 2611SOL     OW19291   2.516   2.208   3.048 -0.6287  0.0379  0.0881
 2611SOL    HW119292   2.440   2.197   3.106 -0.8598  0.6310 -0.0989
 2611SOL    HW219293   2.507   2.127   2.998  0.5126  0.3185 -0.5642
 2612SOL     OW19294   4.672   1.276   2.419  0.4322 -0.0359  0.1494
 2612SOL    HW119295   4.619   1.263   2.340 -0.7477  0.3390  0.8821
 2612SOL    HW219296   4.632   1.350   2.464  0.2765 -0.3808  0.5769
 2613SOL     OW19297   3.408   3.028   5.697 -0.2919 -0.0801 -0.0551
 2613SOL    HW119298   3.361   2.952   5.663 -2.3869  2.0785 -2.0685
 2613SOL    HW219299   3.340   3.061   5.756 -0.8511 -0.1547 -0.6577
 2614SOL     OW19300   3.981   1.251   7.320 -0.9850 -0.9602 -0.2900
 2614SOL    HW119301   4.058   1.194   7.325  0.0114  0.3868  0.0443
 2614SOL    HW219302   3.926   1.179   7.290 -2.4363  0.1977 -0.4064
 2615SOL     OW19303   1.045   3.488   7.736 -0.3770  0.2137  0.3114
 2615SOL    HW119304   1.070   3.396   7.732  0.7048  0.5128  0.3485
 2615SOL    HW219305   0.951   3.479   7.721 -0.3119 -2.2471  1.4408
 2616SOL     OW19306   1.051   0.921   5.867  0.3140 -0.0670  0.6295
 2616SOL    HW119307   1.014   0.983   5.804 -1.0459 -1.4725  0.0458
 2616SOL    HW219308   1.145   0.924   5.851  0.3773 -1.8353  0.7188
 2617SOL     OW19309   1.154   2.628  13.229  0.1296 -0.5579 -0.0765
 2617SOL    HW119310   1.135   2.722  13.220  3.0227  0.0684  0.4623
 2617SOL    HW219311   1.175   2.618  13.322 -1.6657 -1.4769  0.2229
 2618SOL     OW19312   1.960   3.664   7.179 -0.0840 -0.0389 -0.0719
 2618SOL    HW119313   1.975   3.632   7.268 -2.5972  1.0657  0.7511
 2618SOL    HW219314   2.051   3.666   7.151 -0.0601 -0.3372 -0.0180
 2619SOL     OW19315   4.408   1.760  14.738 -0.0581  0.2596  0.4830
 2619SOL    HW119316   4.367   1.673  14.737 -0.3825  0.4019  1.5231
 2619SOL    HW219317   4.449   1.755  14.824 -1.0799 -0.2271  0.9390
 2620SOL     OW19318   0.007   4.243   4.842 -0.5739  0.0308  0.5909
 2620SOL    HW119319   0.069   4.310   4.816 -2.1765  0.4781 -2.0737
 2620SOL    HW219320   4.696   4.210   4.758  1.5387 -2.8207  0.8850
 2621SOL     OW19321   2.004   0.302   8.235 -0.2503 -0.6110 -0.0874
 2621SOL    HW119322   1.970   0.388   8.260  0.6981 -0.0680 -0.6554
 2621SOL    HW219323   2.099   0.307   8.248 -0.4470  1.2157  0.5510
 2622SOL     OW19324   1.551   2.038   7.783  0.3311  0.8405 -0.0215
 2622SOL    HW119325   1.572   2.039   7.877 -0.2852 -1.7500  0.1334
 2622SOL    HW219326   1.578   1.948   7.767  0.7066  0.7464  1.1548
 2623SOL     OW19327   0.502   0.081   5.914  0.2038  0.1852  0.2446
 2623SOL    HW119328   0.533   4.713   5.898 -1.0265  0.2167 -2.4625
 2623SOL    HW219329   0.461   0.099   5.829 -0.7564 -3.1837 -0.0167
 2624SOL     OW19330   2.615   2.401  12.050 -0.0467  0.0812 -0.0110
 2624SOL    HW119331   2.618   2.433  11.959  0.9353 -0.8947 -0.3150
 2624SOL    HW219332   2.676   2.328  12.042 -0.0663  0.0080  0.5616
 2625SOL     OW19333   1.138   3.514   7.980 -0.3949 -0.0495 -0.6444
 2625SOL    HW119334   1.221   3.560   7.967  0.6090 -1.0600  2.2854
 2625SOL    HW219335   1.091   3.535   7.899  0.2060  1.2558 -0.6510
 2626SOL     OW19336   2.820   1.506  15.857  0.1614 -0.0544  0.2500
 2626SOL    HW119337   2.837   1.487  15.765 -0.2703 -1.3918  0.4453
 2626SOL    HW219338   2.851   1.597  15.855  2.0617 -0.6883  0.9321
 2627SOL     OW19339   1.323   0.612   3.979 -0.2574  0.8104  0.0348
 2627SOL    HW119340   1.367   0.570   3.906  0.1413 -0.8780  1.2535
 2627SOL    HW219341   1.322   0.540   4.042  0.5102 -0.9579 -1.9873
 2628SOL     OW19342   2.912   1.656  14.373  0.0084 -0.4294 -0.3895
 2628SOL    HW119343   2.893   1.688  14.285 -2.6277 -1.8888 -0.3574
 2628SOL    HW219344   2.923   1.743  14.412 -0.2183 -0.3968 -0.3969
 2629SOL     OW19345   3.559   0.206   7.259 -0.1261  0.5458  0.0002
 2629SOL    HW119346   3.503   0.153   7.203  0.7985  0.1166 -0.5171
 2629SOL    HW219347   3.545   0.297   7.234  1.1789  0.8543  0.3594
 2630SOL     OW19348   1.946   2.874   2.961  0.2646  0.0024 -0.3372
 2630SOL    HW119349   1.859   2.890   2.923  0.3811  1.9166  0.2042
 2630SOL    HW219350   1.961   2.959   3.001 -0.7836 -0.5754  1.3026
 2631SOL     OW19351   0.728   3.002   2.993 -0.7588 -0.3314 -0.2242
 2631SOL    HW119352   0.802   2.943   2.985 -0.1464  0.0689  2.3688
 2631SOL    HW219353   0.766   3.078   2.950 -1.4336  0.8185  1.1878
 2632SOL     OW19354   1.340   0.233   5.559 -0.2988  0.6607 -0.3351
 2632SOL    HW119355   1.277   0.305   5.566 -2.9512 -1.9673  3.0486
 2632SOL    HW219356   1.425   0.269   5.583  0.2037  0.4419 -1.7978
 2633SOL     OW19357   1.056   0.011   6.898 -0.6833  0.3124 -0.1427
 2633SOL    HW119358   0.997   0.076   6.861 -0.5364  0.6158  0.1592
 2633SOL    HW219359   0.995   4.681   6.951 -1.7425 -1.0640 -2.6824
 2634SOL     OW19360   3.176   1.178  12.856  0.2496 -0.1925  0.1011
 2634SOL    HW119361   3.249   1.175  12.794  0.2092 -0.3171  0.0594
 2634SOL    HW219362   3.197   1.097  12.903 -0.5751  0.1277  1.0192
 2635SOL     OW19363   0.883   0.407   8.444  0.1948 -0.7513  0.6354
 2635SOL    HW119364   0.928   0.322   8.442 -0.4407 -1.0395 -1.3084
 2635SOL    HW219365   0.792   0.379   8.459 -0.1075 -0.7642 -1.1847
 2636SOL     OW19366   1.224   3.620   7.603 -0.1374  0.2323 -0.6357
 2636SOL    HW119367   1.175   3.670   7.539 -2.6700 -1.5976 -0.1193
 2636SOL    HW219368   1.150   3.586   7.652 -0.3893  0.9226 -0.5405
 2637SOL     OW19369   3.307   1.247   7.882 -0.0529  0.3004 -0.1807
 2637SOL    HW119370   3.370   1.319   7.878 -0.1978  0.4855  0.7429
 2637SOL    HW219371   3.272   1.249   7.793 -0.0573  0.6527 -0.1709
 2638SOL     OW19372   2.581   4.137   5.378  0.4748 -0.0967 -0.5971
 2638SOL    HW119373   2.564   4.228   5.354  0.2316  0.6319  2.3193
 2638SOL    HW219374   2.666   4.148   5.421  0.0442  1.7472 -0.2306
 2639SOL     OW19375   3.026   0.189   7.758  0.4353 -0.3580  0.0953
 2639SOL    HW119376   2.983   0.133   7.823  0.0194  1.0589  1.0488
 2639SOL    HW219377   2.983   0.163   7.677  1.0314 -1.0701  0.0086
 2640SOL     OW19378   2.365   2.792   7.674  0.1590  0.1402 -0.3493
 2640SOL    HW119379   2.313   2.753   7.605 -0.0791 -0.1225 -0.0184
 2640SOL    HW219380   2.449   2.746   7.671  0.0600 -0.1905  2.1286
 2641SOL     OW19381   1.880   4.540   3.540 -1.0888 -0.0069 -0.7491
 2641SOL    HW119382   1.975   4.534   3.537 -1.0003  1.3487 -0.8744
 2641SOL    HW219383   1.849   4.450   3.546 -1.8668  0.3235  0.1805
 2642SOL     OW19384   3.124   1.208  10.955  0.0319  0.9189 -0.5097
 2642SOL    HW119385   3.207   1.254  10.937  1.0313  0.0885  1.9644
 2642SOL    HW219386   3.062   1.279  10.942  0.9280  1.5705 -1.2519
 2643SOL     OW19387   3.959   3.357   4.446  0.3784 -0.6747 -0.1567
 2643SOL    HW119388   4.030   3.316   4.494  0.7106  0.0025 -0.0578
 2643SOL    HW219389   3.955   3.313   4.361  0.7518  1.3494 -1.2268
 2644SOL     OW19390   4.494   1.087   4.182 -0.2964 -0.7116 -0.0252
 2644SOL    HW119391   4.429   1.142   4.225  1.4227  1.1811  0.1485
 2644SOL    HW219392   4.493   1.009   4.238  2.4487 -1.3478 -0.8547
 2645SOL     OW19393   1.997   1.719   8.523 -0.3753  0.2034  0.1250
 2645SOL    HW119394   2.031   1.799   8.562 -0.7187  0.3044  0.2217
 2645SOL    HW219395   1.907   1.732   8.554  0.0102 -0.2109  1.4094
 2646SOL     OW19396   0.413   4.033  15.477  0.3594 -0.2207 -0.2929
 2646SOL    HW119397   0.362   4.110  15.504 -0.6130 -0.6689 -0.8647
 2646SOL    HW219398   0.349   3.961  15.472  1.4869 -1.1890 -0.6976
 2647SOL     OW19399   2.519   4.345  10.730  0.0201  0.0363 -0.1201
 2647SOL    HW119400   2.563   4.429  10.720  1.7936 -0.9151 -0.4600
 2647SOL    HW219401   2.583   4.282  10.695 -0.8591 -0.8369 -0.1549
 2648SOL     OW19402   3.617   1.629   8.308  0.3588  0.1691 -0.1864
 2648SOL    HW119403   3.561   1.554   8.328  2.2576 -0.5644  2.2132
 2648SOL    HW219404   3.700   1.590   8.279 -0.0454  0.2020 -1.4180
 2649SOL     OW19405   4.069   2.116   5.476  0.5693 -0.3054 -0.0057
 2649SOL    HW119406   3.997   2.129   5.414  1.3401 -0.8405 -1.0264
 2649SOL    HW219407   4.033   2.161   5.552  1.0630  1.8718 -1.0605
 2650SOL     OW19408   3.409   1.215   6.963  0.0517  0.1399  0.3034
 2650SOL    HW119409   3.461   1.233   6.884 -0.3313  3.3073  0.7644
 2650SOL    HW219410   3.379   1.125   6.947  0.6750  0.0530 -0.3766
 2651SOL     OW19411   0.959   1.429   9.128 -0.3696 -0.0760  0.3139
 2651SOL    HW119412   0.904   1.504   9.106 -0.1846  0.2816  1.0412
 2651SOL    HW219413   1.038   1.435   9.075 -0.2522 -1.0614  0.3802
 2652SOL     OW19414   3.265   1.983   5.802  0.5782  0.3355  0.8285
 2652SOL    HW119415   3.323   1.923   5.754  0.3835  1.1983 -0.4748
 2652SOL    HW219416   3.296   1.973   5.892  1.5721  2.1619  0.6868
 2653SOL     OW19417   4.136   2.288  15.265  0.4673 -0.1590 -0.3840
 2653SOL    HW119418   4.182   2.227  15.322  0.7604  1.5522  1.2222
 2653SOL    HW219419   4.062   2.312  15.321  2.3378  2.5902  0.9327
 2654SOL     OW19420   2.548   2.250   5.486 -0.4590 -0.1168  0.5694
 2654SOL    HW119421   2.581   2.226   5.572 -0.1098  1.3715  0.8418
 2654SOL    HW219422   2.515   2.164   5.460  5.2775 -1.7764 -1.2043
 2655SOL     OW19423   1.758   0.314   4.827  0.0652 -0.3470 -0.5146
 2655SOL    HW119424   1.724   0.362   4.751 -1.1658 -1.0062 -0.3821
 2655SOL    HW219425   1.841   0.278   4.794  0.0009  0.5251 -1.6285
 2656SOL     OW19426   4.091   2.829   0.155  0.4011 -0.1297 -0.4720
 2656SOL    HW119427   4.083   2.735   0.175 -1.5993  0.1340  0.0192
 2656SOL    HW219428   4.010   2.873   0.181  1.0668  1.6851 -1.4941
 2657SOL     OW19429   0.863   4.595   7.034  0.0787  0.6488 -0.2938
 2657SOL    HW119430   0.847   4.514   7.081 -1.1871  0.0274 -1.8037
 2657SOL    HW219431   0.784   4.603   6.980 -0.2273 -1.4332 -0.1417
 2658SOL     OW19432   4.493   4.697   6.011 -0.1476  0.1222 -0.1838
 2658SOL    HW119433   4.542   0.043   5.963 -0.4674 -0.1352 -0.8669
 2658SOL    HW219434   4.529   4.616   5.976  0.3475 -0.2529  1.2063
 2659SOL     OW19435   4.394   1.256  16.164  0.4221  0.0865 -0.4952
 2659SOL    HW119436   4.319   1.218  16.211 -0.7058  1.1250 -1.4687
 2659SOL    HW219437   4.439   1.175  16.138  0.4992  0.7562 -2.4127
 2660SOL     OW19438   0.967   0.506   6.474 -0.2969  0.2745 -0.9703
 2660SOL    HW119439   1.014   0.427   6.447  0.1350 -0.3801  1.7393
 2660SOL    HW219440   1.043   0.564   6.476 -1.3063  1.4075  3.3037
 2661SOL     OW19441   3.649   1.587  12.930 -0.7126 -0.6481 -0.0150
 2661SOL    HW119442   3.673   1.672  12.894 -0.2323 -0.5126  0.6429
 2661SOL    HW219443   3.735   1.549  12.948 -1.0443 -1.1815  0.4372
 2662SOL     OW19444   0.116   0.189  11.425  0.2084 -0.6780 -0.0351
 2662SOL    HW119445   0.055   0.147  11.486 -2.0548  0.1565 -1.7196
 2662SOL    HW219446   0.194   0.164  11.474  0.1468 -2.2998 -0.7426
 2663SOL     OW19447   4.712   1.679   0.819  0.1198 -0.6186 -0.4896
 2663SOL    HW119448   4.687   1.588   0.831 -3.2347  0.1453 -1.7294
 2663SOL    HW219449   4.703   1.679   0.724  0.0129 -0.7265 -0.4792
 2664SOL     OW19450   3.518   3.985  16.686 -0.3408 -0.2096  0.3227
 2664SOL    HW119451   3.586   3.935  16.731 -0.9161 -1.1889  0.1040
 2664SOL    HW219452   3.524   3.939  16.602  0.2625  1.3519 -0.4845
 2665SOL     OW19453   4.501   4.576   3.665  0.0933  0.0214  0.0687
 2665SOL    HW119454   4.526   4.484   3.657  1.8333  0.4827  0.2283
 2665SOL    HW219455   4.451   4.600   3.587  2.4935 -1.0094 -1.7659
 2666SOL     OW19456   4.214   3.626   2.853 -0.3877  0.0373 -0.3182
 2666SOL    HW119457   4.132   3.674   2.867 -0.5016 -0.1935 -0.1664
 2666SOL    HW219458   4.197   3.545   2.901  0.7932 -0.2352 -0.3564
 2667SOL     OW19459   3.528   3.139   1.884 -0.8027 -0.5642  0.8209
 2667SOL    HW119460   3.538   3.115   1.792  0.5041 -1.0312  1.0725
 2667SOL    HW219461   3.547   3.232   1.870  0.7951 -0.7259  1.8037
 2668SOL     OW19462   1.007   3.361  11.764  0.8991 -0.5318 -0.2790
 2668SOL    HW119463   1.037   3.335  11.851  2.1749  2.2473  0.1082
 2668SOL    HW219464   0.917   3.330  11.773  0.2147  1.3793 -0.6064
 2669SOL     OW19465   0.320   3.498  16.736 -0.0706 -0.1190 -0.6237
 2669SOL    HW119466   0.285   3.410  16.725  1.6837 -1.0359  1.0632
 2669SOL    HW219467   0.350   3.501  16.827  2.4987  1.1141 -1.5203
 2670SOL     OW19468   3.691   3.050  16.332 -0.8486  0.2528  0.5794
 2670SOL    HW119469   3.631   3.049  16.257  1.5268  1.0544 -1.3032
 2670SOL    HW219470   3.655   3.125  16.380 -0.0835  1.8518 -1.3756
 2671SOL     OW19471   0.615   2.996   4.614 -0.6520  0.6412 -0.4006
 2671SOL    HW119472   0.695   2.995   4.667 -2.0061  0.1914  1.6159
 2671SOL    HW219473   0.640   3.011   4.523  1.4956  0.4691  0.1473
 2672SOL     OW19474   1.578   0.443   2.754 -0.1436  0.3940  0.1837
 2672SOL    HW119475   1.544   0.410   2.671  0.9076  1.1293 -0.5344
 2672SOL    HW219476   1.516   0.394   2.807  0.2666 -1.5503 -1.1336
 2673SOL     OW19477   1.353   3.783   2.886  0.4125  0.1684 -0.1170
 2673SOL    HW119478   1.347   3.841   2.962  1.3276 -0.9701  0.8196
 2673SOL    HW219479   1.263   3.793   2.854  0.1463 -0.7185  0.3645
 2674SOL     OW19480   0.605   2.027   4.267  0.3244 -0.8307  0.1772
 2674SOL    HW119481   0.584   1.992   4.354  0.0300 -1.2043 -0.0463
 2674SOL    HW219482   0.599   1.946   4.217 -1.2255  0.3214 -1.5039
 2675SOL     OW19483   0.654   2.146   8.600 -0.3013  0.1481 -0.4590
 2675SOL    HW119484   0.705   2.066   8.612 -0.6650 -0.1332 -0.7684
 2675SOL    HW219485   0.566   2.114   8.618 -0.6210  1.0933 -0.3305
 2676SOL     OW19486   4.406   3.414   2.721 -0.2456  0.1149 -0.0049
 2676SOL    HW119487   4.466   3.488   2.711 -0.3773  0.1214 -0.7408
 2676SOL    HW219488   4.458   3.336   2.705  2.0089  1.8323 -1.0529
 2677SOL     OW19489   2.159   0.832   5.878 -0.1917 -0.3155  0.3191
 2677SOL    HW119490   2.203   0.850   5.961 -0.9715  2.2396  0.1805
 2677SOL    HW219491   2.065   0.831   5.895 -0.2069  1.7477  0.3127
 2678SOL     OW19492   2.225   2.559   3.087 -0.2272  0.1764 -0.2356
 2678SOL    HW119493   2.320   2.546   3.096 -0.0573  0.7961 -1.0610
 2678SOL    HW219494   2.195   2.623   3.152 -0.1924 -0.7071  0.6486
 2679SOL     OW19495   0.304   0.612  11.428  0.0234  0.1438  0.1650
 2679SOL    HW119496   0.297   0.706  11.443 -1.1346  0.3878 -1.8074
 2679SOL    HW219497   0.399   0.607  11.423 -0.0929  0.6119 -2.6639
 2680SOL     OW19498   1.050   2.004   2.521 -0.1364  0.4395  0.4679
 2680SOL    HW119499   1.037   1.914   2.551  0.0338  1.1075  2.5553
 2680SOL    HW219500   1.113   1.983   2.453  0.6175 -2.5399  2.1165
 2681SOL     OW19501   2.499   2.741  16.564 -0.3366 -0.2292  0.1082
 2681SOL    HW119502   2.559   2.675  16.531 -1.4493 -0.5440 -1.2623
 2681SOL    HW219503   2.432   2.750  16.497 -0.5015 -1.3791  0.1305
 2682SOL     OW19504   0.943   1.989   6.971  0.1226 -0.3426 -0.5904
 2682SOL    HW119505   0.962   1.896   6.958  0.7983 -0.1785 -0.7910
 2682SOL    HW219506   0.990   1.996   7.054  0.5976 -0.5742 -0.8382
 2683SOL     OW19507   3.656   1.389  16.198 -0.4014 -0.0948 -0.0460
 2683SOL    HW119508   3.592   1.344  16.254  0.6425  0.1888  1.3835
 2683SOL    HW219509   3.704   1.427  16.272 -0.9272 -2.0910  1.3288
 2684SOL     OW19510   4.067   3.253  16.552  0.1705 -0.0963  0.6770
 2684SOL    HW119511   4.060   3.251  16.457  0.0780  0.9581  0.6543
 2684SOL    HW219512   4.158   3.228  16.567  0.8191  1.4272 -0.7452
 2685SOL     OW19513   2.693   1.605   5.222  0.3432 -0.0141 -0.1997
 2685SOL    HW119514   2.746   1.530   5.250 -0.4605 -1.2040 -1.7936
 2685SOL    HW219515   2.618   1.602   5.282  1.4055 -0.1657  1.1158
 2686SOL     OW19516   0.214   2.147   9.034  0.0496  0.3061 -0.2904
 2686SOL    HW119517   0.239   2.062   8.996 -0.9148 -0.9228  1.7749
 2686SOL    HW219518   0.268   2.213   8.992  1.3206 -2.6049 -3.2470
 2687SOL     OW19519   3.130   0.421   6.118  0.1925 -0.5797 -0.2697
 2687SOL    HW119520   3.067   0.349   6.117 -0.7341  0.2062  2.2060
 2687SOL    HW219521   3.202   0.382   6.168 -1.6983  0.6017  3.4032
 2688SOL     OW19522   0.217   1.435   9.877  1.0036 -0.4248 -0.1235
 2688SOL    HW119523   0.217   1.512   9.934 -1.1814 -0.4763 -0.0476
 2688SOL    HW219524   0.250   1.361   9.928  0.8987 -0.4732 -0.1251
 2689SOL     OW19525   1.777   1.377   4.190  0.0707  0.1738 -0.2432
 2689SOL    HW119526   1.691   1.400   4.155  0.3782 -0.6376 -1.5427
 2689SOL    HW219527   1.791   1.457   4.241  2.7899 -1.4812  1.5525
 2690SOL     OW19528   0.160   2.786   6.073  0.1595  0.3788 -0.4835
 2690SOL    HW119529   0.121   2.870   6.098  2.5162  0.2847  3.5211
 2690SOL    HW219530   0.091   2.740   6.025 -1.1426  0.6280  1.1432
 2691SOL     OW19531   3.781   0.391  14.975 -0.3435 -0.4908 -0.3997
 2691SOL    HW119532   3.753   0.387  14.883  0.6661  0.1723 -0.7311
 2691SOL    HW219533   3.869   0.426  14.965 -0.0920 -0.8478  0.6246
 2692SOL     OW19534   1.103   0.513   9.083  0.5685 -0.4343  0.0289
 2692SOL    HW119535   1.080   0.595   9.041 -0.8567 -1.0092 -0.3062
 2692SOL    HW219536   1.154   0.471   9.014 -0.4897 -1.3155 -0.2276
 2693SOL     OW19537   1.325   3.641   5.036  0.0831  0.1322 -0.2972
 2693SOL    HW119538   1.400   3.661   4.980  0.6122  0.5380  0.5681
 2693SOL    HW219539   1.344   3.702   5.107  1.0594 -0.0819 -0.3768
 2694SOL     OW19540   0.617   2.309  11.383  0.5946  0.2493 -0.6174
 2694SOL    HW119541   0.597   2.217  11.367  0.0417 -0.2012  2.5718
 2694SOL    HW219542   0.625   2.351  11.298  1.3386  0.1726 -0.5870
 2695SOL     OW19543   3.700   0.944   3.492  0.1726 -0.0866  0.5948
 2695SOL    HW119544   3.787   0.951   3.533  0.7027  2.8559 -1.0417
 2695SOL    HW219545   3.694   0.849   3.501 -1.2327 -0.0218  0.3722
 2696SOL     OW19546   2.882   2.086   8.902 -0.0169  0.6801  0.1423
 2696SOL    HW119547   2.846   2.007   8.942 -0.5124  1.2386  0.8042
 2696SOL    HW219548   2.837   2.163   8.937 -0.3581 -0.0828  1.3732
 2697SOL     OW19549   2.948   2.690   0.858 -0.5834  0.5820 -0.7817
 2697SOL    HW119550   2.983   2.666   0.943 -1.8372  1.1790 -0.1009
 2697SOL    HW219551   3.026   2.702   0.804  0.5217 -1.9602  0.2412
 2698SOL     OW19552   1.804   0.226   9.308 -0.6883 -0.1208  0.3005
 2698SOL    HW119553   1.731   0.273   9.268  0.4250 -0.6899 -2.4141
 2698SOL    HW219554   1.863   0.202   9.237 -1.0487 -1.2666  0.3938
 2699SOL     OW19555   0.002   0.877  14.691  0.1967 -0.5907 -0.3991
 2699SOL    HW119556   0.058   0.801  14.705 -1.0613 -1.2946  0.8716
 2699SOL    HW219557   4.697   0.865  14.600 -0.6615 -1.1192 -0.0909
 2700SOL     OW19558   0.921   4.313  10.899 -0.0606  0.1151  0.2748
 2700SOL    HW119559   0.968   4.230  10.907  0.0566  0.3595  2.1860
 2700SOL    HW219560   0.838   4.300  10.944 -0.7969  0.8844 -0.8719
 2701SOL     OW19561   2.436   0.578   7.367  0.5283  0.0871 -0.3227
 2701SOL    HW119562   2.432   0.635   7.290  1.3410 -0.8211 -1.0315
 2701SOL    HW219563   2.358   0.602   7.418  1.0376  1.6655 -0.2812
 2702SOL     OW19564   3.464   4.676   7.417 -0.2441 -0.2543  0.0802
 2702SOL    HW119565   3.505   0.029   7.373 -1.4778  0.5129  0.2117
 2702SOL    HW219566   3.515   4.672   7.497  0.2751  1.8272 -0.1514
 2703SOL     OW19567   0.170   1.327  15.239  0.3904 -0.7097 -0.1531
 2703SOL    HW119568   0.155   1.283  15.155  2.4739  1.1949 -1.5053
 2703SOL    HW219569   0.101   1.393  15.245  0.6940 -0.4100  0.0832
 2704SOL     OW19570   3.066   0.311  11.374  0.2117 -0.4703 -0.1248
 2704SOL    HW119571   3.003   0.246  11.405  0.3861 -1.9139 -2.7437
 2704SOL    HW219572   3.053   0.381  11.438 -0.9256 -2.1353  1.4625
 2705SOL     OW19573   3.173   1.237  12.138 -0.4708 -0.1772  0.1504
 2705SOL    HW119574   3.174   1.327  12.169  0.3472 -0.2907  0.4563
 2705SOL    HW219575   3.134   1.258  12.054  0.2690 -0.2034 -0.1926
 2706SOL     OW19576   0.545   3.249   6.979 -0.9114 -0.2697  0.5941
 2706SOL    HW119577   0.544   3.196   7.059  1.5470  2.0821  2.1938
 2706SOL    HW219578   0.580   3.186   6.916 -0.0237  0.3312  0.4792
 2707SOL     OW19579   3.506   3.987   5.282  0.3242  0.3365  0.1899
 2707SOL    HW119580   3.427   3.994   5.336  1.9904 -0.4555  2.7240
 2707SOL    HW219581   3.513   4.068   5.231  0.1662 -1.2892 -2.3901
 2708SOL     OW19582   0.678   2.020   3.373  0.1335 -0.0534  1.1538
 2708SOL    HW119583   0.773   2.033   3.373  0.3190 -1.5067 -1.8560
 2708SOL    HW219584   0.675   1.924   3.382 -0.4156 -0.0240  1.2762
 2709SOL     OW19585   2.990   0.674   0.957 -0.3837 -0.2012 -0.4862
 2709SOL    HW119586   2.894   0.675   0.959 -0.4090  0.6661 -2.2897
 2709SOL    HW219587   3.008   0.597   1.011 -0.2872 -0.0930 -0.3644
 2710SOL     OW19588   0.141   1.817   4.682  0.2867 -0.4059 -0.8070
 2710SOL    HW119589   0.108   1.796   4.769  2.9500  0.8895  0.5419
 2710SOL    HW219590   0.073   1.790   4.621  0.5416 -1.6722 -0.5192
 2711SOL     OW19591   2.560   1.267   6.729 -0.1521 -0.3579 -0.4174
 2711SOL    HW119592   2.522   1.316   6.655 -2.1637 -0.0700  0.8112
 2711SOL    HW219593   2.491   1.260   6.795 -0.2322 -0.3326 -0.4971
 2712SOL     OW19594   4.437   0.858  12.607  0.0907  0.2268  0.5208
 2712SOL    HW119595   4.361   0.810  12.576 -0.6446  4.3702 -3.9785
 2712SOL    HW219596   4.417   0.864  12.701  0.2581  0.8891  0.5137
 2713SOL     OW19597   3.950   2.278  10.690  0.5331 -0.2015 -0.7317
 2713SOL    HW119598   3.860   2.308  10.705  0.4347 -0.8984  0.0388
 2713SOL    HW219599   3.965   2.216  10.761  0.3053 -0.7864 -1.1911
 2714SOL     OW19600   1.546   1.458   3.323 -0.1744  0.3372  0.0000
 2714SOL    HW119601   1.572   1.434   3.234  0.1879 -0.7019  0.3844
 2714SOL    HW219602   1.568   1.379   3.373 -0.1546 -0.0734 -0.6572
 2715SOL     OW19603   3.766   3.588   2.933  0.0703  0.3582 -0.3176
 2715SOL    HW119604   3.820   3.511   2.920  0.5362  0.3841  1.4167
 2715SOL    HW219605   3.718   3.592   2.850 -1.5712 -0.2923  0.5935
 2716SOL     OW19606   2.180   1.971  10.017 -0.1761 -0.7962  0.3829
 2716SOL    HW119607   2.189   2.007  10.106 -2.7512  0.5381  0.1206
 2716SOL    HW219608   2.208   1.881  10.029  3.0542 -0.0856 -1.9111
 2717SOL     OW19609   1.037   2.586   2.628  0.6778 -0.7183 -0.0590
 2717SOL    HW119610   0.945   2.572   2.606  0.6070 -0.0065 -0.2247
 2717SOL    HW219611   1.056   2.528   2.702  2.3735  1.2112  1.0194
 2718SOL     OW19612   2.949   0.972   3.289  0.3584  0.2666 -0.1340
 2718SOL    HW119613   2.979   0.886   3.259 -3.7472 -1.0916 -0.3693
 2718SOL    HW219614   2.971   0.964   3.382  0.9611 -0.2936 -0.3240
 2719SOL     OW19615   1.658   0.185  13.829  0.1734 -0.2487 -0.0754
 2719SOL    HW119616   1.636   0.171  13.921 -1.4068  0.0621 -0.3952
 2719SOL    HW219617   1.645   0.279  13.816  1.5364 -0.0766 -0.1906
 2720SOL     OW19618   4.112   0.208   0.402  0.1548 -0.2614 -0.6174
 2720SOL    HW119619   4.149   0.150   0.335 -0.1169 -0.6560 -0.4259
 2720SOL    HW219620   4.020   0.208   0.376 -0.6512 -0.5039  2.2277
 2721SOL     OW19621   2.054   1.224   9.198 -0.0476  0.3505 -0.0969
 2721SOL    HW119622   2.011   1.254   9.117 -1.0224  4.7867  2.0646
 2721SOL    HW219623   2.023   1.285   9.264 -0.1597  0.7757 -0.5381
 2722SOL     OW19624   0.751   4.632  14.166 -0.0604  0.2127  0.1865
 2722SOL    HW119625   0.830   4.630  14.221  1.4025 -1.7719 -2.0003
 2722SOL    HW219626   0.700   4.700  14.211  0.1967  0.7253 -0.3070
 2723SOL     OW19627   3.316   4.521   4.029 -0.4224 -0.0150 -0.3826
 2723SOL    HW119628   3.300   4.545   3.938 -0.1138  1.5083 -0.0400
 2723SOL    HW219629   3.231   4.538   4.070 -0.0864 -1.2396  0.8324
 2724SOL     OW19630   2.965   1.837  17.006  0.5239  0.1489 -0.2721
 2724SOL    HW119631   2.905   1.908  17.027  0.3883  0.1660 -0.7064
 2724SOL    HW219632   2.992   1.850  16.915  0.7628 -2.3471 -0.5676
 2725SOL     OW19633   4.635   4.490   0.131  0.2036 -0.3074  0.0369
 2725SOL    HW119634   4.593   4.445   0.056  1.4512  2.4750 -2.3239
 2725SOL    HW219635   0.004   4.460   0.120 -0.7790 -3.1337 -0.5766
 2726SOL     OW19636   2.632   1.224   2.309 -0.2748  0.1700  0.1232
 2726SOL    HW119637   2.590   1.243   2.224 -2.0396  1.1103  1.1996
 2726SOL    HW219638   2.683   1.304   2.317  0.0110  0.1175 -1.2177
 2727SOL     OW19639   3.723   4.309   4.785 -0.1495 -0.2714  0.0555
 2727SOL    HW119640   3.724   4.389   4.837 -0.4051 -0.2513  0.0281
 2727SOL    HW219641   3.811   4.272   4.792  0.7002  1.3291 -2.2741
 2728SOL     OW19642   0.924   0.604  17.011 -0.1560 -0.0179 -0.1207
 2728SOL    HW119643   0.854   0.662  17.043  1.3143  1.6103  0.1133
 2728SOL    HW219644   0.966   0.603  17.097 -0.5330 -2.9213  0.0353
 2729SOL     OW19645   1.707   0.209   3.955  0.1855  0.0542 -0.5183
 2729SOL    HW119646   1.771   0.140   3.972 -1.7295 -1.2185  1.6119
 2729SOL    HW219647   1.623   0.166   3.970 -0.2451  0.8901 -0.5513
 2730SOL     OW19648   4.603   3.443  12.915 -0.5186 -0.1332 -0.1339
 2730SOL    HW119649   4.660   3.369  12.936 -1.7376 -0.1713  3.0003
 2730SOL    HW219650   4.651   3.504  12.971 -0.9470  0.8138 -0.8020
 2731SOL     OW19651   4.359   4.380   7.883 -0.3156  0.0068  0.1493
 2731SOL    HW119652   4.369   4.397   7.977  1.4975 -0.8468  0.1119
 2731SOL    HW219653   4.282   4.437   7.875 -1.5272 -1.2593  2.9224
 2732SOL     OW19654   1.603   2.612   3.736  0.0794  0.0567 -0.2329
 2732SOL    HW119655   1.626   2.558   3.660  0.3421  1.5628 -1.2107
 2732SOL    HW219656   1.624   2.698   3.699 -0.0911  0.3218  0.2925
 2733SOL     OW19657   4.619   3.256   7.711  0.9522  0.4342 -0.1761
 2733SOL    HW119658   4.537   3.224   7.748 -0.8025  3.5827 -1.3058
 2733SOL    HW219659   4.614   3.197   7.637 -0.6737  0.3930 -0.0175
 2734SOL     OW19660   0.486   1.243   3.584 -0.0689  0.0303  0.3397
 2734SOL    HW119661   0.562   1.185   3.595  0.2708  0.5126  0.5223
 2734SOL    HW219662   0.409   1.190   3.563 -0.0970 -0.4600  1.6270
 2735SOL     OW19663   1.204   4.189   3.644 -0.3039 -0.1837  0.0004
 2735SOL    HW119664   1.148   4.113   3.658 -1.5266  0.9099  1.0696
 2735SOL    HW219665   1.264   4.160   3.575 -0.5686 -1.0349  0.1318
 2736SOL     OW19666   3.222   2.927   6.312  0.2808  0.0230  0.2769
 2736SOL    HW119667   3.287   2.935   6.243 -0.2770  0.7130 -0.1780
 2736SOL    HW219668   3.179   3.010   6.291  2.1098  1.0529  0.6230
 2737SOL     OW19669   1.658   3.705   9.677  0.5121  0.5039  0.1672
 2737SOL    HW119670   1.636   3.632   9.619 -1.8239 -0.5348  2.3540
 2737SOL    HW219671   1.574   3.717   9.721 -0.8123 -1.0325 -1.9684
 2738SOL     OW19672   2.859   2.319  16.982 -0.4443 -0.0094 -0.1193
 2738SOL    HW119673   2.913   2.397  16.974  1.7486 -1.3446  1.7711
 2738SOL    HW219674   2.925   2.249  16.980 -1.6190 -1.0746 -1.2760
 2739SOL     OW19675   0.042   1.567   5.197  0.1527 -0.1401  0.2742
 2739SOL    HW119676   0.097   1.504   5.150  0.7627 -0.9250  2.0699
 2739SOL    HW219677   0.105   1.595   5.263  0.3075  1.0368 -0.3703
 2740SOL     OW19678   2.805   2.619  17.158  0.0403 -0.4415  0.1599
 2740SOL    HW119679   2.729   2.560  17.164 -0.4153 -0.0953 -2.2744
 2740SOL    HW219680   2.828   2.602  17.066 -2.1600  1.5798 -0.7483
 2741SOL     OW19681   3.764   1.103  17.615  0.3868  0.0342  0.3212
 2741SOL    HW119682   3.786   1.155  17.538  1.0112  0.4667  0.7900
 2741SOL    HW219683   3.791   1.167  17.680  1.2475  1.2502 -1.2474
 2742SOL     OW19684   2.145   3.181   3.428  0.4453 -0.2931 -0.1543
 2742SOL    HW119685   2.239   3.197   3.430  0.6055 -1.1609 -0.7465
 2742SOL    HW219686   2.114   3.244   3.493 -0.6023 -0.6450 -0.3074
 2743SOL     OW19687   2.069   3.606   6.702  0.1891 -0.0716  0.0615
 2743SOL    HW119688   2.021   3.538   6.750 -2.1204  0.7665 -1.0470
 2743SOL    HW219689   1.999   3.612   6.637  1.5510 -1.4595 -1.5113
 2744SOL     OW19690   2.466   2.608  15.939 -0.3119  0.5489 -0.2008
 2744SOL    HW119691   2.501   2.526  15.904 -1.1039 -0.4960  1.4334
 2744SOL    HW219692   2.411   2.632  15.864 -1.2574  1.2908  0.7336
 2745SOL     OW19693   3.357   3.792  14.564  0.4550  0.5330 -0.3046
 2745SOL    HW119694   3.367   3.765  14.473  0.3867  3.2529 -1.1384
 2745SOL    HW219695   3.445   3.805  14.600 -0.4745  2.1200  1.4200
 2746SOL     OW19696   0.068   0.283   5.525 -0.3938 -0.4320  0.6243
 2746SOL    HW119697   0.072   0.204   5.471  0.1875  0.0414 -0.0273
 2746SOL    HW219698   0.058   0.347   5.455 -1.1998  0.0268  1.1546
 2747SOL     OW19699   1.873   3.165   8.731  0.1475 -0.2484  0.3013
 2747SOL    HW119700   1.943   3.113   8.692  1.0301 -0.5040  2.2131
 2747SOL    HW219701   1.905   3.156   8.821 -2.4305 -0.8690  1.1680
 2748SOL     OW19702   3.254   4.035  10.722  0.7312  0.0061  0.3882
 2748SOL    HW119703   3.316   4.106  10.737  2.0047 -0.1699 -4.1505
 2748SOL    HW219704   3.242   3.999  10.810 -1.2721  0.1745  0.1782
 2749SOL     OW19705   0.862   1.153   2.553  0.4045 -0.0085 -0.6767
 2749SOL    HW119706   0.816   1.127   2.473  0.0531 -0.0464 -0.4614
 2749SOL    HW219707   0.885   1.244   2.536 -1.0615  0.5718  0.4541
 2750SOL     OW19708   1.375   2.868  16.700 -0.1642 -0.0622  0.4885
 2750SOL    HW119709   1.386   2.951  16.748  0.3918 -0.0070  0.2708
 2750SOL    HW219710   1.448   2.871  16.638 -0.8948 -0.7195 -0.3910
 2751SOL     OW19711   3.487   4.657  16.644  0.3909  0.2996 -0.3227
 2751SOL    HW119712   3.411   4.618  16.687  2.2440 -1.7137  1.1308
 2751SOL    HW219713   3.552   4.649  16.714 -0.2172 -0.2275  0.1868
 2752SOL     OW19714   4.708   1.950   7.176 -0.1856 -0.7351 -0.0071
 2752SOL    HW119715   4.620   1.932   7.207  0.0449  0.9670  1.6303
 2752SOL    HW219716   4.705   2.044   7.193 -2.4411 -0.3989 -2.4582
 2753SOL     OW19717   1.283   4.339   5.212 -0.1240 -0.1007  0.0745
 2753SOL    HW119718   1.367   4.379   5.190  0.0553 -0.8155 -0.5466
 2753SOL    HW219719   1.259   4.383   5.293 -0.1440  0.1379 -0.0613
 2754SOL     OW19720   1.276   0.144   5.827 -0.1989  0.1041  0.1701
 2754SOL    HW119721   1.276   0.190   5.743  1.8047 -1.6167 -0.7659
 2754SOL    HW219722   1.188   0.110   5.813  0.5519 -0.1031 -4.2587
 2755SOL     OW19723   2.424   0.737  11.882  0.1945  0.3233  0.2460
 2755SOL    HW119724   2.514   0.759  11.905  0.4142 -1.4277  1.0637
 2755SOL    HW219725   2.417   0.650  11.922 -0.9486 -0.2861 -1.2783
 2756SOL     OW19726   2.710   1.943  13.460  0.0057 -0.5276 -0.2048
 2756SOL    HW119727   2.621   1.970  13.484  0.6029  0.9032  0.3639
 2756SOL    HW219728   2.692   1.869  13.401  0.9883 -0.4319 -0.6167
 2757SOL     OW19729   0.770   3.155   8.346  0.3517 -0.4990 -0.3475
 2757SOL    HW119730   0.717   3.211   8.289  0.3796 -0.1245 -0.0084
 2757SOL    HW219731   0.727   3.070   8.344 -2.3690  0.8577  1.0675
 2758SOL     OW19732   2.092   3.311   8.271  0.1252 -0.2544 -0.6961
 2758SOL    HW119733   2.026   3.250   8.303  1.0437 -0.1115  1.5235
 2758SOL    HW219734   2.169   3.256   8.256  0.6561  0.4848 -0.7034
 2759SOL     OW19735   1.002   3.835   0.904  0.0901 -0.5068 -0.1421
 2759SOL    HW119736   1.093   3.826   0.931  0.3538  2.5534  0.0779
 2759SOL    HW219737   1.008   3.922   0.863  2.0406 -1.2814 -1.5031
 2760SOL     OW19738   2.378   3.979  11.221  0.1640  0.0767 -0.3004
 2760SOL    HW119739   2.363   3.896  11.177  0.4966  0.3988 -1.0226
 2760SOL    HW219740   2.308   3.977  11.286 -0.6825  0.1304 -1.2159
 2761SOL     OW19741   3.617   3.834   7.535  0.9447 -0.2860  0.0175
 2761SOL    HW119742   3.547   3.863   7.595  0.3721 -0.3401 -0.6265
 2761SOL    HW219743   3.599   3.883   7.455 -0.3141 -2.5650 -1.0871
 2762SOL     OW19744   4.074   4.367   7.146 -0.1503 -0.0220 -0.8153
 2762SOL    HW119745   4.052   4.423   7.072 -0.0895  0.4524 -0.4725
 2762SOL    HW219746   4.021   4.289   7.125  1.9271 -1.4399 -0.7934
 2763SOL     OW19747   3.141   0.966   1.993  0.1184  0.0046 -0.3714
 2763SOL    HW119748   3.069   0.988   2.052 -0.3600 -1.7671 -0.2976
 2763SOL    HW219749   3.132   0.871   2.000 -1.9386  0.0084 -3.0642
 2764SOL     OW19750   1.344   1.787   6.787  0.1809  0.6678 -0.2753
 2764SOL    HW119751   1.356   1.727   6.714 -0.2273 -0.4165  0.5401
 2764SOL    HW219752   1.415   1.765   6.847  1.1361  0.8483 -1.3359
 2765SOL     OW19753   1.913   3.467   6.053 -0.4036 -0.1123  0.3373
 2765SOL    HW119754   1.854   3.541   6.070 -1.3511 -0.8020  0.0359
 2765SOL    HW219755   1.975   3.472   6.126 -0.3735 -1.9640  0.4316
 2766SOL     OW19756   1.606   3.495  12.990 -0.0185  0.1429 -0.0161
 2766SOL    HW119757   1.575   3.406  12.973  2.3141 -0.1586 -2.5652
 2766SOL    HW219758   1.538   3.528  13.050  1.2246  0.6399  1.1186
 2767SOL     OW19759   0.435   1.670   5.178 -1.1526  0.1662  0.1127
 2767SOL    HW119760   0.360   1.728   5.170 -0.5941  0.6232 -1.8749
 2767SOL    HW219761   0.512   1.727   5.173 -0.2473 -1.1625 -1.0724
 2768SOL     OW19762   0.671   1.361   6.428 -0.3845 -0.2427 -0.7270
 2768SOL    HW119763   0.632   1.448   6.433  2.9388  1.2857 -1.1552
 2768SOL    HW219764   0.762   1.381   6.449 -0.7391  1.5073 -0.8624
 2769SOL     OW19765   1.289   2.739  10.508  0.8064 -0.2163  0.0306
 2769SOL    HW119766   1.293   2.785  10.424  0.6655  1.7940  1.1165
 2769SOL    HW219767   1.227   2.796  10.554 -1.3731 -0.9190 -2.0638
 2770SOL     OW19768   2.292   0.257  15.605  0.4920  0.2660 -0.0182
 2770SOL    HW119769   2.343   0.265  15.685  0.7676 -0.1048 -0.1595
 2770SOL    HW219770   2.363   0.246  15.542  0.5184 -2.5350  0.4947
 2771SOL     OW19771   0.807   2.572   3.487 -0.1252  0.6656  0.2636
 2771SOL    HW119772   0.750   2.498   3.465 -0.2794  0.7214  0.4725
 2771SOL    HW219773   0.769   2.596   3.572 -1.8471  0.1408 -0.3495
 2772SOL     OW19774   0.414   2.666   0.033  0.1105 -0.4633 -0.0546
 2772SOL    HW119775   0.390   2.693   0.122  0.3413 -0.3926 -0.0117
 2772SOL    HW219776   0.395   2.745  17.670  0.8500 -0.3832 -0.2083
 2773SOL     OW19777   2.537   0.937   2.209 -0.0678 -0.1243  0.0980
 2773SOL    HW119778   2.552   0.901   2.296 -0.2528 -0.5313 -0.0359
 2773SOL    HW219779   2.444   0.954   2.223 -0.2798 -0.4803 -0.8538
 2774SOL     OW19780   2.510   1.788   3.235  0.0340  0.4990  0.8578
 2774SOL    HW119781   2.483   1.699   3.258  0.8923  0.4884  1.8391
 2774SOL    HW219782   2.532   1.772   3.143 -1.3941 -0.1912  0.6393
 2775SOL     OW19783   2.691   4.087   1.580  0.5510  0.0526  0.2715
 2775SOL    HW119784   2.646   4.055   1.657  0.6775 -0.7019  0.0395
 2775SOL    HW219785   2.726   4.008   1.537  0.9592  0.8485 -0.8729
 2776SOL     OW19786   2.935   0.920   9.967  0.5095 -0.5328 -0.2479
 2776SOL    HW119787   3.003   0.875   9.917 -0.8902 -0.8597 -1.8808
 2776SOL    HW219788   2.996   0.954  10.033 -1.2520  1.4383  0.4056
 2777SOL     OW19789   3.881   2.992   8.630  0.1745 -0.0287  0.2700
 2777SOL    HW119790   3.862   2.938   8.553  0.7510 -0.6399  0.5574
 2777SOL    HW219791   3.861   2.934   8.703 -1.0512 -0.1886 -0.2046
 2778SOL     OW19792   2.100   2.314   9.330 -0.6894 -0.2323 -0.0338
 2778SOL    HW119793   2.013   2.300   9.293 -1.2727  0.4731  1.0558
 2778SOL    HW219794   2.073   2.330   9.421 -3.3416  0.9770 -1.0392
 2779SOL     OW19795   1.953   0.632   6.795  0.3542 -0.5053  0.0255
 2779SOL    HW119796   1.964   0.552   6.743 -0.4932 -0.8136  0.3259
 2779SOL    HW219797   1.930   0.589   6.877 -0.8969  0.7017  0.2943
 2780SOL     OW19798   3.896   0.746   7.911 -0.1785 -0.5275  0.2086
 2780SOL    HW119799   3.905   0.797   7.830 -0.9516 -0.6733  0.0348
 2780SOL    HW219800   3.989   0.735   7.933 -0.5683 -1.2158  1.4969
 2781SOL     OW19801   2.131   3.526   4.500  0.1131  0.4131  0.3546
 2781SOL    HW119802   2.181   3.575   4.435 -1.0502  0.0603 -0.7864
 2781SOL    HW219803   2.048   3.510   4.455  0.7422 -0.8605 -0.3489
 2782SOL     OW19804   0.183   2.857   7.860 -0.7165  0.2617 -0.3457
 2782SOL    HW119805   0.159   2.917   7.789  1.0595  0.1462 -1.0284
 2782SOL    HW219806   0.179   2.773   7.814 -4.9747  0.5430 -0.5091
 2783SOL     OW19807   2.999   4.415   6.158 -0.3300 -0.2365 -0.0078
 2783SOL    HW119808   2.920   4.395   6.107 -0.0270 -0.5502 -0.3469
 2783SOL    HW219809   3.024   4.324   6.176 -0.5240 -0.3151 -0.1403
 2784SOL     OW19810   0.423   1.606   2.870  0.0443 -0.2295 -0.1750
 2784SOL    HW119811   0.477   1.565   2.803  0.2728  0.2278 -0.2697
 2784SOL    HW219812   0.394   1.680   2.816  0.6686 -0.3542 -0.6792
 2785SOL     OW19813   0.552   2.437   4.954  0.4085 -0.1473  0.2973
 2785SOL    HW119814   0.521   2.394   4.875 -0.8421  1.0307  0.1307
 2785SOL    HW219815   0.570   2.524   4.917 -0.5219  0.3730  1.0579
 2786SOL     OW19816   0.246   0.750   5.393  0.1163  0.6378  0.3015
 2786SOL    HW119817   0.209   0.696   5.323  0.5956 -0.1507  0.6651
 2786SOL    HW219818   0.176   0.756   5.458  0.3379 -0.0542  0.6038
 2787SOL     OW19819   1.782   0.987   0.975 -0.1074  0.0999 -0.2938
 2787SOL    HW119820   1.743   1.018   1.056  1.7597 -1.8557  1.3567
 2787SOL    HW219821   1.776   1.062   0.916 -2.2694  0.7690  0.8074
 2788SOL     OW19822   2.748   2.267  13.912  0.9894  0.1744 -0.7223
 2788SOL    HW119823   2.797   2.294  13.834  2.8890  0.6260  0.6407
 2788SOL    HW219824   2.688   2.203  13.873  0.1382  0.5722 -0.0481
 2789SOL     OW19825   4.501   2.036   1.340  0.0258 -0.4317  0.4170
 2789SOL    HW119826   4.497   2.003   1.250 -1.6374 -0.4744  0.5084
 2789SOL    HW219827   4.593   2.062   1.348  0.1304 -1.3974  2.3242
 2790SOL     OW19828   1.019   2.199  16.611  0.2494  0.3686 -0.2149
 2790SOL    HW119829   0.946   2.255  16.639  0.9048  1.2643 -0.3022
 2790SOL    HW219830   1.094   2.256  16.628  0.9735 -0.6520  0.0003
 2791SOL     OW19831   4.584   2.445   2.163 -0.2415  0.0534 -0.2033
 2791SOL    HW119832   4.609   2.517   2.221  2.1942 -1.2851  0.3818
 2791SOL    HW219833   4.489   2.441   2.172 -0.3468  2.7583  0.1516
 2792SOL     OW19834   0.123   2.029   3.227  0.6356  0.2493 -0.4508
 2792SOL    HW119835   0.198   1.987   3.270  0.4753 -0.5767 -0.9709
 2792SOL    HW219836   0.133   2.115   3.267  0.6497  0.2672 -0.4934
 2793SOL     OW19837   3.442   1.729   5.952  0.0804 -0.1515 -0.2822
 2793SOL    HW119838   3.428   1.781   6.031 -0.2534  1.4016 -1.3532
 2793SOL    HW219839   3.355   1.707   5.920  0.6447 -0.0276 -1.9078
 2794SOL     OW19840   2.038   4.617  14.284  0.1038  0.1042 -0.1655
 2794SOL    HW119841   2.001   4.629  14.197 -0.4838  3.2479  0.5220
 2794SOL    HW219842   2.003   4.531  14.309  0.9853  0.1641  1.2957
 2795SOL     OW19843   1.398   1.711  16.834  0.4465 -0.3413  0.1859
 2795SOL    HW119844   1.414   1.804  16.846  0.0057 -0.0111 -1.8472
 2795SOL    HW219845   1.314   1.721  16.788  1.5037  2.7427 -1.0722
 2796SOL     OW19846   4.477   4.633   3.082  0.0382  0.5391 -0.1965
 2796SOL    HW119847   4.492   4.701   3.016 -1.5754 -0.4484 -1.5969
 2796SOL    HW219848   4.565   4.631   3.121  0.0274 -0.6776 -0.2261
 2797SOL     OW19849   2.835   0.095  16.758 -0.7428  0.0315  0.2541
 2797SOL    HW119850   2.854   0.189  16.755 -0.9652  0.0583 -0.3632
 2797SOL    HW219851   2.740   0.100  16.761 -0.6244  1.5173  1.1203
 2798SOL     OW19852   2.541   1.427   5.972  0.4856  0.1279  0.1407
 2798SOL    HW119853   2.530   1.416   5.878 -0.8079  0.9227  0.1903
 2798SOL    HW219854   2.556   1.336   5.995  3.3031  1.4073  3.4122
 2799SOL     OW19855   4.666   4.579   5.099  0.2576  0.0200 -0.2861
 2799SOL    HW119856   4.591   4.536   5.059  0.5563 -1.5111  0.7845
 2799SOL    HW219857   4.721   4.594   5.022  1.8172 -0.1234  0.7810
 2800SOL     OW19858   1.346   4.195   8.663 -0.4273 -0.0272  0.1647
 2800SOL    HW119859   1.390   4.148   8.733 -1.6967 -2.8005 -0.9213
 2800SOL    HW219860   1.352   4.132   8.591 -1.4837 -0.8630  0.8250
 2801SOL     OW19861   0.331   3.324   2.692 -0.1890 -0.7313 -0.0494
 2801SOL    HW119862   0.272   3.271   2.638 -1.0742 -0.4588  0.6626
 2801SOL    HW219863   0.415   3.278   2.683  0.5867  0.9703 -1.5882
 2802SOL     OW19864   0.080   0.203   6.343 -0.0157 -0.3005 -0.1129
 2802SOL    HW119865   0.079   0.271   6.410 -0.1448 -0.7465  0.3361
 2802SOL    HW219866   0.058   0.265   6.273 -0.8564  0.6252  0.9719
 2803SOL     OW19867   1.076   4.092  11.370  0.3615 -0.2422  0.4741
 2803SOL    HW119868   1.085   4.184  11.394  2.2867  0.0944 -1.5579
 2803SOL    HW219869   1.034   4.061  11.451  0.5044  3.3517  1.9587
 2804SOL     OW19870   3.517   4.434  17.141  0.2985  0.1784  0.2518
 2804SOL    HW119871   3.514   4.338  17.144  2.3022  0.1497  0.9408
 2804SOL    HW219872   3.434   4.430  17.093  0.1845 -1.5050  0.5969
 2805SOL     OW19873   1.609   1.042  11.359  0.6729 -0.2416  0.2980
 2805SOL    HW119874   1.580   1.129  11.332 -2.0167 -0.8873  1.0999
 2805SOL    HW219875   1.647   1.013  11.275 -0.0739 -1.6538  0.4441
 2806SOL     OW19876   1.972   0.375   6.360 -0.4906 -0.1767  0.3170
 2806SOL    HW119877   1.899   0.387   6.299 -1.1076  0.4144  1.1522
 2806SOL    HW219878   1.962   0.284   6.386 -0.4126  0.5517  2.9720
 2807SOL     OW19879   1.195   0.590   2.738  0.5167 -0.0033  0.0393
 2807SOL    HW119880   1.229   0.560   2.654 -1.9073 -0.0804 -0.9007
 2807SOL    HW219881   1.267   0.647   2.767  0.6770 -1.9911  3.6294
 2808SOL     OW19882   4.376   2.955   1.946 -0.1574  0.3167 -0.0128
 2808SOL    HW119883   4.390   2.903   2.025 -1.2703  0.1144  0.0583
 2808SOL    HW219884   4.284   2.981   1.948 -0.8163 -1.9420 -1.4379
 2809SOL     OW19885   2.748   3.320   7.106 -0.2678 -0.0549  0.1808
 2809SOL    HW119886   2.694   3.334   7.183  3.1852 -0.1098  2.6101
 2809SOL    HW219887   2.827   3.287   7.150  0.6716 -0.2691 -1.6447
 2810SOL     OW19888   3.096   1.190  14.887  0.0921 -0.0710  0.6585
 2810SOL    HW119889   3.090   1.278  14.848 -2.7264  0.7773  3.1056
 2810SOL    HW219890   3.012   1.146  14.878  0.7791 -1.8407  2.7874
 2811SOL     OW19891   3.433   0.179  11.610 -0.0517 -0.1545  0.1011
 2811SOL    HW119892   3.398   0.093  11.590  0.2872 -0.8611  2.5178
 2811SOL    HW219893   3.389   0.228  11.541 -0.7146 -0.1995  0.4982
 2812SOL     OW19894   1.913   0.740   3.619  0.1368  0.3152 -0.0726
 2812SOL    HW119895   1.934   0.651   3.650 -4.1384 -0.8035 -0.3133
 2812SOL    HW219896   1.954   0.742   3.533 -0.6450  1.3549 -0.4290
 2813SOL     OW19897   4.219   2.904   9.834  0.4972 -0.3080  0.0475
 2813SOL    HW119898   4.147   2.884   9.774 -0.0142 -2.9400  1.5409
 2813SOL    HW219899   4.182   2.859   9.910  0.0649  1.3577  0.8175
 2814SOL     OW19900   3.356   3.419  14.621  0.4857 -0.3910  0.0564
 2814SOL    HW119901   3.278   3.471  14.604  1.1589  1.2437  1.9935
 2814SOL    HW219902   3.320   3.333  14.600 -1.5751  1.1023 -2.4519
 2815SOL     OW19903   3.545   3.022   3.802  0.3664  0.1139 -0.1092
 2815SOL    HW119904   3.497   3.093   3.758 -0.0823 -0.7976 -1.0819
 2815SOL    HW219905   3.475   2.958   3.791  1.2373 -1.0392  1.0495
 2816SOL     OW19906   2.259   0.517   6.834  0.0773  0.5460 -0.3790
 2816SOL    HW119907   2.170   0.505   6.802 -0.8769 -0.9869  2.9023
 2816SOL    HW219908   2.241   0.585   6.899 -2.9299  1.2682 -1.9762
 2817SOL     OW19909   0.857   0.247   2.719 -0.2076  0.0784  0.1311
 2817SOL    HW119910   0.846   0.159   2.756  0.2911 -0.4574 -0.9988
 2817SOL    HW219911   0.811   0.304   2.781  0.8932  0.5483  0.5188
 2818SOL     OW19912   2.954   2.005   1.390  0.4614 -0.1561 -0.5542
 2818SOL    HW119913   2.933   2.048   1.308  1.5557  0.6688 -0.3983
 2818SOL    HW219914   2.881   2.032   1.446  0.2441 -0.2588 -0.7890
 2819SOL     OW19915   4.600   3.741  15.406  0.0139 -0.8434 -0.4897
 2819SOL    HW119916   4.591   3.825  15.451  1.4137 -0.2939 -1.2428
 2819SOL    HW219917   4.509   3.710  15.411  0.3069 -1.5659  0.4624
 2820SOL     OW19918   3.633   2.693  17.032 -0.2200  0.1391 -0.0553
 2820SOL    HW119919   3.683   2.730  17.106 -1.6909  1.4545  0.2940
 2820SOL    HW219920   3.647   2.750  16.956 -2.4670  1.6770  0.6772
 2821SOL     OW19921   2.262   1.953   7.288  0.1219  0.5891  0.1086
 2821SOL    HW119922   2.355   1.931   7.285 -0.2493 -0.7806 -1.7208
 2821SOL    HW219923   2.266   1.984   7.378 -2.3506 -2.0637  1.1245
 2822SOL     OW19924   4.594   4.092   2.134 -0.2982 -0.2355 -0.2867
 2822SOL    HW119925   4.530   4.157   2.165 -1.2285 -1.1959 -0.2193
 2822SOL    HW219926   4.600   4.039   2.214 -0.9363 -3.3167 -2.2913
 2823SOL     OW19927   2.185   0.029  15.717 -0.1350  0.1332  0.1000
 2823SOL    HW119928   2.090   0.027  15.713 -0.0015 -1.0752 -2.0379
 2823SOL    HW219929   2.199   0.118  15.685 -1.9962  0.2246 -0.4599
 2824SOL     OW19930   1.163   3.037   2.175  0.3488 -0.3805  0.1727
 2824SOL    HW119931   1.225   3.101   2.140  0.7666 -1.7627 -1.6828
 2824SOL    HW219932   1.187   2.961   2.122  0.8117 -0.8937  1.1147
 2825SOL     OW19933   4.307   1.314   5.702  0.6008 -0.1687 -0.5027
 2825SOL    HW119934   4.274   1.226   5.720  2.4502 -1.0416 -1.4079
 2825SOL    HW219935   4.304   1.294   5.609  0.8485 -0.4335 -0.4541
 2826SOL     OW19936   0.389   2.086   8.607 -0.7620 -0.0219 -0.2204
 2826SOL    HW119937   0.392   2.042   8.692 -0.4288  3.5052  1.6217
 2826SOL    HW219938   0.305   2.132   8.602  0.5987  2.5713  0.9019
 2827SOL     OW19939   4.661   1.060   9.949  0.0977  0.1151  0.1731
 2827SOL    HW119940   4.671   0.984  10.005 -0.3295  0.4427  0.6954
 2827SOL    HW219941   0.015   1.113   9.974 -0.7508  1.9504 -1.1480
 2828SOL     OW19942   1.290   2.426   5.141  0.0408  0.6368 -0.4420
 2828SOL    HW119943   1.278   2.474   5.059 -1.3369 -0.0737 -0.6614
 2828SOL    HW219944   1.205   2.442   5.183  0.1468 -1.7361  0.6680
 2829SOL     OW19945   0.899   2.127   6.302 -0.2083  0.1016  0.1706
 2829SOL    HW119946   0.902   2.031   6.306  3.6948  0.2346  0.2321
 2829SOL    HW219947   0.897   2.146   6.396 -1.4235 -0.0132  0.1719
 2830SOL     OW19948   3.541   2.564  12.441  0.5665 -0.2434 -0.4949
 2830SOL    HW119949   3.581   2.650  12.448  0.4175 -0.1692 -0.5529
 2830SOL    HW219950   3.452   2.586  12.470  2.1384  1.2979  3.1474
 2831SOL     OW19951   1.677   2.961  11.243 -0.2119 -0.0097  0.2271
 2831SOL    HW119952   1.604   2.912  11.206 -0.7379  0.5728  0.5021
 2831SOL    HW219953   1.688   3.023  11.171 -0.1101 -0.7545 -0.4040
 2832SOL     OW19954   1.965   0.672  10.215 -0.9653 -0.2150 -0.2638
 2832SOL    HW119955   2.009   0.593  10.185 -0.9153  0.1614 -1.1800
 2832SOL    HW219956   1.944   0.724  10.137 -0.4679 -0.0624 -0.2931
 2833SOL     OW19957   2.465   2.245   5.913 -0.5068  0.2571  0.1176
 2833SOL    HW119958   2.406   2.308   5.869 -0.6305 -0.3793 -0.6344
 2833SOL    HW219959   2.453   2.171   5.853  1.9264  0.1927 -0.2650
 2834SOL     OW19960   4.447   1.856   1.100  0.0939 -0.3591  0.1177
 2834SOL    HW119961   4.504   1.875   1.026  0.6846 -0.6807  0.4950
 2834SOL    HW219962   4.367   1.837   1.052  0.3874 -1.2170 -0.0229
 2835SOL     OW19963   0.177   2.793   7.453 -0.1817  0.3539 -0.2594
 2835SOL    HW119964   0.221   2.709   7.465  0.6363  0.8240  0.0610
 2835SOL    HW219965   0.215   2.836   7.530 -1.7280  0.6561  0.3337
 2836SOL     OW19966   1.071   4.249  15.564 -0.1717  0.2803  0.2581
 2836SOL    HW119967   1.057   4.229  15.471  0.0729 -0.0471  0.2937
 2836SOL    HW219968   0.990   4.228  15.610 -1.1232  1.2146 -0.9892
 2837SOL     OW19969   2.816   1.977   1.928  0.3920  0.0801 -0.4685
 2837SOL    HW119970   2.893   1.961   1.873  0.3754  1.4613 -0.9032
 2837SOL    HW219971   2.865   2.037   1.985  1.3496 -1.7196  0.6143
 2838SOL     OW19972   2.430   4.522   9.647  0.2416  0.0850 -0.2497
 2838SOL    HW119973   2.383   4.492   9.569  1.6308  1.2133 -1.5268
 2838SOL    HW219974   2.467   4.440   9.678  0.2313  0.3490  0.4714
 2839SOL     OW19975   3.501   2.739   0.046 -0.3518 -0.6507  0.5831
 2839SOL    HW119976   3.569   2.683   0.083 -0.9486 -2.8001 -1.5956
 2839SOL    HW219977   3.555   2.804   0.000 -3.0246  2.0502  1.2973
 2840SOL     OW19978   3.439   1.213  17.365  0.5235 -0.8479  0.1450
 2840SOL    HW119979   3.452   1.169  17.449 -1.8555  0.8743  1.4335
 2840SOL    HW219980   3.346   1.236  17.364  0.3779 -1.3162  2.1710
 2841SOL     OW19981   2.947   4.559  14.004  0.4476  0.1849  0.0092
 2841SOL    HW119982   2.908   4.597  14.083 -1.0228 -2.4562  0.5307
 2841SOL    HW219983   2.876   4.519  13.954 -0.5554  0.8112  0.9207
 2842SOL     OW19984   2.464   3.492  15.170 -0.1144  0.3363  0.5766
 2842SOL    HW119985   2.436   3.413  15.123 -4.0131  0.1940  3.0713
 2842SOL    HW219986   2.557   3.471  15.169 -0.2714 -0.4226  1.4995
 2843SOL     OW19987   0.675   3.913   8.302  0.0279 -0.0861  0.4001
 2843SOL    HW119988   0.745   3.894   8.240  0.9210 -1.3461  1.8131
 2843SOL    HW219989   0.589   3.920   8.259  0.1604 -0.5534  0.0648
 2844SOL     OW19990   2.538   1.787   5.082 -0.1332  0.2565 -0.8543
 2844SOL    HW119991   2.609   1.727   5.104 -0.2299  0.4748  0.0696
 2844SOL    HW219992   2.578   1.868   5.115  0.3920  0.2603 -1.5102
 2845SOL     OW19993   2.475   0.268   5.342  0.0920 -0.1152 -0.4831
 2845SOL    HW119994   2.464   0.281   5.248  0.7078 -0.9320 -0.6642
 2845SOL    HW219995   2.520   0.184   5.348 -1.4469 -0.7508  2.0231
 2846SOL     OW19996   2.516   1.710   3.652  0.0815  0.6000 -0.4200
 2846SOL    HW119997   2.529   1.784   3.593  0.7962 -0.0116 -1.0348
 2846SOL    HW219998   2.558   1.731   3.735 -0.5022  0.2740 -0.0422
 2847SOL     OW19999   2.699   4.116   8.653  0.2630 -0.2529 -0.0473
 2847SOL    HW120000   2.691   4.057   8.728  0.3990 -1.5641 -1.0562
 2847SOL    HW220001   2.611   4.110   8.616  1.3038  1.4805 -2.7829
 2848SOL     OW20002   2.609   3.097   8.674 -0.2152  0.1709  0.4194
 2848SOL    HW120003   2.634   3.116   8.583  0.2070  2.8184  1.0798
 2848SOL    HW220004   2.603   3.002   8.674  0.3200  0.1379  3.2171
 2849SOL     OW20005   3.373   1.728  12.866 -1.0386  0.1353 -0.5470
 2849SOL    HW120006   3.370   1.726  12.770  0.8752 -1.7776 -0.5584
 2849SOL    HW220007   3.319   1.807  12.875 -0.7079  0.0681  2.0221
 2850SOL     OW20008   0.640   4.381  14.040 -0.7771 -0.0703 -0.0682
 2850SOL    HW120009   0.661   4.469  14.072 -1.1941  0.3743 -1.0090
 2850SOL    HW220010   0.640   4.391  13.945  2.1294  2.6753  0.2265
 2851SOL     OW20011   1.005   4.406   9.024 -0.0053  0.4526 -0.1514
 2851SOL    HW120012   1.058   4.444   9.094 -0.6975  1.1397  0.0063
 2851SOL    HW220013   1.013   4.312   9.036 -1.5561  0.2961 -0.2331
 2852SOL     OW20014   0.193   0.611  16.958  0.7610  0.0694 -0.5296
 2852SOL    HW120015   0.238   0.692  16.983 -0.2663  1.0842 -1.9761
 2852SOL    HW220016   0.197   0.557  17.037 -1.3888  1.2688  0.3994
 2853SOL     OW20017   2.975   0.400   3.393 -0.4876 -0.2528 -0.8712
 2853SOL    HW120018   3.064   0.367   3.379  1.1663  3.8114  0.0506
 2853SOL    HW220019   2.981   0.417   3.487 -1.8485  0.8535 -0.9847
 2854SOL     OW20020   1.569   0.384   3.196 -0.2346 -0.2905  0.7521
 2854SOL    HW120021   1.608   0.344   3.118 -1.7469  0.3300 -0.3213
 2854SOL    HW220022   1.649   0.381   3.248 -0.2365  0.7379  0.8143
 2855SOL     OW20023   0.307   2.755   7.034 -0.1903  0.0836 -0.1027
 2855SOL    HW120024   0.291   2.697   6.960  1.9594  0.0729 -0.5619
 2855SOL    HW220025   0.401   2.760   7.020  0.1687 -0.1089  2.1369
 2856SOL     OW20026   1.292   1.498   6.268 -0.0080 -0.3047  0.0427
 2856SOL    HW120027   1.343   1.418   6.264  0.2634 -0.1128 -0.3366
 2856SOL    HW220028   1.301   1.549   6.187  0.5174 -2.6057 -1.3493
 2857SOL     OW20029   3.378   2.429   7.046 -0.1932  0.2411  0.6280
 2857SOL    HW120030   3.441   2.499   7.029  0.5072 -0.2131  1.3398
 2857SOL    HW220031   3.433   2.366   7.094 -0.9599 -0.7946  0.1442
 2858SOL     OW20032   3.155   1.151   4.374  0.1782 -0.6549  0.3767
 2858SOL    HW120033   3.082   1.089   4.372 -0.5871  0.1903  1.9996
 2858SOL    HW220034   3.115   1.210   4.438  1.4311  0.1823  0.3810
 2859SOL     OW20035   1.905   1.440   7.495 -0.0219 -0.9767 -0.0116
 2859SOL    HW120036   1.966   1.436   7.421  0.8053 -1.6413  0.7048
 2859SOL    HW220037   1.859   1.357   7.486  1.2934 -1.5709 -1.2835
 2860SOL     OW20038   1.703   4.435   2.493  0.6684 -0.4292  0.3483
 2860SOL    HW120039   1.635   4.391   2.442  2.1800  0.5602 -2.4983
 2860SOL    HW220040   1.708   4.525   2.461 -2.9191  0.1530  1.3944
 2861SOL     OW20041   0.457   4.616  10.574 -0.2527 -0.0140 -0.6161
 2861SOL    HW120042   0.463   4.603  10.669  1.4550 -0.7958 -0.8306
 2861SOL    HW220043   0.384   4.677  10.561 -2.1519 -1.9302  0.9933
 2862SOL     OW20044   4.208   2.470   3.765  0.1265 -0.0132 -0.4622
 2862SOL    HW120045   4.153   2.405   3.808  0.1894 -0.7977 -1.5866
 2862SOL    HW220046   4.213   2.420   3.684  2.1233 -0.6289  0.0460
 2863SOL     OW20047   1.227   4.424   5.865 -0.2371  0.0827  0.3470
 2863SOL    HW120048   1.174   4.396   5.790 -1.6943  2.3333  0.5390
 2863SOL    HW220049   1.175   4.490   5.909 -0.2836  0.9100 -0.9429
 2864SOL     OW20050   1.597   2.066   2.857  0.3254 -0.2326  0.3950
 2864SOL    HW120051   1.679   2.116   2.857 -1.0244  2.0089  1.4038
 2864SOL    HW220052   1.573   2.060   2.764 -1.5002  2.0324  0.6927
 2865SOL     OW20053   4.471   1.975   8.732  0.1421  0.2748 -0.2089
 2865SOL    HW120054   4.418   1.954   8.655 -1.3131  1.9051  0.3720
 2865SOL    HW220055   4.450   1.899   8.786  2.6342  0.7044  1.3379
 2866SOL     OW20056   3.182   2.075   1.503  0.0862 -0.3690  0.4799
 2866SOL    HW120057   3.163   2.167   1.481 -0.7822 -0.1972  1.9395
 2866SOL    HW220058   3.109   2.036   1.456 -2.0591  1.8104  2.0533
 2867SOL     OW20059   1.243   1.449   4.955  0.3624 -0.0159 -0.3780
 2867SOL    HW120060   1.285   1.457   4.869 -0.5256 -0.6150 -0.8722
 2867SOL    HW220061   1.267   1.358   4.974  1.2637  0.8696  2.5931
 2868SOL     OW20062   4.352   2.682   8.363  0.3082 -0.5889  0.0365
 2868SOL    HW120063   4.441   2.679   8.328  0.0581 -0.9802 -0.5782
 2868SOL    HW220064   4.340   2.591   8.389  1.0536 -0.2255  1.5916
 2869SOL     OW20065   0.705   3.392  11.646  0.1838 -0.0471 -0.6897
 2869SOL    HW120066   0.666   3.453  11.709  1.1302 -1.4153  1.1842
 2869SOL    HW220067   0.763   3.460  11.612  1.8473 -1.7346 -1.2461
 2870SOL     OW20068   0.578   4.016   4.225  0.3369  0.3021  0.9135
 2870SOL    HW120069   0.538   3.955   4.164 -0.5103  0.6235  1.1508
 2870SOL    HW220070   0.633   3.945   4.259 -2.4512 -1.6016  1.3701
 2871SOL     OW20071   3.010   4.099   6.553 -0.5016 -0.0424 -0.3681
 2871SOL    HW120072   3.022   4.017   6.504  0.7231  0.2307 -0.5371
 2871SOL    HW220073   3.097   4.138   6.539  0.1121 -0.6990  1.6774
 2872SOL     OW20074   3.224   2.105  12.103 -0.0025  0.3382  0.0237
 2872SOL    HW120075   3.254   2.130  12.191  0.0675  2.1759 -0.5158
 2872SOL    HW220076   3.149   2.047  12.114 -0.4946  0.5980 -2.0430
 2873SOL     OW20077   0.085   1.038   2.511  0.2292 -0.1581  0.1004
 2873SOL    HW120078   0.067   1.127   2.483  0.5980 -0.0672  0.1538
 2873SOL    HW220079   0.132   0.999   2.437 -1.6220 -0.8295 -0.7059
 2874SOL     OW20080   1.398   1.954   4.705 -0.1298  0.0110  0.6031
 2874SOL    HW120081   1.475   1.903   4.679  0.1480  0.4869  0.4847
 2874SOL    HW220082   1.367   1.987   4.620 -1.3348 -3.0492 -0.1498
 2875SOL     OW20083   2.325   2.339  16.195  0.3327 -0.1882 -0.6599
 2875SOL    HW120084   2.418   2.317  16.190  0.3093 -0.3629 -0.3255
 2875SOL    HW220085   2.296   2.248  16.206  0.6274 -0.1967  0.0406
 2876SOL     OW20086   0.676   3.454   1.223  0.4956 -0.1451  0.5089
 2876SOL    HW120087   0.720   3.429   1.305 -0.5645 -1.5107  0.6741
 2876SOL    HW220088   0.727   3.398   1.165 -0.2421 -0.4601  0.1688
 2877SOL     OW20089   3.400   3.709   7.387 -0.5104 -0.0207  0.2134
 2877SOL    HW120090   3.409   3.781   7.450  0.1397 -0.0631  0.1749
 2877SOL    HW220091   3.389   3.754   7.303  3.3036  0.1308 -0.2184
 2878SOL     OW20092   1.086   1.404   3.995 -0.0685  0.9417  0.6587
 2878SOL    HW120093   1.018   1.372   4.054  1.0924  1.0335  2.0409
 2878SOL    HW220094   1.091   1.333   3.931 -3.0182 -0.1315  1.6407
 2879SOL     OW20095   1.695   4.395   7.380  0.0689  0.0939 -0.8422
 2879SOL    HW120096   1.694   4.490   7.384 -2.8121  0.0038  0.4864
 2879SOL    HW220097   1.769   4.381   7.321  1.0532 -1.5347  0.7808
 2880SOL     OW20098   2.437   0.590   3.814  0.1491  0.0334 -0.1551
 2880SOL    HW120099   2.524   0.628   3.820  0.2377 -0.4036  1.4752
 2880SOL    HW220100   2.400   0.672   3.782  1.7039  1.1536  0.9473
 2881SOL     OW20101   3.203   0.680   9.498 -0.5213  0.3430  0.3253
 2881SOL    HW120102   3.226   0.653   9.409 -0.1774 -1.5182  0.9863
 2881SOL    HW220103   3.285   0.701   9.543  0.3867  0.9857 -1.6189
 2882SOL     OW20104   4.510   1.403   8.608 -0.1379 -0.0409  0.0751
 2882SOL    HW120105   4.573   1.467   8.641 -2.3624  1.8318  0.6590
 2882SOL    HW220106   4.555   1.320   8.626 -1.3099 -0.7471 -0.2474
 2883SOL     OW20107   1.100   0.275   6.635  0.6271  0.4614 -0.2358
 2883SOL    HW120108   1.015   0.267   6.678  0.6603 -1.1775 -0.4545
 2883SOL    HW220109   1.086   0.254   6.543  0.5580  0.7237 -0.2837
 2884SOL     OW20110   2.495   0.980   5.966  0.1013  0.0675 -0.1798
 2884SOL    HW120111   2.433   0.912   5.993 -1.2475  0.9115 -1.1464
 2884SOL    HW220112   2.449   1.063   5.979  2.2849  1.6663 -2.5043
 2885SOL     OW20113   2.392   4.494   6.090  0.3581 -0.4860 -0.2800
 2885SOL    HW120114   2.429   4.422   6.038 -0.8900 -1.0000 -0.4507
 2885SOL    HW220115   2.406   4.558   6.020  2.1373  0.9550  1.4077
 2886SOL     OW20116   2.119   2.254   0.978 -0.2342  0.3009  0.2889
 2886SOL    HW120117   2.056   2.309   0.931 -0.7909 -0.7910 -0.2487
 2886SOL    HW220118   2.163   2.217   0.902  0.2525  0.1868  0.6299
 2887SOL     OW20119   0.635   2.739   1.533  0.2678  0.4678 -0.4568
 2887SOL    HW120120   0.727   2.718   1.548  1.0043  1.9248 -2.9564
 2887SOL    HW220121   0.583   2.682   1.590  1.4020 -0.0427  0.0827
 2888SOL     OW20122   4.617   3.292   5.194  0.2643  0.4167 -0.1241
 2888SOL    HW120123   4.603   3.344   5.115 -1.6613 -0.6436 -0.4600
 2888SOL    HW220124   4.531   3.250   5.202  0.3843  0.4664  1.4200
 2889SOL     OW20125   0.597   2.253   2.383 -0.0191 -0.1466  0.3806
 2889SOL    HW120126   0.624   2.186   2.320  0.3886 -0.4371  0.8619
 2889SOL    HW220127   0.645   2.329   2.350  1.7247 -1.4383 -0.0783
 2890SOL     OW20128   2.529   1.766   6.258 -0.0407  0.1582  0.3136
 2890SOL    HW120129   2.603   1.747   6.315 -2.1018 -1.1366  2.5400
 2890SOL    HW220130   2.498   1.676   6.246  1.1619 -0.2259  0.1052
 2891SOL     OW20131   3.558   0.392   3.245 -0.4615 -0.4415  0.1308
 2891SOL    HW120132   3.555   0.479   3.205 -0.4781 -1.3483 -1.8542
 2891SOL    HW220133   3.613   0.328   3.201  0.6337  0.6611 -0.0993
 2892SOL     OW20134   2.717   0.668   2.810  0.5157  0.2469 -0.0360
 2892SOL    HW120135   2.804   0.674   2.771  0.8278 -1.8751  0.3392
 2892SOL    HW220136   2.707   0.578   2.841 -0.8210  0.1350 -0.7951
 2893SOL     OW20137   0.822   2.366  17.031 -0.5445  0.3174  0.0287
 2893SOL    HW120138   0.798   2.413  16.951  0.7002  1.5413  0.3730
 2893SOL    HW220139   0.893   2.309  17.003  0.5363  1.5687  0.2490
 2894SOL     OW20140   0.924   2.566   6.816 -0.1713  0.0975  0.2787
 2894SOL    HW120141   1.009   2.610   6.812  0.5158 -1.3965 -1.1240
 2894SOL    HW220142   0.858   2.632   6.793  1.2611  1.0297 -1.1275
 2895SOL     OW20143   0.640   0.999  10.770 -0.9435 -0.1434 -1.0537
 2895SOL    HW120144   0.563   1.008  10.825 -1.3338  1.5669 -1.8697
 2895SOL    HW220145   0.714   1.017  10.828  0.8528 -1.0357 -3.0759
 2896SOL     OW20146   0.522   2.099  10.616 -0.1735 -0.7649 -0.5134
 2896SOL    HW120147   0.527   2.024  10.676  0.6736 -0.6318 -0.4202
 2896SOL    HW220148   0.474   2.057  10.545  1.1536 -0.8662 -1.3500
 2897SOL     OW20149   3.979   3.143   7.616 -0.0213 -0.2706  0.4232
 2897SOL    HW120150   4.034   3.221   7.619 -0.3387 -0.0566  0.6872
 2897SOL    HW220151   4.030   3.062   7.612  3.2809  1.9446 -2.2284
 2898SOL     OW20152   2.808   3.706   3.022  0.2129 -0.1140 -0.4021
 2898SOL    HW120153   2.775   3.748   2.942 -2.6727  0.3734  1.0155
 2898SOL    HW220154   2.903   3.704   3.018  0.2851 -0.4260  2.0228
 2899SOL     OW20155   4.695   2.173  12.991  0.0217  0.3429  0.1726
 2899SOL    HW120156   4.616   2.143  13.036  0.1794  0.6890  0.6832
 2899SOL    HW220157   4.692   2.268  12.982  0.1733  0.3055 -0.2827
 2900SOL     OW20158   0.427   4.701   7.742 -0.4840 -0.4848  0.1109
 2900SOL    HW120159   0.515   4.684   7.776 -0.6366 -0.6553  0.4240
 2900SOL    HW220160   0.387   0.017   7.821  2.0271 -0.8118  1.5323
 2901SOL     OW20161   1.788   1.180   0.108 -0.0935 -0.3020  0.2958
 2901SOL    HW120162   1.750   1.193   0.195 -3.0806 -3.3446 -0.5713
 2901SOL    HW220163   1.721   1.145   0.050 -1.3947 -0.0578  1.6704
 2902SOL     OW20164   2.479   2.066   2.670 -0.1486  0.6161  0.2009
 2902SOL    HW120165   2.436   2.141   2.711  1.4808  2.0467 -0.7448
 2902SOL    HW220166   2.514   2.113   2.595 -1.7478  0.2731 -0.7633
 2903SOL     OW20167   0.081   3.733   0.770 -0.2215 -0.4375 -0.5193
 2903SOL    HW120168   0.033   3.816   0.763 -0.6558 -0.4087  2.7345
 2903SOL    HW220169   0.128   3.757   0.849 -2.0111  1.0770  0.1039
 2904SOL     OW20170   3.349   1.344   6.227 -0.3702 -0.7194  0.5872
 2904SOL    HW120171   3.415   1.304   6.284  1.6745  0.3429 -1.0528
 2904SOL    HW220172   3.356   1.435   6.253 -0.7193 -0.1725 -1.2334
 2905SOL     OW20173   2.661   0.066   6.320 -0.2074 -0.1623  0.3376
 2905SOL    HW120174   2.655   0.129   6.392 -3.7556 -0.1341 -0.0187
 2905SOL    HW220175   2.681   0.118   6.243 -0.1199  0.1650  0.5829
 2906SOL     OW20176   1.779   3.849  10.325  0.2858 -0.0839 -0.4768
 2906SOL    HW120177   1.800   3.938  10.296  0.9955 -0.5563 -1.4333
 2906SOL    HW220178   1.692   3.863  10.363  0.9608 -0.8268  1.3011
 2907SOL     OW20179   4.239   0.299   7.219 -0.4252  0.6124  0.1291
 2907SOL    HW120180   4.207   0.211   7.239  0.3041  0.3459  0.1260
 2907SOL    HW220181   4.318   0.311   7.272 -0.9892  2.0993  0.6391
 2908SOL     OW20182   4.143   1.614   6.637  0.4638  0.5642  0.5425
 2908SOL    HW120183   4.184   1.695   6.670  2.0763  0.5708 -1.4089
 2908SOL    HW220184   4.069   1.593   6.693  1.2976 -3.4463  0.0871
 2909SOL     OW20185   3.774   3.815   2.535 -0.3746 -0.2242  0.4110
 2909SOL    HW120186   3.729   3.852   2.611 -0.9729  0.0180 -0.0643
 2909SOL    HW220187   3.702   3.809   2.472  1.3444  3.5362 -1.8778
 2910SOL     OW20188   1.184   1.726   5.945  0.0650 -0.2757 -0.1087
 2910SOL    HW120189   1.237   1.725   5.866  1.6768 -1.8596  1.0089
 2910SOL    HW220190   1.233   1.758   6.020 -1.2538  2.1863 -0.2761
 2911SOL     OW20191   0.681   2.426  14.895 -0.3250 -0.4967  0.7495
 2911SOL    HW120192   0.770   2.435  14.931 -0.4006 -0.8278  1.0125
 2911SOL    HW220193   0.629   2.491  14.942  0.8131  1.3243 -0.4629
 2912SOL     OW20194   1.471   1.965   8.987 -0.0822  0.2494 -0.0618
 2912SOL    HW120195   1.383   1.952   8.950  0.7347  0.3100 -2.0143
 2912SOL    HW220196   1.505   2.036   8.932  0.3749  0.4884  0.5308
 2913SOL     OW20197   1.356   4.024  12.048 -0.1025 -0.7970 -0.8573
 2913SOL    HW120198   1.280   3.979  12.012 -0.9753  2.5585 -3.1492
 2913SOL    HW220199   1.319   4.100  12.093  0.3067  0.0433 -1.9479
 2914SOL     OW20200   3.797   2.822   8.822 -0.8129 -0.4188  0.0502
 2914SOL    HW120201   3.838   2.736   8.832 -2.4237 -0.9574  2.0477
 2914SOL    HW220202   3.737   2.825   8.897 -0.3601  2.5049  0.2929
 2915SOL     OW20203   2.501   3.285   5.927 -0.6672 -0.1947  0.5208
 2915SOL    HW120204   2.446   3.359   5.954 -1.1234 -0.7101  1.0102
 2915SOL    HW220205   2.565   3.287   5.998  0.8432  1.1673 -0.8949
 2916SOL     OW20206   3.892   3.005  13.075  0.3591  0.5869  0.2405
 2916SOL    HW120207   3.817   3.001  13.134 -0.1360  1.1664 -0.3545
 2916SOL    HW220208   3.941   3.065  13.131  0.0956  0.6698  0.3767
 2917SOL     OW20209   4.622   4.247   1.920 -0.4394 -0.2495  0.1935
 2917SOL    HW120210   4.546   4.305   1.933 -1.0604 -0.4901 -2.4268
 2917SOL    HW220211   4.605   4.181   1.987 -0.0179 -0.8527 -0.3045
 2918SOL     OW20212   3.912   0.250  13.932 -0.5304  0.5254 -0.5926
 2918SOL    HW120213   3.926   0.301  13.852 -0.0306 -0.3573 -1.0678
 2918SOL    HW220214   3.984   0.288  13.982  0.1386 -2.4495  0.7274
 2919SOL     OW20215   0.825   3.538   8.072  0.4688  0.4202 -0.8211
 2919SOL    HW120216   0.777   3.471   8.023 -2.3479  1.1756  0.9510
 2919SOL    HW220217   0.915   3.514   8.050  0.0227 -0.1102 -2.0849
 2920SOL     OW20218   2.155   2.908   0.853  0.2917  0.6619  0.3305
 2920SOL    HW120219   2.176   3.001   0.860  0.2491  0.8124 -1.7620
 2920SOL    HW220220   2.095   2.908   0.779 -1.0444 -0.7673  1.4022
 2921SOL     OW20221   1.505   3.544   5.859  0.1973  0.1155  0.3641
 2921SOL    HW120222   1.598   3.525   5.872  0.1894  0.3135  0.7336
 2921SOL    HW220223   1.476   3.458   5.830  0.0878 -0.3677  1.8786
 2922SOL     OW20224   1.013   3.717  17.537 -0.9111 -0.4738 -0.3168
 2922SOL    HW120225   1.041   3.792  17.589 -2.5173 -1.7791  2.4092
 2922SOL    HW220226   1.093   3.683  17.497  0.6551  1.4988  1.1293
 2923SOL     OW20227   1.149   1.410  10.806  0.6771  0.6994 -0.6894
 2923SOL    HW120228   1.127   1.496  10.841 -1.7315 -0.3041  0.2933
 2923SOL    HW220229   1.172   1.417  10.713  1.7516 -0.4059 -0.5058
 2924SOL     OW20230   0.358   1.876   3.062  0.7903 -0.5557 -0.3597
 2924SOL    HW120231   0.308   1.797   3.084  2.1707 -1.5565 -0.7775
 2924SOL    HW220232   0.445   1.844   3.086  2.5901  3.2435 -1.8986
 2925SOL     OW20233   1.736   3.715  15.479  0.4088 -0.0346 -0.1697
 2925SOL    HW120234   1.796   3.699  15.406  0.6709 -1.8495  0.4404
 2925SOL    HW220235   1.719   3.809  15.466 -0.7637 -0.2371 -0.0583
 2926SOL     OW20236   0.183   4.328   7.499 -0.1516 -0.3262 -0.8698
 2926SOL    HW120237   0.266   4.291   7.530  0.1775  1.1207  0.0023
 2926SOL    HW220238   0.192   4.420   7.523 -3.6286 -0.6413  1.6368
 2927SOL     OW20239   4.368   1.195   8.212 -0.2686 -0.0044  0.2703
 2927SOL    HW120240   4.397   1.261   8.275  0.7545  0.4238 -0.6522
 2927SOL    HW220241   4.420   1.224   8.137  0.9038  2.7171  2.0919
 2928SOL     OW20242   2.968   1.622   8.948 -0.0493  0.5709  0.1371
 2928SOL    HW120243   2.874   1.610   8.933  0.2208 -0.7458 -0.5539
 2928SOL    HW220244   2.975   1.620   9.043 -3.3979  0.6198  0.3889
 2929SOL     OW20245   4.474   0.284  10.674 -0.1034 -0.0293  0.0574
 2929SOL    HW120246   4.559   0.247  10.651  0.3205  3.0345 -3.2280
 2929SOL    HW220247   4.440   0.203  10.713  0.0697  0.1560  0.6028
 2930SOL     OW20248   2.832   3.724   6.375  0.3104  0.4222  0.1802
 2930SOL    HW120249   2.785   3.741   6.293  1.0252 -0.3143 -0.3736
 2930SOL    HW220250   2.822   3.806   6.423 -0.9604 -0.5508  1.5893
 2931SOL     OW20251   3.852   1.624   0.857 -0.7297  0.2202 -0.4868
 2931SOL    HW120252   3.761   1.618   0.830  0.4881 -1.8416 -4.0016
 2931SOL    HW220253   3.852   1.718   0.878  1.5457 -0.3570  2.2387
 2932SOL     OW20254   3.725   4.286   1.243 -0.3522  0.0975 -0.1031
 2932SOL    HW120255   3.780   4.214   1.213  1.4350  3.0097 -3.7355
 2932SOL    HW220256   3.788   4.339   1.291 -0.2520 -1.9024  1.9741
 2933SOL     OW20257   1.656   2.449   4.616 -0.5003 -0.0543 -0.0798
 2933SOL    HW120258   1.608   2.415   4.691  2.6853 -2.2127  1.0245
 2933SOL    HW220259   1.742   2.406   4.622  0.3481  1.7113  0.4420
 2934SOL     OW20260   2.399   0.390   6.635 -0.2422  0.0877  0.0084
 2934SOL    HW120261   2.342   0.359   6.565  2.3001 -0.9643 -1.5938
 2934SOL    HW220262   2.344   0.441   6.695  1.3021  1.1718  0.5011
 2935SOL     OW20263   0.330   0.669   3.035 -0.1803  0.1494 -1.2161
 2935SOL    HW120264   0.371   0.750   3.065  0.1683  0.0246 -1.3498
 2935SOL    HW220265   0.403   0.607   3.040 -0.8552 -0.5142  0.3171
 2936SOL     OW20266   0.337   0.256   2.034  0.4496 -0.1544  0.3382
 2936SOL    HW120267   0.424   0.216   2.022 -0.2511 -1.3400 -0.7695
 2936SOL    HW220268   0.285   0.222   1.962  2.5267 -1.3936 -0.5871
 2937SOL     OW20269   3.636   0.799   6.426 -0.5499  0.6118 -0.1527
 2937SOL    HW120270   3.702   0.735   6.450 -0.6487  1.0452  1.2545
 2937SOL    HW220271   3.606   0.760   6.343  0.6485 -0.8734  0.1199
 2938SOL     OW20272   3.641   2.980   6.996 -0.3629 -0.0207 -1.2028
 2938SOL    HW120273   3.580   2.993   6.923 -2.0330 -0.3350  0.1509
 2938SOL    HW220274   3.649   3.073   7.017 -2.2642 -0.2462  0.5073
 2939SOL     OW20275   4.456   0.058  12.233  0.1474 -0.0015 -0.4820
 2939SOL    HW120276   4.519   0.099  12.174 -0.9100  1.0880 -0.8574
 2939SOL    HW220277   4.375   0.069  12.182  0.4516  0.5444 -0.8529
 2940SOL     OW20278   2.360   4.647  12.378  0.3619 -0.6197  0.4140
 2940SOL    HW120279   2.339   4.637  12.471  2.0175 -0.7966  0.7599
 2940SOL    HW220280   2.395   4.562  12.351 -0.4247 -1.1801  1.1692
 2941SOL     OW20281   0.559   2.293   4.561 -0.3463 -0.3645 -0.4331
 2941SOL    HW120282   0.634   2.289   4.502  0.8068  1.4082  0.9218
 2941SOL    HW220283   0.575   2.385   4.583  1.4746 -0.3706 -1.6997
 2942SOL     OW20284   3.901   1.355   7.683 -0.1796  0.6552  1.0367
 2942SOL    HW120285   3.883   1.354   7.777  2.0338  2.1088  1.4882
 2942SOL    HW220286   3.828   1.309   7.642 -0.1585  0.7295  0.9160
 2943SOL     OW20287   1.558   3.871   0.208 -0.1714 -0.5035  0.1641
 2943SOL    HW120288   1.594   3.924   0.279 -0.5966 -1.6443  1.2327
 2943SOL    HW220289   1.591   3.783   0.225 -0.7329 -0.7905 -0.2244
 2944SOL     OW20290   4.720   1.765   8.455 -0.0887 -0.0613 -0.1852
 2944SOL    HW120291   0.068   1.742   8.393 -0.2125  0.0227 -0.3550
 2944SOL    HW220292   4.635   1.765   8.410 -0.1199 -2.7431 -0.1175
 2945SOL     OW20293   0.321   3.858   0.231  0.0466  0.8374 -0.1599
 2945SOL    HW120294   0.356   3.840   0.318  0.2506 -1.2998 -0.6815
 2945SOL    HW220295   0.393   3.913   0.201  1.1647 -0.4712  0.1160
 2946SOL     OW20296   4.137   2.624   7.460  0.2497 -0.1071  0.6698
 2946SOL    HW120297   4.093   2.604   7.378 -0.4927  0.5768  0.9074
 2946SOL    HW220298   4.207   2.681   7.427 -0.5731  0.7712  0.4723
 2947SOL     OW20299   2.919   4.181   4.062 -0.3244 -0.3767 -0.0456
 2947SOL    HW120300   2.923   4.267   4.019 -0.9423 -0.3961 -0.1294
 2947SOL    HW220301   2.890   4.207   4.149  1.1478  0.0915  0.3073
 2948SOL     OW20302   0.613   3.971   2.722  0.2522  0.5557 -0.2096
 2948SOL    HW120303   0.546   4.027   2.761  0.7599 -0.6546  2.3819
 2948SOL    HW220304   0.642   4.042   2.664 -0.4663  2.2096  1.4563
 2949SOL     OW20305   4.720   2.483   4.504 -0.3321  0.0265 -0.1774
 2949SOL    HW120306   4.702   2.511   4.414 -2.5895  0.2561  0.3565
 2949SOL    HW220307   4.640   2.432   4.515 -1.5113  1.7114 -0.9529
 2950SOL     OW20308   2.701   2.196   1.811  0.1297 -0.3037 -0.1650
 2950SOL    HW120309   2.754   2.250   1.869 -0.0364  1.2820 -1.5054
 2950SOL    HW220310   2.724   2.108   1.843 -1.1999 -0.0151  1.5838
 2951SOL     OW20311   1.955   0.545  16.898  0.4813  0.1475 -0.7290
 2951SOL    HW120312   1.878   0.490  16.918  1.3387 -0.9495 -0.4583
 2951SOL    HW220313   2.032   0.489  16.892  0.2106 -0.2923 -0.1322
 2952SOL     OW20314   3.115   2.302  14.746  0.1334  0.0907 -0.1164
 2952SOL    HW120315   3.114   2.363  14.672  2.1988  1.2531  0.8099
 2952SOL    HW220316   3.109   2.217  14.704 -1.0553  0.1927 -0.1595
 2953SOL     OW20317   0.760   2.448   2.271 -0.0435  0.2375  0.5275
 2953SOL    HW120318   0.786   2.524   2.323  0.3510  0.0338  0.6229
 2953SOL    HW220319   0.847   2.415   2.251  1.6729  3.1382  3.1633
 2954SOL     OW20320   1.180   0.948  13.755 -0.2011  0.3840 -0.5372
 2954SOL    HW120321   1.200   1.007  13.827 -0.1579 -1.5918  1.0495
 2954SOL    HW220322   1.225   0.872  13.791 -0.7711 -0.1533 -0.9684
 2955SOL     OW20323   4.400   3.489   3.190  0.1773 -0.1294  0.6544
 2955SOL    HW120324   4.358   3.449   3.114  1.5348  1.7195 -1.0844
 2955SOL    HW220325   4.439   3.417   3.240  0.3597  0.4198  1.3164
 2956SOL     OW20326   2.969   1.315   2.593  0.3568 -0.7043 -0.8568
 2956SOL    HW120327   2.999   1.319   2.683 -0.9905 -0.5643 -0.4198
 2956SOL    HW220328   2.938   1.225   2.592  0.2331 -0.6658  0.4197
 2957SOL     OW20329   1.626   3.068  15.335 -0.2864  0.0783 -0.1629
 2957SOL    HW120330   1.682   2.991  15.346  1.5751  1.2923 -1.1909
 2957SOL    HW220331   1.657   3.129  15.402  0.0334 -0.6639  0.3686
 2958SOL     OW20332   4.403   1.938   6.130 -0.5872 -0.6651  0.2675
 2958SOL    HW120333   4.449   1.976   6.056  0.1148  0.4687  1.2985
 2958SOL    HW220334   4.329   1.899   6.083 -1.0646 -1.0785  1.3469
 2959SOL     OW20335   3.654   4.649   6.336  0.5570 -0.4824  0.1878
 2959SOL    HW120336   3.745   4.625   6.349  0.6583 -1.3581 -2.1202
 2959SOL    HW220337   3.609   4.565   6.346 -1.8892  0.9027  0.9351
 2960SOL     OW20338   4.297   0.497  12.982  0.3173  0.3779  0.6649
 2960SOL    HW120339   4.271   0.503  13.074 -0.0509  1.6965  0.4736
 2960SOL    HW220340   4.328   0.407  12.968  0.1217  0.1830  1.4750
 2961SOL     OW20341   3.807   1.363  10.546 -0.2197  0.0549 -0.0572
 2961SOL    HW120342   3.753   1.329  10.617  1.0660 -0.5705  0.5961
 2961SOL    HW220343   3.738   1.385  10.483 -0.3873 -1.0401 -0.2429
 2962SOL     OW20344   2.592   2.124  16.829  0.6879 -0.2532  0.3914
 2962SOL    HW120345   2.559   2.034  16.822  0.5147 -0.0947 -0.8531
 2962SOL    HW220346   2.602   2.126  16.924 -1.3684 -0.3295  0.6236
 2963SOL     OW20347   4.215   0.542  13.227 -0.1890 -0.1154  0.2435
 2963SOL    HW120348   4.222   0.486  13.305 -0.3977 -0.3980  0.0598
 2963SOL    HW220349   4.197   0.632  13.254  0.1044 -0.2512  0.8893
 2964SOL     OW20350   2.738   3.064   2.658 -0.5250 -0.4829 -0.0190
 2964SOL    HW120351   2.666   3.126   2.648 -0.4640  0.0752  2.8503
 2964SOL    HW220352   2.690   2.985   2.636 -0.1776 -0.7125  0.0437
 2965SOL     OW20353   0.399   3.262   6.718  0.1028  0.2649  0.1071
 2965SOL    HW120354   0.411   3.356   6.729 -0.0835  0.1567  1.2754
 2965SOL    HW220355   0.406   3.228   6.807 -1.5904 -0.4693 -0.0461
 2966SOL     OW20356   2.294   2.824   9.736  0.1561 -0.1862  0.0957
 2966SOL    HW120357   2.257   2.877   9.665  0.8452 -1.8128 -1.4710
 2966SOL    HW220358   2.313   2.888   9.805 -0.9678  1.3030 -0.9848
 2967SOL     OW20359   4.195   1.682   4.048 -0.5598  0.6612  0.8186
 2967SOL    HW120360   4.183   1.699   4.141  1.2292 -2.5538  1.6153
 2967SOL    HW220361   4.290   1.683   4.035 -0.7648 -0.8256 -0.8549
 2968SOL     OW20362   3.007   3.955  12.682  0.7161  0.0914 -0.2010
 2968SOL    HW120363   2.983   4.015  12.612  1.7321  0.2414 -0.4197
 2968SOL    HW220364   2.978   3.868  12.654  0.4018  0.1240  0.0208
 2969SOL     OW20365   1.759   1.379   7.778 -0.1635 -0.2200  0.1997
 2969SOL    HW120366   1.716   1.301   7.813  1.7832 -1.7633 -0.8265
 2969SOL    HW220367   1.761   1.348   7.687  0.3651  0.5044 -0.0362
 2970SOL     OW20368   3.286   2.127   4.451  0.3652  0.2410 -0.1937
 2970SOL    HW120369   3.315   2.146   4.541  1.3645 -2.1090 -0.0226
 2970SOL    HW220370   3.291   2.032   4.448 -1.0351  0.1345  0.8867
 2971SOL     OW20371   2.925   2.088  10.155 -0.0232 -0.0775 -0.0418
 2971SOL    HW120372   3.002   2.045  10.118 -0.4788 -0.6888 -0.2621
 2971SOL    HW220373   2.967   2.124  10.233 -0.5128 -2.6806  1.4030
 2972SOL     OW20374   0.289   2.078   4.944  0.3477 -0.3322  0.3723
 2972SOL    HW120375   0.293   2.163   4.900 -1.9625  0.0433  0.9035
 2972SOL    HW220376   0.194   2.071   4.942  0.1500  2.2689  0.1910
 2973SOL     OW20377   2.880   2.105   1.125 -0.3956 -0.0308  0.2001
 2973SOL    HW120378   2.938   2.067   1.059  0.2656  1.9689 -0.3638
 2973SOL    HW220379   2.803   2.079   1.073  1.5101  0.9535 -3.1447
 2974SOL     OW20380   0.166   0.952   2.942 -0.2904 -0.0134  0.0212
 2974SOL    HW120381   0.193   0.894   2.870  0.5918 -0.3717  0.6394
 2974SOL    HW220382   0.206   1.031   2.906 -0.5463  0.6432  1.2197
 2975SOL     OW20383   3.413   4.080   1.794  0.1704  0.2555 -0.0434
 2975SOL    HW120384   3.461   4.159   1.819  0.7018  0.6124 -2.1716
 2975SOL    HW220385   3.457   4.012   1.845 -1.4758  0.5464  1.7448
 2976SOL     OW20386   0.881   3.627  10.321 -0.7884  0.1254  0.1562
 2976SOL    HW120387   0.903   3.539  10.292  0.2078  0.1901  0.7356
 2976SOL    HW220388   0.971   3.657  10.326 -0.1828 -1.7675  0.5002
 2977SOL     OW20389   0.504   0.407   4.188 -0.1015  0.7420  0.0367
 2977SOL    HW120390   0.535   0.319   4.169 -2.6026  0.0917 -1.0463
 2977SOL    HW220391   0.573   0.463   4.153  0.4502 -0.2468 -0.4453
 2978SOL     OW20392   1.305   1.307  12.362 -0.9266 -0.8188  0.9767
 2978SOL    HW120393   1.266   1.324  12.448 -2.2772  3.4999 -0.5142
 2978SOL    HW220394   1.226   1.295  12.310 -0.5578  1.4065 -0.0873
 2979SOL     OW20395   0.804   0.719  12.943 -0.0706  0.3243  0.0854
 2979SOL    HW120396   0.884   0.725  12.892  0.3978  1.9620  1.0252
 2979SOL    HW220397   0.735   0.741  12.880  1.6413  0.2995 -1.7890
 2980SOL     OW20398   1.703   2.492   4.326 -0.1690  0.2468 -0.2566
 2980SOL    HW120399   1.665   2.473   4.240  0.6760  2.0995 -1.0407
 2980SOL    HW220400   1.623   2.495   4.380 -1.1787  0.0012 -1.7316
 2981SOL     OW20401   0.503   4.421   5.735  0.2727 -0.3284  0.0843
 2981SOL    HW120402   0.479   4.336   5.773 -0.1657 -0.3072 -0.1496
 2981SOL    HW220403   0.524   4.404   5.643  3.7728  2.9538  0.2695
 2982SOL     OW20404   2.690   3.798   1.092  0.3806  0.4118  0.1595
 2982SOL    HW120405   2.638   3.843   1.159 -0.2240  3.6942 -2.4939
 2982SOL    HW220406   2.728   3.735   1.153 -0.8558 -0.4185  0.0503
 2983SOL     OW20407   4.643   3.937   5.416 -0.0376  0.2730 -0.0701
 2983SOL    HW120408   4.660   3.994   5.492 -0.9258  0.8471 -0.3070
 2983SOL    HW220409   4.548   3.941   5.410  0.0012  0.7732 -0.3484
 2984SOL     OW20410   3.350   2.468   0.049 -0.6870 -0.1227  0.2765
 2984SOL    HW120411   3.438   2.459   0.086 -0.5233  0.0306 -0.0774
 2984SOL    HW220412   3.308   2.419   0.120 -1.1917  0.0996  0.1275
 2985SOL     OW20413   0.240   0.533   4.255 -0.7117  0.3661  0.0634
 2985SOL    HW120414   0.195   0.485   4.325  0.1820  0.7328  0.8913
 2985SOL    HW220415   0.328   0.496   4.251  0.2832  3.0668 -3.3610
 2986SOL     OW20416   4.090   3.329  17.511  0.1410 -0.3464  0.0250
 2986SOL    HW120417   4.037   3.376  17.575 -1.2433 -0.7785 -0.7912
 2986SOL    HW220418   4.177   3.331  17.551 -0.2844 -3.8068  1.0539
 2987SOL     OW20419   1.778   1.606  11.526 -0.0519 -0.4840 -0.2095
 2987SOL    HW120420   1.830   1.533  11.559 -1.8656 -1.7520 -0.1779
 2987SOL    HW220421   1.851   1.666  11.509  1.6235 -2.6328 -0.6100
 2988SOL     OW20422   1.920   1.186   6.687 -0.0038  0.0266 -0.0235
 2988SOL    HW120423   1.930   1.091   6.686  0.3376  0.0761 -0.9561
 2988SOL    HW220424   1.827   1.192   6.711 -0.0245  1.7108 -0.5382
 2989SOL     OW20425   0.283   2.459   3.907 -0.2432  0.2672 -0.4738
 2989SOL    HW120426   0.201   2.416   3.928 -0.3788  0.3405 -0.8549
 2989SOL    HW220427   0.326   2.374   3.899  0.0540  0.5588 -2.1321
 2990SOL     OW20428   3.482   3.290   0.822 -0.3916 -0.2193 -0.4915
 2990SOL    HW120429   3.563   3.255   0.786  0.5989  2.8846 -1.3107
 2990SOL    HW220430   3.526   3.324   0.899 -0.8766 -0.2168 -0.2129
 2991SOL     OW20431   1.627   1.819  17.133 -0.2357 -0.4830 -0.2061
 2991SOL    HW120432   1.653   1.759  17.064  0.6490  0.2027 -0.4769
 2991SOL    HW220433   1.538   1.801  17.162  1.0225 -3.1262  2.0074
 2992SOL     OW20434   0.679   2.289   7.556  0.1600  0.3834  0.1692
 2992SOL    HW120435   0.706   2.275   7.465  0.5490 -0.3092  0.3943
 2992SOL    HW220436   0.677   2.384   7.568  0.2561  0.0543  2.7666
 2993SOL     OW20437   1.846   2.222   2.446 -0.0397  0.8023  0.0435
 2993SOL    HW120438   1.845   2.140   2.494 -1.3123  0.7495 -0.0804
 2993SOL    HW220439   1.854   2.185   2.358 -0.3954 -0.8767  0.7211
 2994SOL     OW20440   3.978   3.413   6.011 -0.1194  0.0787 -0.2207
 2994SOL    HW120441   3.904   3.474   6.001 -0.0676  0.3645  1.1592
 2994SOL    HW220442   3.925   3.338   6.040  0.1252  0.5570  1.4385
 2995SOL     OW20443   1.196   1.661   9.588 -0.6533 -0.4769 -0.2844
 2995SOL    HW120444   1.157   1.642   9.502 -0.2565 -0.0076 -0.5693
 2995SOL    HW220445   1.118   1.674   9.641  0.2734 -2.3425  1.5218
 2996SOL     OW20446   4.271   1.551  13.331  0.0395 -0.6927 -0.4993
 2996SOL    HW120447   4.313   1.629  13.369  0.3576 -0.6039 -1.0288
 2996SOL    HW220448   4.194   1.548  13.387 -1.0097 -0.7578 -1.9562
 2997SOL     OW20449   0.837   1.520   1.951 -0.1361  0.5410 -0.2645
 2997SOL    HW120450   0.817   1.533   2.044  0.1571  0.0112 -0.1234
 2997SOL    HW220451   0.800   1.433   1.934 -1.2599  1.2380 -1.3387
 2998SOL     OW20452   1.535   3.917   5.577  0.1205  0.1525  0.7112
 2998SOL    HW120453   1.590   3.968   5.636 -0.6814  0.7554  0.9251
 2998SOL    HW220454   1.586   3.922   5.496  1.3587  1.6602  1.5934
 2999SOL     OW20455   4.466   4.442   4.980 -0.2680 -0.1126 -0.0762
 2999SOL    HW120456   4.516   4.379   4.929 -1.1945 -1.9087  1.2318
 2999SOL    HW220457   4.395   4.388   5.015  0.7220 -0.3525  1.6033
 3000SOL     OW20458   4.372   1.569  15.386 -0.2899  0.4570  0.0110
 3000SOL    HW120459   4.293   1.517  15.400 -0.0145  0.2898  0.9497
 3000SOL    HW220460   4.434   1.525  15.443  0.5886  0.5881 -0.8508
 3001SOL     OW20461   0.039   0.338  10.504  0.1567 -0.1526 -0.7615
 3001SOL    HW120462   0.117   0.331  10.449  0.6220 -0.6279 -0.0411
 3001SOL    HW220463   4.701   0.302  10.438 -1.5994 -2.8793  2.3027
 3002SOL     OW20464   1.325   3.473   6.827  0.5248 -0.8145  0.0513
 3002SOL    HW120465   1.321   3.560   6.789 -1.6876 -1.5867 -1.5213
 3002SOL    HW220466   1.252   3.435   6.777 -0.9148  2.5071 -0.3220
 3003SOL     OW20467   3.522   2.174   3.246  0.5317 -0.3077  0.0614
 3003SOL    HW120468   3.519   2.091   3.199  2.3657 -0.4740  0.2367
 3003SOL    HW220469   3.548   2.239   3.180  0.2678  0.6947  0.9386
 3004SOL     OW20470   0.729   3.393   6.704 -0.4128  0.7940 -0.2775
 3004SOL    HW120471   0.716   3.362   6.615  1.6361 -0.3990 -0.1572
 3004SOL    HW220472   0.723   3.313   6.755  0.9277 -1.0227 -2.9867
 3005SOL     OW20473   0.290   2.877   5.398  0.3358 -0.4006  0.1176
 3005SOL    HW120474   0.374   2.867   5.442  1.0394  1.1408 -0.8817
 3005SOL    HW220475   0.308   2.958   5.350  2.2350  0.5087  2.3629
 3006SOL     OW20476   0.777   0.893  12.172  0.0983 -0.2026  0.2041
 3006SOL    HW120477   0.722   0.859  12.243  0.7277  0.7381  1.1426
 3006SOL    HW220478   0.737   0.859  12.092  1.0067 -0.7704 -0.0027
 3007SOL     OW20479   1.459   0.271  16.962 -0.0537  0.6447  0.6403
 3007SOL    HW120480   1.461   0.233  16.874  0.0705 -0.1385  0.9785
 3007SOL    HW220481   1.421   0.357  16.946 -2.2277 -0.2984  0.6536
 3008SOL     OW20482   2.752   4.075  15.899 -0.3179  0.2229 -0.3415
 3008SOL    HW120483   2.807   4.117  15.832  0.7097  0.1307  0.4575
 3008SOL    HW220484   2.735   4.157  15.946  0.5537  1.1281 -1.5855
 3009SOL     OW20485   4.301   2.169   5.293  0.0997  0.0047  0.2857
 3009SOL    HW120486   4.217   2.144   5.254 -0.6958  1.0333  1.3256
 3009SOL    HW220487   4.276   2.216   5.373  1.2327  1.0929 -0.0031
 3010SOL     OW20488   3.848   4.192   4.516  0.4130  0.0761  0.0862
 3010SOL    HW120489   3.764   4.165   4.555 -0.1667  0.3760 -0.9769
 3010SOL    HW220490   3.820   4.265   4.462  0.0323  0.2277  0.4871
 3011SOL     OW20491   2.245   2.168   0.745  0.3053 -0.2167  0.6307
 3011SOL    HW120492   2.274   2.233   0.681 -0.8920 -0.8621 -0.5672
 3011SOL    HW220493   2.232   2.095   0.685 -1.1617 -0.8633  1.7408
 3012SOL     OW20494   2.500   2.998   8.915 -0.2249 -0.1424 -0.6434
 3012SOL    HW120495   2.585   3.004   8.958  0.0670 -1.8741 -1.0163
 3012SOL    HW220496   2.497   3.074   8.857 -1.0909 -2.1055 -3.1666
 3013SOL     OW20497   1.532   1.237   4.391  0.5499 -0.1167  0.7138
 3013SOL    HW120498   1.445   1.204   4.414  0.9753 -1.8471 -0.1729
 3013SOL    HW220499   1.516   1.299   4.319  4.7799  2.3262  1.9009
 3014SOL     OW20500   2.002   3.948  12.362 -0.2039  0.7755  0.4093
 3014SOL    HW120501   1.988   3.892  12.286  0.5060  0.2864  0.6435
 3014SOL    HW220502   2.052   4.018  12.319 -0.1778  2.1607  2.7127
 3015SOL     OW20503   2.268   2.206   8.327  0.3331  0.7242 -0.0729
 3015SOL    HW120504   2.285   2.293   8.363  0.1723 -0.0561  1.8905
 3015SOL    HW220505   2.233   2.216   8.239  1.1927  1.2193 -0.3568
 3016SOL     OW20506   0.596   2.728  12.405 -1.3368 -0.0833  0.1367
 3016SOL    HW120507   0.633   2.794  12.463 -1.1779 -1.2664  1.3953
 3016SOL    HW220508   0.562   2.789  12.339  2.5179  0.5399 -1.2563
 3017SOL     OW20509   1.951   2.549   5.216  0.2723 -0.6931  0.2414
 3017SOL    HW120510   2.016   2.559   5.286  0.7544 -3.8576  0.2878
 3017SOL    HW220511   1.875   2.535   5.272 -1.1940  0.1905 -1.5552
 3018SOL     OW20512   3.900   0.146   5.313  0.1894 -0.2749 -0.3470
 3018SOL    HW120513   3.995   0.148   5.303  0.1453  1.4068 -0.4152
 3018SOL    HW220514   3.887   0.054   5.335  0.3710 -0.0695  0.5970
 3019SOL     OW20515   4.155   1.572   8.687 -0.3800  0.4356  0.4278
 3019SOL    HW120516   4.210   1.524   8.749  0.9232  0.5453 -0.6586
 3019SOL    HW220517   4.066   1.539   8.703 -0.1004 -1.2736 -1.4968
 3020SOL     OW20518   3.792   2.134  15.635  0.2456 -0.1180  0.2708
 3020SOL    HW120519   3.711   2.181  15.618  1.4453  1.4112 -1.2922
 3020SOL    HW220520   3.790   2.169  15.724 -0.3965 -0.8186  0.5259
 3021SOL     OW20521   3.006   0.461   4.103 -0.5075 -0.1820  0.3743
 3021SOL    HW120522   2.925   0.421   4.072 -0.4013 -1.4590  1.7169
 3021SOL    HW220523   3.018   0.530   4.037  0.7422 -0.1266  0.6551
 3022SOL     OW20524   1.522   0.266   6.597 -0.3485 -0.0395  0.3165
 3022SOL    HW120525   1.544   0.175   6.618  3.0133  0.6884 -0.0792
 3022SOL    HW220526   1.438   0.259   6.552 -0.4571  2.7977  0.0971
 3023SOL     OW20527   3.477   3.334   4.022  0.3432 -0.3643  0.1340
 3023SOL    HW120528   3.521   3.317   4.106 -2.2059  0.8084  1.7173
 3023SOL    HW220529   3.547   3.334   3.957 -0.0676  1.1810 -0.2909
 3024SOL     OW20530   2.488   1.454   9.824 -0.3150 -0.3910 -0.0945
 3024SOL    HW120531   2.499   1.370   9.779  1.4417 -0.8562  1.2071
 3024SOL    HW220532   2.508   1.420   9.912  0.3843 -0.3405 -0.2353
 3025SOL     OW20533   3.015   2.919   9.510  0.0389 -0.3415  0.1106
 3025SOL    HW120534   2.974   2.865   9.579 -0.8877 -0.3996 -0.4926
 3025SOL    HW220535   3.035   2.998   9.559  1.2397  0.3829 -1.5808
 3026SOL     OW20536   0.684   2.482   3.844 -0.5339 -0.0778  0.9724
 3026SOL    HW120537   0.769   2.483   3.889  1.1727 -0.7051 -2.2047
 3026SOL    HW220538   0.680   2.574   3.815 -0.3318 -1.0808 -2.2796
 3027SOL     OW20539   4.230   3.370   8.447 -0.2197 -0.3085  0.0315
 3027SOL    HW120540   4.179   3.413   8.516  1.5448 -0.9695  1.7542
 3027SOL    HW220541   4.183   3.289   8.429 -1.0979  0.3869 -0.7679
 3028SOL     OW20542   4.281   3.654  17.347  0.6881 -0.0057 -0.1133
 3028SOL    HW120543   4.279   3.673  17.441 -0.5677 -0.3913 -0.0634
 3028SOL    HW220544   4.270   3.559  17.355 -1.4626  0.2546 -0.0223
 3029SOL     OW20545   2.194   3.667   6.941  0.4475 -0.0546  0.7001
 3029SOL    HW120546   2.234   3.581   6.954 -1.1082 -0.5819  1.9770
 3029SOL    HW220547   2.160   3.648   6.854 -0.8218 -1.0570  1.4115
 3030SOL     OW20548   1.799   1.647   8.861  0.8458  0.1733 -0.2398
 3030SOL    HW120549   1.722   1.613   8.906  0.9287 -1.4894 -1.3402
 3030SOL    HW220550   1.850   1.667   8.940 -0.5193  0.0752  0.6538
 3031SOL     OW20551   0.196   0.967   7.714  0.0813  0.7021  0.4565
 3031SOL    HW120552   0.265   1.025   7.747  0.2493 -0.5416  2.3234
 3031SOL    HW220553   0.213   0.901   7.782 -2.1325 -0.0764  0.2430
 3032SOL     OW20554   2.067   3.904  15.442  0.0506  0.4620 -0.2141
 3032SOL    HW120555   2.035   3.815  15.458 -0.3879  0.5296 -0.7013
 3032SOL    HW220556   1.992   3.938  15.394 -0.5553 -0.1613  0.2905
 3033SOL     OW20557   2.499   3.902   9.528  0.0788  0.7235 -0.5005
 3033SOL    HW120558   2.574   3.844   9.515  1.4727  2.8209 -1.8258
 3033SOL    HW220559   2.429   3.851   9.487 -1.2580  2.7942 -0.7485
 3034SOL     OW20560   1.854   4.603   5.042 -0.5748  0.8024 -0.2241
 3034SOL    HW120561   1.944   4.626   5.021 -1.0682  1.7807 -1.2914
 3034SOL    HW220562   1.856   4.508   5.043 -2.0897  0.7639  0.5696
 3035SOL     OW20563   2.574   3.095   0.470  0.1770  0.3306 -0.0426
 3035SOL    HW120564   2.643   3.121   0.530  1.1777 -1.4336 -0.4146
 3035SOL    HW220565   2.504   3.150   0.505 -0.2473 -0.7309  0.7463
 3036SOL     OW20566   1.016   3.411   2.152  0.1863 -0.4839  0.4713
 3036SOL    HW120567   1.097   3.401   2.102 -0.3292 -0.0850 -0.4448
 3036SOL    HW220568   0.973   3.329   2.128  1.1408 -1.6552  2.7546
 3037SOL     OW20569   1.973   0.937   9.331 -0.2663 -0.2858 -0.1353
 3037SOL    HW120570   2.002   1.018   9.289  2.1666 -0.5335  1.0491
 3037SOL    HW220571   2.031   0.921   9.405 -0.4695  1.5029  0.4313
 3038SOL     OW20572   3.414   0.534   8.418  0.2358 -0.2228 -0.1885
 3038SOL    HW120573   3.394   0.612   8.470  2.3253 -0.5727  1.1276
 3038SOL    HW220574   3.434   0.560   8.328  0.0929  1.3910  0.2416
 3039SOL     OW20575   0.701   3.980   5.138  0.4564  0.1916 -0.0262
 3039SOL    HW120576   0.718   4.057   5.084  0.4017  0.5461  0.4612
 3039SOL    HW220577   0.789   3.957   5.169  0.1344  0.0002  0.7413
 3040SOL     OW20578   0.206   2.418   3.561  0.2467 -0.4996 -0.2218
 3040SOL    HW120579   0.146   2.414   3.637 -4.2251  0.8215 -3.6698
 3040SOL    HW220580   0.273   2.361   3.598 -1.9401 -2.1193  1.2734
 3041SOL     OW20581   1.203   3.139   3.174 -0.6131  0.4674  0.2238
 3041SOL    HW120582   1.153   3.057   3.179  0.0781  0.0980  1.0401
 3041SOL    HW220583   1.181   3.171   3.087 -1.9520 -0.5405  0.1816
 3042SOL     OW20584   3.348   2.858   3.990 -0.1236  0.2399 -0.4337
 3042SOL    HW120585   3.256   2.834   3.997  0.2466 -1.2679 -0.7300
 3042SOL    HW220586   3.393   2.775   3.974 -1.2359 -0.1403 -1.5502
 3043SOL     OW20587   2.587   3.901  15.772  0.7919  0.1021 -0.2660
 3043SOL    HW120588   2.500   3.939  15.784  1.0055  0.1896  0.9316
 3043SOL    HW220589   2.639   3.952  15.834 -0.5396  0.0916  0.8411
 3044SOL     OW20590   3.281   1.716   6.824 -0.2367  0.0351  0.4614
 3044SOL    HW120591   3.356   1.689   6.769  1.2029  0.8047  2.0499
 3044SOL    HW220592   3.267   1.640   6.880 -0.5647 -1.5832 -1.7892
 3045SOL     OW20593   2.530   0.598   8.344  0.2421 -0.2928 -0.5984
 3045SOL    HW120594   2.620   0.617   8.320 -0.0030  0.6994 -0.7325
 3045SOL    HW220595   2.534   0.547   8.425  1.3394  1.3716  0.3733
 3046SOL     OW20596   3.081   3.257  15.942 -0.0678 -0.4547  0.2311
 3046SOL    HW120597   3.061   3.290  15.854  1.4086 -0.2309 -0.0238
 3046SOL    HW220598   3.016   3.186  15.947 -0.7333 -0.1804 -3.9565
 3047SOL     OW20599   0.971   3.252   8.697 -0.2279  0.2279 -0.2544
 3047SOL    HW120600   0.877   3.258   8.685 -0.0499  3.4588 -0.0329
 3047SOL    HW220601   0.992   3.189   8.766 -2.9953 -0.0704  0.2985
 3048SOL     OW20602   3.432   1.898   2.007 -0.2371 -0.1703 -0.7570
 3048SOL    HW120603   3.453   1.831   1.942  0.4793 -0.5433 -0.1440
 3048SOL    HW220604   3.442   1.976   1.953 -0.1964  0.8262  0.6774
 3049SOL     OW20605   4.003   3.339  16.863 -0.0608 -0.1847  0.2723
 3049SOL    HW120606   3.984   3.258  16.815  2.1910 -0.2093 -0.5367
 3049SOL    HW220607   3.995   3.398  16.788  0.2357 -0.3246  0.1322
 3050SOL     OW20608   3.115   0.041   2.685 -0.6939 -0.4380  0.1282
 3050SOL    HW120609   3.112   4.703   2.610 -0.0927  1.1083 -1.1233
 3050SOL    HW220610   3.164   4.707   2.746  0.2920  0.9267  0.5554
 3051SOL     OW20611   3.971   3.288   1.991 -0.4968 -0.3972  0.8590
 3051SOL    HW120612   3.914   3.305   2.066  0.2995 -3.2328  2.0933
 3051SOL    HW220613   3.914   3.250   1.924 -0.8330  2.3762 -0.4259
 3052SOL     OW20614   3.319   1.164  11.830 -1.5262  0.3326 -0.7700
 3052SOL    HW120615   3.243   1.216  11.856 -1.5653  0.2542 -0.7273
 3052SOL    HW220616   3.287   1.082  11.867 -1.4658  0.4884 -0.3661
 3053SOL     OW20617   3.249   4.413   5.759  0.0267  0.3479 -0.0209
 3053SOL    HW120618   3.320   4.380   5.814  0.6365 -0.3464 -1.2301
 3053SOL    HW220619   3.242   4.501   5.796 -0.1301  1.5171 -2.9029
 3054SOL     OW20620   4.004   4.636   5.887 -0.0940  0.0636 -0.0008
 3054SOL    HW120621   4.026   4.688   5.964  1.5972 -0.2909 -0.2254
 3054SOL    HW220622   3.916   4.672   5.878 -0.5895 -0.9434  0.7656
 3055SOL     OW20623   3.292   4.040   1.043 -0.1124 -0.1563  0.1121
 3055SOL    HW120624   3.323   4.085   1.122 -1.2890 -0.4536  0.7399
 3055SOL    HW220625   3.373   4.054   0.995  0.4193 -0.0330  1.0452
 3056SOL     OW20626   0.857   3.527   5.954 -0.0029  0.2434  0.0112
 3056SOL    HW120627   0.926   3.518   5.889  1.5497  4.1439  1.1083
 3056SOL    HW220628   0.774   3.507   5.912  0.5560 -1.0067 -0.4951
 3057SOL     OW20629   0.276   3.408   3.840  0.0657  0.0658 -0.4186
 3057SOL    HW120630   0.243   3.461   3.767  2.7327  0.5501 -1.2596
 3057SOL    HW220631   0.216   3.431   3.911 -0.1783  0.3766 -0.7231
 3058SOL     OW20632   4.564   0.405   9.115  0.1297 -0.1614 -0.2760
 3058SOL    HW120633   4.598   0.395   9.204 -1.9725 -0.9137  0.4381
 3058SOL    HW220634   4.645   0.380   9.071  1.4091  2.0177  0.8100
 3059SOL     OW20635   1.736   1.805   7.662  0.1383 -0.0209 -0.0017
 3059SOL    HW120636   1.781   1.828   7.744 -2.1907 -1.8332  1.7684
 3059SOL    HW220637   1.741   1.893   7.623 -2.2753 -0.7452 -1.8891
 3060SOL     OW20638   1.279   2.004   6.621 -0.0605 -0.1822  0.0386
 3060SOL    HW120639   1.249   1.972   6.536  0.0691 -0.8106  0.2288
 3060SOL    HW220640   1.248   1.937   6.682 -0.7644  1.1575  1.1479
 3061SOL     OW20641   2.003   3.204  12.318  0.5669  0.0334 -0.1892
 3061SOL    HW120642   2.025   3.158  12.399  0.8383  3.5546  1.7514
 3061SOL    HW220643   2.090   3.241  12.301  0.9189  0.5638  2.8092
 3062SOL     OW20644   0.352   4.720   7.082  0.2752 -0.5936  0.0858
 3062SOL    HW120645   0.342   0.003   6.987 -1.3784 -1.4972  0.2147
 3062SOL    HW220646   0.295   0.072   7.108 -1.5933 -2.9023  2.4819
 3063SOL     OW20647   4.307   0.683  13.944 -0.6697  0.4005  0.3874
 3063SOL    HW120648   4.216   0.703  13.966 -0.6231  1.2976 -0.2485
 3063SOL    HW220649   4.311   0.588  13.951  0.9273  0.6918  3.2383
 3064SOL     OW20650   2.535   0.393   9.301  0.5711  0.0938  0.1442
 3064SOL    HW120651   2.451   0.373   9.259  1.1244 -2.0652  0.0737
 3064SOL    HW220652   2.584   0.311   9.303  0.0309 -0.1674  2.8917
 3065SOL     OW20653   3.956   3.499   3.916  0.0396  0.3186  0.6724
 3065SOL    HW120654   3.937   3.457   3.833  0.5355 -2.2412  1.8680
 3065SOL    HW220655   3.909   3.435   3.970  0.3892 -2.8000 -2.7787
 3066SOL     OW20656   1.025   0.542   8.637  0.5728  0.0299 -0.0013
 3066SOL    HW120657   0.994   0.484   8.567 -1.7097 -0.1970  1.2045
 3066SOL    HW220658   0.971   0.619   8.621 -0.5354 -0.5366  1.0175
 3067SOL     OW20659   4.044   2.575  16.782 -0.4200 -0.6646 -0.1992
 3067SOL    HW120660   4.125   2.623  16.802 -0.5647 -1.0819  1.3470
 3067SOL    HW220661   4.066   2.492  16.825  2.1211  1.3349  2.3164
 3068SOL     OW20662   4.131   2.692  13.059 -0.4775  0.1515  0.7217
 3068SOL    HW120663   4.037   2.712  13.054 -0.2069  0.9447 -1.4137
 3068SOL    HW220664   4.133   2.628  12.987 -0.5055  0.6788  0.2486
 3069SOL     OW20665   1.142   3.957   3.384 -0.1449  0.6945 -0.7286
 3069SOL    HW120666   1.132   3.862   3.391  0.6261  0.6466 -0.2091
 3069SOL    HW220667   1.061   3.983   3.340 -0.1875  2.6290  0.5310
 3070SOL     OW20668   3.394   3.653   8.182 -0.3362 -0.0137 -0.5060
 3070SOL    HW120669   3.428   3.693   8.101  0.6982  2.1874  1.0057
 3070SOL    HW220670   3.377   3.563   8.154 -1.1143  0.5547 -1.8473
 3071SOL     OW20671   3.785   1.059   4.088 -0.1774  0.1499  0.9475
 3071SOL    HW120672   3.715   1.118   4.061 -0.4738 -1.1171 -1.0198
 3071SOL    HW220673   3.864   1.109   4.107  0.3626 -1.4199  2.8443
 3072SOL     OW20674   3.275   1.744   1.593 -0.3181  0.3911 -0.4218
 3072SOL    HW120675   3.303   1.808   1.659  0.2863 -0.9482  0.6090
 3072SOL    HW220676   3.296   1.662   1.636  0.2122  1.5904  1.5971
 3073SOL     OW20677   1.541   0.232  14.992 -0.0956 -0.1566 -0.4296
 3073SOL    HW120678   1.628   0.264  14.968 -0.7692  1.3959 -0.8151
 3073SOL    HW220679   1.507   0.300  15.051  1.5122  0.0480  0.2468
 3074SOL     OW20680   1.086   2.767  11.015 -0.3152  0.0708 -0.2838
 3074SOL    HW120681   0.993   2.770  11.038 -0.5452 -0.3595 -1.1646
 3074SOL    HW220682   1.117   2.824  11.086 -1.3116  2.4778 -1.7647
 3075SOL     OW20683   4.090   1.256   8.836 -0.1286 -0.1906 -0.2240
 3075SOL    HW120684   3.998   1.244   8.812 -1.2178  0.3390  3.7212
 3075SOL    HW220685   4.085   1.341   8.880  2.5378 -0.5249  0.7532
 3076SOL     OW20686   0.810   0.767   5.738  0.0779 -0.0863 -0.2183
 3076SOL    HW120687   0.856   0.828   5.680 -2.4491 -1.3764 -3.5926
 3076SOL    HW220688   0.749   0.827   5.781 -1.3399 -2.0198  0.4951
 3077SOL     OW20689   4.047   2.717  16.187  0.5390 -0.0813 -0.4025
 3077SOL    HW120690   3.961   2.717  16.229  0.1082  0.0177 -1.2710
 3077SOL    HW220691   4.096   2.744  16.264  0.7642 -2.4007  0.2755
 3078SOL     OW20692   3.463   1.822   1.086  0.6690  0.0062  0.6761
 3078SOL    HW120693   3.437   1.828   1.177  0.2772 -0.2314  0.5761
 3078SOL    HW220694   3.485   1.729   1.078  1.9660  0.5629 -2.3891
 3079SOL     OW20695   4.249   2.845   3.439 -0.3741  0.3016 -0.3289
 3079SOL    HW120696   4.262   2.794   3.359 -1.6746  2.4431 -1.9456
 3079SOL    HW220697   4.192   2.791   3.493  1.6667 -1.2894  0.2243
 3080SOL     OW20698   2.220   4.586  17.585 -0.5067  0.5882  0.5175
 3080SOL    HW120699   2.266   4.657  17.630  1.0072  1.5066 -2.4110
 3080SOL    HW220700   2.243   4.611  17.495  1.2535  0.3815  0.9049
 3081SOL     OW20701   1.217   2.560  13.495  0.8016  0.2470 -0.5097
 3081SOL    HW120702   1.273   2.497  13.541 -1.2307  0.9582  2.9516
 3081SOL    HW220703   1.169   2.603  13.566  3.0720  1.9614 -0.0027
 3082SOL     OW20704   4.553   0.020   8.792  0.2362 -0.1917 -0.1337
 3082SOL    HW120705   4.510   0.077   8.728  3.1505  0.9764 -1.0801
 3082SOL    HW220706   4.519   0.055   8.874  0.3518 -0.8134  0.1783
 3083SOL     OW20707   3.944   0.160  15.145  0.3572 -0.0696 -0.1010
 3083SOL    HW120708   3.946   0.123  15.233 -1.2667  0.1121  0.0112
 3083SOL    HW220709   3.927   0.253  15.163 -2.9531 -0.4594 -1.2991
 3084SOL     OW20710   3.226   2.999   3.516  0.3824 -0.1803 -0.2251
 3084SOL    HW120711   3.156   3.045   3.563 -0.3188 -1.0078 -0.4530
 3084SOL    HW220712   3.297   3.062   3.531 -1.4413  1.8125  0.0130
 3085SOL     OW20713   1.264   4.224   7.642  0.2194  0.2980  0.1293
 3085SOL    HW120714   1.243   4.137   7.610 -1.6824  0.7233  0.2180
 3085SOL    HW220715   1.293   4.261   7.559 -0.9503  0.5847 -0.1507
 3086SOL     OW20716   0.338   3.591  12.955 -0.6354 -0.2004  0.5650
 3086SOL    HW120717   0.300   3.509  12.923 -0.5200 -0.1642  0.3427
 3086SOL    HW220718   0.411   3.579  12.895 -1.6622  0.0459 -0.7377
 3087SOL     OW20719   2.528   3.910  16.964  0.5154  0.0168  0.5674
 3087SOL    HW120720   2.558   3.883  17.051 -0.3935 -1.7182  0.3322
 3087SOL    HW220721   2.490   3.829  16.930  0.3603  0.3924 -0.1571
 3088SOL     OW20722   3.376   4.110   0.082 -0.1556  0.3051 -0.0124
 3088SOL    HW120723   3.390   4.200   0.052 -0.4535  1.1901  2.5256
 3088SOL    HW220724   3.452   4.097   0.138  1.0238  1.3631 -1.3695
 3089SOL     OW20725   2.453   3.794   5.976  0.6811  0.1708  0.2872
 3089SOL    HW120726   2.510   3.806   6.053 -0.3438  0.0068  1.0718
 3089SOL    HW220727   2.368   3.828   6.002 -0.8223 -2.0268 -1.8035
 3090SOL     OW20728   1.359   0.583   7.032 -0.0815 -0.2446 -0.3840
 3090SOL    HW120729   1.405   0.550   6.955  1.5076 -0.0438  0.4590
 3090SOL    HW220730   1.280   0.616   6.991  0.6263  0.0880 -1.4684
 3091SOL     OW20731   0.905   1.617   1.111 -0.2387 -0.3161 -0.7009
 3091SOL    HW120732   0.992   1.656   1.119 -0.2032  0.0868 -2.9772
 3091SOL    HW220733   0.855   1.682   1.161 -0.8426 -1.8349  0.6559
 3092SOL     OW20734   4.475   4.701   9.212 -0.6737 -0.2965 -0.2127
 3092SOL    HW120735   4.562   4.663   9.225 -0.9657 -0.8355  0.1734
 3092SOL    HW220736   4.419   4.631   9.177  0.9480 -1.2733 -0.8745
 3093SOL     OW20737   2.981   1.068   2.232 -0.1590 -0.5827 -0.3734
 3093SOL    HW120738   2.904   1.054   2.178  0.5376 -0.4049 -1.4065
 3093SOL    HW220739   2.958   1.036   2.320  0.1791 -1.9905 -0.7926
 3094SOL     OW20740   0.551   1.628   5.441 -0.1174  1.0622  0.1334
 3094SOL    HW120741   0.517   1.642   5.353  1.1945 -1.4644 -0.7594
 3094SOL    HW220742   0.486   1.565   5.472  1.6625 -0.9607 -0.3092
 3095SOL     OW20743   0.820   1.558   5.497  0.3971  0.0031 -0.0253
 3095SOL    HW120744   0.807   1.467   5.525  0.9675 -0.0305  0.1300
 3095SOL    HW220745   0.731   1.587   5.478  1.3721  3.5270  0.7280
 3096SOL     OW20746   1.709   4.343   4.759 -0.3236  0.3689 -0.1159
 3096SOL    HW120747   1.645   4.409   4.731 -0.4175 -0.1823 -1.2232
 3096SOL    HW220748   1.697   4.358   4.853 -0.3948  0.8541 -0.1991
 3097SOL     OW20749   3.019   0.475   6.745  0.1121  0.2704  0.3338
 3097SOL    HW120750   3.097   0.435   6.707 -0.5398  1.2929 -2.1096
 3097SOL    HW220751   3.053   0.564   6.752  0.2473  0.2825 -0.4572
 3098SOL     OW20752   3.916   0.008   6.794  0.0629  0.5840  0.2945
 3098SOL    HW120753   3.899   4.648   6.746  2.1334 -0.5791  1.5716
 3098SOL    HW220754   3.982   4.712   6.860  0.4733 -1.1071 -0.5779
 3099SOL     OW20755   3.866   3.463   8.063 -0.6372  0.3562 -0.6155
 3099SOL    HW120756   3.938   3.506   8.109 -0.2828  0.9622 -1.7401
 3099SOL    HW220757   3.860   3.374   8.097  3.7605  1.1375  2.1334
 3100SOL     OW20758   2.721   3.498   9.447 -0.2849 -0.3347 -0.2565
 3100SOL    HW120759   2.755   3.409   9.440 -0.1144 -0.4105  1.5138
 3100SOL    HW220760   2.724   3.531   9.357  0.4090  0.4749  0.0765
 3101SOL     OW20761   3.564   1.539  10.458 -0.2582  0.3574 -0.3881
 3101SOL    HW120762   3.506   1.503  10.391 -1.0752  0.1233  0.4366
 3101SOL    HW220763   3.642   1.559  10.406 -0.2678  0.2050 -0.4582
 3102SOL     OW20764   2.531   0.880   8.570  0.1691 -0.5077  0.1217
 3102SOL    HW120765   2.590   0.893   8.644  1.3763  0.4963 -1.0434
 3102SOL    HW220766   2.511   0.786   8.567 -0.3552 -0.3898 -0.0795
 3103SOL     OW20767   2.841   2.002   2.722  0.0431  0.1372  0.1589
 3103SOL    HW120768   2.804   1.926   2.677  0.6183  0.7662 -1.3873
 3103SOL    HW220769   2.855   1.966   2.810  0.6547 -0.4577 -0.1840
 3104SOL     OW20770   1.747   3.886   3.290 -0.5163 -0.1703 -0.0583
 3104SOL    HW120771   1.805   3.949   3.334 -0.1613 -0.8317  0.4296
 3104SOL    HW220772   1.788   3.874   3.205  0.5510  0.2215  0.3990
 3105SOL     OW20773   3.288   2.414  14.067 -0.0758  0.2684 -0.4599
 3105SOL    HW120774   3.235   2.376  14.138 -0.0976  1.2654  0.0545
 3105SOL    HW220775   3.378   2.387  14.084  0.4192 -0.1609 -3.8160
 3106SOL     OW20776   4.575   4.366   6.157  0.4303 -0.0307  0.1780
 3106SOL    HW120777   4.600   4.409   6.239  1.1510  1.8207 -1.0352
 3106SOL    HW220778   4.515   4.293   6.174 -1.8531  1.1500 -2.8513
 3107SOL     OW20779   4.555   4.441   5.905  0.5942 -0.1545  0.1043
 3107SOL    HW120780   4.533   4.405   5.991  0.8950 -0.2348  0.1499
 3107SOL    HW220781   4.521   4.376   5.844  0.8651 -2.3539  2.2788
 3108SOL     OW20782   3.705   1.777  15.693  0.1020  0.2313 -0.1340
 3108SOL    HW120783   3.711   1.870  15.710  1.6215  0.0540  0.2598
 3108SOL    HW220784   3.640   1.753  15.759 -2.8505 -0.7657 -3.3598
 3109SOL     OW20785   3.051   0.668   3.897 -0.4597 -0.1119  0.3723
 3109SOL    HW120786   3.057   0.738   3.962  0.7295 -0.3482  0.5187
 3109SOL    HW220787   3.073   0.707   3.812 -1.2137 -0.6261 -0.0531
 3110SOL     OW20788   3.441   0.300   6.820  0.2052  0.1388  0.4981
 3110SOL    HW120789   3.503   0.235   6.786 -1.5748 -0.7029 -1.1419
 3110SOL    HW220790   3.436   0.269   6.910 -1.6195 -0.5706  0.1462
 3111SOL     OW20791   1.120   0.320   0.903  0.0761 -0.4097 -0.2180
 3111SOL    HW120792   1.157   0.250   0.849  0.3185  0.2226 -0.8743
 3111SOL    HW220793   1.044   0.278   0.943 -0.6617  0.9582 -0.2144
 3112SOL     OW20794   3.783   1.976   5.063  0.0749  0.3482  0.0473
 3112SOL    HW120795   3.808   2.066   5.042 -3.0023  1.3276  0.5351
 3112SOL    HW220796   3.845   1.924   5.011 -0.4170  2.1973 -2.4267
 3113SOL     OW20797   0.588   3.333  11.139  0.0039  0.3098 -0.4370
 3113SOL    HW120798   0.605   3.422  11.169 -0.2363  0.0769  0.3968
 3113SOL    HW220799   0.670   3.314  11.093 -0.0745 -1.9315  0.3666
 3114SOL     OW20800   4.685   1.074   4.511 -1.4578 -0.4229  0.3937
 3114SOL    HW120801   4.599   1.043   4.481 -0.5647 -0.3972 -2.1794
 3114SOL    HW220802   4.661   1.165   4.532  1.6237  0.5714 -0.4142
 3115SOL     OW20803   2.812   2.095   6.319 -0.4248  0.4619 -0.2302
 3115SOL    HW120804   2.730   2.121   6.279 -0.7948 -1.4749 -0.7351
 3115SOL    HW220805   2.873   2.105   6.246  0.2202 -1.7320 -0.0116
 3116SOL     OW20806   2.742   3.489   4.423 -0.4586  0.3098 -0.3843
 3116SOL    HW120807   2.709   3.441   4.348  1.8347  0.5791 -1.5825
 3116SOL    HW220808   2.808   3.549   4.387 -0.5147 -0.3789 -1.6166
 3117SOL     OW20809   2.019   2.929   6.134  0.6043 -0.1807  0.0396
 3117SOL    HW120810   2.104   2.951   6.173  0.3041  1.2932 -0.1679
 3117SOL    HW220811   1.965   2.936   6.213 -0.3193  1.5238 -0.7339
 3118SOL     OW20812   2.751   0.019   5.973 -0.3588  0.0167 -0.3425
 3118SOL    HW120813   2.655   0.020   5.967 -0.4237 -0.6400  0.6908
 3118SOL    HW220814   2.774   0.103   5.932 -0.1110 -1.1171 -2.5435
 3119SOL     OW20815   4.280   2.220  17.437 -1.0764  0.2557  0.0437
 3119SOL    HW120816   4.242   2.134  17.418  0.1120  0.1874 -2.0406
 3119SOL    HW220817   4.371   2.201  17.457 -0.9227  1.9393  0.8825
 3120SOL     OW20818   2.994   1.132   6.070 -1.0135 -0.1210  0.0230
 3120SOL    HW120819   3.034   1.053   6.107 -0.5977  0.0086 -0.1395
 3120SOL    HW220820   2.902   1.107   6.078 -0.8536 -0.7908 -0.1813
 3121SOL     OW20821   0.735   2.144   8.073  0.4291 -0.2616 -0.2857
 3121SOL    HW120822   0.686   2.178   7.998  0.2069 -1.6870 -0.7936
 3121SOL    HW220823   0.693   2.176   8.153  0.3226  0.8021 -0.7697
 3122SOL     OW20824   1.678   4.323  12.346  0.2265  0.0527 -0.9968
 3122SOL    HW120825   1.609   4.258  12.363 -0.8769  1.8198  1.2788
 3122SOL    HW220826   1.651   4.384  12.414  0.4324  0.4979 -1.3126
 3123SOL     OW20827   1.740   4.171   3.039 -0.1787  0.5657  0.0872
 3123SOL    HW120828   1.757   4.137   2.951 -3.0753  0.7279 -0.5483
 3123SOL    HW220829   1.826   4.161   3.079  0.6294 -2.0380 -2.2455
 3124SOL     OW20830   2.931   3.080   4.917 -0.2624  0.5404 -0.1235
 3124SOL    HW120831   2.874   3.129   4.857 -1.9990 -1.8316 -0.4120
 3124SOL    HW220832   2.927   3.130   4.998  1.6998  0.2417  0.1467
 3125SOL     OW20833   2.711   4.683   8.134  0.0459 -0.0469  0.0896
 3125SOL    HW120834   2.746   4.606   8.179 -0.0088  0.1642  0.4938
 3125SOL    HW220835   2.642   4.643   8.081 -0.9355  2.0675 -0.2266
 3126SOL     OW20836   4.113   0.701  11.303 -0.0104  0.1378  0.2033
 3126SOL    HW120837   4.102   0.613  11.341 -0.2247  1.2886  2.8220
 3126SOL    HW220838   4.074   0.692  11.216  0.6445  0.6936 -0.1447
 3127SOL     OW20839   3.161   2.012   3.123 -0.2062 -0.6025 -0.2558
 3127SOL    HW120840   3.192   2.020   3.033 -0.3692 -0.2416 -0.2810
 3127SOL    HW220841   3.235   2.058   3.163 -0.3816  0.1445 -0.7956
 3128SOL     OW20842   1.298   2.091   8.687 -0.0610 -0.3480 -0.0715
 3128SOL    HW120843   1.261   2.177   8.707 -1.5085 -1.1662  0.8006
 3128SOL    HW220844   1.247   2.071   8.608  0.9561  0.3346 -0.8826
 3129SOL     OW20845   4.236   1.774   2.033  0.1181  0.0409  0.6431
 3129SOL    HW120846   4.183   1.726   1.969 -0.3299  1.2981  0.0679
 3129SOL    HW220847   4.305   1.821   1.987 -0.6622 -0.9333 -1.5383
 3130SOL     OW20848   4.689   1.591  16.582  1.2306 -0.0440  0.0537
 3130SOL    HW120849   4.720   1.580  16.492  2.3347  0.6288  0.3511
 3130SOL    HW220850   4.615   1.530  16.574  2.7681 -2.1782  1.8255
 3131SOL     OW20851   2.770   2.009  17.054 -0.6055  0.4734  0.1473
 3131SOL    HW120852   2.775   2.003  17.149 -3.8581  1.4153  0.3936
 3131SOL    HW220853   2.766   2.102  17.030  0.5946  0.4035 -0.2928
 3132SOL     OW20854   4.493   1.544   5.371 -0.0715  0.2414  0.2256
 3132SOL    HW120855   4.583   1.562   5.344 -0.0681  1.4718  1.0743
 3132SOL    HW220856   4.466   1.623   5.419 -0.1849  1.2259 -1.4504
 3133SOL     OW20857   2.550   4.273   4.972  0.0503 -0.1946 -0.1393
 3133SOL    HW120858   2.583   4.186   4.995  1.4407  0.6150  0.9276
 3133SOL    HW220859   2.571   4.275   4.879  0.7254  2.1308  0.0508
 3134SOL     OW20860   0.192   3.229   4.843 -0.0509  0.2217  0.0062
 3134SOL    HW120861   0.115   3.174   4.828  0.6388 -0.6557 -0.3305
 3134SOL    HW220862   0.268   3.182   4.808  0.1673  0.7701 -0.2717
 3135SOL     OW20863   4.156   3.094   2.258 -0.3076 -0.2471  0.2016
 3135SOL    HW120864   4.143   3.076   2.351  0.6411  0.1789  0.4214
 3135SOL    HW220865   4.081   3.051   2.217  1.1788 -1.0929 -1.6108
 3136SOL     OW20866   2.437   2.733   2.882  0.0196  0.3328 -0.2918
 3136SOL    HW120867   2.454   2.656   2.938 -0.6073  0.0162 -0.5373
 3136SOL    HW220868   2.342   2.720   2.873 -0.1180  1.3990 -0.3869
 3137SOL     OW20869   0.941   1.353  15.232  0.6391  0.4728  0.5030
 3137SOL    HW120870   0.862   1.378  15.184  0.4547  2.2310  1.7160
 3137SOL    HW220871   0.993   1.433  15.236 -0.1590  1.0148  0.1446
 3138SOL     OW20872   3.135   3.097   2.954  0.2855 -0.4310  0.6790
 3138SOL    HW120873   3.169   3.020   3.000  0.6822 -0.0242  1.0611
 3138SOL    HW220874   3.159   3.078   2.863 -2.6119 -1.1157  0.0498
 3139SOL     OW20875   1.116   0.163   4.585  0.4200  0.3591 -1.0544
 3139SOL    HW120876   1.081   0.223   4.651  0.6629  0.0921 -0.6837
 3139SOL    HW220877   1.120   0.084   4.640  1.5034  1.7340  0.8314
 3140SOL     OW20878   2.179   0.817  11.977 -0.0657 -0.3506 -0.0174
 3140SOL    HW120879   2.203   0.905  12.007 -0.0674 -0.0782 -0.8007
 3140SOL    HW220880   2.261   0.785  11.940 -0.4022  0.2328 -1.2609
 3141SOL     OW20881   2.180   0.537   1.282  0.4783 -0.3072  0.2735
 3141SOL    HW120882   2.087   0.542   1.305  0.4664  1.0395 -0.0666
 3141SOL    HW220883   2.193   0.444   1.300 -0.3107 -0.2108  1.3796
 3142SOL     OW20884   0.563   2.852  12.773 -0.4153 -0.3599  0.2241
 3142SOL    HW120885   0.557   2.939  12.734  0.0388 -0.6264 -0.4529
 3142SOL    HW220886   0.635   2.826  12.716  1.3817  1.1266  1.7995
 3143SOL     OW20887   0.117   1.414   8.016 -0.5939  0.4280  0.4740
 3143SOL    HW120888   0.118   1.505   7.987  0.1580  0.1891 -0.2701
 3143SOL    HW220889   0.079   1.387   7.933 -2.2884  3.5191  0.2738
 3144SOL     OW20890   2.598   2.124   7.205  0.4611  0.2445 -0.3805
 3144SOL    HW120891   2.506   2.150   7.197 -0.0073 -1.5382 -0.6227
 3144SOL    HW220892   2.631   2.214   7.200  1.1993  0.0262  0.6149
 3145SOL     OW20893   4.281   2.710   3.187  0.5861  0.6325  0.5887
 3145SOL    HW120894   4.294   2.764   3.109  0.7810  0.0295  0.2087
 3145SOL    HW220895   4.285   2.626   3.143 -0.3786 -0.3031  2.2814
 3146SOL     OW20896   4.535   4.243   2.821 -0.4714  1.1116 -0.1077
 3146SOL    HW120897   4.489   4.317   2.781 -0.9752 -0.0423 -1.6723
 3146SOL    HW220898   4.617   4.253   2.772 -0.2435 -1.9578 -0.3775
 3147SOL     OW20899   2.904   4.658   7.590 -0.6679 -0.1883 -0.3308
 3147SOL    HW120900   2.840   0.004   7.564  0.2440  0.7526 -0.1426
 3147SOL    HW220901   2.895   4.654   7.685 -2.2990 -0.1232 -0.4841
 3148SOL     OW20902   3.703   4.213   0.692 -0.0646 -0.1715  0.5622
 3148SOL    HW120903   3.743   4.282   0.639 -0.0015 -1.0645 -0.5452
 3148SOL    HW220904   3.637   4.174   0.635  1.1823 -1.5377  0.0261
 3149SOL     OW20905   3.702   1.739   7.972  0.0294 -0.3339 -0.2289
 3149SOL    HW120906   3.722   1.782   8.055 -0.8538 -0.5585  0.0997
 3149SOL    HW220907   3.607   1.744   7.979  0.0050 -2.9599  1.1764
 3150SOL     OW20908   2.489   2.708   7.250 -0.1483 -0.1091  0.2704
 3150SOL    HW120909   2.474   2.736   7.160  1.8373  0.1683  0.0215
 3150SOL    HW220910   2.538   2.627   7.234 -0.5615 -0.5658  1.2695
 3151SOL     OW20911   4.510   1.718  11.221  0.2495  0.2002  0.3998
 3151SOL    HW120912   4.559   1.766  11.154  0.3591 -0.5414 -0.0508
 3151SOL    HW220913   4.595   1.684  11.250 -0.6971 -0.2200  2.6609
 3152SOL     OW20914   1.386   2.785   7.946 -0.3566 -0.5471  0.1792
 3152SOL    HW120915   1.402   2.727   8.021 -2.7513  0.8343  1.7474
 3152SOL    HW220916   1.439   2.857   7.980  0.1174 -0.6536 -0.3260
 3153SOL     OW20917   3.216   4.674   6.415 -0.5387 -0.6017 -0.0879
 3153SOL    HW120918   3.219   4.584   6.381  1.1488 -0.8286  0.6701
 3153SOL    HW220919   3.156   4.681   6.489  0.9089  1.9228  0.8358
 3154SOL     OW20920   3.426   0.600   5.522 -0.3909  0.5946  0.6754
 3154SOL    HW120921   3.348   0.547   5.508 -0.3148  1.0167 -1.4267
 3154SOL    HW220922   3.388   0.688   5.527 -2.2627 -0.0025 -2.9823
 3155SOL     OW20923   2.107   2.099   5.525 -0.0397  0.0640 -0.3115
 3155SOL    HW120924   2.028   2.079   5.575 -0.3374  1.6504 -0.1385
 3155SOL    HW220925   2.167   2.030   5.556  0.1391 -0.0847 -1.0019
 3156SOL     OW20926   2.309   3.262   8.898 -0.0638 -0.1164 -0.2774
 3156SOL    HW120927   2.233   3.319   8.899  1.0636  1.3693 -0.1152
 3156SOL    HW220928   2.298   3.202   8.972  1.8261  1.2527  1.1050
 3157SOL     OW20929   0.968   3.139  15.871  0.3538  0.0815  0.6812
 3157SOL    HW120930   0.996   3.206  15.933 -0.5845  0.9210  0.1923
 3157SOL    HW220931   0.991   3.060  15.921  2.1761 -0.8393 -1.6347
 3158SOL     OW20932   2.081   1.234   0.134 -0.1886 -0.2356 -0.1176
 3158SOL    HW120933   2.135   1.212   0.210  1.6786 -0.1099 -1.3980
 3158SOL    HW220934   1.991   1.207   0.152 -0.5668  2.0331  1.4097
 3159SOL     OW20935   0.107   4.600  10.728  0.0506 -0.2158  0.3703
 3159SOL    HW120936   0.090   4.613  10.634 -2.0546 -0.6421  0.6847
 3159SOL    HW220937   0.167   4.526  10.724  1.0095  0.6149 -0.6697
 3160SOL     OW20938   2.615   2.461   2.776  0.4706  0.0125 -0.4266
 3160SOL    HW120939   2.540   2.429   2.725 -0.5055  4.3168 -1.7314
 3160SOL    HW220940   2.574   2.484   2.859  0.2364 -0.1734 -0.4896
 3161SOL     OW20941   0.626   3.606   9.903  0.0710 -0.0881 -0.4530
 3161SOL    HW120942   0.714   3.570   9.919 -0.5732 -1.3549  0.3211
 3161SOL    HW220943   0.614   3.625   9.996  0.0688 -0.6154 -0.3419
 3162SOL     OW20944   4.505   0.961   6.052 -0.0228  0.5633 -0.2380
 3162SOL    HW120945   4.514   1.020   5.977  0.2298  0.9106  0.0672
 3162SOL    HW220946   4.426   0.995   6.094  0.6308  0.2474  1.2699
 3163SOL     OW20947   3.298   2.167   3.428 -0.2180  0.0595 -0.2657
 3163SOL    HW120948   3.246   2.237   3.388 -1.2904 -0.3399  0.4355
 3163SOL    HW220949   3.376   2.162   3.373 -0.8604 -1.3170 -1.0375
 3164SOL     OW20950   2.172   3.539   3.952  0.8161  0.3130 -0.1306
 3164SOL    HW120951   2.137   3.612   4.003  1.0278 -1.8790  3.1403
 3164SOL    HW220952   2.250   3.575   3.909  0.1661 -0.5205 -2.0180
 3165SOL     OW20953   3.389   1.095   1.940 -0.4264 -0.0767  0.4990
 3165SOL    HW120954   3.299   1.067   1.956 -0.9895 -1.2236 -4.5994
 3165SOL    HW220955   3.378   1.185   1.911  3.4823  0.2356  0.0011
 3166SOL     OW20956   4.535   1.784  16.366 -0.1084  0.0635 -0.2174
 3166SOL    HW120957   4.538   1.867  16.319 -0.2384  0.2898  0.1675
 3166SOL    HW220958   4.584   1.813  16.444 -0.4256  0.4522 -0.1681
 3167SOL     OW20959   0.213   0.855  10.791 -0.1623 -0.1677 -0.2554
 3167SOL    HW120960   0.118   0.842  10.791 -0.5539  2.5541 -2.6432
 3167SOL    HW220961   0.240   0.768  10.759  2.8080  0.4388  0.6207
 3168SOL     OW20962   2.464   4.456   1.414 -1.0567  0.0230  0.1494
 3168SOL    HW120963   2.482   4.362   1.420  0.2509  0.3199  0.9322
 3168SOL    HW220964   2.380   4.470   1.370 -2.0932  1.7650  2.6881
 3169SOL     OW20965   4.324   4.113   7.371 -0.0131  0.1613 -0.4835
 3169SOL    HW120966   4.340   4.207   7.371 -2.6129  0.5990  1.8180
 3169SOL    HW220967   4.229   4.100   7.378  0.2800 -1.1896  1.1987
 3170SOL     OW20968   4.435   3.258   4.359  0.2720  0.0801 -0.5225
 3170SOL    HW120969   4.463   3.229   4.273  3.3767  1.4486  0.0084
 3170SOL    HW220970   4.450   3.351   4.343  1.2754 -0.0801 -0.4855
 3171SOL     OW20971   2.235   1.245   3.537  0.1028  0.0181  0.2909
 3171SOL    HW120972   2.153   1.282   3.504  0.2359  0.6906  0.7058
 3171SOL    HW220973   2.262   1.319   3.591 -1.4819  1.5551 -1.0299
 3172SOL     OW20974   2.087   4.585   8.053 -0.0049  0.0531  0.0633
 3172SOL    HW120975   2.049   4.671   8.035 -1.6042 -1.2049 -2.6164
 3172SOL    HW220976   2.130   4.570   7.969  1.0825  0.9956  0.4582
 3173SOL     OW20977   2.048   2.006  10.277  0.3033  0.5068 -0.1195
 3173SOL    HW120978   1.985   2.035  10.211  1.2305 -0.8725 -1.6143
 3173SOL    HW220979   2.033   2.074  10.343 -0.0902 -0.6664  0.9845
 3174SOL     OW20980   4.033   2.110   9.173  0.7730 -0.6001  0.0649
 3174SOL    HW120981   4.059   2.191   9.217  1.6271 -1.0242  0.3466
 3174SOL    HW220982   4.038   2.053   9.250 -1.1611  0.1363  0.7502
 3175SOL     OW20983   2.670   2.387   0.194 -0.4700  0.3234 -0.2915
 3175SOL    HW120984   2.682   2.295   0.172 -0.1837  0.6312 -1.4421
 3175SOL    HW220985   2.575   2.396   0.191 -0.7116 -1.5982  2.6152
 3176SOL     OW20986   4.531   4.045   8.381 -0.1219 -0.2332  0.0940
 3176SOL    HW120987   4.615   4.051   8.427 -0.6926 -0.6941  1.1890
 3176SOL    HW220988   4.551   4.112   8.315 -1.3776  2.1346  2.1260
 3177SOL     OW20989   1.237   3.109  14.825 -0.5194 -0.3620 -0.6754
 3177SOL    HW120990   1.307   3.095  14.889 -1.0671 -1.1732 -0.2518
 3177SOL    HW220991   1.171   3.168  14.861 -0.0343  0.5478 -1.2765
 3178SOL     OW20992   3.598   3.324  12.419 -0.2390  0.2994  0.0151
 3178SOL    HW120993   3.624   3.294  12.506  0.5438 -3.4602 -1.5211
 3178SOL    HW220994   3.613   3.418  12.428 -1.1607  0.6581 -2.1229
 3179SOL     OW20995   3.832   1.663   4.962  0.5391  0.3387  0.5797
 3179SOL    HW120996   3.897   1.720   4.921  0.5505  0.3124  0.5618
 3179SOL    HW220997   3.781   1.632   4.887  0.4801 -2.0718  1.6176
 3180SOL     OW20998   4.585   3.885   6.223  0.3276  0.1617 -0.3942
 3180SOL    HW120999   4.661   3.896   6.281 -0.1448 -0.0234  0.2643
 3180SOL    HW221000   4.552   3.800   6.252 -0.4706  0.7971  0.5742
 3181SOL     OW21001   2.036   3.135   9.341 -0.0078  0.3145  0.0699
 3181SOL    HW121002   2.075   3.217   9.312  0.7704  0.1624  0.6840
 3181SOL    HW221003   1.955   3.150   9.291 -0.2524  1.7357  0.8842
 3182SOL     OW21004   2.113   0.475  10.168 -0.7121 -0.6821 -0.8738
 3182SOL    HW121005   2.132   0.429  10.086  2.9379 -0.8068  0.0281
 3182SOL    HW221006   2.203   0.478  10.200 -0.7057 -1.3210 -0.8349
 3183SOL     OW21007   1.506   0.880   8.651  0.4416 -0.1309  0.1076
 3183SOL    HW121008   1.512   0.974   8.637  4.1570 -0.3672  0.1112
 3183SOL    HW221009   1.523   0.861   8.558  2.0916  1.0781  0.1567
 3184SOL     OW21010   2.297   0.664   5.466 -0.1958  0.4912 -0.1360
 3184SOL    HW121011   2.281   0.757   5.486 -3.0480 -0.2423  0.9683
 3184SOL    HW221012   2.388   0.651   5.493 -0.1319  1.3855  0.1020
 3185SOL     OW21013   1.515   2.454  12.786  0.0792 -0.0026 -0.1484
 3185SOL    HW121014   1.480   2.382  12.733  0.7650 -1.4677  1.3878
 3185SOL    HW221015   1.441   2.509  12.812  0.6965  0.6253  0.2754
 3186SOL     OW21016   2.426   1.460   7.071  0.6377  0.6809  0.6504
 3186SOL    HW121017   2.475   1.380   7.091  0.6065  0.6741  0.7008
 3186SOL    HW221018   2.489   1.520   7.032  0.2991 -0.2698 -1.3530
 3187SOL     OW21019   2.216   0.322   1.424  0.1890 -0.0256 -0.1654
 3187SOL    HW121020   2.294   0.289   1.467  2.7209  1.3099 -3.7188
 3187SOL    HW221021   2.174   0.372   1.494 -1.1661 -1.3021 -0.0481
 3188SOL     OW21022   1.336   1.847   6.131 -0.0131  0.8911  0.3790
 3188SOL    HW121023   1.419   1.830   6.176  0.6105 -0.9964 -1.4926
 3188SOL    HW221024   1.360   1.921   6.074 -1.5517  1.5732  0.6075
 3189SOL     OW21025   1.533   2.242   3.966  0.1537 -0.3127  0.4591
 3189SOL    HW121026   1.507   2.327   4.002 -1.8602 -0.0689 -1.5453
 3189SOL    HW221027   1.627   2.257   3.970  0.0401  0.4638  0.3317
 3190SOL     OW21028   2.253   3.379   3.001 -0.1468  0.2006 -0.0708
 3190SOL    HW121029   2.213   3.466   3.011  1.1756  0.8028 -0.0013
 3190SOL    HW221030   2.296   3.365   3.085 -0.0604 -0.8504 -0.2987
 3191SOL     OW21031   3.496   2.847   0.989 -0.2576 -0.0041 -0.3457
 3191SOL    HW121032   3.590   2.839   0.973 -0.6477 -2.5385 -1.4175
 3191SOL    HW221033   3.474   2.765   0.946 -0.3331  1.1948 -2.6379
 3192SOL     OW21034   2.571   3.346   9.005 -0.5706 -0.0862 -0.1232
 3192SOL    HW121035   2.491   3.317   8.962  0.6244 -1.9850 -1.0511
 3192SOL    HW221036   2.611   3.400   8.936 -1.8411  0.1171 -0.7009
 3193SOL     OW21037   0.268   1.411  14.256  0.6415 -0.1508 -0.2772
 3193SOL    HW121038   0.358   1.435  14.276  0.6146  0.4059 -0.8330
 3193SOL    HW221039   0.282   1.319  14.235  0.0443 -0.5777  1.2141
 3194SOL     OW21040   4.633   2.212  17.555  0.9180 -0.2294  0.0467
 3194SOL    HW121041   4.591   2.127  17.568  0.6111 -0.2710 -1.2184
 3194SOL    HW221042   4.621   2.254  17.640  1.0440  1.8841 -0.9752
 3195SOL     OW21043   0.187   3.786   3.939 -0.2326  0.4819  0.2945
 3195SOL    HW121044   0.098   3.757   3.957 -0.7409  1.1799 -1.1130
 3195SOL    HW221045   0.201   3.742   3.855  0.3830  2.2691 -0.5444
 3196SOL     OW21046   2.725   2.858  11.358 -0.1379  0.5638 -0.5046
 3196SOL    HW121047   2.763   2.779  11.320  0.0153  0.3804  0.0248
 3196SOL    HW221048   2.804   2.903  11.388 -0.1932  0.3460 -0.0209
 3197SOL     OW21049   4.436   2.142   3.589 -0.7983 -0.0665  0.0606
 3197SOL    HW121050   4.458   2.195   3.666 -1.5579 -0.1508  0.3356
 3197SOL    HW221051   4.521   2.101   3.573  0.0168  2.1470 -1.3024
 3198SOL     OW21052   4.535   1.049   5.251 -0.5186 -0.6286 -0.2504
 3198SOL    HW121053   4.582   1.114   5.199 -0.8388 -1.2770 -1.3664
 3198SOL    HW221054   4.575   1.058   5.337 -1.4060 -2.4463  0.3566
 3199SOL     OW21055   0.961   3.491  15.206 -0.0899 -0.2143 -0.5803
 3199SOL    HW121056   1.054   3.490  15.180  0.3176  3.0795  0.8021
 3199SOL    HW221057   0.964   3.435  15.284  1.4855  1.6027  0.6672
 3200SOL     OW21058   1.051   3.948  12.082 -0.2334 -0.8723 -0.1307
 3200SOL    HW121059   1.071   3.994  12.163 -0.6196 -0.2025 -0.4228
 3200SOL    HW221060   1.018   4.018  12.026  1.1747 -0.7440 -0.8011
 3201SOL     OW21061   1.498   1.334   6.274 -0.2993  1.0672  0.0970
 3201SOL    HW121062   1.573   1.274   6.269 -1.4565 -0.3126 -0.8491
 3201SOL    HW221063   1.549   1.415   6.282  0.3262  1.0324 -3.4012
 3202SOL     OW21064   2.260   2.824  11.402 -0.1904  0.0493  0.3597
 3202SOL    HW121065   2.328   2.762  11.428  0.9728  0.7471 -0.9814
 3202SOL    HW221066   2.260   2.813  11.307  3.6573  0.6342  0.3024
 3203SOL     OW21067   3.202   2.626   7.459 -0.4692  0.5064  0.2016
 3203SOL    HW121068   3.254   2.689   7.509  1.5397 -0.7159 -0.3555
 3203SOL    HW221069   3.115   2.648   7.492 -0.7890  0.0581 -0.3442
 3204SOL     OW21070   4.279   2.418  10.468 -0.0074  0.1696  0.3244
 3204SOL    HW121071   4.269   2.329  10.434 -1.7665  0.1655  0.8560
 3204SOL    HW221072   4.372   2.428  10.447  0.3710  0.5624  2.2112
 3205SOL     OW21073   0.950   1.676   1.448  0.1149 -0.2757 -0.4752
 3205SOL    HW121074   0.885   1.687   1.378 -0.2225 -2.2590 -0.4834
 3205SOL    HW221075   0.891   1.657   1.522 -0.8495  2.4035 -0.5578
 3206SOL     OW21076   2.954   2.157   2.089  0.0118  0.7047 -0.0816
 3206SOL    HW121077   2.907   2.147   2.171  1.0980  0.8580  0.5595
 3206SOL    HW221078   3.025   2.217   2.113  0.7758 -0.1714 -0.1596
 3207SOL     OW21079   4.484   2.354   7.955 -0.2840 -0.0590 -0.0000
 3207SOL    HW121080   4.438   2.431   7.923  3.5175  2.0870 -0.2581
 3207SOL    HW221081   4.409   2.301   7.982  0.6008 -0.3009  1.9770
 3208SOL     OW21082   4.496   2.367   1.507 -0.0338  0.0411  0.2529
 3208SOL    HW121083   4.538   2.438   1.555  0.7243  0.6427 -1.3036
 3208SOL    HW221084   4.427   2.419   1.467 -1.1077 -0.6268  1.2440
 3209SOL     OW21085   2.244   1.649   7.446  0.3320 -0.0597  0.3650
 3209SOL    HW121086   2.325   1.695   7.469 -0.1355 -0.1399  2.1915
 3209SOL    HW221087   2.202   1.663   7.531  0.8651 -0.3120  0.6714
 3210SOL     OW21088   2.981   2.944  11.444  0.3138 -0.1959 -0.6096
 3210SOL    HW121089   3.044   2.888  11.399 -0.0972 -1.4925  0.4384
 3210SOL    HW221090   3.039   2.996  11.500  0.5370 -1.6011  0.4710
 3211SOL     OW21091   0.979   1.421   2.446 -0.7531 -0.4113 -0.3900
 3211SOL    HW121092   0.885   1.412   2.435 -0.6959  0.8303 -1.8813
 3211SOL    HW221093   0.982   1.510   2.411 -0.6755 -1.0150 -1.8954
 3212SOL     OW21094   0.968   1.046   7.983 -0.1195  0.5301 -0.0675
 3212SOL    HW121095   0.917   0.987   8.039  0.0787 -0.0598 -0.5124
 3212SOL    HW221096   1.059   1.043   8.014 -0.3968  2.4690  0.9444
 3213SOL     OW21097   3.942   2.625  15.312 -0.3633 -0.0738  0.2414
 3213SOL    HW121098   3.881   2.652  15.243  1.2322  0.6287 -0.8916
 3213SOL    HW221099   3.998   2.702  15.323  0.3154 -0.4637 -0.5126
 3214SOL     OW21100   1.417   3.343   7.033 -0.5289  0.7033 -0.5666
 3214SOL    HW121101   1.452   3.266   6.989 -1.6660  0.5275 -1.1758
 3214SOL    HW221102   1.408   3.397   6.955 -0.6128 -0.8806 -1.6626
 3215SOL     OW21103   3.046   2.834   3.938 -0.2309  0.4011 -0.5325
 3215SOL    HW121104   3.015   2.776   4.008 -0.7139  1.5738  0.2413
 3215SOL    HW221105   3.057   2.762   3.876  2.4168 -0.8822  1.4085
 3216SOL     OW21106   2.376   3.212   5.693  0.1661  0.0332 -0.1519
 3216SOL    HW121107   2.419   3.254   5.768 -1.6641  1.3068  0.1813
 3216SOL    HW221108   2.416   3.124   5.692 -3.2085 -1.4735 -0.8927
 3217SOL     OW21109   1.361   3.013   6.338  0.2196  0.2491 -0.1883
 3217SOL    HW121110   1.351   2.926   6.377  0.4809  1.0267  1.6171
 3217SOL    HW221111   1.434   2.996   6.278  0.0343 -2.0098  0.2351
 3218SOL     OW21112   2.432   0.139   8.213  0.4617 -0.2068 -0.7142
 3218SOL    HW121113   2.396   0.141   8.124 -1.1907  1.2079 -0.0153
 3218SOL    HW221114   2.526   0.146   8.197  1.0110 -0.9830  2.2264
 3219SOL     OW21115   2.717   4.185   9.089 -0.0409  0.6253  0.2033
 3219SOL    HW121116   2.690   4.201   8.999  0.9283  1.1032  0.0005
 3219SOL    HW221117   2.754   4.271   9.110 -0.3461  0.4984  1.2853
 3220SOL     OW21118   2.606   2.646   7.707  0.4365 -0.3167  0.2705
 3220SOL    HW121119   2.577   2.598   7.785  2.7327  0.6838  1.7601
 3220SOL    HW221120   2.701   2.643   7.718  0.2513 -0.7151  1.8608
 3221SOL     OW21121   2.934   3.510   6.952 -0.0887  0.1925 -0.0076
 3221SOL    HW121122   2.895   3.597   6.944 -3.0616 -1.2101 -0.5010
 3221SOL    HW221123   2.860   3.466   6.994 -0.0234 -0.8841 -1.0030
 3222SOL     OW21124   1.964   2.154   3.288  0.4383 -0.5192  0.2071
 3222SOL    HW121125   1.940   2.084   3.349  0.6912 -1.0417 -0.2964
 3222SOL    HW221126   1.897   2.134   3.223 -0.0753 -2.9370  1.4854
 3223SOL     OW21127   4.276   0.928   5.579  0.2191 -0.2268  0.1214
 3223SOL    HW121128   4.192   0.890   5.554 -0.8421  1.2457  1.3760
 3223SOL    HW221129   4.301   0.965   5.495 -0.6301 -0.3671 -0.1909
 3224SOL     OW21130   4.330   0.158   2.434 -0.1252 -0.0971 -0.1565
 3224SOL    HW121131   4.262   0.222   2.456 -0.0144 -0.0529  0.0505
 3224SOL    HW221132   4.385   0.154   2.512  2.7322  0.0028 -2.1657
 3225SOL     OW21133   4.489   4.507   9.668  0.1065  0.2317  0.3529
 3225SOL    HW121134   4.561   4.542   9.615  0.5501 -1.7735 -0.3774
 3225SOL    HW221135   4.428   4.581   9.659 -1.8579 -1.2022  1.8584
 3226SOL     OW21136   4.014   1.750  12.112 -0.0743  0.3950 -0.6344
 3226SOL    HW121137   4.062   1.775  12.191  2.2182 -0.5359 -1.7423
 3226SOL    HW221138   4.030   1.656  12.110  2.4615  0.8049  2.2404
 3227SOL     OW21139   1.602   2.071   3.448 -0.1759  0.5769 -0.1731
 3227SOL    HW121140   1.683   2.023   3.432  0.2153  1.6097 -1.2379
 3227SOL    HW221141   1.551   2.012   3.505  1.8725 -0.8543  0.1889
 3228SOL     OW21142   3.081   2.324   2.761  0.1363  0.1845 -0.1294
 3228SOL    HW121143   3.050   2.246   2.716 -2.0483 -0.1027  1.8549
 3228SOL    HW221144   3.007   2.386   2.758 -1.1103 -1.3462 -0.6733
 3229SOL     OW21145   4.595   2.764   7.499  0.2629  0.2669  0.1711
 3229SOL    HW121146   4.594   2.816   7.579 -2.3529  0.7659 -0.1914
 3229SOL    HW221147   4.691   2.765   7.495  0.3205  1.3356  1.6361
 3230SOL     OW21148   3.605   3.599  12.474  0.6562 -0.2864  0.2244
 3230SOL    HW121149   3.512   3.618  12.472  1.2002  2.3707 -1.0422
 3230SOL    HW221150   3.633   3.647  12.395 -0.2004  0.1306  0.1720
 3231SOL     OW21151   4.649   4.339  12.712 -0.5055  0.4935 -0.5975
 3231SOL    HW121152   4.622   4.279  12.643  2.9403 -1.7395  0.0105
 3231SOL    HW221153   0.015   4.353  12.675  0.1180  3.1101  1.8849
 3232SOL     OW21154   0.386   1.459  12.348 -0.5635  0.3352 -0.1545
 3232SOL    HW121155   0.351   1.526  12.290 -2.4782 -0.3104  0.2160
 3232SOL    HW221156   0.396   1.385  12.288 -1.6807  0.6691 -0.7522
 3233SOL     OW21157   3.738   0.725  12.237 -0.0485 -0.2908 -0.9419
 3233SOL    HW121158   3.805   0.769  12.184 -1.3517 -1.1449 -3.2785
 3233SOL    HW221159   3.788   0.648  12.262  1.4765  0.9638 -0.0632
 3234SOL     OW21160   2.802   2.310  11.623 -0.3156  0.7357  0.4517
 3234SOL    HW121161   2.744   2.252  11.671 -1.0282 -0.9118 -2.4353
 3234SOL    HW221162   2.864   2.239  11.606 -1.4492  0.1142 -1.1168
 3235SOL     OW21163   3.427   2.923   6.832  0.3454 -0.6291 -0.5743
 3235SOL    HW121164   3.486   2.923   6.756  0.0320  1.4804 -0.8073
 3235SOL    HW221165   3.350   2.880   6.796  0.8342  0.3094 -2.7548
 3236SOL     OW21166   4.091   4.571  10.949  0.0207 -0.8801 -0.3809
 3236SOL    HW121167   4.154   4.642  10.960 -0.7092 -0.5104  1.2346
 3236SOL    HW221168   4.106   4.539  11.038  0.1840 -0.1788 -0.1591
 3237SOL     OW21169   3.512   0.558   1.936  0.0861  0.4757  0.6567
 3237SOL    HW121170   3.555   0.621   1.993 -0.0031 -0.3580  1.6312
 3237SOL    HW221171   3.422   0.581   1.960 -0.7048 -0.3399 -1.4599
 3238SOL     OW21172   1.795   2.645   3.927 -0.0600  0.0263  0.6365
 3238SOL    HW121173   1.860   2.710   3.901 -0.0470  0.1569  0.9882
 3238SOL    HW221174   1.743   2.643   3.847  2.0150 -0.8498 -0.6759
 3239SOL     OW21175   0.711   0.301   6.973 -0.2300 -0.3276 -0.0809
 3239SOL    HW121176   0.752   0.239   7.033  1.6692  0.0170 -1.0222
 3239SOL    HW221177   0.681   0.370   7.032  0.7741 -0.8604  1.0367
 3240SOL     OW21178   2.224   1.217  13.058 -0.5973  0.4395 -0.3123
 3240SOL    HW121179   2.165   1.183  13.125  0.6442 -0.7982  0.1675
 3240SOL    HW221180   2.163   1.282  13.024 -1.2217  0.9792  1.8199
 3241SOL     OW21181   0.594   0.034   9.497  0.2293 -0.0407  0.1897
 3241SOL    HW121182   0.562   0.014   9.409  1.5195 -0.1995 -0.2463
 3241SOL    HW221183   0.580   0.128   9.489  0.7902  0.0119 -0.2132
 3242SOL     OW21184   2.636   0.820   7.442  0.0890  0.1786 -0.0413
 3242SOL    HW121185   2.695   0.848   7.511  0.9339 -0.1250 -0.6366
 3242SOL    HW221186   2.691   0.779   7.375 -0.0331  0.1823 -0.1462
 3243SOL     OW21187   3.615   1.432  13.790  0.6447  0.1911  0.0114
 3243SOL    HW121188   3.599   1.524  13.767 -0.2432 -0.7201 -3.0620
 3243SOL    HW221189   3.566   1.421  13.871 -2.6713  1.8236 -1.7717
 3244SOL     OW21190   2.155   3.648   9.848 -0.0346 -0.1633 -0.7651
 3244SOL    HW121191   2.196   3.586   9.788 -0.9166 -0.4272 -1.0916
 3244SOL    HW221192   2.086   3.683   9.793  0.9614  2.7957 -0.1406
 3245SOL     OW21193   3.665   1.676   7.560 -0.0529  0.1348  0.2024
 3245SOL    HW121194   3.646   1.724   7.641 -1.1645  0.0220  0.0000
 3245SOL    HW221195   3.755   1.696   7.535  0.3112 -1.0852  0.5287
 3246SOL     OW21196   0.862   2.972   3.436  0.3130  0.2423  0.2654
 3246SOL    HW121197   0.874   3.049   3.381 -1.8621  0.5396  0.1975
 3246SOL    HW221198   0.806   3.010   3.504  0.0046 -1.6542  1.0661
 3247SOL     OW21199   2.240   3.137   3.802 -0.1474  0.4771  0.3625
 3247SOL    HW121200   2.273   3.076   3.868 -2.3655  0.4291  1.4434
 3247SOL    HW221201   2.218   3.086   3.724 -1.6930 -0.3363  1.3275
 3248SOL     OW21202   3.047   1.791  10.032 -0.7867  0.3949  0.4831
 3248SOL    HW121203   2.964   1.786   9.985 -0.0542 -0.1247 -0.7939
 3248SOL    HW221204   3.073   1.699  10.030  0.5541  0.7487  1.2383
 3249SOL     OW21205   0.840   1.007  11.007  0.2192  0.7143  0.6189
 3249SOL    HW121206   0.895   1.054  10.944 -1.1816  0.6979 -0.6393
 3249SOL    HW221207   0.811   1.081  11.061 -0.9229  0.3375  0.5172
 3250SOL     OW21208   1.779   2.461   2.613 -0.0720 -0.7481 -0.3181
 3250SOL    HW121209   1.690   2.437   2.588 -1.1018  0.5122  2.1017
 3250SOL    HW221210   1.787   2.534   2.552 -2.2508  0.8050  1.2795
 3251SOL     OW21211   3.546   1.809   8.959  0.5453  0.0856  0.0415
 3251SOL    HW121212   3.544   1.852   9.045  0.4211  1.9662 -0.8903
 3251SOL    HW221213   3.551   1.884   8.899  2.9706  0.3405  0.5533
 3252SOL     OW21214   1.369   0.988   7.473 -0.2284 -0.0349  0.5258
 3252SOL    HW121215   1.335   1.039   7.548  0.5310  1.9119 -0.4484
 3252SOL    HW221216   1.460   0.978   7.499  0.4742  1.8378 -1.2197
 3253SOL     OW21217   1.526   1.448   5.765  0.2289 -0.1443  0.1615
 3253SOL    HW121218   1.433   1.467   5.753  0.0103 -0.4506  1.3492
 3253SOL    HW221219   1.554   1.437   5.674 -2.6697 -1.4026 -0.5832
 3254SOL     OW21220   0.594   1.303   6.168  0.2005 -0.2620 -0.1896
 3254SOL    HW121221   0.683   1.278   6.142  0.1422  0.5632 -1.1741
 3254SOL    HW221222   0.610   1.316   6.262 -2.2352  0.5340  0.1115
 3255SOL     OW21223   0.563   3.371   8.238 -0.5960 -0.0040 -0.5074
 3255SOL    HW121224   0.504   3.439   8.205  0.2016  0.6673 -0.5457
 3255SOL    HW221225   0.597   3.411   8.317  0.1899 -1.1953 -0.2302
 3256SOL     OW21226   3.670   3.884   8.262  0.1326  0.6914 -0.5003
 3256SOL    HW121227   3.747   3.908   8.313  1.2875 -1.8904 -1.0486
 3256SOL    HW221228   3.710   3.849   8.182 -0.6353 -2.1771  0.3614
 3257SOL     OW21229   0.040   4.672  10.197  0.3700 -0.1165  0.5776
 3257SOL    HW121230   4.691   4.620  10.236  1.2930 -1.5820  0.3079
 3257SOL    HW221231   0.115   4.631  10.240 -0.0824 -0.6462  0.8567
 3258SOL     OW21232   3.137   2.449   4.383  1.1820 -0.3217  0.9563
 3258SOL    HW121233   3.175   2.404   4.307  1.5661 -0.3397  1.1654
 3258SOL    HW221234   3.203   2.438   4.450  1.8017 -1.2814  0.1828
 3259SOL     OW21235   3.281   0.967   3.718  0.0582 -0.0110  0.0616
 3259SOL    HW121236   3.232   1.033   3.670 -0.2607  1.1032  1.9202
 3259SOL    HW221237   3.310   0.918   3.641  0.4109 -0.5289  0.5235
 3260SOL     OW21238   2.215   0.655   6.553 -0.0666 -0.2563  0.1578
 3260SOL    HW121239   2.218   0.575   6.501 -1.7213 -1.6191  2.1602
 3260SOL    HW221240   2.300   0.661   6.596 -0.0658  2.4887 -0.2354
 3261SOL     OW21241   4.614   3.122  13.871 -0.0632  0.3774  0.1414
 3261SOL    HW121242   4.664   3.197  13.904 -0.2766  0.5254  0.1281
 3261SOL    HW221243   4.653   3.057  13.930 -1.6405  0.5888  1.4241
 3262SOL     OW21244   1.752   3.253   1.019 -0.0551 -0.1600  0.0159
 3262SOL    HW121245   1.743   3.206   1.102 -0.2247  1.2322  0.7937
 3262SOL    HW221246   1.777   3.179   0.963 -2.4696  0.0762 -1.3610
 3263SOL     OW21247   1.962   2.250  13.292  0.1454  0.5926 -0.4485
 3263SOL    HW121248   1.969   2.256  13.196  1.0510 -0.7458 -0.4660
 3263SOL    HW221249   1.894   2.184  13.299  0.3133  0.2808 -1.7448
 3264SOL     OW21250   3.607   2.424   4.658 -0.9320 -0.3988  0.1706
 3264SOL    HW121251   3.551   2.442   4.583 -2.2904 -3.5436  0.4223
 3264SOL    HW221252   3.652   2.345   4.627 -0.2863 -0.2076  0.6231
 3265SOL     OW21253   3.403   3.736  14.298 -0.2167  0.2722 -0.4011
 3265SOL    HW121254   3.486   3.763  14.258  0.3340 -0.8987 -0.0563
 3265SOL    HW221255   3.377   3.659  14.248  0.7780 -0.1896 -0.2064
 3266SOL     OW21256   3.589   2.985   6.606  0.1865  0.0574 -0.4674
 3266SOL    HW121257   3.609   2.905   6.558 -2.0880 -0.2025 -0.9573
 3266SOL    HW221258   3.588   3.048   6.534 -2.4671  0.3750 -0.1380
 3267SOL     OW21259   2.536   2.510   3.035  0.3906  0.6932 -0.3035
 3267SOL    HW121260   2.541   2.414   3.042 -1.0313  0.6629  0.3561
 3267SOL    HW221261   2.592   2.545   3.105  0.1706  0.3944  0.0257
 3268SOL     OW21262   1.225   1.325   4.434  0.4879  0.1936 -0.7485
 3268SOL    HW121263   1.264   1.380   4.366 -1.2160 -1.2047 -2.8584
 3268SOL    HW221264   1.134   1.352   4.425 -0.4958 -2.2925  1.9396
 3269SOL     OW21265   0.406   1.761   7.393  0.4593  0.3643  0.2341
 3269SOL    HW121266   0.426   1.839   7.445 -1.5997  2.9861 -2.9057
 3269SOL    HW221267   0.316   1.785   7.373  0.7582 -0.8541 -2.5796
 3270SOL     OW21268   2.500   4.013   8.376  0.2364  0.0450  0.3020
 3270SOL    HW121269   2.440   4.069   8.425  0.5501  1.2581 -0.7098
 3270SOL    HW221270   2.456   3.928   8.377 -1.4729  0.9269  0.7678
 3271SOL     OW21271   2.139   1.002   4.564  0.7984 -0.2496  0.0837
 3271SOL    HW121272   2.186   1.021   4.483  2.4120  3.5425  1.8889
 3271SOL    HW221273   2.051   0.976   4.537  0.7978 -0.7528  0.5664
 3272SOL     OW21274   3.906   1.571  13.156 -0.3895 -0.0987 -0.1435
 3272SOL    HW121275   3.993   1.538  13.132 -0.5341 -2.0979  2.0864
 3272SOL    HW221276   3.852   1.494  13.174 -0.6472 -0.1524 -1.1672
 3273SOL     OW21277   3.608   3.391   1.018 -0.0335  0.1427  0.0067
 3273SOL    HW121278   3.690   3.413   1.061 -0.1810 -0.1526  0.4440
 3273SOL    HW221279   3.543   3.383   1.088 -0.0615 -2.3420 -0.2706
 3274SOL     OW21280   2.540   1.320  14.131  0.4049  0.2159 -0.2045
 3274SOL    HW121281   2.446   1.307  14.115 -0.0211  0.0461  2.4129
 3274SOL    HW221282   2.564   1.370  14.053  0.2377  1.3483  0.4571
 3275SOL     OW21283   4.498   1.749   2.590 -0.1593  0.0420 -0.0357
 3275SOL    HW121284   4.420   1.803   2.601 -1.0608 -0.9079 -1.8249
 3275SOL    HW221285   4.556   1.804   2.537  2.3602  1.2741  3.9717
 3276SOL     OW21286   4.439   4.720   4.521 -0.3069  0.2522 -0.0852
 3276SOL    HW121287   4.425   0.093   4.520  0.8972  0.4335  1.9289
 3276SOL    HW221288   4.363   4.698   4.574 -0.0521 -1.9234 -0.6124
 3277SOL     OW21289   4.652   2.927   8.574  0.1393  0.0366 -0.3459
 3277SOL    HW121290   4.632   2.860   8.508 -0.9722 -1.1226  1.1931
 3277SOL    HW221291   0.025   2.915   8.561  0.1370  1.5985 -1.8345
 3278SOL     OW21292   1.257   3.544   5.579  0.1766 -0.3035  0.3773
 3278SOL    HW121293   1.316   3.610   5.615 -0.4545  1.9503 -2.7320
 3278SOL    HW221294   1.237   3.571   5.490  1.4360  0.6354  0.3813
 3279SOL     OW21295   0.537   0.918   3.611 -0.1525  0.7222 -0.1497
 3279SOL    HW121296   0.488   0.899   3.531  0.7234  3.6527 -1.4002
 3279SOL    HW221297   0.607   0.975   3.579 -0.9396  1.1840 -1.0626
 3280SOL     OW21298   2.346   0.809  16.679 -0.6061  0.4757 -0.9387
 3280SOL    HW121299   2.269   0.834  16.731  0.0040  0.7398 -0.1682
 3280SOL    HW221300   2.305   0.732  16.639  0.7386  0.3743 -2.1050
 3281SOL     OW21301   3.202   0.029   5.153  0.5799 -0.2409 -0.5155
 3281SOL    HW121302   3.252   0.041   5.233  2.3276 -1.6484 -1.3908
 3281SOL    HW221303   3.188   4.656   5.156  0.4337 -0.3206 -3.1262
 3282SOL     OW21304   3.478   3.703   5.475 -0.0621 -0.3945 -0.2090
 3282SOL    HW121305   3.514   3.675   5.390  1.2206 -2.6343  1.0615
 3282SOL    HW221306   3.558   3.706   5.527 -0.0551  0.6832 -0.2859
 3283SOL     OW21307   0.415   2.295   4.779  0.0561 -0.5230  0.2788
 3283SOL    HW121308   0.458   2.267   4.699 -1.5402  1.5826 -1.3047
 3283SOL    HW221309   0.361   2.368   4.750  2.3709  1.3951  0.6870
 3284SOL     OW21310   3.563   1.097   1.712 -0.2357  0.0492  0.8811
 3284SOL    HW121311   3.652   1.106   1.746  0.0538 -1.0730  0.4247
 3284SOL    HW221312   3.527   1.089   1.800 -0.4360  1.6686  0.9495
 3285SOL     OW21313   0.773   3.314  14.908  0.3458  0.3154 -0.1426
 3285SOL    HW121314   0.868   3.325  14.920  0.1073  2.5931 -0.2789
 3285SOL    HW221315   0.747   3.234  14.953 -1.4233  1.2616  0.4921
 3286SOL     OW21316   2.248   3.973   6.956  0.3231  0.4890 -0.4199
 3286SOL    HW121317   2.231   3.882   6.978  2.2154  0.7557  2.1184
 3286SOL    HW221318   2.208   4.021   7.029  1.7366  0.4506  0.3793
 3287SOL     OW21319   2.309   1.275   5.218  0.0214  0.2643 -0.2065
 3287SOL    HW121320   2.351   1.250   5.135  0.4978  0.8132 -0.1334
 3287SOL    HW221321   2.218   1.276   5.190 -0.1977 -2.0683  0.4294
 3288SOL     OW21322   2.469   0.689   6.837  0.5246 -0.2067 -0.1029
 3288SOL    HW121323   2.420   0.614   6.871  0.0647  0.1023 -0.0791
 3288SOL    HW221324   2.553   0.682   6.882  1.3586  2.2814 -1.2544
 3289SOL     OW21325   0.010   0.877   7.494 -0.5079  0.2671  0.0984
 3289SOL    HW121326   4.673   0.802   7.481 -2.3938  1.9400 -0.9563
 3289SOL    HW221327   0.073   0.849   7.561  1.2137  1.4993 -1.0279
 3290SOL     OW21328   1.346   2.468  11.038  0.6398  0.2413 -0.0292
 3290SOL    HW121329   1.273   2.464  11.099  3.1909 -0.4275  2.9663
 3290SOL    HW221330   1.420   2.494  11.093  0.4455  0.5086  0.1013
 3291SOL     OW21331   1.325   1.037  10.870  0.2695  0.5751  0.7239
 3291SOL    HW121332   1.419   1.055  10.874  0.1062  1.9672 -2.1031
 3291SOL    HW221333   1.313   0.961  10.927 -1.9532  0.7895  0.5307
 3292SOL     OW21334   3.515   0.469   9.025 -0.2164  0.3641 -0.2245
 3292SOL    HW121335   3.441   0.411   9.045  0.8409 -0.3393  1.6956
 3292SOL    HW221336   3.552   0.488   9.112 -1.2405  0.0049  0.2928
 3293SOL     OW21337   2.190   0.252   5.359 -0.2907  0.1598  0.2040
 3293SOL    HW121338   2.186   0.329   5.417 -0.9841  1.1678 -1.1786
 3293SOL    HW221339   2.285   0.242   5.356 -0.5149 -1.5532 -1.1447
 3294SOL     OW21340   0.597   2.096  11.214  0.5700 -0.2790 -0.1336
 3294SOL    HW121341   0.526   2.097  11.150 -0.2909 -2.9471  0.7646
 3294SOL    HW221342   0.674   2.124  11.165 -1.1307  2.1257 -1.4125
 3295SOL     OW21343   3.746   0.257   3.082  0.5600 -0.2904  1.0192
 3295SOL    HW121344   3.811   0.241   3.149  1.0234  0.7403  0.8172
 3295SOL    HW221345   3.798   0.228   3.007  1.3412  1.1582  0.9970
 3296SOL     OW21346   0.860   2.892   1.277 -0.2839 -0.5402  0.4862
 3296SOL    HW121347   0.886   2.861   1.363  2.7589  0.9314  0.1145
 3296SOL    HW221348   0.917   2.965   1.252  1.2274 -1.3655  1.5544
 3297SOL     OW21349   1.291   3.535   9.979 -0.0887  0.0708  0.3729
 3297SOL    HW121350   1.332   3.619  10.000 -1.0840  1.0546 -1.6437
 3297SOL    HW221351   1.258   3.506  10.064 -0.2267 -1.0752 -0.0773
 3298SOL     OW21352   3.650   0.955   4.803  0.0960 -0.5789  0.1198
 3298SOL    HW121353   3.707   0.955   4.880 -0.8020 -0.5602  0.7908
 3298SOL    HW221354   3.691   0.891   4.745  2.1851 -1.0509  2.1110
 3299SOL     OW21355   3.653   2.672   1.657  0.3476  0.2065  0.4845
 3299SOL    HW121356   3.557   2.672   1.658  0.3437  0.2085 -1.5102
 3299SOL    HW221357   3.666   2.667   1.752 -1.9450 -1.6755  0.7077
 3300SOL     OW21358   3.799   1.635   2.863 -0.1570 -0.0557 -0.3351
 3300SOL    HW121359   3.724   1.680   2.825 -0.7447 -0.6700  0.0987
 3300SOL    HW221360   3.820   1.706   2.924 -0.1825 -1.9253  1.8669
 3301SOL     OW21361   2.143   3.772   1.742  0.0574  0.4667 -0.0419
 3301SOL    HW121362   2.135   3.866   1.725 -0.7028  0.1371 -1.5697
 3301SOL    HW221363   2.214   3.767   1.806 -0.6101  2.8243  0.8736
 3302SOL     OW21364   2.547   2.346   0.592 -0.0979  0.1083  0.7701
 3302SOL    HW121365   2.568   2.275   0.652 -2.6264 -0.1482  1.3529
 3302SOL    HW221366   2.615   2.317   0.531 -1.5320  0.2280 -0.9160
 3303SOL     OW21367   2.009   2.640  15.788 -0.0710  0.3794  0.8880
 3303SOL    HW121368   2.033   2.676  15.873 -2.0196  2.8938  0.3697
 3303SOL    HW221369   1.970   2.722  15.758 -0.4530  0.1988  0.9017
 3304SOL     OW21370   1.751   3.273   6.909 -0.4918 -0.1905 -0.1600
 3304SOL    HW121371   1.751   3.182   6.938 -0.6362  0.0735  0.6754
 3304SOL    HW221372   1.724   3.243   6.822 -1.0763  0.7155 -0.2880
 3305SOL     OW21373   3.322   4.069   6.237  0.1158 -0.1577 -0.2273
 3305SOL    HW121374   3.409   4.104   6.217  0.4859 -1.1142 -0.2937
 3305SOL    HW221375   3.329   3.980   6.201 -1.4785 -0.2006 -0.4276
 3306SOL     OW21376   3.933   2.805   6.199  0.3670  0.2073 -0.1749
 3306SOL    HW121377   3.879   2.728   6.184 -0.2519  0.4792  0.6096
 3306SOL    HW221378   3.891   2.863   6.263 -1.2570 -0.7980 -0.3391
 3307SOL     OW21379   1.028   2.212  16.916  0.2973 -0.5596 -0.2563
 3307SOL    HW121380   1.054   2.174  17.000  0.9158  0.0462 -0.1747
 3307SOL    HW221381   1.105   2.197  16.862  0.9664 -0.9728  0.8093
 3308SOL     OW21382   4.025   0.635   4.936 -0.2478 -0.0875 -0.5965
 3308SOL    HW121383   3.958   0.680   4.987 -1.2337 -0.6518 -1.3886
 3308SOL    HW221384   4.054   0.697   4.870  1.0317  0.2360  0.2667
 3309SOL     OW21385   1.178   4.523  13.783 -0.0084  0.0661 -0.0583
 3309SOL    HW121386   1.094   4.537  13.738  0.2045 -0.0511 -0.4973
 3309SOL    HW221387   1.166   4.429  13.797  0.8981  0.2216  1.6890
 3310SOL     OW21388   1.928   2.562  14.705 -0.4128  0.0349 -0.0687
 3310SOL    HW121389   1.904   2.569  14.797  0.5602 -2.3820  0.3820
 3310SOL    HW221390   1.856   2.507  14.674  0.3706  1.1489 -3.8577
 3311SOL     OW21391   3.341   3.641  13.523  0.5247  1.1608 -0.0876
 3311SOL    HW121392   3.276   3.571  13.537 -1.5665  2.7636 -1.7694
 3311SOL    HW221393   3.341   3.653  13.428 -2.7705 -1.2475 -0.3937
 3312SOL     OW21394   1.453   2.437  10.504  0.2095  0.1119  0.1272
 3312SOL    HW121395   1.437   2.409  10.594  1.0214  0.6469  0.4308
 3312SOL    HW221396   1.391   2.382  10.455  0.8692 -1.1287  0.6767
 3313SOL     OW21397   1.647   0.569  17.656 -0.4010 -0.0410 -0.2619
 3313SOL    HW121398   1.602   0.595   0.050  2.6178  0.7576  1.1385
 3313SOL    HW221399   1.587   0.506  17.615 -1.9623  1.7588 -0.7559
 3314SOL     OW21400   3.232   2.739  13.179  0.6683  0.2579  0.6168
 3314SOL    HW121401   3.168   2.750  13.109  0.2951 -1.7807  0.6544
 3314SOL    HW221402   3.191   2.751  13.264  1.5952  1.6448  0.8749
 3315SOL     OW21403   2.040   3.059   4.670  0.4630 -0.0593  0.2780
 3315SOL    HW121404   2.115   3.114   4.647  1.1400 -1.4298 -0.8440
 3315SOL    HW221405   2.064   2.982   4.617  2.1997  0.3034  0.5188
 3316SOL     OW21406   2.384   2.054   9.462  0.3818 -0.4124  0.5193
 3316SOL    HW121407   2.303   2.097   9.488  0.0829 -0.8462  0.3047
 3316SOL    HW221408   2.341   1.990   9.405  2.4009  1.2637 -2.8918
 3317SOL     OW21409   1.235   1.572   9.994 -0.1290 -0.0459 -0.3245
 3317SOL    HW121410   1.180   1.496   9.974  1.0784 -0.7387 -1.0306
 3317SOL    HW221411   1.182   1.641   9.954 -1.8060 -1.0831  0.1137
 3318SOL     OW21412   4.032   0.096   0.735 -0.3105  1.0091 -0.3971
 3318SOL    HW121413   4.099   0.035   0.705 -0.3333  0.6569  0.2682
 3318SOL    HW221414   3.962   0.074   0.673 -0.7322  1.5400 -0.1058
 3319SOL     OW21415   1.733   2.126   5.867  0.0363  0.2169  0.1724
 3319SOL    HW121416   1.639   2.111   5.878 -0.0994  0.0473 -1.1779
 3319SOL    HW221417   1.739   2.192   5.937 -0.3061 -1.2217  1.5586
 3320SOL     OW21418   1.092   2.924  14.675  0.4084  0.1348  0.1275
 3320SOL    HW121419   1.159   2.887  14.617 -0.3732  0.3543 -0.9185
 3320SOL    HW221420   1.141   2.997  14.712  1.6706 -0.9874  0.6915
 3321SOL     OW21421   0.853   2.015   7.653 -0.6579  0.2643 -0.2376
 3321SOL    HW121422   0.934   2.043   7.696 -1.1594 -1.0917  1.5804
 3321SOL    HW221423   0.805   2.096   7.666 -0.2158  0.9773 -2.9964
 3322SOL     OW21424   2.902   4.221   4.804  0.2696 -0.7962  0.2315
 3322SOL    HW121425   2.809   4.204   4.819 -0.4881  0.3024 -3.2107
 3322SOL    HW221426   2.905   4.313   4.833  1.4279 -0.2853 -1.4961
 3323SOL     OW21427   4.658   0.229   7.054 -0.0576  0.1762 -0.0273
 3323SOL    HW121428   4.579   0.176   7.062  0.1625 -0.0782  0.4455
 3323SOL    HW221429   4.670   0.236   6.960 -2.8023 -0.9048 -0.4600
 3324SOL     OW21430   3.832   3.255  14.581 -0.5989  0.1813  0.4555
 3324SOL    HW121431   3.866   3.329  14.531  0.7766 -0.2242  0.8033
 3324SOL    HW221432   3.913   3.221  14.618  0.2272  0.8502 -0.7470
 3325SOL     OW21433   4.674   1.470   7.468 -0.2604  0.5352  0.7757
 3325SOL    HW121434   4.686   1.533   7.397 -1.6516  0.2573  0.2939
 3325SOL    HW221435   4.611   1.527   7.514 -0.6085  0.4120  0.4535
 3326SOL     OW21436   2.022   4.291  12.479 -0.1662 -0.2300 -0.4298
 3326SOL    HW121437   1.984   4.271  12.394 -2.3852  1.0991  0.2626
 3326SOL    HW221438   1.945   4.318  12.528  1.1729  1.2208  0.9194
 3327SOL     OW21439   0.686   3.359   8.723 -0.0198 -0.0750  0.2879
 3327SOL    HW121440   0.632   3.386   8.649 -2.9051 -0.2478  2.2964
 3327SOL    HW221441   0.748   3.431   8.734  1.3204 -1.2211  0.1532
 3328SOL     OW21442   0.298   3.408   6.428  0.3037  0.0186 -0.1412
 3328SOL    HW121443   0.286   3.428   6.335 -0.7397 -0.9679 -0.2230
 3328SOL    HW221444   0.309   3.313   6.420 -1.5335  0.0195 -2.5898
 3329SOL     OW21445   1.511   3.617   4.806  0.5625  0.2263  0.2184
 3329SOL    HW121446   1.571   3.610   4.733 -0.3328  0.4704 -0.5465
 3329SOL    HW221447   1.546   3.701   4.836  3.5311 -0.6119 -0.9799
 3330SOL     OW21448   1.566   0.654   8.850 -0.1480 -0.3143 -0.5727
 3330SOL    HW121449   1.517   0.722   8.803  3.0437  0.8914 -2.1608
 3330SOL    HW221450   1.637   0.717   8.868 -2.5681  2.0673  0.7046
 3331SOL     OW21451   0.260   3.276   5.767  0.2021 -0.4009 -0.0545
 3331SOL    HW121452   0.165   3.284   5.759  0.0572 -1.9489  0.1797
 3331SOL    HW221453   0.270   3.352   5.825  0.3476  0.8363 -1.7050
 3332SOL     OW21454   2.619   0.952   7.146 -0.4099 -0.4991  0.2244
 3332SOL    HW121455   2.680   0.984   7.211  0.1025 -1.5416  0.2538
 3332SOL    HW221456   2.678   0.932   7.073 -2.2188 -1.8370 -0.9127
 3333SOL     OW21457   1.441   2.088  12.419  0.2548 -0.2637 -0.5157
 3333SOL    HW121458   1.355   2.053  12.439  0.8405 -1.9755 -1.0530
 3333SOL    HW221459   1.493   2.023  12.466 -2.4008 -1.8601  0.2071
 3334SOL     OW21460   3.675   2.298   2.544  0.2053  0.2395 -0.0488
 3334SOL    HW121461   3.603   2.361   2.549  0.2675  0.3335 -0.3192
 3334SOL    HW221462   3.630   2.220   2.577 -3.1776  2.7874  1.4160
 3335SOL     OW21463   4.375   1.522  15.112  0.7018  0.1027 -0.5498
 3335SOL    HW121464   4.350   1.614  15.102 -1.4066 -0.8102 -3.7514
 3335SOL    HW221465   4.383   1.513  15.207 -2.5700  0.9403 -0.1769
 3336SOL     OW21466   0.012   1.761  15.276  0.1354 -0.2129 -0.3558
 3336SOL    HW121467   4.658   1.820  15.272  0.3664 -0.0480 -2.5681
 3336SOL    HW221468   0.081   1.817  15.242  0.3148  1.0679  2.1448
 3337SOL     OW21469   0.711   0.447   2.830  0.1562  0.2116  0.0792
 3337SOL    HW121470   0.638   0.508   2.824 -2.6267 -2.8078  3.2330
 3337SOL    HW221471   0.775   0.503   2.786 -1.3948 -0.7743 -3.4272
 3338SOL     OW21472   0.160   0.446   4.778  0.3011 -0.0065 -0.1005
 3338SOL    HW121473   0.239   0.410   4.820  0.4661  0.6485  0.1397
 3338SOL    HW221474   0.200   0.508   4.718 -1.6882  0.3503 -1.0550
 3339SOL     OW21475   2.576   1.959   6.509  0.7164  0.0881 -0.2924
 3339SOL    HW121476   2.645   1.901   6.477  1.2106  0.2939  0.4032
 3339SOL    HW221477   2.555   2.015   6.434 -3.3351  0.1386  0.9096
 3340SOL     OW21478   4.369   3.663   1.994 -0.2515 -0.2067  0.0799
 3340SOL    HW121479   4.278   3.654   2.024 -0.3845 -1.0481 -0.5885
 3340SOL    HW221480   4.379   3.757   1.981  0.4102  0.1823  3.3225
 3341SOL     OW21481   2.782   1.093   3.110 -0.4900  0.5404  0.0312
 3341SOL    HW121482   2.721   1.033   3.067  0.6268 -1.1491  0.8417
 3341SOL    HW221483   2.866   1.048   3.117 -0.6493  0.2178 -0.1552
 3342SOL     OW21484   0.283   0.455  17.183 -0.0084 -0.3270 -0.2231
 3342SOL    HW121485   0.344   0.402  17.131 -0.2135 -0.0859 -0.7037
 3342SOL    HW221486   0.252   0.390  17.247  0.7483  0.4444  0.9359
 3343SOL     OW21487   0.392   2.212   7.459  0.3052 -0.2785  0.1170
 3343SOL    HW121488   0.348   2.271   7.521 -1.1990 -1.1558 -0.1255
 3343SOL    HW221489   0.485   2.230   7.470  0.8783 -2.7627 -0.8508
 3344SOL     OW21490   2.031   4.181  11.635  0.1029  0.1254 -0.9313
 3344SOL    HW121491   2.051   4.188  11.541  0.4820  0.6636 -0.8015
 3344SOL    HW221492   2.063   4.095  11.663  1.9039  1.3464  0.6726
 3345SOL     OW21493   2.459   1.991  10.270  0.2697 -0.1735  0.2568
 3345SOL    HW121494   2.548   1.979  10.303  0.3264 -2.0520 -0.5776
 3345SOL    HW221495   2.470   1.944  10.188 -4.7928  0.5204 -0.8069
 3346SOL     OW21496   3.153   0.984   6.784  0.0624  0.7092  0.5941
 3346SOL    HW121497   3.146   0.930   6.705  0.8201  0.6280  0.5809
 3346SOL    HW221498   3.235   0.956   6.823 -0.3468 -1.1587  0.1207
 3347SOL     OW21499   0.992   1.570  12.839 -0.2931  0.2248  0.8118
 3347SOL    HW121500   0.935   1.613  12.775 -1.9456 -2.1369  0.6835
 3347SOL    HW221501   0.921   1.528  12.887 -0.4255  0.7340  1.0561
 3348SOL     OW21502   1.249   2.092  11.631 -0.9400  0.0355 -0.2379
 3348SOL    HW121503   1.226   2.168  11.684  0.7787  0.2548  0.1950
 3348SOL    HW221504   1.246   2.117  11.539 -2.7765  1.0034  0.0946
 3349SOL     OW21505   3.350   2.367  10.559 -0.4163  0.8621 -0.4444
 3349SOL    HW121506   3.257   2.373  10.535 -0.0731  0.9497 -1.7354
 3349SOL    HW221507   3.385   2.313  10.489  0.2237  1.9804 -0.9858
 3350SOL     OW21508   1.333   4.043   0.126  0.2191 -0.3063  0.2124
 3350SOL    HW121509   1.389   4.110   0.086  1.6826 -2.6292 -1.6435
 3350SOL    HW221510   1.404   3.987   0.159  0.0829 -0.4960  0.1869
 3351SOL     OW21511   1.915   0.337   3.589 -0.2322 -0.2262  0.1711
 3351SOL    HW121512   1.901   0.279   3.514 -0.3905 -1.6477  1.2948
 3351SOL    HW221513   1.832   0.314   3.632  0.2147 -0.3798  0.9672
 3352SOL     OW21514   2.000   2.709   5.966 -0.2190  0.1489  0.3900
 3352SOL    HW121515   1.983   2.627   6.013  2.2284 -0.5395  0.0832
 3352SOL    HW221516   1.995   2.777   6.033  1.6190  1.7526 -1.1171
 3353SOL     OW21517   2.060   2.285   3.842  0.1364 -0.8933 -0.2037
 3353SOL    HW121518   2.044   2.280   3.747 -2.8475  2.2003  0.1275
 3353SOL    HW221519   2.119   2.361   3.845  1.7478 -2.0658 -1.4678
 3354SOL     OW21520   2.788   3.262   8.772 -0.5986 -0.5578  0.0336
 3354SOL    HW121521   2.794   3.325   8.700 -0.4683 -2.9630 -2.0583
 3354SOL    HW221522   2.728   3.196   8.738 -1.4008 -0.2915  0.9268
 3355SOL     OW21523   0.641   3.920   6.785  0.1650  0.2105  0.0522
 3355SOL    HW121524   0.649   3.850   6.720  3.6060  0.7307 -0.1034
 3355SOL    HW221525   0.735   3.940   6.781  0.8310 -2.9053 -0.1985
 3356SOL     OW21526   1.861   4.273  14.606 -0.1080  0.6684 -0.2787
 3356SOL    HW121527   1.817   4.198  14.567  0.3824  0.6286 -0.7484
 3356SOL    HW221528   1.845   4.341  14.541 -2.6966 -1.1428 -1.5123
 3357SOL     OW21529   3.504   3.911   6.939 -0.1377  0.8117  0.1259
 3357SOL    HW121530   3.430   3.895   6.881 -1.0399  0.2831  1.4071
 3357SOL    HW221531   3.495   3.836   6.998 -0.6193  0.6069 -0.2125
 3358SOL     OW21532   0.002   0.617  10.415 -0.0142 -0.1279  0.0900
 3358SOL    HW121533   0.096   0.630  10.416 -0.2196  1.4267 -0.7700
 3358SOL    HW221534   0.002   0.530  10.456  0.4623 -0.9588 -1.6548
 3359SOL     OW21535   2.133   0.474   5.520 -0.2920  0.0227 -0.8640
 3359SOL    HW121536   2.127   0.494   5.613 -0.9599 -3.1249 -0.2211
 3359SOL    HW221537   2.199   0.539   5.497 -1.0146  0.5868 -1.3462
 3360SOL     OW21538   2.352   4.054   5.289  0.0602 -0.3182  0.3022
 3360SOL    HW121539   2.319   4.143   5.277 -0.5139 -0.8518 -2.1774
 3360SOL    HW221540   2.435   4.070   5.333 -0.7318 -0.3843  1.8126
 3361SOL     OW21541   1.470   0.039   0.930 -0.1235 -0.3731 -0.2034
 3361SOL    HW121542   1.520   4.682   0.907 -0.5145 -0.7201  0.1490
 3361SOL    HW221543   1.545   0.095   0.952  0.3941 -0.5871 -1.4167
 3362SOL     OW21544   2.679   0.865  16.118 -0.0902 -0.1425  0.6013
 3362SOL    HW121545   2.690   0.911  16.035 -0.0451  1.7740  1.6644
 3362SOL    HW221546   2.770   0.849  16.142 -0.4434 -2.0660  0.6501
 3363SOL     OW21547   2.275   3.827  12.773 -0.4926  0.1562 -0.3119
 3363SOL    HW121548   2.334   3.832  12.848  0.5495  1.6077 -1.2458
 3363SOL    HW221549   2.228   3.754  12.815 -0.3127 -0.1044 -0.5680
 3364SOL     OW21550   4.295   0.623   5.527  0.3431 -0.9138 -0.3196
 3364SOL    HW121551   4.218   0.579   5.491 -0.3496  0.3764 -0.3976
 3364SOL    HW221552   4.318   0.675   5.449 -3.1906  1.8184  0.4822
 3365SOL     OW21553   1.013   2.517  15.823 -0.2806  0.0193  0.3569
 3365SOL    HW121554   0.993   2.441  15.769 -0.5203  0.7067 -0.5079
 3365SOL    HW221555   1.082   2.568  15.780  0.5887  0.7784  2.6456
 3366SOL     OW21556   0.375   3.039   6.574  0.3860  0.1981  0.3119
 3366SOL    HW121557   0.376   3.121   6.623 -2.2113  0.6241 -0.3632
 3366SOL    HW221558   0.439   3.061   6.506  2.1022 -1.8283  1.2731
 3367SOL     OW21559   1.933   2.583   2.806  0.4881  0.6900 -0.3511
 3367SOL    HW121560   1.883   2.597   2.887  1.4287  1.6497  0.0599
 3367SOL    HW221561   1.866   2.537   2.755  0.8303 -1.4664  1.1247
 3368SOL     OW21562   2.523   3.192   0.841  0.4696 -0.3550  0.3274
 3368SOL    HW121563   2.597   3.172   0.783 -1.1148 -1.5428 -1.2629
 3368SOL    HW221564   2.447   3.198   0.785  1.1547 -0.8957 -0.6552
 3369SOL     OW21565   1.469   0.389   4.113 -0.1414 -0.3898 -0.4443
 3369SOL    HW121566   1.450   0.403   4.206  1.3449  0.0503 -0.2029
 3369SOL    HW221567   1.442   0.298   4.099 -0.6029 -0.0192 -1.9009
 3370SOL     OW21568   1.179   0.498   4.254  0.3900 -0.3589  0.0044
 3370SOL    HW121569   1.171   0.557   4.329 -2.6825  0.2154 -0.7696
 3370SOL    HW221570   1.247   0.441   4.290  0.6396 -1.1318 -1.6857
 3371SOL     OW21571   4.378   3.366   0.653 -0.3983 -0.7790  0.3115
 3371SOL    HW121572   4.350   3.312   0.727 -3.0017 -0.5502 -0.4855
 3371SOL    HW221573   4.321   3.439   0.676  1.1503  0.0443  1.5185
 3372SOL     OW21574   2.575   1.792   1.290  0.1044  0.2516  0.4311
 3372SOL    HW121575   2.611   1.736   1.222 -2.1637 -0.2222 -0.3768
 3372SOL    HW221576   2.586   1.740   1.370 -0.5212  1.2738  1.1859
 3373SOL     OW21577   1.985   0.424  16.591 -0.5296 -0.1077 -0.3634
 3373SOL    HW121578   2.040   0.361  16.545 -0.6883 -0.4803 -0.0424
 3373SOL    HW221579   1.902   0.377  16.596 -1.3290  1.5016  1.5321
 3374SOL     OW21580   3.441   0.067   3.512  0.3291 -0.0832 -0.7705
 3374SOL    HW121581   3.477   0.016   3.585 -3.0533 -0.2127  0.8333
 3374SOL    HW221582   3.476   0.035   3.429 -0.1123 -1.1026 -0.5728
 3375SOL     OW21583   0.134   3.326   8.775 -0.4351  0.2645  0.0805
 3375SOL    HW121584   0.183   3.405   8.753  0.0906 -0.7071 -2.2398
 3375SOL    HW221585   0.091   3.355   8.856  1.4702  1.3380  0.6878
 3376SOL     OW21586   0.112   2.871   7.197 -0.4434  0.4370 -0.2559
 3376SOL    HW121587   0.141   2.839   7.282  3.1183  0.9212 -1.2972
 3376SOL    HW221588   0.176   2.816   7.151 -1.7671 -1.4001  0.1080
 3377SOL     OW21589   4.282   3.489  16.850  0.4469 -0.1784 -0.1221
 3377SOL    HW121590   4.243   3.403  16.868  1.7313 -0.5303  1.0286
 3377SOL    HW221591   4.373   3.461  16.862 -0.3488 -2.5905  0.3943
 3378SOL     OW21592   2.874   4.111  12.493 -0.4814 -0.5477 -0.3407
 3378SOL    HW121593   2.779   4.121  12.486 -0.6214 -0.5271  1.3882
 3378SOL    HW221594   2.902   4.198  12.465  0.0173  0.6739  3.9695
 3379SOL     OW21595   0.241   1.769   9.274 -0.2383  0.3143  0.4127
 3379SOL    HW121596   0.323   1.787   9.228 -1.3975 -1.4907 -2.3483
 3379SOL    HW221597   0.247   1.673   9.274 -1.7321  0.2198 -0.5230
 3380SOL     OW21598   3.788   2.847   2.468  0.9340  0.0619  0.1817
 3380SOL    HW121599   3.755   2.832   2.379 -2.7486  3.5982  0.9470
 3380SOL    HW221600   3.708   2.876   2.510  1.6677 -0.9077  2.2330
 3381SOL     OW21601   1.550   0.506  11.938 -0.4986 -0.2207  0.3542
 3381SOL    HW121602   1.478   0.568  11.948 -0.9923 -0.6453 -0.5792
 3381SOL    HW221603   1.594   0.538  11.860  2.2113 -1.7414  1.2586
 3382SOL     OW21604   3.268   0.379   5.274  0.0591 -0.3706 -0.0471
 3382SOL    HW121605   3.234   0.468   5.263  0.1928 -0.2913  0.1650
 3382SOL    HW221606   3.194   0.326   5.246 -0.3376  0.2005 -0.0642
 3383SOL     OW21607   1.932   2.921   6.600  0.7684 -0.5732 -0.4873
 3383SOL    HW121608   2.016   2.904   6.557  0.4482 -1.9310 -0.5679
 3383SOL    HW221609   1.949   2.913   6.694 -1.2472  2.8531  0.1625
 3384SOL     OW21610   2.879   3.132   1.385 -0.3862  0.0003 -0.5732
 3384SOL    HW121611   2.897   3.050   1.431  1.7163  1.7256  1.7139
 3384SOL    HW221612   2.883   3.102   1.294 -3.5993  1.7382 -1.2817
 3385SOL     OW21613   3.943   3.793   2.875 -0.3273  0.2464  0.1664
 3385SOL    HW121614   3.927   3.854   2.947 -0.2261  1.4880 -0.8501
 3385SOL    HW221615   3.880   3.725   2.898 -0.5992  0.9320  1.4720
 3386SOL     OW21616   1.715   2.641   5.750  0.0396  0.7053  0.0929
 3386SOL    HW121617   1.674   2.708   5.695  0.9620  0.4895 -0.8358
 3386SOL    HW221618   1.648   2.638   5.819 -0.4749  0.1342 -0.4365
 3387SOL     OW21619   2.647   2.746  13.514  0.4851  0.2063 -0.2291
 3387SOL    HW121620   2.650   2.776  13.605 -0.7718 -0.2235 -0.0417
 3387SOL    HW221621   2.732   2.778  13.484  0.2419  1.3901  0.3666
 3388SOL     OW21622   3.586   1.651   4.172 -0.1259 -0.0384 -0.4092
 3388SOL    HW121623   3.572   1.732   4.221  2.4295  0.6367 -0.8232
 3388SOL    HW221624   3.639   1.667   4.094 -0.0786 -0.4908 -0.4688
 3389SOL     OW21625   0.413   2.111   7.807 -0.9882 -0.2054 -0.1413
 3389SOL    HW121626   0.394   2.128   7.900  0.0548  0.4775 -0.0494
 3389SOL    HW221627   0.424   2.202   7.780 -1.0836  0.1970  1.1799
 3390SOL     OW21628   0.692   3.476  13.045  0.2050  0.0915 -0.9944
 3390SOL    HW121629   0.751   3.550  13.059  0.1937 -0.4493  1.8657
 3390SOL    HW221630   0.704   3.425  13.125  0.4929 -2.6456 -2.7918
 3391SOL     OW21631   2.499   1.686   0.120 -0.1471 -0.2334  0.3211
 3391SOL    HW121632   2.573   1.673   0.061  0.3708  2.2667  0.4519
 3391SOL    HW221633   2.439   1.714   0.050 -1.1801  1.0856  1.7429
 3392SOL     OW21634   3.489   3.579   0.059  0.0420 -1.1557  0.1401
 3392SOL    HW121635   3.486   3.596  17.652 -3.8742  2.1367  0.8833
 3392SOL    HW221636   3.405   3.612   0.090  0.3940 -0.5829  0.4834
 3393SOL     OW21637   2.210   4.674   7.811 -0.0683 -0.1298 -0.9965
 3393SOL    HW121638   2.149   4.680   7.737 -2.0766 -0.7421  0.6221
 3393SOL    HW221639   2.286   4.677   7.753  0.2003  1.2931 -0.5721
 3394SOL     OW21640   1.386   4.505  12.297 -0.0007  0.1262 -0.1586
 3394SOL    HW121641   1.437   4.522  12.376  0.9751 -1.7136 -0.3798
 3394SOL    HW221642   1.298   4.528  12.325 -0.3031 -1.1895 -0.0185
 3395SOL     OW21643   4.149   4.005   7.115 -0.0332  0.0950  0.4199
 3395SOL    HW121644   4.168   3.941   7.183 -1.4675 -1.6612 -0.8247
 3395SOL    HW221645   4.060   4.026   7.143  0.1586  2.2465 -0.5544
 3396SOL     OW21646   1.148   4.541   4.197 -0.1595 -0.4788  0.2713
 3396SOL    HW121647   1.058   4.521   4.223 -0.3189  1.8967  1.5117
 3396SOL    HW221648   1.161   4.496   4.113  0.1366 -0.6516  0.4105
 3397SOL     OW21649   3.717   3.349   4.744 -0.4813 -0.3289 -0.2368
 3397SOL    HW121650   3.643   3.300   4.710 -2.6535  0.8490  2.8336
 3397SOL    HW221651   3.739   3.423   4.687 -2.0516 -1.4180 -2.2580
 3398SOL     OW21652   4.041   2.068   1.848 -0.1935 -0.5515 -0.4946
 3398SOL    HW121653   3.977   2.009   1.888 -0.7474 -0.3447 -1.0723
 3398SOL    HW221654   4.064   2.020   1.768  1.1457  0.6555 -0.8352
 3399SOL     OW21655   0.120   3.519   4.801 -0.6116  0.0638 -0.1381
 3399SOL    HW121656   0.158   3.545   4.717  1.7721  0.1961  0.9820
 3399SOL    HW221657   0.137   3.425   4.808  1.6230  0.2715 -2.5859
 3400SOL     OW21658   0.344   2.677   8.649 -0.1166 -0.3806 -0.3139
 3400SOL    HW121659   0.378   2.692   8.738  0.9426  0.7889 -0.9040
 3400SOL    HW221660   0.297   2.758   8.630  0.5303  0.7966  3.0189
 3401SOL     OW21661   0.212   3.352   2.015 -0.7647 -0.2197 -0.2579
 3401SOL    HW121662   0.146   3.306   1.964 -0.9725  0.1092 -0.2845
 3401SOL    HW221663   0.276   3.390   1.955 -0.4552 -0.2911  0.0262
 3402SOL     OW21664   1.308   0.761   4.649 -0.1125 -0.0592 -0.0079
 3402SOL    HW121665   1.291   0.826   4.717  0.4811 -0.4017  0.4636
 3402SOL    HW221666   1.401   0.750   4.668 -0.3782 -1.2410  0.5559
 3403SOL     OW21667   2.720   0.464   2.578  0.3338  0.3315 -0.3021
 3403SOL    HW121668   2.791   0.459   2.515  2.1285  0.1480  1.7306
 3403SOL    HW221669   2.738   0.412   2.657 -0.4961 -0.1781 -0.4449
 3404SOL     OW21670   1.069   0.687   4.804 -0.1108  0.0631  0.0105
 3404SOL    HW121671   1.122   0.765   4.786  0.0040  0.0278  0.1933
 3404SOL    HW221672   1.076   0.634   4.724  1.1285  0.1781  0.0380
 3405SOL     OW21673   1.982   4.123   8.832  0.1153  0.2853  0.0753
 3405SOL    HW121674   1.964   4.080   8.748 -0.9553 -1.8889  1.3992
 3405SOL    HW221675   1.917   4.193   8.834 -2.0862 -1.7246 -0.3511
 3406SOL     OW21676   1.288   1.061   3.240 -0.1047  0.1035  0.3778
 3406SOL    HW121677   1.329   1.140   3.202  1.9985 -0.4653  1.4478
 3406SOL    HW221678   1.353   0.997   3.210 -0.7392  0.3624 -1.5495
 3407SOL     OW21679   0.593   2.379   2.959 -0.3165  0.3525 -0.4804
 3407SOL    HW121680   0.557   2.457   2.917  0.7063  0.5106 -1.0680
 3407SOL    HW221681   0.618   2.342   2.874 -2.1503  1.0800 -1.3349
 3408SOL     OW21682   3.871   3.942   4.041 -0.1605  0.1332  0.0502
 3408SOL    HW121683   3.787   3.963   4.000 -1.1505  0.8613  2.4908
 3408SOL    HW221684   3.860   3.979   4.128 -0.5423 -2.1256  0.9677
 3409SOL     OW21685   2.925   4.027   6.808 -0.0969  0.0993 -0.0234
 3409SOL    HW121686   2.975   4.058   6.732  1.5265 -1.6470  0.3363
 3409SOL    HW221687   2.887   4.112   6.832 -2.9580 -0.7326 -1.6362
 3410SOL     OW21688   0.025   0.945   6.164  0.4399  0.0296  0.3734
 3410SOL    HW121689   4.713   0.973   6.249  1.3705  0.7984  0.4845
 3410SOL    HW221690   4.664   0.937   6.115  1.0059  4.0069 -1.2151
 3411SOL     OW21691   0.629   3.467   6.449  0.7756 -0.2910 -0.2396
 3411SOL    HW121692   0.689   3.480   6.376  1.6398  1.3672  0.7613
 3411SOL    HW221693   0.561   3.422   6.399 -0.6555 -1.1296  2.4584
 3412SOL     OW21694   3.733   2.209  12.270  0.3753 -0.2321 -0.0494
 3412SOL    HW121695   3.778   2.281  12.225  0.7105  0.8412  1.9835
 3412SOL    HW221696   3.645   2.246  12.278 -0.5151 -2.3535 -0.0767
 3413SOL     OW21697   0.650   1.735   3.312 -0.0161 -0.0344 -0.2015
 3413SOL    HW121698   0.656   1.644   3.342 -0.6700  0.1167  0.3958
 3413SOL    HW221699   0.555   1.745   3.322  0.4736  2.5109  2.0177
 3414SOL     OW21700   0.566   3.363   0.849 -0.1085 -0.5170  0.1065
 3414SOL    HW121701   0.545   3.378   0.941  1.9484  1.3392  0.2751
 3414SOL    HW221702   0.661   3.374   0.845 -0.2314  0.4583 -0.1628
 3415SOL     OW21703   2.013   4.303   3.476  0.3787 -0.5934  0.4196
 3415SOL    HW121704   1.941   4.273   3.532 -0.5108 -1.3927 -1.1626
 3415SOL    HW221705   2.078   4.235   3.491  0.1367 -1.3777 -2.0190
 3416SOL     OW21706   0.228   2.204  11.790  0.0571  0.3836  0.3419
 3416SOL    HW121707   0.237   2.159  11.706 -1.2949  0.0959  0.3452
 3416SOL    HW221708   0.303   2.178  11.843 -0.1256 -1.6765 -0.4125
 3417SOL     OW21709   2.548   4.035   4.168  0.0609  0.4820 -0.5300
 3417SOL    HW121710   2.542   3.943   4.143 -1.0284  0.0277  1.3862
 3417SOL    HW221711   2.583   4.027   4.257  1.4566  0.2836 -1.1088
 3418SOL     OW21712   0.733   1.908  12.493  0.0743  0.0415  0.4350
 3418SOL    HW121713   0.693   1.858  12.422 -0.9365  0.1929  0.9007
 3418SOL    HW221714   0.701   1.994  12.466  0.4260  0.1967  0.5019
 3419SOL     OW21715   0.391   1.720   3.317 -0.0291  0.4098 -0.3459
 3419SOL    HW121716   0.345   1.650   3.270  1.4644 -0.4917 -0.4673
 3419SOL    HW221717   0.341   1.718   3.398 -2.4728 -0.5015 -1.8915
 3420SOL     OW21718   2.186   3.094  11.150 -0.1250 -0.3806 -0.2093
 3420SOL    HW121719   2.106   3.045  11.170 -0.0739 -1.0403 -1.6424
 3420SOL    HW221720   2.242   3.018  11.133 -2.7378 -2.0295 -1.3948
 3421SOL     OW21721   3.796   1.182   1.809 -1.1860 -0.0754 -0.1447
 3421SOL    HW121722   3.825   1.270   1.835 -1.6986 -0.7564  2.6411
 3421SOL    HW221723   3.861   1.130   1.855 -1.1094  2.1549  2.2800
 3422SOL     OW21724   1.284   1.967   4.436 -0.2295  0.3449 -0.2064
 3422SOL    HW121725   1.284   2.063   4.443  0.0304  0.3900 -0.8881
 3422SOL    HW221726   1.201   1.951   4.391 -0.6538  1.3630  0.1904
 3423SOL     OW21727   0.750   1.605  11.412  0.5940  0.2446 -0.0850
 3423SOL    HW121728   0.712   1.685  11.376 -3.8064 -1.0448  1.6562
 3423SOL    HW221729   0.836   1.637  11.440  0.3723  0.7453  0.0245
 3424SOL     OW21730   0.323   1.459   6.887  0.2636  0.0307 -0.4686
 3424SOL    HW121731   0.370   1.479   6.806  1.1570 -2.1196 -0.4829
 3424SOL    HW221732   0.316   1.540   6.938 -2.2380 -0.3366 -0.2407
 3425SOL     OW21733   4.362   2.299   4.867  0.1746  0.1415 -0.0380
 3425SOL    HW121734   4.337   2.370   4.927 -0.3970  0.4833 -0.6780
 3425SOL    HW221735   4.452   2.268   4.875  0.2678  0.9875  2.2617
 3426SOL     OW21736   0.356   2.463   7.242  0.1424  0.4980  0.1250
 3426SOL    HW121737   0.343   2.509   7.159  1.5355  0.3896 -0.1411
 3426SOL    HW221738   0.447   2.488   7.252  0.5954 -0.4340 -1.6719
 3427SOL     OW21739   2.486   1.203   4.981 -0.2252  0.0448  0.2636
 3427SOL    HW121740   2.519   1.285   4.945  0.5371  0.4734  1.9538
 3427SOL    HW221741   2.419   1.191   4.913 -0.4108 -0.9709  0.6258
 3428SOL     OW21742   0.048   0.189   4.020  0.0310 -0.4802 -0.0090
 3428SOL    HW121743   0.094   0.120   4.068 -0.9011 -0.2666  1.1881
 3428SOL    HW221744   0.112   0.259   4.012  1.5863 -1.8122  0.6864
 3429SOL     OW21745   3.696   2.785   2.944 -0.6205 -0.0489 -0.0063
 3429SOL    HW121746   3.644   2.704   2.951 -1.4364  0.8517  4.4427
 3429SOL    HW221747   3.779   2.758   2.905 -1.1572 -2.4991  0.5476
 3430SOL     OW21748   1.859   4.520   6.922 -0.1578 -0.2734  0.0751
 3430SOL    HW121749   1.846   4.426   6.931 -1.6011  0.0964  1.8919
 3430SOL    HW221750   1.841   4.550   7.012  1.2022 -2.2885  1.0144
 3431SOL     OW21751   0.959   0.011   2.865 -0.2533  1.2396 -0.1817
 3431SOL    HW121752   0.877   0.035   2.907  0.1078  2.0195  0.0771
 3431SOL    HW221753   0.973   4.641   2.892  1.6943  1.1298 -1.5541
 3432SOL     OW21754   3.836   4.611   5.403 -0.2676 -0.6015  0.5823
 3432SOL    HW121755   3.852   4.530   5.354  1.8315 -0.4436  0.9967
 3432SOL    HW221756   3.760   4.586   5.454 -0.6872  0.2809  0.3848
 3433SOL     OW21757   0.141   0.581   2.085 -0.5270  0.3865 -0.0649
 3433SOL    HW121758   0.151   0.543   1.997  2.0272  1.1948 -0.0974
 3433SOL    HW221759   0.206   0.543   2.144 -0.6772 -0.1565 -0.2435
 3434SOL     OW21760   2.764   1.732  16.151  0.6293 -0.4582  0.2061
 3434SOL    HW121761   2.698   1.669  16.122  0.7116  0.0684 -1.1407
 3434SOL    HW221762   2.746   1.741  16.245 -0.3827  1.9652 -0.2051
 3435SOL     OW21763   1.752   1.350   4.485 -0.0295 -0.0853  0.2632
 3435SOL    HW121764   1.681   1.290   4.461 -0.6495  0.5543  0.5019
 3435SOL    HW221765   1.810   1.341   4.409 -2.5385 -0.8642 -1.5612
 3436SOL     OW21766   3.319   3.351   6.041 -0.2373  0.0837 -0.3260
 3436SOL    HW121767   3.273   3.434   6.038  1.9098  1.2464 -1.6282
 3436SOL    HW221768   3.398   3.370   6.093  0.3418 -2.5975 -0.2075
 3437SOL     OW21769   0.053   0.517  10.821 -0.1719 -0.1971 -0.5825
 3437SOL    HW121770   0.044   0.452  10.890  1.6721  1.5941  1.3398
 3437SOL    HW221771   4.683   0.540  10.802 -0.1958 -0.4725 -0.7985
 3438SOL     OW21772   1.378   2.350  17.012 -0.0352  0.4279  0.4891
 3438SOL    HW121773   1.437   2.424  16.994  2.0350 -0.9602  1.6169
 3438SOL    HW221774   1.423   2.317  17.089  0.2151  1.7539  0.9053
 3439SOL     OW21775   3.855   2.105   4.783  0.4001  0.1895 -0.1808
 3439SOL    HW121776   3.936   2.156   4.780  0.4282  0.2512  1.6818
 3439SOL    HW221777   3.892   2.017   4.784  1.4045  0.6373  1.8009
 3440SOL     OW21778   1.162   1.393  16.526  0.1639  0.1626 -0.1112
 3440SOL    HW121779   1.073   1.416  16.500  0.0793 -0.7961 -0.6790
 3440SOL    HW221780   1.199   1.468  16.479  1.1536  0.2770  0.8506
 3441SOL     OW21781   1.095   3.118   8.469 -0.1425  0.3968  0.1214
 3441SOL    HW121782   1.025   3.173   8.506 -0.7432 -0.6851  0.5993
 3441SOL    HW221783   1.156   3.138   8.540  0.8725 -0.1200 -0.6152
 3442SOL     OW21784   4.190   1.363  12.879 -0.7492 -0.0473 -0.3762
 3442SOL    HW121785   4.120   1.424  12.857 -0.6539 -0.1141 -0.8507
 3442SOL    HW221786   4.158   1.345  12.968 -0.7373  0.9650 -0.1736
 3443SOL     OW21787   0.706   0.262   3.126 -0.1038  0.2315  0.1949
 3443SOL    HW121788   0.683   0.228   3.212 -0.9261 -0.0416 -0.1278
 3443SOL    HW221789   0.787   0.305   3.155  2.0412 -0.8744 -4.0505
 3444SOL     OW21790   3.672   3.795   9.195 -0.0224  0.5824  0.0209
 3444SOL    HW121791   3.743   3.830   9.248  2.1003 -0.8951 -1.8304
 3444SOL    HW221792   3.646   3.714   9.240  0.6082  0.9086  0.9872
 3445SOL     OW21793   0.800   0.360  12.849 -1.2979  0.7387 -0.2636
 3445SOL    HW121794   0.717   0.329  12.885  0.9901 -2.5122  2.2319
 3445SOL    HW221795   0.786   0.452  12.874  0.7539  1.0986 -0.4260
 3446SOL     OW21796   2.696   3.282   4.247 -0.6926 -0.1686 -0.0003
 3446SOL    HW121797   2.688   3.216   4.316  0.4117 -0.8701 -0.5303
 3446SOL    HW221798   2.706   3.224   4.171  0.7015  0.9311 -0.6563
 3447SOL     OW21799   0.361   4.460   6.398 -0.1045 -0.2247  0.8075
 3447SOL    HW121800   0.298   4.527   6.373  1.8792  0.7960 -1.4989
 3447SOL    HW221801   0.306   4.382   6.386 -0.5144  0.3834 -1.3521
 3448SOL     OW21802   2.745   2.171   4.068 -0.1750 -0.1323 -0.5196
 3448SOL    HW121803   2.674   2.112   4.091  0.3728 -0.6036 -0.0109
 3448SOL    HW221804   2.802   2.164   4.145 -1.2593 -0.3709  0.2624
 3449SOL     OW21805   3.987   4.282   6.250 -0.1977 -0.0752 -0.6547
 3449SOL    HW121806   3.960   4.370   6.223  2.7532  1.3193  0.9205
 3449SOL    HW221807   3.970   4.280   6.344 -1.8687  0.9745 -0.9291
 3450SOL     OW21808   3.831   3.812   6.728 -0.0982  0.2731  0.2356
 3450SOL    HW121809   3.832   3.740   6.665  3.2248  1.0187 -0.5469
 3450SOL    HW221810   3.909   3.855   6.695 -1.3252  1.8878 -0.5450
 3451SOL     OW21811   4.431   2.431   4.076 -0.8039  0.2533  0.0972
 3451SOL    HW121812   4.421   2.484   4.154 -1.4283 -1.5811  1.2560
 3451SOL    HW221813   4.509   2.379   4.097 -0.6905 -0.2933 -1.5957
 3452SOL     OW21814   2.686   0.226   8.219 -0.1561  0.1345  0.0551
 3452SOL    HW121815   2.767   0.238   8.269  1.6081 -0.3071 -2.6906
 3452SOL    HW221816   2.705   0.140   8.180 -1.3851  0.0680 -0.4030
 3453SOL     OW21817   4.028   2.093   7.360 -0.2488 -0.1699 -0.5456
 3453SOL    HW121818   3.977   2.152   7.415 -2.0321  0.5520 -2.9800
 3453SOL    HW221819   4.055   2.154   7.292  1.3137 -0.5005 -0.2227
 3454SOL     OW21820   3.021   3.468   8.849  0.0697  0.2297 -0.9421
 3454SOL    HW121821   2.970   3.491   8.771 -1.9360  0.9145  0.5567
 3454SOL    HW221822   3.020   3.372   8.854 -1.9355  0.3852  1.8208
 3455SOL     OW21823   1.258   2.321  15.252  0.2636  0.1247  0.3329
 3455SOL    HW121824   1.298   2.246  15.209  2.4066  0.7521  1.2419
 3455SOL    HW221825   1.205   2.363  15.184  2.8806 -0.4986 -2.0623
 3456SOL     OW21826   1.755   3.927   4.146 -0.3309 -0.0771 -0.1552
 3456SOL    HW121827   1.814   3.999   4.170 -1.0972 -0.2637  2.2942
 3456SOL    HW221828   1.783   3.862   4.210 -2.1147  1.4765  2.1783
 3457SOL     OW21829   3.662   3.798   3.707  0.3472 -0.5514  0.0891
 3457SOL    HW121830   3.751   3.767   3.689  1.2523 -0.1501  3.7923
 3457SOL    HW221831   3.657   3.858   3.633 -0.4130 -0.5296  0.1549
 3458SOL     OW21832   1.833   3.515  15.968  0.0922 -0.0043  0.1018
 3458SOL    HW121833   1.796   3.602  15.984  0.0157  0.5473 -3.1195
 3458SOL    HW221834   1.920   3.540  15.939 -0.1518  1.9243  1.0298
 3459SOL     OW21835   0.767   3.532   7.148  0.6001  0.0986 -0.1802
 3459SOL    HW121836   0.844   3.581   7.178  0.5681 -0.4413  0.7892
 3459SOL    HW221837   0.812   3.463   7.100 -1.7170 -0.8855 -0.9536
 3460SOL     OW21838   1.580   1.866   6.553  0.1872 -0.4975  0.2892
 3460SOL    HW121839   1.516   1.873   6.624 -1.1210  0.5028 -0.9969
 3460SOL    HW221840   1.656   1.842   6.606  0.5403  1.8418  0.8764
 3461SOL     OW21841   1.241   1.353   8.280 -0.0685  0.0696 -0.3271
 3461SOL    HW121842   1.161   1.351   8.334 -0.1100  3.1036 -0.2745
 3461SOL    HW221843   1.206   1.329   8.194 -1.9169  1.4303  0.0464
 3462SOL     OW21844   0.050   3.983   7.276 -0.0914  0.3880 -0.0367
 3462SOL    HW121845   4.681   3.951   7.266 -0.3126  1.6728 -2.1525
 3462SOL    HW221846   0.018   4.057   7.327  1.7623  1.8757 -1.0624
 3463SOL     OW21847   1.910   4.262   6.219  0.5675  0.1166 -0.6101
 3463SOL    HW121848   1.949   4.319   6.153  0.8248 -0.3551 -0.8678
 3463SOL    HW221849   1.859   4.327   6.269  2.9838  0.9037  0.8280
 3464SOL     OW21850   0.480   3.502   6.840 -0.3482 -0.2996  0.1055
 3464SOL    HW121851   0.473   3.480   6.933 -0.9399  0.1515  0.1695
 3464SOL    HW221852   0.566   3.463   6.824 -0.0379 -0.8692  3.1792
 3465SOL     OW21853   1.578   1.599  13.174 -0.5969  0.4685  0.3556
 3465SOL    HW121854   1.621   1.603  13.088  0.6554 -0.3836  0.9420
 3465SOL    HW221855   1.642   1.647  13.226  0.1478 -0.7000  0.5257
 3466SOL     OW21856   2.924   3.945   2.088  0.3908  0.2290  0.4012
 3466SOL    HW121857   2.992   3.915   2.028 -1.2670 -0.5177 -1.1039
 3466SOL    HW221858   2.911   4.032   2.050  0.3675  0.2048  0.3539
 3467SOL     OW21859   4.682   4.358   0.407 -0.4795 -0.3598  0.1570
 3467SOL    HW121860   0.017   4.282   0.393 -0.7482 -0.5018 -0.1374
 3467SOL    HW221861   4.676   4.403   0.322  2.7295  1.2756  0.7899
 3468SOL     OW21862   2.379   1.159  15.179 -0.2352  0.0542 -0.1304
 3468SOL    HW121863   2.361   1.244  15.219 -0.8524 -0.4316  0.6076
 3468SOL    HW221864   2.296   1.113  15.192  0.0618  0.1787  2.1778
 3469SOL     OW21865   3.580   4.346   3.770 -0.0312 -0.3881  0.3596
 3469SOL    HW121866   3.582   4.352   3.866  0.4181 -0.0938  0.3293
 3469SOL    HW221867   3.603   4.436   3.748  1.2695 -0.4809  1.3266
 3470SOL     OW21868   0.126   1.592   6.436  0.0094 -0.0699  0.2143
 3470SOL    HW121869   0.202   1.600   6.494 -0.0685  0.6350  0.2131
 3470SOL    HW221870   0.099   1.501   6.452 -3.6599  1.2751  1.6863
 3471SOL     OW21871   3.248   3.435  17.678  0.2105  0.7525 -0.1740
 3471SOL    HW121872   3.312   3.381   0.038  0.6866  1.4886  0.0296
 3471SOL    HW221873   3.302   3.467  17.606  0.6495  3.1075  1.2114
 3472SOL     OW21874   3.545   0.918   3.775 -0.1123  0.4728 -0.0601
 3472SOL    HW121875   3.548   1.001   3.727 -0.7514  0.1081 -0.7300
 3472SOL    HW221876   3.450   0.907   3.777 -0.1989  1.3309  0.4261
 3473SOL     OW21877   3.060   2.319   0.884  0.2711 -0.2679 -0.0047
 3473SOL    HW121878   2.996   2.263   0.840  0.9706  0.8517 -2.4287
 3473SOL    HW221879   3.142   2.275   0.859 -0.1437 -1.5894  0.9376
 3474SOL     OW21880   0.341   0.050  17.098 -0.4017 -0.3764  0.2931
 3474SOL    HW121881   0.350   0.068  17.191  0.5901 -1.3456  0.3845
 3474SOL    HW221882   0.392   0.117  17.052 -1.2934  0.2267  0.1792
 3475SOL     OW21883   0.505   3.344  12.017  0.3174  0.3050 -0.3941
 3475SOL    HW121884   0.522   3.309  12.104  0.9009  1.0015 -0.2307
 3475SOL    HW221885   0.525   3.437  12.027  1.0040 -0.0914  1.8222
 3476SOL     OW21886   3.108   1.466   8.522  0.4812 -0.3544  0.3953
 3476SOL    HW121887   3.148   1.544   8.486  0.6913 -1.3802 -1.6089
 3476SOL    HW221888   3.123   1.477   8.616  2.4443  2.1568 -0.2250
 3477SOL     OW21889   3.567   3.486   2.437 -0.2065 -0.5680 -0.3919
 3477SOL    HW121890   3.544   3.425   2.367  1.1963  0.2779 -1.5783
 3477SOL    HW221891   3.484   3.529   2.459 -0.9160 -2.0054 -0.3015
 3478SOL     OW21892   3.238   2.655  14.887 -0.9994 -0.2007  0.2013
 3478SOL    HW121893   3.268   2.742  14.914 -0.1604 -0.3065 -0.3721
 3478SOL    HW221894   3.271   2.657  14.797  1.0258  0.8849  0.9496
 3479SOL     OW21895   4.039   2.505   9.438 -0.8914 -0.8283 -0.4943
 3479SOL    HW121896   4.076   2.436   9.493  2.2085  1.5948  0.4638
 3479SOL    HW221897   4.004   2.568   9.501 -0.4898  1.8071 -2.8797
 3480SOL     OW21898   4.190   0.808   5.958 -0.2722 -0.3833 -0.2216
 3480SOL    HW121899   4.130   0.781   6.027  2.1462 -2.1463  1.2329
 3480SOL    HW221900   4.262   0.857   5.998 -1.1287 -0.9314  2.0102
 3481SOL     OW21901   0.502   2.901   2.314 -0.1112 -0.3337  0.2178
 3481SOL    HW121902   0.469   2.812   2.299  0.3089 -0.9380  2.8568
 3481SOL    HW221903   0.454   2.946   2.244  0.0921 -0.6545 -0.1287
 3482SOL     OW21904   1.844   1.330   8.174 -0.1546  0.8018 -0.3411
 3482SOL    HW121905   1.931   1.295   8.150 -0.1835 -0.3436  1.2035
 3482SOL    HW221906   1.867   1.413   8.215 -0.1179  1.2820 -1.3324
 3483SOL     OW21907   0.795   3.808   0.029  0.0006  0.0467  0.1774
 3483SOL    HW121908   0.850   3.778  17.643  0.7090  0.0289  0.7125
 3483SOL    HW221909   0.731   3.738   0.037 -0.8571  0.8230  0.0672
 3484SOL     OW21910   1.437   4.071   3.793  0.5650  0.6454  0.3318
 3484SOL    HW121911   1.483   4.154   3.807 -1.9102  2.2236 -0.8954
 3484SOL    HW221912   1.446   4.057   3.699 -0.3061  2.1835  0.0141
 3485SOL     OW21913   2.972   4.527  16.745  0.0008 -0.0309  0.5161
 3485SOL    HW121914   2.905   4.571  16.798  0.8171 -0.3536  1.8356
 3485SOL    HW221915   2.991   4.456  16.807 -1.1927 -0.0097  0.9103
 3486SOL     OW21916   0.967   3.912   7.653  0.6134  0.4023 -0.1592
 3486SOL    HW121917   1.008   3.948   7.732  0.9781  2.2895 -1.2094
 3486SOL    HW221918   0.877   3.896   7.681  0.6892  2.3382  1.1853
 3487SOL     OW21919   1.194   3.191  10.926 -0.5990  0.6548  0.0080
 3487SOL    HW121920   1.289   3.194  10.921 -0.6132  0.4037 -0.4142
 3487SOL    HW221921   1.174   3.166  10.835 -1.2537 -0.5403  0.4816
 3488SOL     OW21922   1.320   1.025   2.760 -0.3582  0.0552 -0.0574
 3488SOL    HW121923   1.349   1.115   2.770 -1.8799  0.5230  0.1549
 3488SOL    HW221924   1.286   1.017   2.670  1.0334 -0.8375 -0.5015
 3489SOL     OW21925   1.450   3.387   4.946  0.3411  0.1695  0.0178
 3489SOL    HW121926   1.399   3.416   5.022 -0.5061 -0.3315 -0.3521
 3489SOL    HW221927   1.464   3.473   4.907  0.6309  0.1085 -0.0088
 3490SOL     OW21928   3.208   3.808   6.208 -0.1100  0.3561  0.3609
 3490SOL    HW121929   3.155   3.733   6.234  0.2634 -0.5921 -1.5756
 3490SOL    HW221930   3.296   3.778   6.228 -1.2202 -1.5733  2.3437
 3491SOL     OW21931   1.061   0.052   9.095 -0.5697  0.2561  0.2862
 3491SOL    HW121932   1.052   0.118   9.164 -0.4296 -0.5003  1.0211
 3491SOL    HW221933   0.975   0.054   9.055 -0.0754  1.0886 -0.7490
 3492SOL     OW21934   2.631   2.030   5.178 -0.4538 -0.1956  0.0506
 3492SOL    HW121935   2.699   1.990   5.232 -0.7251 -2.2280 -1.1195
 3492SOL    HW221936   2.565   2.047   5.245 -0.2962  5.3757 -1.2503
 3493SOL     OW21937   3.565   4.569   6.697  0.4477  0.6663 -0.3055
 3493SOL    HW121938   3.507   4.520   6.637  0.6051 -0.3242  0.3523
 3493SOL    HW221939   3.611   4.492   6.729 -0.2541  0.8705  1.1800
 3494SOL     OW21940   3.807   4.066   1.835  0.0380 -0.2662 -0.3252
 3494SOL    HW121941   3.730   4.078   1.890 -1.2422 -0.8117 -2.0121
 3494SOL    HW221942   3.862   4.138   1.867  0.5102 -1.0867  0.7172
 3495SOL     OW21943   1.592   2.461   8.313 -0.3553 -0.0976  0.2492
 3495SOL    HW121944   1.626   2.430   8.397  0.2444 -0.1755 -0.0176
 3495SOL    HW221945   1.566   2.376   8.276  1.2898 -0.0741 -0.9745
 3496SOL     OW21946   1.131   3.729   9.306  0.0507  0.0847  0.6873
 3496SOL    HW121947   1.134   3.810   9.358 -0.8796 -0.1864  1.1518
 3496SOL    HW221948   1.194   3.678   9.356 -1.4237  0.5135  2.9602
 3497SOL     OW21949   0.306   3.095   1.091  0.1341 -0.7207 -0.3247
 3497SOL    HW121950   0.245   3.062   1.025  0.7432 -0.2233 -1.1350
 3497SOL    HW221951   0.311   3.185   1.059  0.9114 -0.4085  0.7009
 3498SOL     OW21952   1.456   3.723   7.512 -0.5710 -0.9485  0.0662
 3498SOL    HW121953   1.431   3.713   7.420 -1.3534  1.9272 -0.0494
 3498SOL    HW221954   1.374   3.700   7.555 -0.8531 -1.0803 -0.5358
 3499SOL     OW21955   1.446   0.550   9.070  0.3432  0.2019 -0.0720
 3499SOL    HW121956   1.374   0.493   9.044 -0.1857  0.3597  1.0421
 3499SOL    HW221957   1.485   0.568   8.985  2.3164  2.3247  1.2719
 3500SOL     OW21958   1.505   3.831   3.405 -0.7365 -0.3207  0.4002
 3500SOL    HW121959   1.454   3.840   3.324 -0.4295  1.4466  0.3982
 3500SOL    HW221960   1.588   3.871   3.378  0.2427 -0.5367  3.0951
 3501SOL     OW21961   1.325   2.402   2.508  0.2357  0.6262  0.2828
 3501SOL    HW121962   1.241   2.357   2.495 -0.4517  1.5482  1.5586
 3501SOL    HW221963   1.389   2.331   2.507 -0.6697 -0.2097  1.7830
 3502SOL     OW21964   0.769   0.695   8.659  0.0192 -0.4763  0.1985
 3502SOL    HW121965   0.763   0.704   8.564 -1.2708  0.1917  0.3381
 3502SOL    HW221966   0.696   0.741   8.701  0.7985  0.2934  0.7062
 3503SOL     OW21967   4.648   3.446  12.490 -0.2466 -0.0279 -0.1590
 3503SOL    HW121968   4.584   3.425  12.559 -1.3815 -1.7583 -1.7259
 3503SOL    HW221969   4.648   3.354  12.462  0.3251 -0.0132 -0.2044
 3504SOL     OW21970   0.132   3.917   2.766  0.2367 -0.2438 -0.1672
 3504SOL    HW121971   0.205   3.875   2.811  0.4913 -0.8831 -1.1646
 3504SOL    HW221972   0.165   4.006   2.762  0.8397 -0.5544 -2.3718
 3505SOL     OW21973   3.080   4.371  14.177  0.1138  0.1243  0.2154
 3505SOL    HW121974   3.174   4.372  14.161  0.5377 -0.5347  2.7476
 3505SOL    HW221975   3.041   4.423  14.106  2.9867  3.9113  1.3915
 3506SOL     OW21976   1.004   4.065   0.789  0.4709  0.4538 -0.3754
 3506SOL    HW121977   1.023   4.135   0.727 -0.3530  1.1703  0.1740
 3506SOL    HW221978   0.991   4.116   0.869 -1.1122  0.0868 -0.3817
 3507SOL     OW21979   0.058   0.669   6.266 -0.7836 -0.0213  0.1671
 3507SOL    HW121980   0.031   0.750   6.223 -1.0957 -0.8089 -1.1144
 3507SOL    HW221981   0.104   0.708   6.341  0.4657 -0.7318 -0.2365
 3508SOL     OW21982   3.808   2.139   5.326  0.0142 -0.0136  0.6851
 3508SOL    HW121983   3.733   2.190   5.357 -1.6674 -2.4124  0.5263
 3508SOL    HW221984   3.765   2.070   5.275  1.2216 -0.3011  0.0513
 3509SOL     OW21985   3.836   1.469  15.997 -0.2112  0.1702 -0.4842
 3509SOL    HW121986   3.915   1.419  16.019 -0.3761 -0.3680 -1.1098
 3509SOL    HW221987   3.797   1.452  16.083 -1.0481  1.3389 -0.6392
 3510SOL     OW21988   3.527   2.473  13.881  0.2072  0.6108 -0.6797
 3510SOL    HW121989   3.461   2.539  13.859  0.6192  0.3655 -2.5655
 3510SOL    HW221990   3.574   2.467  13.798  2.6056  0.6401  0.6680
 3511SOL     OW21991   1.245   1.251  17.371 -0.1221 -0.6693  0.1036
 3511SOL    HW121992   1.263   1.338  17.406  0.3160 -1.1850  1.1347
 3511SOL    HW221993   1.249   1.273  17.277  1.1610 -0.8270  0.1309
 3512SOL     OW21994   0.033   2.103   8.126  0.1918  0.2300  0.3090
 3512SOL    HW121995   0.102   2.152   8.080  0.6012 -0.6781 -0.0388
 3512SOL    HW221996   0.075   2.093   8.211  4.3489 -0.7879 -1.8715
 3513SOL     OW21997   2.946   3.780   9.373 -0.0974  0.1737  0.2415
 3513SOL    HW121998   3.012   3.846   9.350  0.8158 -0.6361  0.5622
 3513SOL    HW221999   2.919   3.751   9.286  0.6949 -1.3232  0.4911
 3514SOL     OW22000   1.488   3.178   5.121  0.3989 -0.0534 -0.7794
 3514SOL    HW122001   1.458   3.237   5.052  0.5288  0.3612 -0.4839
 3514SOL    HW222002   1.555   3.128   5.074 -0.1477 -1.8859  0.4032
 3515SOL     OW22003   1.808   4.640   9.512 -0.1168 -0.2841  0.3016
 3515SOL    HW122004   1.771   4.694   9.582  0.0153  0.5042 -0.2468
 3515SOL    HW222005   1.790   4.691   9.434  1.6663 -1.3479 -0.7899
 3516SOL     OW22006   2.852   2.850   6.251  0.3222 -0.0371 -0.2337
 3516SOL    HW122007   2.765   2.887   6.266  1.2268  1.5680  0.9987
 3516SOL    HW222008   2.876   2.905   6.176  3.9936 -0.5243  0.5976
 3517SOL     OW22009   0.068   1.678   7.978  0.2113  0.2518 -0.2897
 3517SOL    HW122010   4.694   1.693   7.983  0.1644 -0.8743  2.3656
 3517SOL    HW222011   0.094   1.737   7.908 -1.1605  0.9577 -0.2187
 3518SOL     OW22012   0.002   1.831   8.726 -0.3702  0.4858  0.1716
 3518SOL    HW122013   4.639   1.875   8.716 -0.2169  1.6452  3.8788
 3518SOL    HW222014   0.009   1.794   8.638 -0.3007  1.8109 -0.3781
 3519SOL     OW22015   3.909   3.704  16.919 -0.6839  0.2345  0.0308
 3519SOL    HW122016   3.973   3.682  16.987  1.5390  2.8238 -1.2207
 3519SOL    HW222017   3.956   3.661  16.848  1.1395  1.0568  0.7519
 3520SOL     OW22018   3.487   2.995  14.700  0.2030 -0.3068  0.2051
 3520SOL    HW122019   3.544   3.035  14.634 -1.6535  1.3372 -0.4099
 3520SOL    HW222020   3.544   3.020  14.772 -0.4375  0.5557  0.4140
 3521SOL     OW22021   0.466   3.940  16.771 -0.1489  0.0460 -0.5023
 3521SOL    HW122022   0.477   3.911  16.681  0.5521 -2.0009  0.2496
 3521SOL    HW222023   0.555   3.933  16.807  0.0630 -2.7316 -1.5836
 3522SOL     OW22024   3.109   2.482  14.537 -0.2294  0.5537 -0.4714
 3522SOL    HW122025   3.145   2.433  14.464  0.4707 -1.4020  1.1699
 3522SOL    HW222026   3.020   2.499  14.507 -0.3959 -1.7948 -1.2803
 3523SOL     OW22027   3.478   3.786   4.170 -0.0883 -0.5197 -0.0381
 3523SOL    HW122028   3.539   3.748   4.107 -0.6054  0.2709 -1.0141
 3523SOL    HW222029   3.412   3.717   4.176 -0.6996  0.1382  0.8123
 3524SOL     OW22030   2.112   3.177   0.729  0.0810  0.3136 -0.5141
 3524SOL    HW122031   2.052   3.246   0.701 -0.5124 -0.3719 -0.9336
 3524SOL    HW222032   2.079   3.103   0.678  0.7066 -0.6224  0.4396
 3525SOL     OW22033   3.189   1.681   4.608  0.1716  0.3375  0.1223
 3525SOL    HW122034   3.179   1.618   4.536 -1.1662  0.1395  0.4859
 3525SOL    HW222035   3.248   1.737   4.557  0.1138  0.9869  0.7715
 3526SOL     OW22036   0.317   1.115  12.193  0.1205  0.3368  0.4927
 3526SOL    HW122037   0.303   1.067  12.112  2.7014  0.0095  0.2290
 3526SOL    HW222038   0.234   1.086  12.231  0.1321  1.6325  1.5419
 3527SOL     OW22039   1.753   1.241   4.747 -0.3646  0.6854  0.8099
 3527SOL    HW122040   1.833   1.200   4.779  0.4693  1.7937  0.1719
 3527SOL    HW222041   1.775   1.275   4.660 -0.2520  0.9464  0.9384
 3528SOL     OW22042   0.697   1.388   2.451 -0.0323 -0.2660  0.2876
 3528SOL    HW122043   0.631   1.420   2.389  0.7145  2.2864  0.8243
 3528SOL    HW222044   0.699   1.296   2.421 -0.2441  0.2086 -1.1993
 3529SOL     OW22045   3.534   1.918  16.640 -0.2941  0.0596  0.7057
 3529SOL    HW122046   3.603   1.968  16.683 -0.1077 -0.0649  0.5520
 3529SOL    HW222047   3.527   1.843  16.700  0.2389  0.2322  0.9743
 3530SOL     OW22048   0.932   0.993   5.599 -0.4211  0.1585 -0.2824
 3530SOL    HW122049   1.017   1.035   5.582 -1.2265  1.3120 -1.5082
 3530SOL    HW222050   0.915   0.963   5.509 -0.5286 -0.5120 -0.0341
 3531SOL     OW22051   0.555   1.089   6.619  0.2496  0.2884  0.2256
 3531SOL    HW122052   0.600   1.103   6.535  0.6794 -2.1517  0.0500
 3531SOL    HW222053   0.591   1.006   6.650  2.0234  0.6984 -0.7027
 3532SOL     OW22054   3.547   0.992   2.527  0.3119  0.0088  0.1930
 3532SOL    HW122055   3.514   1.079   2.504  2.1920 -0.1654 -3.0861
 3532SOL    HW222056   3.633   1.030   2.541  0.6673 -0.8526  0.3310
 3533SOL     OW22057   1.250   1.899  12.474 -0.3844  0.4810  0.5573
 3533SOL    HW122058   1.233   1.865  12.386  1.4979 -1.0943  0.8179
 3533SOL    HW222059   1.199   1.836  12.526 -1.0500 -0.1632 -0.8806
 3534SOL     OW22060   3.407   2.600   3.776 -0.1678  0.4930  0.8501
 3534SOL    HW122061   3.313   2.587   3.785  0.0404 -0.9435  0.8889
 3534SOL    HW222062   3.412   2.669   3.709  1.7545 -0.3837  0.0825
 3535SOL     OW22063   2.109   3.531   8.514  0.2160  0.4211  0.1443
 3535SOL    HW122064   2.115   3.457   8.574  0.4362 -0.2147 -0.6545
 3535SOL    HW222065   2.024   3.561   8.546 -0.4851 -0.9069 -0.4287
 3536SOL     OW22066   3.293   0.528   7.559  0.6718  0.2215  0.0727
 3536SOL    HW122067   3.289   0.478   7.478  0.3369  0.1416  0.1407
 3536SOL    HW222068   3.199   0.540   7.569  0.6040  1.0113 -1.6551
 3537SOL     OW22069   4.592   2.698  10.652 -0.0270 -0.4295 -0.6001
 3537SOL    HW122070   4.673   2.682  10.699 -0.7215  1.2401  1.1707
 3537SOL    HW222071   4.623   2.725  10.565  4.1342  1.4498  1.4935
 3538SOL     OW22072   4.126   0.891  12.814 -0.2680 -0.2484 -0.7793
 3538SOL    HW122073   4.047   0.865  12.861  0.4805  0.6167  0.9622
 3538SOL    HW222074   4.193   0.834  12.853 -0.1048  0.2014 -0.4055
 3539SOL     OW22075   0.839   1.674   8.832 -0.2502 -0.3192 -0.0430
 3539SOL    HW122076   0.755   1.643   8.866  0.5394 -1.7367  0.5863
 3539SOL    HW222077   0.853   1.613   8.761  0.0443  0.5316 -0.7173
 3540SOL     OW22078   0.956   3.552  11.200 -0.0498 -0.3081  0.0590
 3540SOL    HW122079   1.015   3.601  11.258 -0.9056  0.0872  0.5985
 3540SOL    HW222080   1.016   3.538  11.127  2.1515  1.8174  1.4480
 3541SOL     OW22081   1.263   2.213  16.791  0.0106  0.2499  0.0016
 3541SOL    HW122082   1.328   2.218  16.861  1.0676  0.3605 -0.9895
 3541SOL    HW222083   1.285   2.289  16.736  0.8486  0.0488  0.0556
 3542SOL     OW22084   4.001   3.182   4.240  0.0111  0.3300  0.0309
 3542SOL    HW122085   3.959   3.110   4.286  0.5814  0.1074  0.2092
 3542SOL    HW222086   4.081   3.144   4.204  0.3086  1.3370 -0.3945
 3543SOL     OW22087   2.772   2.136   6.738 -0.6128  0.1380  0.0172
 3543SOL    HW122088   2.814   2.209   6.692  2.0617 -0.3114  1.7576
 3543SOL    HW222089   2.776   2.071   6.668  1.8947  0.2040  0.1247
 3544SOL     OW22090   1.364   2.651   2.638  0.3586 -0.1011 -0.3111
 3544SOL    HW122091   1.318   2.708   2.577  0.1190 -0.4613 -0.4659
 3544SOL    HW222092   1.320   2.570   2.611 -1.3515  0.6387  0.2600
 3545SOL     OW22093   0.880   2.948  15.592 -0.5046 -0.5308  0.8152
 3545SOL    HW122094   0.874   2.911  15.679 -3.0659 -1.8440  0.0704
 3545SOL    HW222095   0.854   3.040  15.597  1.5325 -0.0137  1.7786
 3546SOL     OW22096   0.437   1.583   6.308  0.2723  0.1353  0.0327
 3546SOL    HW122097   0.459   1.635   6.232 -1.2212  0.2442 -0.3263
 3546SOL    HW222098   0.493   1.632   6.369  0.5657  0.0719 -0.1875
 3547SOL     OW22099   1.881   1.389  13.422  0.1174 -0.1070 -0.4209
 3547SOL    HW122100   1.788   1.400  13.406  0.1367 -0.9714 -1.1703
 3547SOL    HW222101   1.918   1.322  13.364 -1.0350 -2.3399  1.3996
 3548SOL     OW22102   0.368   4.147   4.008  0.2454  0.7372  0.1069
 3548SOL    HW122103   0.445   4.204   4.013  0.0168  1.0394  0.1879
 3548SOL    HW222104   0.414   4.068   4.034 -2.1812  0.2217  2.7441
 3549SOL     OW22105   2.847   3.296   6.381 -0.2888  0.3062 -0.1887
 3549SOL    HW122106   2.855   3.235   6.454  2.0445 -1.3245 -1.7974
 3549SOL    HW222107   2.808   3.374   6.419 -0.6395 -0.5229  1.1333
 3550SOL     OW22108   0.548   0.924   6.331  0.4021  0.2851 -0.5300
 3550SOL    HW122109   0.574   0.834   6.350  0.4238  0.8050  1.8416
 3550SOL    HW222110   0.631   0.970   6.319  0.6251 -0.2352 -1.0477
 3551SOL     OW22111   0.998   1.869  13.026 -0.5997  0.1346  0.3574
 3551SOL    HW122112   0.986   1.826  13.111 -2.8063  0.8435  0.4067
 3551SOL    HW222113   0.918   1.921  13.014 -0.0109  1.0570  0.3964
 3552SOL     OW22114   1.723   3.983  12.468  0.5120 -0.3269  0.2949
 3552SOL    HW122115   1.814   3.987  12.497  0.6753 -0.5317 -0.1837
 3552SOL    HW222116   1.725   3.898  12.424  1.3321 -0.4367  0.5378
 3553SOL     OW22117   1.350   0.236   6.389  0.1024 -0.2844  0.2964
 3553SOL    HW122118   1.419   0.292   6.355  1.0255 -1.6572 -0.0762
 3553SOL    HW222119   1.277   0.298   6.384 -1.5057 -1.9913  2.2174
 3554SOL     OW22120   3.797   2.868   1.085  0.2696  0.4868  0.5844
 3554SOL    HW122121   3.892   2.854   1.088  0.3801  0.7280 -1.8793
 3554SOL    HW222122   3.764   2.791   1.133 -0.2886  0.0466 -0.5223
 3555SOL     OW22123   0.600   2.819   0.434 -0.1762  0.0459  0.1289
 3555SOL    HW122124   0.519   2.860   0.466 -0.3420 -0.4750  0.3791
 3555SOL    HW222125   0.578   2.726   0.437 -1.7466  0.4133  0.2106
 3556SOL     OW22126   1.785   2.776   9.553 -0.8098  0.4800 -0.0526
 3556SOL    HW122127   1.815   2.794   9.643 -0.3262  0.8853 -0.2963
 3556SOL    HW222128   1.783   2.681   9.553 -0.1336  0.4701 -0.2605
 3557SOL     OW22129   0.063   0.879  10.198 -0.8892  0.1665 -0.0916
 3557SOL    HW122130   4.695   0.845  10.195 -1.7950  2.3448  2.1994
 3557SOL    HW222131   0.063   0.916  10.287  3.1915 -1.0507  0.4204
 3558SOL     OW22132   3.701   0.748   8.513 -0.2850 -0.2637 -0.3181
 3558SOL    HW122133   3.671   0.811   8.578  0.9482 -2.1105  2.0137
 3558SOL    HW222134   3.655   0.667   8.536  1.6130 -1.7057 -1.5682
 3559SOL     OW22135   3.641   0.498   5.688 -0.3128 -0.7828  0.5208
 3559SOL    HW122136   3.661   0.417   5.640 -0.0086 -0.4789  0.1356
 3559SOL    HW222137   3.566   0.537   5.642 -1.5597 -3.3259  0.3643
 3560SOL     OW22138   2.047   1.374   7.827  0.2036 -0.2940  0.1965
 3560SOL    HW122139   2.076   1.377   7.918  2.2514  2.2350 -0.5422
 3560SOL    HW222140   1.951   1.368   7.821 -0.0385 -0.2253  3.8880
 3561SOL     OW22141   0.552   0.985   4.782  0.5807  0.2753 -0.4808
 3561SOL    HW122142   0.461   0.969   4.755  0.9385 -0.5899 -1.1655
 3561SOL    HW222143   0.564   0.909   4.837  3.4308  0.4367 -0.8859
 3562SOL     OW22144   4.281   1.101   1.543  0.0941 -0.1199 -0.1934
 3562SOL    HW122145   4.246   1.062   1.463  0.6220  0.8400 -0.8865
 3562SOL    HW222146   4.325   1.179   1.510 -0.5329  0.1280 -0.4413
 3563SOL     OW22147   3.616   1.094   5.517  0.3676  0.5240  0.0313
 3563SOL    HW122148   3.598   1.183   5.546 -0.3043  0.6535 -0.7853
 3563SOL    HW222149   3.708   1.087   5.543  0.3309  1.9904  0.5659
 3564SOL     OW22150   4.132   1.851   5.228 -0.6696 -0.6593  0.4375
 3564SOL    HW122151   4.093   1.784   5.285  0.4745 -1.1765  0.6135
 3564SOL    HW222152   4.097   1.934   5.260 -2.4440 -1.0328 -0.5527
 3565SOL     OW22153   1.471   3.435   1.672  0.2368 -0.1022  0.2134
 3565SOL    HW122154   1.519   3.352   1.671  0.6311  0.1201  0.5221
 3565SOL    HW222155   1.538   3.477   1.726  2.1229 -2.0178 -0.6301
 3566SOL     OW22156   4.257   2.599   4.485  0.1055  0.3457 -0.2497
 3566SOL    HW122157   4.290   2.686   4.463 -0.3555  0.2344 -1.3723
 3566SOL    HW222158   4.321   2.586   4.555  0.2283 -1.4352 -0.6922
 3567SOL     OW22159   3.068   2.089   2.571  0.0232  0.1328 -0.6197
 3567SOL    HW122160   2.990   2.057   2.617  0.0977  1.1607  0.2205
 3567SOL    HW222161   3.066   2.032   2.494 -1.8721  0.9522 -1.1846
 3568SOL     OW22162   2.290   3.765   2.464  0.2356 -0.5065 -0.6992
 3568SOL    HW122163   2.200   3.732   2.455 -0.8152  2.0405  0.4922
 3568SOL    HW222164   2.343   3.707   2.410 -0.2591 -0.6258 -1.0563
 3569SOL     OW22165   0.973   2.880   2.917 -0.2519 -0.3910 -0.4982
 3569SOL    HW122166   0.994   2.806   2.860  0.9243 -1.8205  1.7983
 3569SOL    HW222167   0.955   2.949   2.853 -1.0651 -0.9155 -0.8350
 3570SOL     OW22168   4.663   3.643  10.638 -0.2466  0.0227 -0.1227
 3570SOL    HW122169   4.608   3.603  10.706  1.1408  0.9007  1.5050
 3570SOL    HW222170   0.028   3.606  10.657 -0.9113 -0.2551  2.2800
 3571SOL     OW22171   2.569   2.840   9.554 -0.1340  0.0179  0.5537
 3571SOL    HW122172   2.563   2.828   9.649  0.6408 -0.7999  0.4977
 3571SOL    HW222173   2.506   2.908   9.532 -2.4338 -2.0166  0.8002
 3572SOL     OW22174   2.783   1.683  15.621 -0.2416  0.2115  0.0153
 3572SOL    HW122175   2.743   1.765  15.594 -2.5094 -0.6937  0.6779
 3572SOL    HW222176   2.764   1.632  15.543  2.9526 -2.2590  0.8496
 3573SOL     OW22177   3.874   2.361   9.688 -0.8935 -0.1285 -0.1626
 3573SOL    HW122178   3.920   2.344   9.769 -1.1974 -0.1847 -0.0021
 3573SOL    HW222179   3.925   2.303   9.631 -1.1511 -0.7066  0.1952
 3574SOL     OW22180   0.430   0.147   5.342  0.0296  0.1407 -0.7775
 3574SOL    HW122181   0.344   0.108   5.328 -0.2744  0.8755 -0.9422
 3574SOL    HW222182   0.445   0.216   5.277 -0.5803 -0.8558 -1.9678
 3575SOL     OW22183   4.705   4.257   3.196 -0.5064 -0.1755 -0.3165
 3575SOL    HW122184   0.029   4.239   3.113  3.9416  1.8180  1.6477
 3575SOL    HW222185   0.005   4.351   3.196 -1.5297  0.0521 -0.4349
 3576SOL     OW22186   3.914   2.640   1.583  0.3877  0.6855 -0.2027
 3576SOL    HW122187   3.821   2.625   1.601  0.3639  2.1337  0.8384
 3576SOL    HW222188   3.938   2.561   1.535  0.5533  0.0798  0.8811
 3577SOL     OW22189   3.672   3.784   3.107  0.0092 -0.2534 -0.1837
 3577SOL    HW122190   3.710   3.713   3.056  1.5667  1.2254 -1.1125
 3577SOL    HW222191   3.720   3.861   3.074 -0.4310  0.0833 -0.0435
 3578SOL     OW22192   3.195   0.577   4.559  0.2161  0.3342 -0.1982
 3578SOL    HW122193   3.184   0.663   4.600  2.1325  0.8509 -0.7558
 3578SOL    HW222194   3.192   0.598   4.466 -1.0901  0.5728 -0.1064
 3579SOL     OW22195   0.904   2.178  14.833  0.5014  0.2476 -0.0435
 3579SOL    HW122196   0.847   2.234  14.887  0.8341  0.5415  0.0013
 3579SOL    HW222197   0.901   2.226  14.750  0.8734 -0.3325 -0.3898
 3580SOL     OW22198   2.663   2.802   6.806 -0.3693  0.2766 -0.1187
 3580SOL    HW122199   2.723   2.833   6.737 -1.5864  0.2335 -1.1910
 3580SOL    HW222200   2.736   2.796   6.868  0.4862 -0.8806 -1.2334
 3581SOL     OW22201   3.136   1.820  13.998  0.5265  0.0082 -0.5305
 3581SOL    HW122202   3.092   1.878  14.061  0.7145  0.7147 -1.0541
 3581SOL    HW222203   3.066   1.757  13.986 -1.0502  1.4081  1.3771
 3582SOL     OW22204   4.692   0.118  12.826  0.2399  0.8230 -0.2086
 3582SOL    HW122205   4.704   0.213  12.830  1.8400  0.6033  0.0456
 3582SOL    HW222206   0.032   0.086  12.760  1.1964 -1.2079  1.6771
 3583SOL     OW22207   2.336   3.495   5.965  0.6984 -0.5192  0.4517
 3583SOL    HW122208   2.363   3.586   5.977  0.4935 -0.2759 -0.8911
 3583SOL    HW222209   2.240   3.498   5.964  0.7238  0.3540  1.1132
 3584SOL     OW22210   1.220   2.502   7.019 -0.4061 -0.3275 -0.5348
 3584SOL    HW122211   1.223   2.550   6.937 -0.1355 -0.1959 -0.4459
 3584SOL    HW222212   1.189   2.415   6.991  1.4173 -0.5117 -1.9791
 3585SOL     OW22213   4.292   3.216   1.739  0.1005  0.0219  0.2678
 3585SOL    HW122214   4.279   3.234   1.832  1.2238  1.6096  0.1191
 3585SOL    HW222215   4.342   3.292   1.710  0.8732 -0.4951  0.2384
 3586SOL     OW22216   2.608   1.287   7.082  0.4649 -0.2881 -1.0585
 3586SOL    HW122217   2.605   1.231   7.159  0.9443 -2.3009 -2.5117
 3586SOL    HW222218   2.698   1.317   7.090  0.2662 -0.4229  1.3978
 3587SOL     OW22219   4.214   2.750   9.059 -0.1699  0.5340 -0.1322
 3587SOL    HW122220   4.267   2.830   9.064 -0.0937  0.6131 -2.4917
 3587SOL    HW222221   4.154   2.756   9.134  0.5003 -2.0824  0.5903
 3588SOL     OW22222   2.569   4.290   4.419 -0.3887  0.1908 -0.3288
 3588SOL    HW122223   2.645   4.347   4.411 -0.7606  0.2576 -3.5006
 3588SOL    HW222224   2.604   4.219   4.364  1.8919  1.1943 -0.1912
 3589SOL     OW22225   0.458   2.270   4.241  0.0646  0.2406 -0.3979
 3589SOL    HW122226   0.437   2.267   4.148  0.7031 -0.8810 -0.5089
 3589SOL    HW222227   0.476   2.177   4.255 -0.6010  0.4234  1.6509
 3590SOL     OW22228   2.078   1.267   3.100  0.0537  0.2039 -0.3382
 3590SOL    HW122229   2.130   1.187   3.109 -1.5431 -1.0923 -2.5222
 3590SOL    HW222230   1.987   1.238   3.098 -0.4353  1.7789 -0.9860
 3591SOL     OW22231   1.908   1.700   9.535 -0.4149 -0.1251  0.5044
 3591SOL    HW122232   2.001   1.678   9.532 -0.0020  1.5845  0.7463
 3591SOL    HW222233   1.911   1.760   9.609 -0.9907 -0.5561  0.8760
 3592SOL     OW22234   0.483   4.424   6.649 -0.6163 -0.4928  0.4858
 3592SOL    HW122235   0.549   4.356   6.659 -1.5281 -1.3591  0.6348
 3592SOL    HW222236   0.472   4.439   6.556  1.1929  1.7688  0.6472
 3593SOL     OW22237   1.679   0.540   5.165 -0.4059  0.2114 -0.2765
 3593SOL    HW122238   1.737   0.580   5.100 -0.8808  0.6774 -0.4091
 3593SOL    HW222239   1.690   0.450   5.135  1.4490  0.2841  0.1742
 3594SOL     OW22240   4.337   3.212  16.616 -0.2118 -0.0220  0.3935
 3594SOL    HW122241   4.417   3.227  16.565  0.2470 -2.3299  0.4439
 3594SOL    HW222242   4.378   3.196  16.701 -1.9798 -0.7505  1.1021
 3595SOL     OW22243   2.514   4.071   5.834  1.1209 -0.3079  0.1016
 3595SOL    HW122244   2.587   4.010   5.851  1.8893  0.4318 -0.5520
 3595SOL    HW222245   2.535   4.144   5.892 -0.9508  0.8988 -0.6778
 3596SOL     OW22246   0.505   4.338   7.446  0.6595  0.2807 -0.0106
 3596SOL    HW122247   0.564   4.263   7.434 -0.8987 -0.7080 -1.5573
 3596SOL    HW222248   0.487   4.351   7.353  3.4369  1.0717 -0.4314
 3597SOL     OW22249   1.429   3.296   7.905  0.3611 -0.2215  0.5824
 3597SOL    HW122250   1.427   3.385   7.870 -1.4810 -0.3067  0.4557
 3597SOL    HW222251   1.430   3.244   7.825  2.5923  0.3200  0.2512
 3598SOL     OW22252   3.266   3.632  15.478 -0.3762 -0.3218 -1.2628
 3598SOL    HW122253   3.212   3.604  15.551 -1.2439 -2.0590 -2.5712
 3598SOL    HW222254   3.350   3.632  15.525 -2.4605  2.0344  2.4697
 3599SOL     OW22255   2.589   2.030   7.475 -0.5097  0.2650 -0.9170
 3599SOL    HW122256   2.514   2.088   7.487 -1.6455 -0.9687 -2.0422
 3599SOL    HW222257   2.608   2.044   7.382  1.6001 -1.0140 -0.6938
 3600SOL     OW22258   0.518   4.704   4.723  0.6021  0.5521  0.4931
 3600SOL    HW122259   0.490   0.021   4.807  2.0275 -3.6280  2.9032
 3600SOL    HW222260   0.433   4.687   4.681  1.8086  0.5645 -1.9362
 3601SOL     OW22261   2.099   1.092   7.089 -0.1914  0.5762 -0.4176
 3601SOL    HW122262   2.083   1.013   7.037 -2.4614 -0.0983  1.3403
 3601SOL    HW222263   2.104   1.153   7.015  2.2834 -2.5815 -2.8672
 3602SOL     OW22264   2.508   3.241   5.063  0.3339 -0.1764  0.1477
 3602SOL    HW122265   2.519   3.323   5.014 -2.8367  0.6215  0.8070
 3602SOL    HW222266   2.416   3.222   5.046 -0.3400  3.2309  0.0444
 3603SOL     OW22267   2.719   3.355   6.137  0.2852  0.4971  0.6045
 3603SOL    HW122268   2.765   3.316   6.211  0.0647 -1.1099 -0.1045
 3603SOL    HW222269   2.633   3.369   6.177 -0.4715 -0.7994 -0.5474
 3604SOL     OW22270   3.793   3.357   5.008 -0.2807  0.0504  0.3434
 3604SOL    HW122271   3.771   3.350   4.915 -0.0428  2.9844  0.0600
 3604SOL    HW222272   3.747   3.440   5.024 -0.4555  0.4544 -2.2659
 3605SOL     OW22273   3.680   2.807  16.647 -0.0905  0.2551  0.0002
 3605SOL    HW122274   3.766   2.770  16.628  0.5748  1.7680  0.0000
 3605SOL    HW222275   3.700   2.857  16.726 -0.0870  1.9436 -1.0605
 3606SOL     OW22276   2.371   2.617  17.430 -0.2608  0.5238 -0.1173
 3606SOL    HW122277   2.320   2.572  17.498 -0.0208 -1.2055 -1.0970
 3606SOL    HW222278   2.344   2.708  17.442 -2.7895 -0.3158  0.7514
 3607SOL     OW22279   0.816   3.388   4.475 -0.0644  0.0684 -0.0479
 3607SOL    HW122280   0.854   3.322   4.417 -1.2289 -0.6376 -0.0083
 3607SOL    HW222281   0.890   3.417   4.529 -0.4289  0.1765  0.4009
 3608SOL     OW22282   3.438   3.614  16.928  0.2001 -0.6010  0.0828
 3608SOL    HW122283   3.503   3.574  16.871  2.1937  2.6574  0.0610
 3608SOL    HW222284   3.492   3.670  16.984  1.2649 -0.4672 -1.0789
 3609SOL     OW22285   0.192   4.139  12.070 -0.1814  0.2825 -0.2694
 3609SOL    HW122286   0.102   4.120  12.045 -0.8219 -0.4615  2.7284
 3609SOL    HW222287   0.229   4.121  11.983  2.0212 -0.5161  0.8165
 3610SOL     OW22288   2.684   1.983  16.094  0.1335 -0.2413 -0.0858
 3610SOL    HW122289   2.716   1.895  16.111 -0.5721 -0.2303  1.3510
 3610SOL    HW222290   2.764   2.031  16.073 -0.5910  0.1434 -1.8901
 3611SOL     OW22291   0.979   3.170  13.467  0.3725  0.4728 -0.0878
 3611SOL    HW122292   0.915   3.168  13.396  0.4162 -1.1350 -0.0826
 3611SOL    HW222293   0.932   3.181  13.549  2.6095 -0.4596  1.3196
 3612SOL     OW22294   0.482   0.029  13.697 -0.6537  0.1351 -0.3401
 3612SOL    HW122295   0.388   0.047  13.698 -0.7935 -0.3332 -2.8306
 3612SOL    HW222296   0.476   4.658  13.724 -2.1555  0.7874  1.4876
 3613SOL     OW22297   3.813   3.359   6.562  0.6290  0.3579  0.3238
 3613SOL    HW122298   3.795   3.425   6.494  1.0494  0.1464  0.0116
 3613SOL    HW222299   3.908   3.357   6.573  0.4192 -0.5271  1.9167
 3614SOL     OW22300   2.932   0.344  16.222 -0.2197  0.4539  0.1128
 3614SOL    HW122301   3.020   0.320  16.193 -0.7593  1.9601 -2.8603
 3614SOL    HW222302   2.878   0.309  16.151 -0.4102  0.2337  0.3665
 3615SOL     OW22303   4.483   1.749   9.088 -0.0455 -0.4535 -0.1479
 3615SOL    HW122304   4.571   1.724   9.060  0.5306  2.0469 -0.5874
 3615SOL    HW222305   4.437   1.752   9.004  0.1428  0.8167 -0.2108
 3616SOL     OW22306   3.438   4.492  12.414  0.2135  0.1189  0.0917
 3616SOL    HW122307   3.398   4.521  12.496  1.4669 -1.0337  1.1044
 3616SOL    HW222308   3.417   4.571  12.364  3.0908 -1.0461 -2.9693
 3617SOL     OW22309   3.117   4.226   0.711 -0.1137 -0.0660  0.6573
 3617SOL    HW122310   3.065   4.163   0.761  0.8577 -0.6439  0.9490
 3617SOL    HW222311   3.050   4.292   0.694 -0.4779 -0.3325  1.0677
 3618SOL     OW22312   3.300   3.016   0.637  0.0006 -0.0086  0.1588
 3618SOL    HW122313   3.357   2.943   0.611 -0.4519 -1.1602  2.3190
 3618SOL    HW222314   3.310   3.075   0.562 -0.7480 -0.5840 -0.3855
 3619SOL     OW22315   3.310   4.110   8.864 -0.0958 -0.3780 -0.2565
 3619SOL    HW122316   3.395   4.074   8.892  1.2424  1.6798 -1.6349
 3619SOL    HW222317   3.329   4.131   8.772  3.0226 -0.3049  0.3893
 3620SOL     OW22318   4.100   1.701   1.803 -0.0843  0.1304  0.4821
 3620SOL    HW122319   4.166   1.685   1.736  0.9816 -0.4980  1.6927
 3620SOL    HW222320   4.018   1.668   1.766  1.3390 -0.7962 -1.7934
 3621SOL     OW22321   3.063   3.987  17.452 -0.2324  0.5097  0.4836
 3621SOL    HW122322   2.983   4.040  17.445  1.1127  2.4265 -0.5039
 3621SOL    HW222323   3.137   4.047  17.441  0.7673 -0.5970  1.1653
 3622SOL     OW22324   2.899   1.313   2.852  0.3564  0.7193  0.5296
 3622SOL    HW122325   2.888   1.222   2.879  0.2784  0.2101 -1.2087
 3622SOL    HW222326   2.809   1.344   2.844 -0.3942 -1.7997 -0.9738
 3623SOL     OW22327   4.127   1.426   7.944  0.0181  0.8629 -0.0939
 3623SOL    HW122328   4.034   1.443   7.931 -0.8747 -3.5115  0.2874
 3623SOL    HW222329   4.120   1.364   8.017 -1.4629  1.4997  0.3067
 3624SOL     OW22330   2.201   1.298   9.437 -0.2563 -0.2640 -0.0776
 3624SOL    HW122331   2.105   1.306   9.436 -0.2536 -0.0613  1.3330
 3624SOL    HW222332   2.205   1.229   9.371 -1.0993 -0.6435  0.2573
 3625SOL     OW22333   3.858   0.238   0.325 -0.3839  0.0334 -0.0895
 3625SOL    HW122334   3.843   0.327   0.294 -1.5206 -1.2504 -3.2445
 3625SOL    HW222335   3.766   0.212   0.323 -0.2424 -0.4735 -0.0454
 3626SOL     OW22336   2.747   0.076   3.269  0.2846 -0.1163 -0.6596
 3626SOL    HW122337   2.797   0.075   3.188  0.3141  0.0295 -0.6446
 3626SOL    HW222338   2.812   0.111   3.331  0.1044  0.1857 -0.6398
 3627SOL     OW22339   3.095   2.639   7.988  0.0342 -0.1593  0.5930
 3627SOL    HW122340   3.112   2.574   8.056  2.6955 -2.3719 -2.1904
 3627SOL    HW222341   3.129   2.588   7.915 -1.5779 -1.7512  0.9423
 3628SOL     OW22342   0.925   4.597   7.344 -0.1959 -0.0688 -0.7668
 3628SOL    HW122343   0.846   4.557   7.310 -0.0487 -1.2136  0.2527
 3628SOL    HW222344   0.990   4.527   7.334  0.5855  0.4984  0.2138
 3629SOL     OW22345   4.713   0.446   6.488  0.1170  0.5377 -0.3124
 3629SOL    HW122346   4.685   0.535   6.509  0.1570  1.1542 -2.8909
 3629SOL    HW222347   0.085   0.467   6.484  0.1429 -0.6208 -5.8292
 3630SOL     OW22348   2.885   4.260  16.395 -0.0072 -0.0377  0.2924
 3630SOL    HW122349   2.952   4.196  16.421 -0.5363 -1.4021 -1.7436
 3630SOL    HW222350   2.929   4.342  16.416  0.9984 -0.7569  1.0137
 3631SOL     OW22351   2.566   0.632  13.482 -0.5416  0.5342  0.0987
 3631SOL    HW122352   2.503   0.608  13.415  0.3307  0.5355 -0.7186
 3631SOL    HW222353   2.597   0.548  13.515 -0.8721 -0.0305 -1.0455
 3632SOL     OW22354   2.313   1.330   9.127 -0.5964  0.2817  0.0705
 3632SOL    HW122355   2.326   1.339   9.221 -0.3691  1.7736 -0.0980
 3632SOL    HW222356   2.331   1.421   9.101 -0.9165 -0.1884 -1.7875
 3633SOL     OW22357   4.151   3.959   2.076  0.6816 -0.3766 -0.0914
 3633SOL    HW122358   4.176   3.925   2.162 -0.4050 -0.2529  0.2694
 3633SOL    HW222359   4.057   3.960   2.091  0.8077  0.6960  0.6069
 3634SOL     OW22360   0.165   3.173   3.167 -0.0480  0.0502  0.0634
 3634SOL    HW122361   0.166   3.226   3.087  0.0361 -1.9051 -1.2417
 3634SOL    HW222362   0.129   3.092   3.132 -1.3513  1.3679 -1.6593
 3635SOL     OW22363   2.139   1.824   3.159  0.0384 -0.7006 -0.3578
 3635SOL    HW122364   2.084   1.767   3.105 -0.2785 -1.4254  0.7206
 3635SOL    HW222365   2.180   1.878   3.091  3.0043 -1.0288  1.1949
 3636SOL     OW22366   0.786   3.883  14.935 -0.1046 -0.1416  0.1913
 3636SOL    HW122367   0.867   3.836  14.958 -0.0781 -0.3243 -0.2788
 3636SOL    HW222368   0.807   3.929  14.853 -0.8376  0.3373  0.2786
 3637SOL     OW22369   0.229   2.171   6.129 -0.1790 -0.0878 -0.1908
 3637SOL    HW122370   0.171   2.207   6.062  0.7781  2.2706  0.2744
 3637SOL    HW222371   0.315   2.204   6.102 -0.0961 -1.1331 -1.2034
 3638SOL     OW22372   1.600   4.266   4.050 -0.2453 -0.4431  0.3371
 3638SOL    HW122373   1.669   4.250   4.114  0.4262  2.3082  0.3184
 3638SOL    HW222374   1.536   4.303   4.110 -0.9884 -0.2800 -0.5494
 3639SOL     OW22375   2.140   4.571   4.467 -0.0413  0.6651  0.3935
 3639SOL    HW122376   2.181   4.487   4.447  0.2987  1.2197 -1.2494
 3639SOL    HW222377   2.052   4.543   4.494 -0.4018  0.3677 -1.0617
 3640SOL     OW22378   3.829   0.335   3.941 -0.1291  0.0647  0.1503
 3640SOL    HW122379   3.861   0.400   4.003  1.2644 -0.8543  0.4022
 3640SOL    HW222380   3.735   0.333   3.956 -0.1273 -2.3652 -0.1732
 3641SOL     OW22381   2.850   0.567   0.135 -0.4214 -0.1436  0.3212
 3641SOL    HW122382   2.776   0.511   0.160 -0.6778 -0.4965 -1.2687
 3641SOL    HW222383   2.815   0.656   0.139 -0.2688  0.0523 -2.8117
 3642SOL     OW22384   1.614   2.534   9.028  0.2390 -0.4021 -0.8447
 3642SOL    HW122385   1.571   2.619   9.033  0.5906 -0.3062  0.5323
 3642SOL    HW222386   1.708   2.550   9.034 -0.0859  1.0012  0.5736
 3643SOL     OW22387   4.540   1.755   9.871  0.0550 -0.1083  0.0654
 3643SOL    HW122388   4.616   1.812   9.861  1.3614 -1.4279  2.3065
 3643SOL    HW222389   4.513   1.745   9.963  0.8779  0.0199  0.3168
 3644SOL     OW22390   2.441   3.948   0.725  0.0267  0.0106 -0.1676
 3644SOL    HW122391   2.476   3.994   0.648  0.9051 -2.1278 -1.0515
 3644SOL    HW222392   2.347   3.963   0.716 -0.2753 -1.1464  1.1149
 3645SOL     OW22393   4.032   3.430   8.661 -0.2749  0.2886 -0.5000
 3645SOL    HW122394   4.059   3.470   8.744  1.3757 -0.4180 -0.7080
 3645SOL    HW222395   3.987   3.503   8.620 -1.2563  0.0689  0.1756
 3646SOL     OW22396   4.166   2.885   8.777  0.3204 -0.1594 -0.1256
 3646SOL    HW122397   4.134   2.974   8.761 -1.5384 -0.8212 -0.1572
 3646SOL    HW222398   4.173   2.854   8.687 -0.3476 -0.9971  0.1023
 3647SOL     OW22399   0.637   1.568   4.920  0.0317 -0.3866 -0.6123
 3647SOL    HW122400   0.636   1.561   4.824  0.0405 -1.2325 -0.5563
 3647SOL    HW222401   0.686   1.649   4.933 -2.7830  1.0427  0.9285
 3648SOL     OW22402   2.443   1.073  11.507 -0.1430 -0.0664  0.9025
 3648SOL    HW122403   2.523   1.041  11.549 -0.8850 -2.1427  0.7753
 3648SOL    HW222404   2.444   1.159  11.548  1.6898  0.7875 -0.9771
 3649SOL     OW22405   2.650   0.197   5.778  0.6817 -0.3248  0.0956
 3649SOL    HW122406   2.637   0.269   5.717  1.2497 -1.6333 -1.5534
 3649SOL    HW222407   2.594   0.241   5.842 -0.3685 -0.2840 -0.8488
 3650SOL     OW22408   0.743   3.178  15.728  0.1391 -0.5021 -0.4374
 3650SOL    HW122409   0.722   3.212  15.815  0.0023  0.0376 -0.6822
 3650SOL    HW222410   0.820   3.132  15.760  1.0986  3.1086  2.5046
 3651SOL     OW22411   3.431   4.436   6.037 -0.1228 -0.4065  0.2176
 3651SOL    HW122412   3.469   4.522   6.053 -0.3036 -0.0466 -1.2746
 3651SOL    HW222413   3.505   4.397   5.991 -2.3926 -4.5207  0.0835
 3652SOL     OW22414   0.805   2.063   2.633  0.1005  0.6293  0.2451
 3652SOL    HW122415   0.893   2.030   2.617 -1.0780 -3.0719  1.3732
 3652SOL    HW222416   0.819   2.086   2.725 -1.0656 -1.1519  0.8668
 3653SOL     OW22417   4.303   0.259   5.739 -0.6011 -0.4645  0.2016
 3653SOL    HW122418   4.303   0.311   5.819 -1.1569  0.0234 -0.1113
 3653SOL    HW222419   4.398   0.258   5.728 -0.5989 -0.7792  0.2653
 3654SOL     OW22420   2.198   3.277   8.656 -0.0274  0.5618 -0.1354
 3654SOL    HW122421   2.157   3.191   8.663  0.0370  0.5052 -0.4650
 3654SOL    HW222422   2.275   3.264   8.711 -0.9619 -0.4975  0.9111
 3655SOL     OW22423   0.690   3.086  10.892 -0.5950 -0.3298 -0.6453
 3655SOL    HW122424   0.748   3.160  10.909  0.6165 -1.1778 -1.0009
 3655SOL    HW222425   0.612   3.097  10.946  1.0673  0.7993  1.5339
 3656SOL     OW22426   2.932   1.972   4.450  0.0507 -0.2038 -0.3678
 3656SOL    HW122427   2.877   2.051   4.442  0.7747  0.3916  0.6569
 3656SOL    HW222428   2.950   1.970   4.543  0.2730  1.8073 -0.3575
 3657SOL     OW22429   0.418   2.445   8.537 -0.4891 -0.3400  0.4134
 3657SOL    HW122430   0.369   2.495   8.602 -1.3006 -0.4091 -0.1420
 3657SOL    HW222431   0.346   2.407   8.486  0.1885 -1.8392  0.5624
 3658SOL     OW22432   3.330   1.877   1.374 -0.6189  0.0527 -0.4031
 3658SOL    HW122433   3.259   1.934   1.406 -0.3363  0.6622 -0.8505
 3658SOL    HW222434   3.329   1.818   1.449  1.2728 -0.3940 -0.7451
 3659SOL     OW22435   3.471   2.028   0.536 -0.7330  0.0310 -0.0442
 3659SOL    HW122436   3.507   1.943   0.562  0.0705  0.1476 -0.7804
 3659SOL    HW222437   3.513   2.081   0.604  0.8292  0.9504 -1.7131
 3660SOL     OW22438   2.228   2.656   6.975 -0.1123 -0.2656 -0.0772
 3660SOL    HW122439   2.275   2.574   6.988 -0.1284 -0.3959 -0.8381
 3660SOL    HW222440   2.300   2.718   6.962 -0.7095  0.2746 -0.8144
 3661SOL     OW22441   4.423   2.243   7.392  0.1627 -0.0864 -0.1842
 3661SOL    HW122442   4.344   2.242   7.338 -1.9382  0.2098  2.8647
 3661SOL    HW222443   4.401   2.185   7.465 -1.9127  0.5251 -0.3157
 3662SOL     OW22444   1.266   2.235   4.464  0.3709  0.0419  0.0254
 3662SOL    HW122445   1.268   2.256   4.371 -0.6834 -0.3940 -0.0878
 3662SOL    HW222446   1.259   2.324   4.496 -1.5852 -0.1812  0.1655
 3663SOL     OW22447   3.438   2.766  11.261 -0.4848  0.0728 -0.3363
 3663SOL    HW122448   3.500   2.724  11.201  0.9934  1.4784  0.2148
 3663SOL    HW222449   3.442   2.861  11.250 -1.7163  0.3443  1.6286
 3664SOL     OW22450   0.372   3.270   2.308  0.4585  0.1686 -0.5125
 3664SOL    HW122451   0.358   3.240   2.218  4.9411 -3.0583 -0.1592
 3664SOL    HW222452   0.392   3.363   2.298 -1.5874  0.4665 -1.8193
 3665SOL     OW22453   3.553   2.431  11.130  0.4263  0.1285 -0.4402
 3665SOL    HW122454   3.543   2.486  11.053 -0.9118  0.5665  0.0519
 3665SOL    HW222455   3.648   2.420  11.136  0.5672  0.9527 -1.2356
 3666SOL     OW22456   0.909   2.171   6.713 -0.0921 -0.3809  0.0916
 3666SOL    HW122457   0.854   2.101   6.677 -1.9674  0.9602  0.3614
 3666SOL    HW222458   0.965   2.125   6.776 -1.0817  0.5941  1.7039
 3667SOL     OW22459   4.166   1.271   9.251  0.4392  0.0114  0.0202
 3667SOL    HW122460   4.143   1.194   9.303 -1.2469  0.7665  0.3970
 3667SOL    HW222461   4.169   1.336   9.320 -0.9579  0.6534 -0.5208
 3668SOL     OW22462   2.904   2.300   9.128  0.4319  0.4781 -0.1251
 3668SOL    HW122463   2.857   2.238   9.184  0.2851 -0.9003 -1.7927
 3668SOL    HW222464   2.860   2.379   9.160 -0.9449  0.4018 -1.8642
 3669SOL     OW22465   2.910   3.862  12.389  0.5637  0.1863 -0.4624
 3669SOL    HW122466   2.841   3.831  12.329  0.4648  0.4831 -0.5011
 3669SOL    HW222467   2.882   3.952  12.405 -2.6025 -0.5017 -2.1590
 3670SOL     OW22468   2.650   2.398  15.856 -0.3922 -0.3625  0.2695
 3670SOL    HW122469   2.743   2.420  15.863 -0.6992  0.7896  0.7430
 3670SOL    HW222470   2.631   2.368  15.945  1.8427  0.1239  0.9129
 3671SOL     OW22471   4.605   2.207   4.990  0.5072 -0.7608  0.1970
 3671SOL    HW122472   4.593   2.247   5.076  0.1785 -1.9351  0.7002
 3671SOL    HW222473   4.660   2.131   5.013  0.2375 -0.9550  0.1937
 3672SOL     OW22474   2.733   1.823  10.993  0.2874 -0.4042 -0.1021
 3672SOL    HW122475   2.695   1.754  11.047  0.0261  0.0707  0.3242
 3672SOL    HW222476   2.649   1.855  10.960  0.2141 -0.0239  0.4605
 3673SOL     OW22477   0.635   2.184   6.558 -0.1557 -0.4363 -0.0065
 3673SOL    HW122478   0.677   2.098   6.552  1.4459  0.4689 -1.6471
 3673SOL    HW222479   0.609   2.188   6.466  1.4986  0.3312 -0.4463
 3674SOL     OW22480   1.541   1.076   6.527  0.2105 -0.1713 -0.3961
 3674SOL    HW122481   1.554   1.085   6.622  0.4326  0.6797 -0.5102
 3674SOL    HW222482   1.622   1.032   6.503  0.6226  0.2511  0.2090
 3675SOL     OW22483   0.154   3.562  17.435 -0.0313 -0.2944 -0.1082
 3675SOL    HW122484   0.125   3.653  17.442  2.7917  0.7475 -1.8415
 3675SOL    HW222485   0.070   3.518  17.432 -0.3518  0.0520  3.5795
 3676SOL     OW22486   0.162   4.153  10.844 -0.4182  0.3291 -0.9722
 3676SOL    HW122487   0.163   4.190  10.756 -1.7473 -2.1586 -2.0316
 3676SOL    HW222488   0.166   4.061  10.819  1.7632 -0.3928  2.0369
 3677SOL     OW22489   4.057   4.682  14.797  0.0817  0.0761 -0.3842
 3677SOL    HW122490   4.007   4.610  14.759 -1.9057  0.6494  1.1922
 3677SOL    HW222491   3.996   0.021  14.840  2.4388  1.6286  0.8326
 3678SOL     OW22492   4.434   2.155  17.141 -0.6728 -0.0066  0.0472
 3678SOL    HW122493   4.428   2.245  17.108 -1.5631 -0.5570 -1.2754
 3678SOL    HW222494   4.509   2.164  17.200 -0.3228 -0.2950 -0.3472
 3679SOL     OW22495   1.000   1.618   7.493 -0.4200 -0.3199  0.0563
 3679SOL    HW122496   0.932   1.667   7.540 -2.0174 -3.1907  0.7873
 3679SOL    HW222497   1.075   1.674   7.508 -1.3872  0.9775  0.0922
 3680SOL     OW22498   3.156   1.626  11.327  0.3971 -0.3157 -0.5982
 3680SOL    HW122499   3.155   1.718  11.354 -0.9641 -0.1624 -1.2091
 3680SOL    HW222500   3.130   1.589  11.412  1.6129  0.1839  0.0030
 3681SOL     OW22501   3.877   2.494   1.900  0.1881 -0.0283 -0.1976
 3681SOL    HW122502   3.876   2.438   1.822  3.6555  0.9959 -0.9833
 3681SOL    HW222503   3.803   2.454   1.944 -1.3347  0.7467 -2.0699
 3682SOL     OW22504   0.784   4.682   9.130  0.8428 -0.0560 -0.2252
 3682SOL    HW122505   0.757   0.045   9.167  1.5484 -0.5576  1.3973
 3682SOL    HW222506   0.700   4.640   9.112  0.2816  0.4420  1.2258
 3683SOL     OW22507   1.284   4.098   0.487 -0.3008 -0.2664  0.0791
 3683SOL    HW122508   1.208   4.138   0.530  0.5124  1.3385  0.0428
 3683SOL    HW222509   1.324   4.178   0.452 -1.2365  0.1192 -0.1040
 3684SOL     OW22510   0.573   0.943   5.265 -0.2715 -0.2084  0.6194
 3684SOL    HW122511   0.497   0.983   5.308 -0.2863  1.3242 -0.8519
 3684SOL    HW222512   0.528   0.906   5.188  0.6930 -0.2998  0.1060
 3685SOL     OW22513   2.368   1.300   5.484 -0.3136  0.2437  0.3229
 3685SOL    HW122514   2.353   1.294   5.389 -0.4190  3.7217  0.1349
 3685SOL    HW222515   2.287   1.260   5.516 -0.4728  0.4335  0.1613
 3686SOL     OW22516   4.418   0.782   5.323 -0.3402  0.7805  0.3089
 3686SOL    HW122517   4.340   0.796   5.270 -0.8853  0.1099  0.9402
 3686SOL    HW222518   4.457   0.866   5.299 -0.0864  0.4526 -0.4055
 3687SOL     OW22519   2.589   4.419   5.326 -1.0478  0.1504  0.2859
 3687SOL    HW122520   2.593   4.424   5.230  0.4976 -0.2847  0.3388
 3687SOL    HW222521   2.679   4.424   5.358 -0.3394  0.4836 -1.7249
 3688SOL     OW22522   4.575   3.633   2.727  0.2423 -0.1821 -0.2269
 3688SOL    HW122523   4.653   3.613   2.676 -1.0549 -0.9062 -1.9341
 3688SOL    HW222524   4.603   3.655   2.816 -1.1029  2.1980 -0.3797
 3689SOL     OW22525   3.613   1.429  14.709 -0.1175 -0.2673  0.4559
 3689SOL    HW122526   3.584   1.345  14.745  1.9535 -0.4983  1.6092
 3689SOL    HW222527   3.672   1.393  14.643 -0.9825  1.5339 -1.2990
 3690SOL     OW22528   1.407   3.653   6.131  0.2745 -0.0407  0.5287
 3690SOL    HW122529   1.454   3.649   6.048 -0.6830 -1.7066  0.0697
 3690SOL    HW222530   1.453   3.596   6.192  0.0847  1.1573  1.8077
 3691SOL     OW22531   3.152   1.885   8.897  0.1167 -0.3745 -0.2540
 3691SOL    HW122532   3.130   1.795   8.920  0.4909  0.0225  1.6231
 3691SOL    HW222533   3.205   1.904   8.975  0.4021 -1.1774 -0.2570
 3692SOL     OW22534   0.770   0.667   8.389  0.4129 -0.4227 -0.4871
 3692SOL    HW122535   0.795   0.678   8.297  0.0133 -0.1394 -0.5615
 3692SOL    HW222536   0.842   0.605   8.403 -0.5148 -1.5048 -0.4960
 3693SOL     OW22537   2.473   2.889   3.804  0.2227 -0.4779 -0.2558
 3693SOL    HW122538   2.415   2.824   3.844 -1.2406 -0.4036 -2.2128
 3693SOL    HW222539   2.537   2.897   3.874 -1.4463  2.5231  0.9435
 3694SOL     OW22540   0.153   0.615  14.443 -0.1927 -0.8425 -0.5253
 3694SOL    HW122541   0.176   0.532  14.401 -1.0112 -1.8814  1.0768
 3694SOL    HW222542   0.081   0.594  14.503 -0.9653 -2.5841 -2.0670
 3695SOL     OW22543   0.965   2.391   6.587  0.0728 -0.2132  0.2047
 3695SOL    HW122544   0.921   2.313   6.621  1.8192 -0.5179  1.7360
 3695SOL    HW222545   0.973   2.443   6.667  1.7924  0.1884 -0.2287
 3696SOL     OW22546   2.105   2.429   0.625  0.5738  0.0591 -0.8256
 3696SOL    HW122547   2.182   2.472   0.662 -0.3314  2.8077 -2.1358
 3696SOL    HW222548   2.041   2.440   0.695  1.2517 -1.6961  0.0654
 3697SOL     OW22549   0.631   4.471   6.269  0.1570 -0.2329 -0.1322
 3697SOL    HW122550   0.545   4.475   6.311  0.6112  0.8055  0.6927
 3697SOL    HW222551   0.640   4.375   6.275  0.8336 -0.2123 -0.8231
 3698SOL     OW22552   0.775   1.174   8.407  0.0894 -0.2017  0.3378
 3698SOL    HW122553   0.698   1.119   8.390 -1.2070  1.0658  2.0457
 3698SOL    HW222554   0.784   1.153   8.500  0.7445 -0.4321  0.2223
 3699SOL     OW22555   4.228   3.897   4.318 -0.8631 -0.7112 -0.7827
 3699SOL    HW122556   4.180   3.886   4.401 -0.7386  1.3479 -0.4323
 3699SOL    HW222557   4.169   3.953   4.267  0.5991  0.6894 -0.9402
 3700SOL     OW22558   1.789   4.073   3.817 -0.5179 -0.2046  0.1865
 3700SOL    HW122559   1.707   4.092   3.863 -0.2580  1.1939  0.0699
 3700SOL    HW222560   1.795   3.978   3.821 -3.3392 -0.4003 -0.4228
 3701SOL     OW22561   2.024   3.394  13.199 -0.3646 -0.1535 -0.1477
 3701SOL    HW122562   1.987   3.330  13.140 -1.7639  1.3388 -0.8822
 3701SOL    HW222563   1.967   3.468  13.180  0.2410  0.8757  1.9531
 3702SOL     OW22564   1.358   0.410   1.799 -0.0276 -0.0069  0.3180
 3702SOL    HW122565   1.441   0.434   1.758 -1.8215  1.5618 -2.3502
 3702SOL    HW222566   1.378   0.322   1.833 -1.5771 -0.7186 -0.6181
 3703SOL     OW22567   1.005   0.624   1.154 -0.2382 -0.3111 -0.3980
 3703SOL    HW122568   0.910   0.612   1.158 -0.3959  0.8410 -0.8077
 3703SOL    HW222569   1.028   0.664   1.238 -2.0578 -2.9430  1.3687
 3704SOL     OW22570   3.858   2.854   6.848  0.3757 -0.6388  0.3619
 3704SOL    HW122571   3.780   2.888   6.892  0.9641  0.7593  0.3400
 3704SOL    HW222572   3.863   2.909   6.770 -1.6890 -0.2556  0.5045
 3705SOL     OW22573   0.273   1.365  14.725 -0.3417 -0.6303 -0.3169
 3705SOL    HW122574   0.208   1.324  14.668 -0.1160 -1.1243 -0.2217
 3705SOL    HW222575   0.336   1.405  14.664  1.3838 -0.8402  1.3160
 3706SOL     OW22576   3.832   2.410   6.180 -0.1924  0.0930 -0.4032
 3706SOL    HW122577   3.739   2.399   6.202 -0.1456  0.6004  0.0474
 3706SOL    HW222578   3.817   2.490   6.129 -2.6096  0.7171  1.2631
 3707SOL     OW22579   3.285   3.232   2.719  0.0960 -0.2923 -0.1421
 3707SOL    HW122580   3.195   3.264   2.726 -0.2560 -0.9860 -1.4516
 3707SOL    HW222581   3.328   3.283   2.787 -0.7387  0.2535 -0.0307
 3708SOL     OW22582   3.662   4.037   2.351 -0.0901 -0.2246 -0.1662
 3708SOL    HW122583   3.754   4.011   2.344 -0.5581 -1.7003 -0.8203
 3708SOL    HW222584   3.622   3.957   2.318  1.2885 -0.9053 -0.1789
 3709SOL     OW22585   2.704   4.357  16.012  0.0455 -0.3921 -0.0782
 3709SOL    HW122586   2.690   4.441  16.056 -0.7550 -0.7815  0.4121
 3709SOL    HW222587   2.652   4.369  15.932  0.0116 -1.5175 -0.2291
 3710SOL     OW22588   3.817   3.345   4.116 -0.1580  0.2066  0.4458
 3710SOL    HW122589   3.867   3.288   4.173  0.5012  1.5006  1.1602
 3710SOL    HW222590   3.780   3.292   4.046  2.8319 -0.3835 -0.6923
 3711SOL     OW22591   4.161   0.793  12.568  0.0280  0.2273  0.4262
 3711SOL    HW122592   4.161   0.708  12.612 -0.9278 -0.8034 -1.5781
 3711SOL    HW222593   4.131   0.836  12.649 -0.3808  1.1165 -0.2037
 3712SOL     OW22594   3.495   0.310  16.699  0.1724 -0.2173 -0.2758
 3712SOL    HW122595   3.572   0.253  16.704 -0.9572 -1.5971  1.1879
 3712SOL    HW222596   3.516   0.375  16.631  1.1071  0.1162  0.3325
 3713SOL     OW22597   2.200   1.767   5.618 -0.1976 -0.1731  0.4911
 3713SOL    HW122598   2.138   1.808   5.678 -2.1163 -1.3442 -0.6491
 3713SOL    HW222599   2.215   1.684   5.662  0.5840  0.6123  1.6964
 3714SOL     OW22600   3.968   1.079   8.072  0.0185 -0.4096  0.0997
 3714SOL    HW122601   3.986   1.002   8.019  1.0855  1.2204 -1.8764
 3714SOL    HW222602   4.020   1.050   8.147 -1.2833 -1.6091  0.5443
 3715SOL     OW22603   3.779   3.133   3.201 -0.0874  0.0519  0.8021
 3715SOL    HW122604   3.808   3.225   3.195 -0.1686  0.1356  1.6679
 3715SOL    HW222605   3.685   3.149   3.204  0.0307  1.3159 -1.6347
 3716SOL     OW22606   0.398   3.996  14.813 -0.8017  0.1113 -0.2500
 3716SOL    HW122607   0.318   4.039  14.784 -0.1807  1.4538  0.0544
 3716SOL    HW222608   0.387   4.018  14.905  2.2267 -0.4819  0.2551
 3717SOL     OW22609   1.677   0.360   7.501 -0.1846  0.0973  0.2229
 3717SOL    HW122610   1.583   0.367   7.486 -0.1700  0.7043  0.4031
 3717SOL    HW222611   1.692   0.451   7.528  1.6404  0.6036 -2.4547
 3718SOL     OW22612   3.981   1.676   8.337  0.3728 -0.2969  0.0318
 3718SOL    HW122613   3.954   1.613   8.403  0.8749 -0.1806  0.3430
 3718SOL    HW222614   3.936   1.656   8.255 -1.7554 -0.1058  1.1317
 3719SOL     OW22615   1.742   4.165   8.229  0.4634  0.3636  0.0644
 3719SOL    HW122616   1.817   4.106   8.233 -0.5907 -0.9752  0.3612
 3719SOL    HW222617   1.765   4.201   8.143  0.0162  2.0581  0.6661
 3720SOL     OW22618   2.145   0.660   9.349  0.1306  0.7416 -0.6826
 3720SOL    HW122619   2.224   0.626   9.391 -0.5229  0.2278  0.1227
 3720SOL    HW222620   2.171   0.724   9.283  1.1368  1.8321  0.7940
 3721SOL     OW22621   2.907   3.587   1.901 -0.4262  0.3392  0.5761
 3721SOL    HW122622   2.863   3.602   1.817 -0.1384  2.2044  0.7685
 3721SOL    HW222623   2.987   3.640   1.909  0.1857 -0.2295 -1.5429
 3722SOL     OW22624   3.158   2.047  11.755  0.0920 -0.2131 -0.5264
 3722SOL    HW122625   3.087   2.022  11.815  0.1618 -1.8073 -1.1103
 3722SOL    HW222626   3.220   1.974  11.745 -0.2206 -0.6984  0.9420
 3723SOL     OW22627   0.118   2.119   7.455  0.0887  0.1411  0.5726
 3723SOL    HW122628   0.210   2.122   7.430 -0.4890 -0.5692 -1.7111
 3723SOL    HW222629   0.071   2.182   7.400 -0.5269 -0.4534  0.4114
 3724SOL     OW22630   3.971   0.546   1.428  0.1876  0.0614 -0.0641
 3724SOL    HW122631   3.900   0.503   1.380  1.2628 -1.2374 -0.5124
 3724SOL    HW222632   4.049   0.542   1.373 -0.7785  1.0071 -1.5199
 3725SOL     OW22633   1.353   4.031   8.447  0.0941  0.5995  0.1468
 3725SOL    HW122634   1.285   4.033   8.380 -1.7673  1.2656  2.0592
 3725SOL    HW222635   1.429   4.032   8.389 -1.2122 -2.3745 -1.6031
 3726SOL     OW22636   2.533   2.272  10.400  0.2864  0.0628 -0.6733
 3726SOL    HW122637   2.625   2.250  10.418  0.7671  1.5842 -1.2277
 3726SOL    HW222638   2.500   2.301  10.484 -1.7537  0.6805 -1.6958
 3727SOL     OW22639   4.086   2.235  17.173  0.2875 -0.0544  0.0436
 3727SOL    HW122640   4.033   2.308  17.140  0.0693  0.0915  0.7241
 3727SOL    HW222641   4.042   2.234  17.258 -0.5670 -1.8922 -0.4101
 3728SOL     OW22642   3.935   4.540   7.608  0.3280  0.7581  0.0985
 3728SOL    HW122643   3.924   4.634   7.593  0.6129  0.4482 -2.1512
 3728SOL    HW222644   4.028   4.537   7.629 -0.1104 -0.2264  1.8348
 3729SOL     OW22645   4.719   1.896   7.596  0.4660  0.7924  0.5071
 3729SOL    HW122646   0.034   1.966   7.542 -1.3532 -0.3182 -2.1523
 3729SOL    HW222647   4.706   1.946   7.677  3.5511 -0.6840  1.8957
 3730SOL     OW22648   1.941   2.625   4.392 -0.0156 -0.1426  0.6004
 3730SOL    HW122649   1.864   2.656   4.343 -1.8241 -3.4430  1.3743
 3730SOL    HW222650   1.910   2.548   4.439  0.2600  0.2642  1.4474
 3731SOL     OW22651   1.883   3.663  17.624  0.0439  0.3010 -0.1224
 3731SOL    HW122652   1.896   3.581  17.672  0.9061  0.6206  0.1927
 3731SOL    HW222653   1.972   3.697  17.636 -0.6038  1.4484  1.2791
 3732SOL     OW22654   2.239   3.691  15.626  1.1754 -0.7675 -0.4584
 3732SOL    HW122655   2.270   3.762  15.569 -1.4159  1.2766  0.6966
 3732SOL    HW222656   2.269   3.617  15.573  0.7435 -0.6284 -0.8897
 3733SOL     OW22657   2.967   1.106   5.798  0.0701  0.3026  0.1466
 3733SOL    HW122658   2.874   1.085   5.789  0.3421 -1.0907  0.5002
 3733SOL    HW222659   2.980   1.098   5.893  0.2083 -1.5362 -0.0193
 3734SOL     OW22660   3.128   0.131   3.242  0.3756 -0.5815  0.2031
 3734SOL    HW122661   3.187   0.174   3.304  0.9125 -1.6821  0.4598
 3734SOL    HW222662   3.057   0.108   3.303  1.2757 -0.4445  1.3095
 3735SOL     OW22663   3.419   1.032  17.572  0.2477 -0.9842 -0.3543
 3735SOL    HW122664   3.434   0.957  17.515  0.3632  0.6349 -2.4404
 3735SOL    HW222665   3.477   0.995  17.638 -1.0699 -0.6970  0.9899
 3736SOL     OW22666   1.285   1.460   3.387  0.0306  0.1969 -0.2188
 3736SOL    HW122667   1.267   1.432   3.297  1.6155  1.0676 -0.8153
 3736SOL    HW222668   1.379   1.476   3.388  0.0764 -0.0400 -0.9329
 3737SOL     OW22669   3.886   1.614  13.809  0.2258 -0.2707 -0.0282
 3737SOL    HW122670   3.824   1.612  13.737  0.5559  2.1765 -0.3816
 3737SOL    HW222671   3.908   1.707  13.808  0.1394 -0.2908 -2.2973
 3738SOL     OW22672   2.952   1.672   0.675  0.0372 -0.5288 -0.1178
 3738SOL    HW122673   2.882   1.657   0.611 -0.5321 -2.0336  0.8769
 3738SOL    HW222674   2.984   1.582   0.676 -1.2599 -0.9691  1.4903
 3739SOL     OW22675   3.451   2.442  14.618  0.2239  0.0161  0.0507
 3739SOL    HW122676   3.385   2.399  14.564  0.8048 -0.9082  0.0621
 3739SOL    HW222677   3.424   2.533  14.623 -1.5252 -0.6737  2.8347
 3740SOL     OW22678   1.262   2.515   4.484  0.0862  0.4756  0.3943
 3740SOL    HW122679   1.338   2.513   4.541 -0.7411  3.1210  1.6014
 3740SOL    HW222680   1.283   2.572   4.411 -0.8947 -2.9822 -2.5746
 3741SOL     OW22681   1.777   0.663   2.851 -0.0649  0.1388 -0.2103
 3741SOL    HW122682   1.709   0.608   2.812 -0.2444  0.6052 -0.5565
 3741SOL    HW222683   1.765   0.742   2.799  1.4643 -0.7879 -1.9916
 3742SOL     OW22684   4.328   4.377  11.411  0.5419 -0.0823  0.3806
 3742SOL    HW122685   4.271   4.405  11.339  0.9479  0.8536  0.4261
 3742SOL    HW222686   4.394   4.444  11.395  0.0756 -0.3382 -2.6541
 3743SOL     OW22687   3.361   0.118   4.077 -0.5168  0.5923  0.0488
 3743SOL    HW122688   3.312   0.130   4.158 -0.5879  0.0449  0.0902
 3743SOL    HW222689   3.283   0.131   4.024 -0.9435  0.1061  0.5647
 3744SOL     OW22690   4.257   4.696   5.687  0.0894  0.7024 -0.3587
 3744SOL    HW122691   4.280   0.067   5.684  1.7811  0.3395  1.5941
 3744SOL    HW222692   4.168   4.701   5.724 -0.1594  2.1970 -1.1591
 3745SOL     OW22693   2.019   1.065   8.517 -0.1217 -0.1021 -0.0241
 3745SOL    HW122694   1.988   1.064   8.607 -0.0740  0.7178  0.0053
 3745SOL    HW222695   1.977   1.145   8.486  0.5114  0.9467  1.7992
 3746SOL     OW22696   3.347   3.482   8.536 -0.4176  0.7619 -0.5130
 3746SOL    HW122697   3.442   3.490   8.548 -0.5519 -0.4542  1.4576
 3746SOL    HW222698   3.316   3.571   8.549 -1.0441 -0.2619  5.0214
 3747SOL     OW22699   2.951   2.339   3.862  0.0846 -0.2048 -0.3996
 3747SOL    HW122700   2.876   2.338   3.920  1.0826  1.9406  0.9115
 3747SOL    HW222701   2.905   2.304   3.785  0.2684  0.3601 -0.7688
 3748SOL     OW22702   3.671   0.156   2.352  0.1022  0.4091  0.3119
 3748SOL    HW122703   3.684   0.069   2.314  0.5438  0.4289  0.4087
 3748SOL    HW222704   3.753   0.196   2.321 -1.3071  2.9145 -0.1501
 3749SOL     OW22705   4.714   0.294   2.947 -0.1445  0.1590 -0.9974
 3749SOL    HW122706   0.036   0.378   2.960 -0.2038 -0.2105  1.4311
 3749SOL    HW222707   0.060   0.241   2.904 -0.8098  1.1815 -3.3249
 3750SOL     OW22708   3.517   1.926   3.984  0.7843 -0.1200 -0.3699
 3750SOL    HW122709   3.557   1.992   3.927  1.1737 -1.0660 -1.2011
 3750SOL    HW222710   3.565   1.847   3.958  0.8449 -0.0499 -0.4714
 3751SOL     OW22711   0.009   1.322  10.174  0.1939 -0.4061  0.0195
 3751SOL    HW122712   0.020   1.275  10.257 -1.5836 -0.1827  0.3906
 3751SOL    HW222713   0.100   1.315  10.147  0.9779 -0.8918  2.7840
 3752SOL     OW22714   4.262   2.797  16.377  0.2149 -0.3520  0.6048
 3752SOL    HW122715   4.335   2.812  16.317 -0.0473 -1.7979 -0.0879
 3752SOL    HW222716   4.279   2.862  16.445  2.1395  0.4950 -0.6781
 3753SOL     OW22717   1.900   2.556   6.392 -0.3380 -0.1034  0.3565
 3753SOL    HW122718   1.869   2.499   6.462  0.3964 -0.2249  0.5861
 3753SOL    HW222719   1.847   2.510   6.327 -2.9700  2.8586  0.4379
 3754SOL     OW22720   1.528   0.737  11.044  0.5955  0.0185  0.5055
 3754SOL    HW122721   1.437   0.762  11.030  0.3920  1.4293  4.1835
 3754SOL    HW222722   1.546   0.782  11.127  2.3865 -0.5527  0.4312
 3755SOL     OW22723   3.920   3.762  16.220  0.3769 -0.1709 -0.0392
 3755SOL    HW122724   3.941   3.799  16.134 -0.4147 -3.7097 -1.7908
 3755SOL    HW222725   3.833   3.798  16.236  1.0699  0.3917  2.3962
 3756SOL     OW22726   3.600   3.840  16.456 -0.3647 -0.3325 -0.2406
 3756SOL    HW122727   3.584   3.881  16.371  1.2493  0.1782 -0.2854
 3756SOL    HW222728   3.559   3.759  16.427  2.6551 -1.0236 -2.5436
 3757SOL     OW22729   3.150   2.220   8.975 -0.7131  0.6267  0.5350
 3757SOL    HW122730   3.091   2.161   8.928 -3.1203  0.6720  3.5095
 3757SOL    HW222731   3.092   2.257   9.043  0.5887  3.3270  0.1868
 3758SOL     OW22732   0.351   2.118  11.544 -0.0136 -0.3506 -0.5775
 3758SOL    HW122733   0.343   2.152  11.455  0.2588 -0.3431 -0.6018
 3758SOL    HW222734   0.347   2.023  11.528  0.0616 -0.7167  1.5853
 3759SOL     OW22735   3.586   2.127   0.778 -0.2085  0.2289 -0.2338
 3759SOL    HW122736   3.594   2.126   0.873  0.3036  0.1762 -0.2772
 3759SOL    HW222737   3.622   2.213   0.755  1.1554 -0.6115 -1.2061
 3760SOL     OW22738   2.522   1.625  10.872  0.4219 -0.8317  0.1742
 3760SOL    HW122739   2.607   1.603  10.835  0.2785 -1.5580  0.2847
 3760SOL    HW222740   2.520   1.559  10.942  1.0720 -1.9880 -0.9052
 3761SOL     OW22741   2.588   2.668   5.735 -0.3269 -0.0679  0.1807
 3761SOL    HW122742   2.653   2.668   5.806 -0.3068  0.5097  0.1642
 3761SOL    HW222743   2.631   2.621   5.663  1.8039 -1.5845  2.4439
 3762SOL     OW22744   2.371   3.802  14.723 -0.2304 -0.3978  0.2549
 3762SOL    HW122745   2.443   3.829  14.781  0.3073 -1.4609  0.0834
 3762SOL    HW222746   2.399   3.826  14.634  0.9127  0.4128  0.8327
 3763SOL     OW22747   1.328   3.714   7.280  0.4004 -0.2062  0.0655
 3763SOL    HW122748   1.275   3.788   7.252 -1.3261 -0.3908  2.8489
 3763SOL    HW222749   1.377   3.684   7.203 -0.1794 -0.6803 -0.1203
 3764SOL     OW22750   1.255   0.822   2.370 -0.2728 -0.1078  0.4227
 3764SOL    HW122751   1.167   0.823   2.407 -1.1236  1.0035 -1.6518
 3764SOL    HW222752   1.243   0.792   2.279  1.6121 -5.3862  1.8865
 3765SOL     OW22753   0.072   1.430   1.961 -0.2174 -0.2111  0.1987
 3765SOL    HW122754   0.065   1.463   2.051 -1.4310 -2.2026  0.8284
 3765SOL    HW222755   0.098   1.340   1.982  0.9320  0.4388  1.5239
 3766SOL     OW22756   0.548   1.465  14.291 -0.1920  0.0479 -0.6675
 3766SOL    HW122757   0.568   1.557  14.310  0.5541 -0.2491 -0.0045
 3766SOL    HW222758   0.637   1.433  14.274  0.2084 -0.0770  1.6509
 3767SOL     OW22759   4.247   1.835   3.809  0.3057  0.3048  0.1925
 3767SOL    HW122760   4.208   1.887   3.739  2.6152 -1.1565 -2.1756
 3767SOL    HW222761   4.196   1.755   3.822  0.5567  0.0563 -0.3646
 3768SOL     OW22762   3.409   2.800   3.600 -0.3237  0.5105  0.6237
 3768SOL    HW122763   3.485   2.829   3.550  0.1865 -0.5571  0.7593
 3768SOL    HW222764   3.330   2.846   3.572 -0.2954 -0.6430 -1.3406
 3769SOL     OW22765   4.665   2.049   2.662 -0.3870 -0.3284 -0.0063
 3769SOL    HW122766   0.008   1.992   2.705 -1.6067 -3.1302 -1.9182
 3769SOL    HW222767   4.670   2.015   2.573  0.2555 -2.4119  0.8188
 3770SOL     OW22768   2.595   1.408   4.590 -0.0702  0.1876  0.0831
 3770SOL    HW122769   2.585   1.382   4.682 -0.8541 -0.1836 -0.1082
 3770SOL    HW222770   2.560   1.496   4.594  2.0072  1.0031  0.5787
 3771SOL     OW22771   3.266   4.411   3.664 -0.5011  0.7278 -0.2923
 3771SOL    HW122772   3.210   4.369   3.599  0.6006  2.0735 -2.0967
 3771SOL    HW222773   3.326   4.464   3.611 -0.7956 -0.6316 -1.9753
 3772SOL     OW22774   0.929   3.354   5.186 -0.2737 -0.0349 -0.5029
 3772SOL    HW122775   0.912   3.419   5.117 -0.9059 -0.6765 -0.9571
 3772SOL    HW222776   0.956   3.411   5.258 -0.1248 -0.7698  0.0227
 3773SOL     OW22777   2.271   1.234  12.264 -0.3567  0.2514 -0.0520
 3773SOL    HW122778   2.313   1.225  12.179 -0.1518 -0.3149  0.1038
 3773SOL    HW222779   2.181   1.229  12.231 -0.4459  1.5952 -0.0142
 3774SOL     OW22780   0.836   0.953   5.330  0.4732  0.1784  0.2198
 3774SOL    HW122781   0.829   0.858   5.315  0.0887  0.2877 -0.2889
 3774SOL    HW222782   0.743   0.969   5.311  0.3428 -0.9689 -0.1511
 3775SOL     OW22783   3.215   0.860   3.008 -0.0959 -0.4032  0.0623
 3775SOL    HW122784   3.265   0.857   2.927 -1.3000  2.7919 -0.8011
 3775SOL    HW222785   3.215   0.768   3.034  1.0510 -0.7377 -1.1253
 3776SOL     OW22786   1.592   2.734   6.647 -0.0257  0.4979  0.0606
 3776SOL    HW122787   1.652   2.755   6.719 -4.0206 -3.9347  4.7156
 3776SOL    HW222788   1.633   2.788   6.579 -2.8975  1.5866 -0.8356
 3777SOL     OW22789   2.252   1.440   7.306  0.2833 -0.3440  0.4717
 3777SOL    HW122790   2.308   1.463   7.232 -0.3529  0.7962  0.3580
 3777SOL    HW222791   2.249   1.516   7.365  2.8609  1.4990 -1.7402
 3778SOL     OW22792   4.066   0.849   4.744  0.2222 -0.0903  0.2306
 3778SOL    HW122793   4.129   0.899   4.691  0.8813 -0.9218  0.2253
 3778SOL    HW222794   4.071   0.908   4.819 -2.1002  1.4143 -0.7860
 3779SOL     OW22795   2.936   0.514  15.516  0.3426  0.1719 -0.1430
 3779SOL    HW122796   2.961   0.601  15.486  1.7597  0.2452  1.2389
 3779SOL    HW222797   2.866   0.530  15.579  0.2441  0.2588 -0.2749
 3780SOL     OW22798   2.649   3.890  14.824  0.3084 -0.0312  0.0825
 3780SOL    HW122799   2.739   3.865  14.801  0.2776 -2.4042  2.5757
 3780SOL    HW222800   2.660   3.874  14.918 -1.5304  1.7134  0.5991
 3781SOL     OW22801   3.225   1.809   2.172 -0.0124 -0.1995 -0.1817
 3781SOL    HW122802   3.171   1.751   2.118  1.7755 -1.0884 -1.0083
 3781SOL    HW222803   3.292   1.841   2.111 -0.1352 -0.1355 -0.2825
 3782SOL     OW22804   2.504   2.239   1.478  0.2500 -0.4143 -0.2194
 3782SOL    HW122805   2.539   2.228   1.389  1.6310  1.6950  0.0679
 3782SOL    HW222806   2.487   2.150   1.507 -0.9722  0.7627  2.6081
 3783SOL     OW22807   1.512   2.621  15.736 -0.5233 -0.0650 -0.3256
 3783SOL    HW122808   1.577   2.688  15.719 -0.3012 -0.0761  0.4734
 3783SOL    HW222809   1.561   2.557  15.789  0.5825  3.2420  2.6789
 3784SOL     OW22810   0.891   4.571  10.798 -0.0510  0.0222  0.5735
 3784SOL    HW122811   0.900   4.477  10.815  2.7754  0.3051  0.5467
 3784SOL    HW222812   0.821   4.591  10.860 -0.1733 -0.1016  0.4732
 3785SOL     OW22813   0.885   3.085  11.177 -0.0082 -0.4986 -0.3153
 3785SOL    HW122814   0.978   3.070  11.162  0.7566  1.3683  2.4424
 3785SOL    HW222815   0.861   2.998  11.145  1.7778 -1.0066 -0.2708
 3786SOL     OW22816   2.185   1.398   9.761 -0.1112 -0.5996 -0.2189
 3786SOL    HW122817   2.174   1.484   9.800 -0.9402 -0.2687 -1.2089
 3786SOL    HW222818   2.277   1.380   9.783 -0.2696  0.8373  1.5959
 3787SOL     OW22819   2.000   1.830   2.506  0.3279  0.5537  0.3858
 3787SOL    HW122820   1.939   1.897   2.537  0.9095  0.7257  1.1675
 3787SOL    HW222821   1.948   1.789   2.437 -0.0468 -1.1071  1.6608
 3788SOL     OW22822   3.253   0.510  14.042  0.4242  0.1945 -0.2596
 3788SOL    HW122823   3.166   0.538  14.015  0.1204 -1.4276 -0.9694
 3788SOL    HW222824   3.223   0.438  14.097 -0.9966 -0.3488 -1.7514
 3789SOL     OW22825   2.423   0.825  15.939  0.2522 -0.2301  0.1951
 3789SOL    HW122826   2.380   0.741  15.925 -1.8473  1.1053 -1.2897
 3789SOL    HW222827   2.412   0.831  16.033 -4.0780 -2.1701 -0.1913
 3790SOL     OW22828   1.161   0.021  14.984  0.1116 -0.7126 -0.7917
 3790SOL    HW122829   1.112   0.015  14.902 -0.8300  3.7969 -0.5789
 3790SOL    HW222830   1.160   0.115  15.004  0.9316 -1.2344  1.6936
 3791SOL     OW22831   2.472   0.583   1.458 -0.5700 -0.7068 -0.1607
 3791SOL    HW122832   2.520   0.517   1.408 -2.0689 -1.3663 -0.7174
 3791SOL    HW222833   2.501   0.563   1.547  1.1020  1.6868 -0.1848
 3792SOL     OW22834   1.643   4.525   0.504 -0.2761 -0.3609 -0.4160
 3792SOL    HW122835   1.713   4.542   0.566 -1.4011  0.0725  0.7315
 3792SOL    HW222836   1.681   4.457   0.447  2.6419  1.5876 -0.7747
 3793SOL     OW22837   1.416   3.241   8.436  0.0137 -0.2943 -0.2470
 3793SOL    HW122838   1.415   3.335   8.453  3.5192 -0.4036  0.5868
 3793SOL    HW222839   1.382   3.251   8.347  2.1389 -1.4846 -1.1906
 3794SOL     OW22840   2.142   1.389   6.463  0.4038 -0.2173  0.6852
 3794SOL    HW122841   2.232   1.402   6.494  0.7605 -0.3786 -0.2713
 3794SOL    HW222842   2.098   1.438   6.532 -1.8211  1.3251 -1.8605
 3795SOL     OW22843   3.323   4.605   9.138 -0.2059  0.1842  0.5176
 3795SOL    HW122844   3.327   4.554   9.057 -2.7101 -2.7227  2.2279
 3795SOL    HW222845   3.246   4.568   9.181  0.5248 -1.3583  0.4985
 3796SOL     OW22846   3.022   0.190   5.415 -0.5829 -0.5257 -0.3143
 3796SOL    HW122847   2.963   0.243   5.470 -0.8748 -0.4185 -0.7336
 3796SOL    HW222848   2.961   0.123   5.385  1.0292 -1.9428 -0.3697
 3797SOL     OW22849   2.426   1.886   5.556 -0.0073  0.3461  0.1934
 3797SOL    HW122850   2.461   1.898   5.645  2.0732 -0.1621 -0.5475
 3797SOL    HW222851   2.364   1.813   5.562 -1.3491  1.7103  2.9070
 3798SOL     OW22852   2.484   2.648   1.315  0.0592 -0.0730  0.3374
 3798SOL    HW122853   2.535   2.597   1.252 -2.9543 -3.4652  0.6253
 3798SOL    HW222854   2.400   2.651   1.268 -0.8602  1.7004  2.0890
 3799SOL     OW22855   0.639   3.346  16.724  0.5077 -0.0984  0.2122
 3799SOL    HW122856   0.667   3.429  16.764  0.9874  0.9272 -2.2438
 3799SOL    HW222857   0.600   3.300  16.798  0.9371 -2.5841 -1.1009
 3800SOL     OW22858   4.213   2.601   5.751  0.1253  0.1168  0.0865
 3800SOL    HW122859   4.137   2.658   5.738 -0.7090 -1.3516 -1.4313
 3800SOL    HW222860   4.166   2.517   5.751 -3.2384  1.9844 -0.6953
 3801SOL     OW22861   3.682   2.492   2.298  0.5559 -0.8106 -0.2783
 3801SOL    HW122862   3.693   2.581   2.266 -1.5370  0.7534  3.3087
 3801SOL    HW222863   3.616   2.504   2.366 -0.3983 -3.5293 -0.7046
 3802SOL     OW22864   2.837   2.245   3.592  0.7907  0.4377  0.0959
 3802SOL    HW122865   2.901   2.286   3.534  0.6041 -2.0944 -1.8995
 3802SOL    HW222866   2.761   2.229   3.537  2.8707 -0.5743 -2.4869
 3803SOL     OW22867   3.726   2.195   1.657 -0.2433  0.7487  0.0459
 3803SOL    HW122868   3.801   2.245   1.688  1.2612 -2.3768  1.4743
 3803SOL    HW222869   3.712   2.227   1.568 -0.0768  1.2007  0.1839
 3804SOL     OW22870   4.720   4.307   9.265 -0.2146 -0.3568  0.9411
 3804SOL    HW122871   4.662   4.295   9.341  1.2607  2.5504  2.5445
 3804SOL    HW222872   0.032   4.218   9.255 -0.7265 -0.4213 -0.1578
 3805SOL     OW22873   2.720   0.820  10.107  0.7573  0.1538 -0.2584
 3805SOL    HW122874   2.684   0.764  10.038 -0.6945 -1.4519  1.8491
 3805SOL    HW222875   2.799   0.854  10.064  0.5552 -0.3099 -0.9970
 3806SOL     OW22876   3.087   2.601   3.796 -0.3988 -0.3709  0.0857
 3806SOL    HW122877   3.048   2.522   3.834 -3.6015  1.0590 -0.2122
 3806SOL    HW222878   3.068   2.592   3.703  0.7339  0.0985 -0.1924
 3807SOL     OW22879   0.619   3.783   6.097 -0.4595 -0.5315 -0.1872
 3807SOL    HW122880   0.624   3.785   6.193  0.0611  1.5276 -0.2451
 3807SOL    HW222881   0.703   3.819   6.067  0.3751 -2.2638  0.0534
 3808SOL     OW22882   0.867   4.532   8.805 -0.4011  0.5460 -0.6736
 3808SOL    HW122883   0.798   4.494   8.860 -0.5585 -2.9140 -3.2781
 3808SOL    HW222884   0.943   4.488   8.844 -0.8784  0.6488  0.3774
 3809SOL     OW22885   3.345   2.925  14.955  0.0284 -0.3785 -0.0686
 3809SOL    HW122886   3.379   2.937  14.866  0.1122 -1.4822 -0.1858
 3809SOL    HW222887   3.396   2.993  15.000  0.3159 -0.7916  0.2277
 3810SOL     OW22888   3.344   1.062  14.883 -0.7923  0.2577 -0.0938
 3810SOL    HW122889   3.367   1.071  14.976 -0.9247 -1.1891  0.0718
 3810SOL    HW222890   3.264   1.114  14.870 -1.0876 -0.4927 -1.2563
 3811SOL     OW22891   4.387   3.956   7.592  0.3629 -0.1982 -0.2594
 3811SOL    HW122892   4.363   3.866   7.569  0.6411 -0.1278 -0.8192
 3811SOL    HW222893   4.384   4.005   7.510 -2.1570 -0.9567 -0.6046
 3812SOL     OW22894   0.299   1.972   8.120 -0.0538 -0.2595  0.3427
 3812SOL    HW122895   0.246   1.989   8.198  1.4247  2.3014  0.7990
 3812SOL    HW222896   0.388   1.963   8.156  0.8749  2.0498 -1.3944
 3813SOL     OW22897   0.485   0.669   2.468  1.1467  0.1863  0.0065
 3813SOL    HW122898   0.490   0.764   2.463  2.7319  0.1247  0.3681
 3813SOL    HW222899   0.574   0.648   2.438  1.3908  0.2412  0.6896
 3814SOL     OW22900   0.046   2.542   3.237  0.0507 -0.0706 -0.1096
 3814SOL    HW122901   0.102   2.605   3.190 -1.2146  1.3146  0.2474
 3814SOL    HW222902   4.684   2.587   3.247  0.5262  0.9926 -0.9054
 3815SOL     OW22903   1.232   2.645  15.732  0.3991 -0.2565  0.1257
 3815SOL    HW122904   1.216   2.689  15.649  1.5014  1.2814  0.7256
 3815SOL    HW222905   1.322   2.613  15.728  1.0203  1.6190 -0.5565
 3816SOL     OW22906   1.733   2.459   1.439  0.2572  0.0623  0.8669
 3816SOL    HW122907   1.800   2.412   1.389 -0.9065  0.8263 -1.4025
 3816SOL    HW222908   1.786   2.473   1.518 -0.5405  0.5606  1.3099
 3817SOL     OW22909   0.883   4.505   8.523 -0.2147  0.2173  0.4538
 3817SOL    HW122910   0.803   4.542   8.486 -1.7332 -2.2493  1.2180
 3817SOL    HW222911   0.872   4.539   8.611  0.4827 -1.1395  1.0586
 3818SOL     OW22912   4.430   0.254   6.805 -0.0350 -0.1725 -0.4881
 3818SOL    HW122913   4.409   0.161   6.807  1.0201 -0.4324 -1.1587
 3818SOL    HW222914   4.461   0.273   6.716 -2.0219  0.6853 -1.0036
 3819SOL     OW22915   2.353   3.558  13.114 -0.3571 -0.1702  0.1079
 3819SOL    HW122916   2.421   3.495  13.138 -1.3593 -1.6191 -0.8346
 3819SOL    HW222917   2.312   3.520  13.036 -1.3151 -1.3288  1.1722
 3820SOL     OW22918   3.478   4.340   7.927  0.6204 -0.3074  1.1660
 3820SOL    HW122919   3.436   4.312   8.009  1.1735  2.3861  2.3564
 3820SOL    HW222920   3.482   4.433   7.947 -3.3775 -0.1680  1.2566
 3821SOL     OW22921   3.417   1.466   1.400 -0.4814  0.0937  0.0732
 3821SOL    HW122922   3.440   1.446   1.491 -0.2424  0.4804  0.0972
 3821SOL    HW222923   3.502   1.496   1.368  0.0652  1.1921  2.5080
 3822SOL     OW22924   0.734   1.979  13.288 -0.3927  0.1522  0.3052
 3822SOL    HW122925   0.809   1.937  13.329 -1.1200 -0.4642  1.0021
 3822SOL    HW222926   0.776   2.065  13.287 -1.9934  0.9349  0.3394
 3823SOL     OW22927   2.203   2.166   9.102  0.0723  0.7880  0.0407
 3823SOL    HW122928   2.174   2.216   9.178 -1.6460 -4.2972  2.6849
 3823SOL    HW222929   2.298   2.175   9.111  0.3026  1.7352 -3.3461
 3824SOL     OW22930   3.751   1.412   6.485 -0.2084  0.0091 -0.0751
 3824SOL    HW122931   3.763   1.500   6.520  1.2172  0.1222 -0.8489
 3824SOL    HW222932   3.664   1.415   6.446 -0.5674 -4.4206  0.3948
 3825SOL     OW22933   3.009   3.407   5.042 -0.1119  0.0187  0.6402
 3825SOL    HW122934   2.914   3.417   5.048 -0.3244  0.3235 -2.9902
 3825SOL    HW222935   3.018   3.402   4.947 -0.8439  1.9264  0.4734
 3826SOL     OW22936   4.036   0.034   7.037  0.2733 -0.2050  0.3452
 3826SOL    HW122937   4.073   0.048   7.124  1.1893 -0.3345 -0.0240
 3826SOL    HW222938   4.085   0.101   6.989  2.0333  0.5829  3.2484
 3827SOL     OW22939   0.064   3.636  13.048  0.7430  0.6469 -0.1161
 3827SOL    HW122940   0.155   3.607  13.034  0.4628  0.1201 -0.8442
 3827SOL    HW222941   0.068   3.708  12.985  0.3992  0.5079 -0.2944
 3828SOL     OW22942   4.551   4.469   8.595 -0.6068  0.2937 -0.8161
 3828SOL    HW122943   4.599   4.387   8.585  1.5666  1.4812 -0.2842
 3828SOL    HW222944   4.623   4.531   8.581 -1.2038  1.6217  1.9442
 3829SOL     OW22945   3.116   3.674   8.985  0.1448 -0.9138 -0.2023
 3829SOL    HW122946   3.210   3.656   8.981  0.8939  2.7033  1.0902
 3829SOL    HW222947   3.080   3.603   8.932  0.6289 -1.2318 -0.1030
 3830SOL     OW22948   3.946   1.310   4.127 -0.1966  0.6336  0.0307
 3830SOL    HW122949   3.977   1.387   4.079 -2.1843  1.0969 -0.4760
 3830SOL    HW222950   3.907   1.345   4.207 -1.4079 -1.6767  0.4537
 3831SOL     OW22951   3.730   1.901   0.803  0.3436  0.7153 -0.2852
 3831SOL    HW122952   3.663   1.969   0.807 -0.3607  0.0944 -1.5440
 3831SOL    HW222953   3.676   1.830   0.769  0.5961  0.4072 -0.0390
 3832SOL     OW22954   3.893   0.578   5.751 -0.4548  0.2350 -0.1073
 3832SOL    HW122955   3.805   0.541   5.758  0.4039 -2.0520 -1.3245
 3832SOL    HW222956   3.863   0.666   5.727 -1.1840  0.1525  0.4994
 3833SOL     OW22957   4.016   3.283  13.552  0.0426  0.0588  0.3462
 3833SOL    HW122958   4.031   3.365  13.503 -0.0066 -1.0859 -1.5878
 3833SOL    HW222959   4.111   3.269  13.559  0.0879  1.1331  1.9549
 3834SOL     OW22960   0.410   3.050   4.794 -0.1755  0.0172  0.1133
 3834SOL    HW122961   0.469   3.072   4.866  0.7551 -0.3865 -0.5182
 3834SOL    HW222962   0.456   3.056   4.710 -1.0297 -0.6919 -0.4047
 3835SOL     OW22963   2.351   2.890   3.401 -0.6067 -0.1326  0.2966
 3835SOL    HW122964   2.318   2.933   3.480  0.7380 -0.8456  1.2435
 3835SOL    HW222965   2.440   2.875   3.431 -0.2930 -0.8583 -0.9592
 3836SOL     OW22966   0.288   0.783   2.274  0.0266  0.7203 -0.2906
 3836SOL    HW122967   0.317   0.719   2.340  0.6370  0.4798 -0.7918
 3836SOL    HW222968   0.327   0.742   2.197  1.0784  1.3655 -0.0966
 3837SOL     OW22969   3.177   2.797  16.189  0.4256 -0.2138  0.6133
 3837SOL    HW122970   3.102   2.737  16.197 -1.8644  2.4254 -0.8998
 3837SOL    HW222971   3.199   2.782  16.097 -0.8065  0.9726  0.1326
 3838SOL     OW22972   1.751   1.650   3.044 -0.5907 -0.5951 -0.0306
 3838SOL    HW122973   1.781   1.708   2.975 -0.3778 -2.6833 -1.6801
 3838SOL    HW222974   1.838   1.610   3.057 -1.3496 -2.4034 -0.4411
 3839SOL     OW22975   2.254   1.530   3.997  0.1706 -0.5313 -0.0978
 3839SOL    HW122976   2.323   1.480   3.953 -0.3740 -0.6724 -0.8010
 3839SOL    HW222977   2.185   1.509   3.934 -0.5570  0.4200  0.3855
 3840SOL     OW22978   2.805   2.161   7.906 -0.0800  0.2720 -0.3532
 3840SOL    HW122979   2.880   2.116   7.946 -1.0424  1.3694  2.6930
 3840SOL    HW222980   2.830   2.175   7.815  1.6638 -1.1542 -0.1024
 3841SOL     OW22981   1.679   3.449   7.911 -0.7985 -0.3003 -0.3059
 3841SOL    HW122982   1.657   3.516   7.976  0.4511 -1.2020  1.0385
 3841SOL    HW222983   1.609   3.385   7.923 -0.2794 -0.8852 -0.3837
 3842SOL     OW22984   2.508   1.751  17.533  0.5781 -0.6276 -0.5099
 3842SOL    HW122985   2.488   1.838  17.500  1.0337  0.0797  1.0790
 3842SOL    HW222986   2.539   1.707  17.454  0.6871 -2.7011  0.6815
 3843SOL     OW22987   2.629   1.239  16.048 -0.0812 -0.0634 -0.4314
 3843SOL    HW122988   2.539   1.220  16.076  0.7021 -0.1346  2.0715
 3843SOL    HW222989   2.618   1.327  16.013 -1.4796  0.7717  2.1047
 3844SOL     OW22990   4.352   2.726   0.505 -0.2171 -0.4288  0.2154
 3844SOL    HW122991   4.418   2.706   0.572  1.6705  2.2223 -0.8831
 3844SOL    HW222992   4.283   2.660   0.517 -1.4358  0.5223 -1.6449
 3845SOL     OW22993   1.884   4.713   4.019  0.1930  0.3620 -0.2053
 3845SOL    HW122994   1.851   4.642   3.964  0.0445  0.9999 -0.9386
 3845SOL    HW222995   1.963   4.672   4.053 -0.7024  0.4205  1.9678
 3846SOL     OW22996   2.869   3.140   2.989  0.1784 -0.2702 -0.1364
 3846SOL    HW122997   2.845   3.055   3.024 -1.3200  0.1246 -0.2194
 3846SOL    HW222998   2.964   3.131   2.993  0.2984  0.9721 -0.2130
 3847SOL     OW22999   0.291   0.387  12.853  0.3024  0.5974  0.0542
 3847SOL    HW123000   0.327   0.384  12.942  1.9445  1.6862 -0.5622
 3847SOL    HW223001   0.200   0.412  12.866  0.4763  0.7232  1.0748
 3848SOL     OW23002   1.134   3.832   5.908 -0.2635  0.5409 -0.4149
 3848SOL    HW123003   1.212   3.797   5.951  0.4239  1.1185 -1.1845
 3848SOL    HW223004   1.171   3.870   5.828  1.3226  1.3360  0.7112
 3849SOL     OW23005   3.357   4.372  14.090 -0.1133 -0.2048 -0.1297
 3849SOL    HW123006   3.344   4.349  13.998  0.6317 -0.9218 -0.0552
 3849SOL    HW223007   3.434   4.317  14.107 -0.7970 -0.6906  1.4570
 3850SOL     OW23008   2.437   3.525   1.611 -0.2990  0.2916 -0.7479
 3850SOL    HW123009   2.422   3.557   1.700 -1.8968 -0.1963 -0.8402
 3850SOL    HW223010   2.463   3.433   1.616 -0.4155  0.2591 -0.7356
 3851SOL     OW23011   2.598   0.409   5.954  0.3990 -0.0630  0.6985
 3851SOL    HW123012   2.530   0.456   6.004  2.3428  0.2028  3.0807
 3851SOL    HW223013   2.638   0.361   6.027  1.0154 -3.6902 -2.0635
 3852SOL     OW23014   0.531   3.836   6.351  0.0563 -0.4168 -0.1192
 3852SOL    HW123015   0.498   3.918   6.387  2.9797  0.1957  1.1383
 3852SOL    HW223016   0.584   3.796   6.420 -1.5810 -0.3887  1.1620
 3853SOL     OW23017   0.813   1.616   4.235 -0.3005  0.3326  0.2599
 3853SOL    HW123018   0.837   1.596   4.145 -0.7422 -1.0413  0.4421
 3853SOL    HW223019   0.739   1.675   4.220  0.5741  0.5373 -3.1589
 3854SOL     OW23020   1.495   4.003   8.845 -0.0326  0.4654 -0.8586
 3854SOL    HW123021   1.507   3.922   8.895 -1.5322  0.4220 -0.5711
 3854SOL    HW223022   1.500   4.067   8.916 -0.3936  1.7549 -1.9874
 3855SOL     OW23023   2.323   2.162   7.884 -0.2020 -0.2822  0.2375
 3855SOL    HW123024   2.407   2.187   7.921 -0.7036  0.4056  0.9217
 3855SOL    HW223025   2.310   2.226   7.814 -1.1005 -0.5534  0.1525
 3856SOL     OW23026   1.525   2.064  10.527  0.3766  0.0815  0.2476
 3856SOL    HW123027   1.453   2.043  10.467  1.6377 -2.6107 -0.3667
 3856SOL    HW223028   1.484   2.132  10.580  1.4032  0.4010  0.6314
 3857SOL     OW23029   2.771   4.352   1.679 -0.0934  0.2738 -0.3468
 3857SOL    HW123030   2.724   4.275   1.647 -0.9646  0.5028  0.3604
 3857SOL    HW223031   2.753   4.409   1.605 -0.0208  4.1936  2.6572
 3858SOL     OW23032   1.640   2.114   5.180 -0.0703  0.5526  0.5304
 3858SOL    HW123033   1.621   2.204   5.206  1.5779  1.0700 -0.1225
 3858SOL    HW223034   1.632   2.132   5.086  0.6891  0.1384  0.3908
 3859SOL     OW23035   1.389   4.691   7.381 -0.4137 -0.0731  0.0244
 3859SOL    HW123036   1.406   4.660   7.292 -1.0996 -0.0592 -0.1180
 3859SOL    HW223037   1.306   0.019   7.378 -0.4602 -0.1404  0.1951
 3860SOL     OW23038   0.308   0.366   9.139  0.5960  0.0567  0.1324
 3860SOL    HW123039   0.287   0.287   9.188 -1.0499  0.6642  0.4041
 3860SOL    HW223040   0.389   0.404   9.173  0.4679  0.1168  0.3693
 3861SOL     OW23041   0.156   1.829   9.842  0.6882  0.0824  0.2129
 3861SOL    HW123042   0.123   1.877   9.917 -0.8173  1.7785 -1.5451
 3861SOL    HW223043   0.213   1.766   9.886 -0.0053 -1.6740 -1.4072
 3862SOL     OW23044   0.781   3.231  10.311  0.0891 -0.4577  0.2025
 3862SOL    HW123045   0.839   3.299  10.275  0.9181 -1.4231 -0.2734
 3862SOL    HW223046   0.755   3.272  10.393 -3.4683  0.0961 -1.2047
 3863SOL     OW23047   1.135   0.890   7.391  0.5582  0.3152  0.0234
 3863SOL    HW123048   1.223   0.921   7.412 -0.1460  2.8244 -0.7680
 3863SOL    HW223049   1.087   0.957   7.440 -2.4409 -0.6334 -1.6677
 3864SOL     OW23050   2.367   4.225  16.305  0.2658 -0.3545 -0.0564
 3864SOL    HW123051   2.447   4.235  16.356  0.8353  4.5564 -1.9123
 3864SOL    HW223052   2.398   4.175  16.230  1.8431  0.1828  0.2454
 3865SOL     OW23053   3.132   4.623  13.793 -0.4929 -0.9952 -0.3620
 3865SOL    HW123054   3.053   4.612  13.741 -1.5038 -2.3139  1.4727
 3865SOL    HW223055   3.105   4.602  13.882  0.6385  3.4050  1.0330
 3866SOL     OW23056   3.359   1.390  10.907 -0.3067  0.1622 -0.0155
 3866SOL    HW123057   3.420   1.408  10.835 -0.2033 -0.2752 -0.0398
 3866SOL    HW223058   3.329   1.478  10.926 -2.1278 -0.5234  0.2654
 3867SOL     OW23059   1.367   3.978   9.689  0.1554 -0.2190 -0.1532
 3867SOL    HW123060   1.361   3.899   9.742 -0.8345  0.2364  0.4130
 3867SOL    HW223061   1.390   4.052   9.746  0.2834 -1.7954  1.8104
 3868SOL     OW23062   3.906   0.285  12.531 -0.2084 -0.2718 -0.2026
 3868SOL    HW123063   3.891   0.202  12.577  2.6009 -0.2725  0.7294
 3868SOL    HW223064   3.865   0.269  12.447  0.3645 -3.2438  0.0597
 3869SOL     OW23065   3.962   4.238   3.241  0.2626 -0.6577  0.2470
 3869SOL    HW123066   3.968   4.332   3.257  1.4191 -1.1297  2.6791
 3869SOL    HW223067   4.016   4.234   3.162 -0.5245  4.3956 -0.5325
 3870SOL     OW23068   1.007   4.712   2.180  0.0509  0.1320  0.5634
 3870SOL    HW123069   0.985   0.043   2.257 -1.0542 -1.0200  1.0356
 3870SOL    HW223070   1.082   0.025   2.132  0.0344 -0.4102  0.1615
 3871SOL     OW23071   2.833   2.351   1.219 -0.2769  0.1045 -0.0013
 3871SOL    HW123072   2.910   2.387   1.263  0.9520 -2.9274  0.3148
 3871SOL    HW223073   2.862   2.262   1.197 -0.5599 -0.6174  2.4587
 3872SOL     OW23074   3.381   0.382   2.754 -0.2609  0.2872 -0.1530
 3872SOL    HW123075   3.337   0.467   2.765 -1.3090 -0.2674 -0.0424
 3872SOL    HW223076   3.340   0.360   2.670 -0.3100  0.7281 -0.2485
 3873SOL     OW23077   3.536   2.349  14.131  0.0518 -0.0740  0.3446
 3873SOL    HW123078   3.535   2.400  14.050 -0.4184 -0.1346  0.3125
 3873SOL    HW223079   3.614   2.385  14.174  0.9329  0.8271 -1.9843
 3874SOL     OW23080   3.612   2.438   0.057  0.5114 -0.3502 -0.3646
 3874SOL    HW123081   3.677   2.508   0.056 -0.0296  0.1467 -0.4513
 3874SOL    HW223082   3.668   2.365   0.085 -0.3254 -0.9359 -0.1926
 3875SOL     OW23083   1.964   3.371   7.659  0.5323 -0.0165  0.0510
 3875SOL    HW123084   1.872   3.353   7.678  0.7763  0.0802  1.3067
 3875SOL    HW223085   1.958   3.405   7.570  0.5845  1.6537  0.6854
 3876SOL     OW23086   0.653   3.787   0.409  0.3061  0.3168  0.3752
 3876SOL    HW123087   0.679   3.815   0.497  1.6709  0.3628 -0.0425
 3876SOL    HW223088   0.663   3.692   0.412 -1.5486  0.1224  0.5568
 3877SOL     OW23089   0.983   2.762   5.423 -0.2980  0.4750  0.1448
 3877SOL    HW123090   0.999   2.731   5.334 -0.1822 -1.7493  0.9290
 3877SOL    HW223091   1.031   2.702   5.481 -0.0524 -0.4928 -1.0588
 3878SOL     OW23092   1.557   3.986   8.268  0.2730  0.0538  0.0517
 3878SOL    HW123093   1.622   4.054   8.251 -0.3412  0.3067 -1.3043
 3878SOL    HW223094   1.486   4.013   8.211 -1.1799  1.9584  2.7940
 3879SOL     OW23095   3.526   2.707   7.719 -0.4399  0.5935  0.0476
 3879SOL    HW123096   3.466   2.754   7.661 -1.6335  1.7943  2.2567
 3879SOL    HW223097   3.497   2.617   7.705 -0.7013  1.0428 -2.3445
 3880SOL     OW23098   0.689   1.101   5.675 -0.2742 -0.1001  0.0704
 3880SOL    HW123099   0.754   1.166   5.702  1.6269 -1.3541 -1.4205
 3880SOL    HW223100   0.740   1.036   5.627 -1.4184  0.5066 -1.9663
 3881SOL     OW23101   3.331   2.930   1.505  0.2511  0.4491  0.3056
 3881SOL    HW123102   3.380   2.925   1.423 -1.5247 -0.4559 -0.6960
 3881SOL    HW223103   3.268   2.863   1.480  0.9533 -0.5553  1.2461
 3882SOL     OW23104   2.052   2.905   6.879  0.6390 -0.1214 -0.2979
 3882SOL    HW123105   2.118   2.970   6.903  0.0751  0.3493 -0.0241
 3882SOL    HW223106   2.099   2.826   6.905 -1.7774 -0.2093  3.9013
 3883SOL     OW23107   0.758   0.260  17.076  0.0119 -0.6885  0.2991
 3883SOL    HW123108   0.752   0.200  17.002  1.4831 -1.0924  0.4920
 3883SOL    HW223109   0.758   0.347  17.037  1.0916 -0.8026  0.0367
 3884SOL     OW23110   4.378   1.746   8.830 -0.0044 -0.4430 -0.3533
 3884SOL    HW123111   4.288   1.742   8.860 -0.0475  3.2187  0.0088
 3884SOL    HW223112   4.398   1.656   8.804  0.7817 -0.2375 -0.4835
 3885SOL     OW23113   1.539   1.577   4.562  0.2354 -0.2309 -0.3683
 3885SOL    HW123114   1.543   1.626   4.480 -2.1573 -2.8329 -2.0465
 3885SOL    HW223115   1.573   1.493   4.531  0.0223 -0.0177 -1.1989
 3886SOL     OW23116   0.805   3.262  11.918 -0.3542  0.0887 -0.3471
 3886SOL    HW123117   0.780   3.211  11.995 -0.2088  0.2185 -0.2176
 3886SOL    HW223118   0.726   3.313  11.900 -0.7481 -0.3181  0.2269
 3887SOL     OW23119   0.931   3.396   8.289 -0.1738 -0.0160 -0.4228
 3887SOL    HW123120   0.903   3.335   8.357  0.1166  0.0969 -0.2002
 3887SOL    HW223121   0.850   3.428   8.251  1.3603  4.4190  0.0525
 3888SOL     OW23122   3.386   1.578   8.586 -0.5738  0.1238 -0.4053
 3888SOL    HW123123   3.328   1.624   8.525  0.3066  1.1610 -0.4644
 3888SOL    HW223124   3.432   1.517   8.529  1.5824  0.5322  0.8763
 3889SOL     OW23125   4.370   1.162   6.419  0.7572 -0.3409 -0.1569
 3889SOL    HW123126   4.329   1.115   6.491  1.0390  0.6712  0.6554
 3889SOL    HW223127   4.366   1.250   6.455 -3.4529 -0.6651  0.2065
 3890SOL     OW23128   2.603   0.574   4.321 -0.4204 -0.1209  0.5124
 3890SOL    HW123129   2.681   0.599   4.370 -0.1491 -1.5979  0.8443
 3890SOL    HW223130   2.587   0.656   4.275  0.1106 -0.0661  0.4250
 3891SOL     OW23131   2.883   1.516   1.391 -0.3198  0.0621 -0.5170
 3891SOL    HW123132   2.948   1.502   1.460 -1.4976  0.0147  0.5901
 3891SOL    HW223133   2.922   1.456   1.328  0.3689 -0.4979  0.4386
 3892SOL     OW23134   1.191   0.670   6.480 -0.1853 -0.1013  0.1501
 3892SOL    HW123135   1.253   0.658   6.408  1.1892 -1.2850  1.5034
 3892SOL    HW223136   1.257   0.690   6.547 -1.5228  1.2267  1.0425
 3893SOL     OW23137   4.501   2.069  16.340 -0.7604  0.1202 -0.5907
 3893SOL    HW123138   4.480   2.145  16.286 -1.1533  0.2539 -0.2535
 3893SOL    HW223139   4.560   2.111  16.402  0.3774  0.0877 -1.6637
 3894SOL     OW23140   0.463   1.369  14.021  1.1099  0.1804 -0.6729
 3894SOL    HW123141   0.495   1.387  14.110 -0.9993 -2.5914  0.6305
 3894SOL    HW223142   0.433   1.456  13.994  0.3740 -0.0568 -0.6094
 3895SOL     OW23143   2.419   3.967   3.689 -0.2952  0.2312  0.1794
 3895SOL    HW123144   2.443   3.879   3.719 -2.6173 -0.5082 -0.1056
 3895SOL    HW223145   2.392   3.947   3.600  0.1610 -0.1557  0.1310
 3896SOL     OW23146   1.716   0.385  16.267 -0.3432  0.0214  0.0418
 3896SOL    HW123147   1.703   0.340  16.183  2.6910  0.3242 -0.5892
 3896SOL    HW223148   1.694   0.475  16.241 -0.6253 -0.1491 -0.3072
 3897SOL     OW23149   4.581   2.975   2.640 -0.1200  0.1085  0.7473
 3897SOL    HW123150   4.566   2.952   2.548 -0.4069 -0.4819  0.9392
 3897SOL    HW223151   4.530   2.906   2.683 -0.8170  0.0688 -0.1470
 3898SOL     OW23152   0.002   3.946  13.240 -0.1482  0.7096 -0.1737
 3898SOL    HW123153   0.096   3.963  13.248  0.0035  1.1239 -2.8538
 3898SOL    HW223154   4.698   3.882  13.307  1.1294  1.1722  0.7549
 3899SOL     OW23155   4.474   1.179  13.072  0.1341 -0.3842  0.1878
 3899SOL    HW123156   4.550   1.155  13.125  0.4489 -0.4287 -0.2811
 3899SOL    HW223157   4.443   1.256  13.121 -1.7513 -0.4084 -0.9621
 3900SOL     OW23158   3.974   3.140  13.314  0.1829  0.6676 -0.1695
 3900SOL    HW123159   3.998   3.223  13.355  0.2629  0.5425  0.0376
 3900SOL    HW223160   4.002   3.078  13.382  0.2322 -0.9140 -1.6477
 3901SOL     OW23161   3.056   3.998   5.995 -0.0121  0.3927  0.3403
 3901SOL    HW123162   3.072   3.926   6.054 -1.2183 -1.4037 -1.5163
 3901SOL    HW223163   3.132   3.980   5.940  0.4111 -0.5473  1.2451
 3902SOL     OW23164   3.057   3.462   1.515  0.8388 -0.1987  0.2834
 3902SOL    HW123165   2.973   3.489   1.553  0.1252 -1.7930 -0.1851
 3902SOL    HW223166   3.016   3.445   1.430  1.9832 -1.8234  0.0701
 3903SOL     OW23167   3.562   2.903   5.923 -0.0445 -0.2062  0.1401
 3903SOL    HW123168   3.545   2.979   5.867  1.7626  0.3588  0.3414
 3903SOL    HW223169   3.493   2.921   5.988 -1.4873 -0.6442 -1.2858
 3904SOL     OW23170   3.171   4.084   4.083 -0.3918  0.6173  0.0195
 3904SOL    HW123171   3.207   4.125   4.162 -0.4863 -0.6790  0.7410
 3904SOL    HW223172   3.083   4.123   4.081  0.1220  1.8891  1.9138
 3905SOL     OW23173   2.626   1.243  10.434 -0.3000  0.4217  0.6465
 3905SOL    HW123174   2.532   1.257  10.424 -0.0708  2.8300  2.0105
 3905SOL    HW223175   2.654   1.334  10.435 -0.2975  0.4312 -0.5457
 3906SOL     OW23176   1.208   0.729   9.408  0.1535  0.3644  0.0940
 3906SOL    HW123177   1.224   0.636   9.422 -1.4424  0.6341  3.8039
 3906SOL    HW223178   1.240   0.757   9.494 -0.6149  0.6239  0.2948
 3907SOL     OW23179   4.347   1.302   5.425 -0.1224  0.0950  0.4481
 3907SOL    HW123180   4.345   1.221   5.374  1.5750 -0.3194  1.0250
 3907SOL    HW223181   4.376   1.373   5.368  0.5761  0.0454  0.7429
 3908SOL     OW23182   0.995   1.193   4.895 -0.0107  0.0300 -0.6785
 3908SOL    HW123183   0.902   1.168   4.890 -0.7889  2.3495  2.6491
 3908SOL    HW223184   1.004   1.265   4.833  1.6110 -0.2406 -0.7591
 3909SOL     OW23185   1.833   2.272   9.250 -0.4636  0.2498  0.3795
 3909SOL    HW123186   1.799   2.274   9.340  1.0026  1.9882  0.9018
 3909SOL    HW223187   1.767   2.219   9.206 -0.3237 -0.9554  1.6165
 3910SOL     OW23188   0.273   2.617   0.562  0.3396 -0.5430  0.1667
 3910SOL    HW123189   0.198   2.594   0.617 -0.1471  5.6862  2.1176
 3910SOL    HW223190   0.344   2.576   0.612  0.7632  0.2959  0.2584
 3911SOL     OW23191   3.925   0.548  16.826 -0.1234  0.1290  0.2924
 3911SOL    HW123192   3.843   0.598  16.828 -0.2383  0.0109 -1.4919
 3911SOL    HW223193   3.897   0.459  16.804 -0.0384  0.1136  0.2490
 3912SOL     OW23194   3.271   0.066   7.789  0.2193  1.0681 -0.0177
 3912SOL    HW123195   3.192   0.085   7.740 -0.9561 -0.9184  1.0793
 3912SOL    HW223196   3.260   4.692   7.792  0.5947  1.0510  1.0252
 3913SOL     OW23197   0.080   3.436   4.038  0.4529 -0.6744 -0.0182
 3913SOL    HW123198   0.046   3.509   4.090  1.2165 -0.9446  0.8530
 3913SOL    HW223199   0.054   3.362   4.092 -0.3881  0.3982  1.0391
 3914SOL     OW23200   0.441   2.185  13.833  0.1528 -0.2532  0.5162
 3914SOL    HW123201   0.473   2.275  13.840  0.6917 -0.4497  0.5534
 3914SOL    HW223202   0.355   2.205  13.796  0.5349 -0.1823 -0.3052
 3915SOL     OW23203   3.320   2.313   4.215 -0.4783  0.4145  0.3829
 3915SOL    HW123204   3.282   2.268   4.139 -0.3499  1.0780 -0.0738
 3915SOL    HW223205   3.304   2.245   4.280 -1.0297  1.4483  1.3227
 3916SOL     OW23206   4.688   2.372   8.195  0.0155 -0.0221 -0.0266
 3916SOL    HW123207   4.697   2.280   8.171  1.0073 -0.0443  0.4214
 3916SOL    HW223208   4.592   2.366   8.193 -0.0507  0.7293  0.7337
 3917SOL     OW23209   1.330   1.610   8.995 -0.0479 -0.3240 -0.2609
 3917SOL    HW123210   1.248   1.644   8.959  0.5851  0.5519 -0.8434
 3917SOL    HW223211   1.297   1.521   9.009  2.1374 -0.9908  0.7016
 3918SOL     OW23212   4.277   0.321   9.808  0.5005 -0.9661  0.8091
 3918SOL    HW123213   4.315   0.391   9.861  0.2621  0.1978 -0.5525
 3918SOL    HW223214   4.359   0.273   9.794  0.9150 -0.8003  2.6847
 3919SOL     OW23215   0.038   0.270   0.204 -0.0698  0.5256 -0.1495
 3919SOL    HW123216   4.692   0.272   0.272  1.7640  1.6137  1.6087
 3919SOL    HW223217   0.070   0.180   0.210 -2.3268 -0.2409  0.4543
 3920SOL     OW23218   3.623   4.048   8.841  0.5919  0.0394 -0.6451
 3920SOL    HW123219   3.571   4.002   8.906 -0.8037 -1.1215 -2.5749
 3920SOL    HW223220   3.704   4.072   8.885  0.2491 -0.8782  0.4689
 3921SOL     OW23221   2.185   1.507   6.937 -0.2077 -0.8047 -0.1082
 3921SOL    HW123222   2.165   1.579   6.996 -1.3396 -1.6639  0.5533
 3921SOL    HW223223   2.258   1.472   6.988 -2.4156 -1.7338  2.3880
 3922SOL     OW23224   2.625   1.387   0.698  0.0117  0.0819 -0.6350
 3922SOL    HW123225   2.660   1.337   0.624  2.5701  2.4163 -1.0329
 3922SOL    HW223226   2.624   1.320   0.766  1.5875  1.6032  0.8921
 3923SOL     OW23227   3.273   0.222  16.468  0.5295  0.6150 -0.1756
 3923SOL    HW123228   3.255   0.239  16.561 -1.1391  0.7416 -0.5264
 3923SOL    HW223229   3.232   0.136  16.460 -0.7590  1.2750 -0.6390
 3924SOL     OW23230   1.873   3.211   5.591 -0.2007 -0.2293  0.3717
 3924SOL    HW123231   1.899   3.233   5.680  1.2771  1.4714 -0.4724
 3924SOL    HW223232   1.808   3.143   5.604 -0.1959  0.4109  3.6199
 3925SOL     OW23233   1.895   3.760   6.348 -0.0389  0.3398 -0.0402
 3925SOL    HW123234   1.903   3.728   6.438 -3.2348  0.7646  0.3644
 3925SOL    HW223235   1.872   3.850   6.369 -0.7917  0.5027 -1.5797
 3926SOL     OW23236   2.272   2.350   3.458 -0.2198 -0.2450 -0.1641
 3926SOL    HW123237   2.301   2.440   3.445 -0.0848 -0.2379  0.1944
 3926SOL    HW223238   2.266   2.315   3.369  0.2516  1.5041 -0.8900
 3927SOL     OW23239   4.661   3.506   5.004  0.3077 -0.4429  0.0309
 3927SOL    HW123240   4.717   3.506   4.926  0.0376  0.7161 -0.1582
 3927SOL    HW223241   4.715   3.568   5.052  1.9693 -0.7854 -1.3987
 3928SOL     OW23242   1.445   1.196   7.862 -0.0896 -0.2383 -0.1460
 3928SOL    HW123243   1.465   1.227   7.774  0.0237 -0.6404 -0.2626
 3928SOL    HW223244   1.532   1.183   7.898 -0.4963  3.1241  1.9927
 3929SOL     OW23245   1.665   2.494   3.218 -0.0079  0.0767 -0.2860
 3929SOL    HW123246   1.601   2.451   3.274  0.0223 -1.1835 -1.2240
 3929SOL    HW223247   1.657   2.430   3.148  2.6590 -0.2890 -0.2426
 3930SOL     OW23248   3.941   3.483  11.182 -0.0189 -0.1786  0.9040
 3930SOL    HW123249   3.925   3.451  11.093 -0.4620  2.0464  0.1774
 3930SOL    HW223250   3.899   3.568  11.168  0.3274 -0.3252 -1.0733
 3931SOL     OW23251   3.389   1.097  10.271 -0.2452 -0.5840  0.8786
 3931SOL    HW123252   3.399   1.032  10.201  2.5072  0.9087 -0.1045
 3931SOL    HW223253   3.306   1.079  10.315 -0.5656 -0.3666  0.3692
 3932SOL     OW23254   3.482   3.594  16.451 -0.1182  0.2458  0.5008
 3932SOL    HW123255   3.458   3.563  16.364  1.4516 -0.8104  0.4395
 3932SOL    HW223256   3.396   3.590  16.493 -0.4657 -1.8488 -0.4204
 3933SOL     OW23257   4.388   2.253   1.958  0.0908  0.0212 -0.1442
 3933SOL    HW123258   4.302   2.251   1.999  1.6988 -0.2451  3.1976
 3933SOL    HW223259   4.377   2.334   1.908  0.2085 -0.0088 -0.2189
 3934SOL     OW23260   1.581   1.262   8.911  0.5328  0.2645 -0.5103
 3934SOL    HW123261   1.533   1.250   8.830 -0.2434  0.5290 -0.0871
 3934SOL    HW223262   1.521   1.213   8.967  2.8636 -0.5785  1.2505
 3935SOL     OW23263   3.430   3.685   7.072 -0.0585 -0.0997  0.3994
 3935SOL    HW123264   3.341   3.650   7.074  0.4920 -1.5426 -0.0854
 3935SOL    HW223265   3.474   3.608   7.035  0.7356  0.9774 -0.8905
 3936SOL     OW23266   1.846   1.728   6.413  0.1311 -0.3924 -0.3048
 3936SOL    HW123267   1.846   1.736   6.508 -1.0009 -2.3165 -0.1393
 3936SOL    HW223268   1.770   1.782   6.387 -1.1025 -0.9346  2.1874
 3937SOL     OW23269   2.729   4.449   9.812 -0.4778 -0.0224 -0.1358
 3937SOL    HW123270   2.742   4.485   9.725  1.3415  0.1409  0.1946
 3937SOL    HW223271   2.657   4.391   9.786  0.6890 -1.9874  0.9578
 3938SOL     OW23272   4.257   4.588   6.148  0.6283 -0.2315  0.6445
 3938SOL    HW123273   4.346   4.611   6.121  1.2751 -1.0609  2.0584
 3938SOL    HW223274   4.281   4.548   6.232 -0.7874  0.5644  1.4305
 3939SOL     OW23275   0.602   1.968   2.853  0.1589  0.8855  0.1386
 3939SOL    HW123276   0.627   1.902   2.917  0.2731  1.2539  0.4763
 3939SOL    HW223277   0.686   2.012   2.841  1.4382 -1.8031 -0.6136
 3940SOL     OW23278   3.608   3.428   9.582  0.2841 -0.1729  0.4100
 3940SOL    HW123279   3.660   3.374   9.522  0.9553  0.9503 -0.0210
 3940SOL    HW223280   3.557   3.362   9.629  1.8886 -1.4317  0.3873
 3941SOL     OW23281   3.280   0.267   2.499  0.5338  0.4193 -0.0732
 3941SOL    HW123282   3.347   0.302   2.440  1.3184  0.5152  0.8684
 3941SOL    HW223283   3.297   0.173   2.496 -0.1252  0.2570  1.2706
 3942SOL     OW23284   3.299   2.733   8.428 -0.3566 -0.2224  0.1124
 3942SOL    HW123285   3.228   2.688   8.475 -0.3815 -1.1259 -0.7717
 3942SOL    HW223286   3.369   2.731   8.493 -1.3042  1.2587  1.1995
 3943SOL     OW23287   3.313   0.164   8.122  0.1235  0.2667 -0.1647
 3943SOL    HW123288   3.266   0.081   8.121  0.8727 -0.1417 -1.1025
 3943SOL    HW223289   3.352   0.168   8.035  0.1253  0.7188 -0.1428
 3944SOL     OW23290   0.310   3.542   4.145  0.1050  0.3417  0.1484
 3944SOL    HW123291   0.241   3.496   4.097 -0.4027  1.2231  0.0486
 3944SOL    HW223292   0.296   3.490   4.224 -2.3017  1.4292  0.4034
 3945SOL     OW23293   0.103   2.756  14.264  1.0067  0.2199  0.4012
 3945SOL    HW123294   0.067   2.752  14.353 -1.5657 -2.3015 -0.7331
 3945SOL    HW223295   0.193   2.779  14.287  0.4560  0.5384  2.2201
 3946SOL     OW23296   2.524   4.615  10.609  0.5157  0.1114  0.3085
 3946SOL    HW123297   2.432   4.616  10.634 -0.0784 -0.2521 -1.9033
 3946SOL    HW223298   2.549   4.704  10.635  0.8847  0.2564 -0.5655
 3947SOL     OW23299   2.718   3.873  15.076 -0.5320 -0.0142  0.2643
 3947SOL    HW123300   2.660   3.899  15.148 -0.0264  0.4681  0.5034
 3947SOL    HW223301   2.806   3.883  15.112 -0.2436  0.8886 -0.7128
 3948SOL     OW23302   2.273   0.578   2.721 -0.2012 -0.3056  0.0710
 3948SOL    HW123303   2.308   0.656   2.763 -1.0871 -0.1571  0.5450
 3948SOL    HW223304   2.340   0.552   2.658  1.1648 -0.2109  1.5100
 3949SOL     OW23305   2.519   3.355   9.581 -0.1975  0.3715  0.8745
 3949SOL    HW123306   2.578   3.409   9.529  0.7820  0.0716  1.6852
 3949SOL    HW223307   2.454   3.411   9.623 -1.8653 -0.3615 -0.6885
 3950SOL     OW23308   4.105   2.675   3.586  0.0879 -0.1304  0.4666
 3950SOL    HW123309   4.102   2.620   3.508  1.0585 -0.4661  0.6613
 3950SOL    HW223310   4.119   2.601   3.646  0.9447  0.8816  1.4958
 3951SOL     OW23311   3.611   0.206  17.209 -0.0658  0.0832 -0.5585
 3951SOL    HW123312   3.528   0.247  17.232  0.4017  0.2524  0.8439
 3951SOL    HW223313   3.594   0.116  17.181 -0.1292 -0.9468  2.8816
 3952SOL     OW23314   1.320   4.327   6.221  0.0723 -0.3115  0.1154
 3952SOL    HW123315   1.352   4.308   6.309 -0.6904  3.0446  1.1296
 3952SOL    HW223316   1.385   4.395   6.203 -0.4756  0.2408  0.1959
 3953SOL     OW23317   1.329   1.765   2.869 -0.3790 -0.1576 -0.4014
 3953SOL    HW123318   1.320   1.712   2.790 -0.8239 -1.6150  0.6307
 3953SOL    HW223319   1.375   1.694   2.913  1.4692  0.9820 -0.5079
 3954SOL     OW23320   1.062   3.714   0.254  0.4496  0.7678  0.4771
 3954SOL    HW123321   1.111   3.757   0.324 -0.5900 -0.4781  1.9953
 3954SOL    HW223322   1.118   3.745   0.184  0.0558 -1.8239 -0.9738
 3955SOL     OW23323   2.944   1.173  11.672  0.3639 -0.2956  0.5136
 3955SOL    HW123324   2.994   1.181  11.753  3.1490 -1.8819 -1.0352
 3955SOL    HW223325   3.021   1.191  11.617  1.3006  0.8432  2.2031
 3956SOL     OW23326   1.607   2.788   0.869  0.0751  0.2682  0.4388
 3956SOL    HW123327   1.649   2.705   0.848 -1.0245 -0.6790  2.0474
 3956SOL    HW223328   1.589   2.810   0.778 -0.0358  0.4664  0.5075
 3957SOL     OW23329   1.453   0.144   4.032  0.4508  0.3649  0.0095
 3957SOL    HW123330   1.362   0.150   4.004 -0.0308 -2.1208  1.0336
 3957SOL    HW223331   1.443   0.065   4.086  0.7449 -0.4809 -1.1647
 3958SOL     OW23332   1.543   2.433   8.669  0.1546 -0.2129  0.0031
 3958SOL    HW123333   1.532   2.528   8.677 -2.5758 -0.5606  0.4853
 3958SOL    HW223334   1.619   2.422   8.612  0.4394 -0.1727  0.3767
 3959SOL     OW23335   4.166   3.013   1.638 -0.1487  0.4612  0.6213
 3959SOL    HW123336   4.232   3.076   1.664 -0.6811  0.2562  2.4848
 3959SOL    HW223337   4.133   3.060   1.562  2.0969 -0.6360 -1.0318
 3960SOL     OW23338   0.618   1.248   2.686  0.5342  0.0985 -0.3473
 3960SOL    HW123339   0.689   1.193   2.655  1.4558  1.0729  0.0516
 3960SOL    HW223340   0.560   1.254   2.610 -0.5195 -2.4630  0.2618
 3961SOL     OW23341   4.395   3.047   3.031  0.2746 -0.3451 -0.0540
 3961SOL    HW123342   4.373   2.965   2.988 -0.1413  1.5826 -3.5578
 3961SOL    HW223343   4.336   3.051   3.106  0.1613  3.4873 -0.3118
 3962SOL     OW23344   1.037   2.871   4.426  0.3433 -0.0908  0.2780
 3962SOL    HW123345   1.039   2.820   4.345  1.0492  1.2583 -0.5466
 3962SOL    HW223346   1.105   2.824   4.476  0.9851 -2.1505 -2.5080
 3963SOL     OW23347   2.182   0.164   3.528 -0.1435  0.0890 -0.2895
 3963SOL    HW123348   2.149   0.146   3.616 -0.1219  1.6296  0.0357
 3963SOL    HW223349   2.230   0.247   3.529 -0.3967  0.2318  0.0432
 3964SOL     OW23350   0.874   0.174  14.556  0.1035  0.9142  0.0907
 3964SOL    HW123351   0.824   0.096  14.534  0.2391  1.1941 -1.2024
 3964SOL    HW223352   0.912   0.184  14.469  4.1037 -0.0751  1.7066
 3965SOL     OW23353   3.577   0.915   8.699  0.4287 -0.3524 -0.0929
 3965SOL    HW123354   3.499   0.928   8.753  0.7060 -1.9293  0.6695
 3965SOL    HW223355   3.651   0.911   8.759  1.8972 -0.1172 -1.8880
 3966SOL     OW23356   4.473   1.833  15.279 -0.3149  0.1098 -0.3747
 3966SOL    HW123357   4.453   1.777  15.354  1.5685 -0.2417 -0.1258
 3966SOL    HW223358   4.420   1.798  15.207  0.4299 -0.2130 -0.7748
 3967SOL     OW23359   0.326   1.588  10.634  0.5044 -0.1026  0.5249
 3967SOL    HW123360   0.318   1.503  10.590  2.7793 -0.6447  1.1712
 3967SOL    HW223361   0.388   1.560  10.701  0.9419 -0.2521  0.0535
 3968SOL     OW23362   3.092   0.886   4.586 -0.2528 -0.2784 -0.0182
 3968SOL    HW123363   3.018   0.871   4.646 -0.9597  1.2814 -0.4813
 3968SOL    HW223364   3.043   0.908   4.507  0.4920 -0.9636 -0.6677
 3969SOL     OW23365   3.647   3.717   1.497  0.0459  0.3347 -0.0628
 3969SOL    HW123366   3.689   3.758   1.422  0.4566  3.2754  1.7640
 3969SOL    HW223367   3.583   3.661   1.454 -0.6505 -0.0583  1.4925
 3970SOL     OW23368   1.092   2.284   0.279  0.6966  0.2402 -0.2007
 3970SOL    HW123369   1.087   2.294   0.374  0.0166  1.3630 -0.3612
 3970SOL    HW223370   1.186   2.289   0.261  0.3615 -2.3747 -2.6867
 3971SOL     OW23371   1.389   3.320   8.182  0.1214  0.4370 -1.0296
 3971SOL    HW123372   1.294   3.320   8.176  0.0145  0.2144  0.8053
 3971SOL    HW223373   1.423   3.311   8.092 -0.3422 -0.1429 -1.1452
 3972SOL     OW23374   1.372   1.332  10.969 -0.1523 -0.3166  0.2211
 3972SOL    HW123375   1.363   1.417  11.012  0.7847 -0.0433 -0.1318
 3972SOL    HW223376   1.306   1.341  10.900 -0.5764  1.0880  0.8227
 3973SOL     OW23377   4.680   0.908  16.579 -0.9543 -0.1026  1.0099
 3973SOL    HW123378   0.054   0.912  16.585 -1.0725  1.1735  2.0606
 3973SOL    HW223379   4.659   0.851  16.653 -0.2191  0.4837  1.6783
 3974SOL     OW23380   3.103   1.026   8.520  0.4213 -0.5528  0.8382
 3974SOL    HW123381   3.169   1.095   8.514 -0.9887  0.7906  0.8484
 3974SOL    HW223382   3.045   1.059   8.589 -2.9433 -2.4627 -1.1203
 3975SOL     OW23383   1.953   0.708   7.776 -0.4848  0.0503 -0.3912
 3975SOL    HW123384   1.875   0.762   7.775  1.0114  2.2502  1.8789
 3975SOL    HW223385   1.970   0.694   7.870 -1.7104  0.6843 -0.0812
 3976SOL     OW23386   3.439   4.645   0.131  0.2633  0.2242 -0.2241
 3976SOL    HW123387   3.454   4.683   0.045  0.5990  1.0581  0.2026
 3976SOL    HW223388   3.400   0.000   0.172 -3.3207 -2.0810  0.6828
 3977SOL     OW23389   2.058   3.778  11.670  0.3275 -0.3225 -0.0118
 3977SOL    HW123390   2.110   3.853  11.700 -0.0519 -0.6586  1.4614
 3977SOL    HW223391   1.970   3.816  11.668  0.4464 -0.1971 -2.5578
 3978SOL     OW23392   2.777   3.174   3.985 -0.0468 -0.2853  0.5163
 3978SOL    HW123393   2.868   3.153   4.007  0.2019  0.8278  0.5242
 3978SOL    HW223394   2.794   3.177   3.891 -0.1151 -1.7328  0.4455
 3979SOL     OW23395   2.562   3.963  16.413 -0.1802  0.2583 -0.1088
 3979SOL    HW123396   2.539   4.030  16.477 -0.6325 -0.3264  0.3459
 3979SOL    HW223397   2.559   4.005  16.327 -1.1604  0.9096  0.2377
 3980SOL     OW23398   1.576   2.076   4.915 -0.2959 -0.0661  0.3533
 3980SOL    HW123399   1.658   2.028   4.912 -0.0102  0.3543  1.4325
 3980SOL    HW223400   1.533   2.011   4.859  2.2004  0.7279 -2.4958
 3981SOL     OW23401   2.764   2.230   4.452  0.5476 -0.9085  0.4647
 3981SOL    HW123402   2.695   2.197   4.510  0.3595 -0.2977  0.5922
 3981SOL    HW223403   2.824   2.270   4.515  0.6772  2.4988 -1.7724
 3982SOL     OW23404   1.068   2.099   5.106 -0.0352  0.1479  0.0903
 3982SOL    HW123405   1.101   2.100   5.016  2.1840  2.8715  0.9339
 3982SOL    HW223406   1.157   2.094   5.139  0.2665  3.8334 -0.1701
 3983SOL     OW23407   3.513   1.852   8.474  0.1892 -0.6813 -0.5415
 3983SOL    HW123408   3.579   1.814   8.416  0.9305  1.3430 -1.0249
 3983SOL    HW223409   3.506   1.789   8.545 -1.5084  1.7528  1.4529
 3984SOL     OW23410   2.273   0.770   1.106  0.0661  0.6230 -0.2709
 3984SOL    HW123411   2.228   0.698   1.149 -1.8474  0.8419 -1.9020
 3984SOL    HW223412   2.346   0.786   1.166 -0.5946 -1.3391  1.0415
 3985SOL     OW23413   2.793   2.780  12.903  0.1005  1.0169  0.9056
 3985SOL    HW123414   2.754   2.856  12.945 -1.0436  0.2485  1.2606
 3985SOL    HW223415   2.716   2.741  12.860  0.9533  1.0793 -0.6757
 3986SOL     OW23416   3.893   2.538   3.784 -0.6110 -0.6814  0.3465
 3986SOL    HW123417   3.819   2.521   3.842 -1.5358  1.2678 -0.2685
 3986SOL    HW223418   3.881   2.470   3.718 -1.0132  0.0982 -0.3812
 3987SOL     OW23419   4.561   4.297  15.115 -0.0266  0.3846 -0.2734
 3987SOL    HW123420   4.591   4.249  15.038  0.3729  2.2341 -1.2758
 3987SOL    HW223421   4.474   4.258  15.106 -0.5892  0.7441  3.8161
 3988SOL     OW23422   1.159   0.035  13.905 -0.5636  0.5360 -0.0600
 3988SOL    HW123423   1.173   4.669  13.868  0.7733  1.7736 -2.5068
 3988SOL    HW223424   1.219   0.089  13.854  1.6878 -1.8796 -0.0123
 3989SOL     OW23425   4.703   0.058   7.303  0.0887 -0.1846 -0.6310
 3989SOL    HW123426   0.057   0.106   7.338  1.0968 -1.4518 -1.0668
 3989SOL    HW223427   4.692   0.111   7.224 -1.6998  1.4861  0.7410
 3990SOL     OW23428   1.802   1.400   9.869 -0.3941 -0.5480  0.5812
 3990SOL    HW123429   1.787   1.352   9.788 -0.0218  0.4926 -0.1073
 3990SOL    HW223430   1.740   1.361   9.929 -1.2270 -0.2617 -0.1003
 3991SOL     OW23431   2.205   3.674   2.989  0.3031  0.3079 -0.5875
 3991SOL    HW123432   2.189   3.676   3.083 -0.0562 -1.9624 -0.5931
 3991SOL    HW223433   2.289   3.716   2.972  0.1471  1.3018  1.1249
 3992SOL     OW23434   3.064   4.322  10.038 -0.4850 -0.2614 -0.5831
 3992SOL    HW123435   3.098   4.258  10.101 -4.0522 -2.5702 -0.9660
 3992SOL    HW223436   3.005   4.274   9.980 -1.1879  1.1995 -1.0890
 3993SOL     OW23437   2.164   1.585  17.490  0.1771  0.2284 -0.4909
 3993SOL    HW123438   2.213   1.650  17.541  0.5107  1.2922 -2.1691
 3993SOL    HW223439   2.081   1.632  17.496  0.9719  1.5405  0.3882
 3994SOL     OW23440   1.153   4.565   9.211  0.1567 -0.3291  0.4031
 3994SOL    HW123441   1.159   4.598   9.300  2.3012  1.0158 -0.2265
 3994SOL    HW223442   1.109   4.636   9.164  2.0691  0.2914 -0.4738
 3995SOL     OW23443   4.088   1.699   3.246 -0.2483  0.0803  0.3153
 3995SOL    HW123444   4.038   1.635   3.297 -0.7768 -1.3517 -1.9711
 3995SOL    HW223445   4.032   1.777   3.243  1.4951  1.2698 -1.8314
 3996SOL     OW23446   2.002   0.416  16.267  0.5571  0.2840  0.0888
 3996SOL    HW123447   2.020   0.347  16.330 -0.7342  1.4494  1.7142
 3996SOL    HW223448   1.908   0.399  16.266  0.8078 -1.1913  1.0308
 3997SOL     OW23449   0.508   0.035   5.604  0.8229 -0.3257  0.0577
 3997SOL    HW123450   0.458   0.113   5.580 -3.0055 -2.5765  0.6267
 3997SOL    HW223451   0.589   0.046   5.555 -0.9158  0.6658 -2.6408
 3998SOL     OW23452   3.949   0.070  12.686  0.8159 -0.1755 -0.7987
 3998SOL    HW123453   3.882   0.001  12.689  0.1994  0.5599  2.0855
 3998SOL    HW223454   3.936   0.099  12.776  0.3515  1.4085 -1.3768
 3999SOL     OW23455   2.076   4.160   3.903 -0.0478  0.0145  0.0511
 3999SOL    HW123456   1.992   4.158   3.858 -0.4666 -0.5090  0.8458
 3999SOL    HW223457   2.057   4.186   3.994  0.9655  1.6248 -0.2146
 4000SOL     OW23458   3.307   0.176   1.073  0.7941  0.1297 -0.6069
 4000SOL    HW123459   3.396   0.155   1.100  0.8583  1.5973  0.3125
 4000SOL    HW223460   3.261   0.109   1.124  2.0869  1.6116  2.4294
 4001SOL     OW23461   0.069   1.388   7.045  0.7744  0.1990 -0.0824
 4001SOL    HW123462   0.162   1.400   7.024  0.7265 -0.5791 -0.7349
 4001SOL    HW223463   0.031   1.440   6.975 -1.3987 -1.6255 -0.2464
 4002SOL     OW23464   0.778   2.226   7.312  0.4377 -0.3995 -0.2429
 4002SOL    HW123465   0.747   2.195   7.227  2.2895  0.0111 -1.0645
 4002SOL    HW223466   0.835   2.156   7.342  1.6536  0.5072 -0.4286
 4003SOL     OW23467   0.745   0.361   9.761  0.4000  0.1838  0.3192
 4003SOL    HW123468   0.814   0.318   9.710 -1.9796 -0.4511 -2.3238
 4003SOL    HW223469   0.761   0.450   9.728  1.9031  0.3609  1.5103
 4004SOL     OW23470   2.529   3.295   2.331  0.1275 -0.1866  0.1417
 4004SOL    HW123471   2.606   3.242   2.352  1.9093  1.6199 -1.7571
 4004SOL    HW223472   2.475   3.272   2.406  1.0034  0.4614  0.9789
 4005SOL     OW23473   4.129   1.989   1.617 -0.2059  0.1272  0.1074
 4005SOL    HW123474   4.167   2.032   1.541 -0.7132 -0.6687 -0.5929
 4005SOL    HW223475   4.155   1.898   1.608 -0.4284  0.0701  0.0524
 4006SOL     OW23476   3.153   2.721   5.298  0.2274  0.8686 -0.5280
 4006SOL    HW123477   3.175   2.779   5.225 -0.8415  0.2171 -1.3644
 4006SOL    HW223478   3.226   2.660   5.296 -1.0981 -0.8553  3.0326
 4007SOL     OW23479   0.496   3.990  17.047 -0.1589 -0.2117 -0.0377
 4007SOL    HW123480   0.585   3.964  17.023  0.4260  2.2741 -0.6429
 4007SOL    HW223481   0.458   3.969  16.961  1.3495  1.6184 -1.1564
 4008SOL     OW23482   1.761   0.701   3.137  0.8882 -0.4697 -0.5318
 4008SOL    HW123483   1.826   0.639   3.170  0.0577 -0.0972  1.7890
 4008SOL    HW223484   1.785   0.702   3.044 -0.4378  1.4688 -0.8581
 4009SOL     OW23485   2.169   4.502   7.285  0.4038  0.0098  0.2083
 4009SOL    HW123486   2.225   4.428   7.263 -0.3421 -0.2077 -0.9779
 4009SOL    HW223487   2.167   4.533   7.194 -2.7330 -0.8646 -0.0296
 4010SOL     OW23488   3.515   3.338   5.499  0.1777  0.0652  0.1243
 4010SOL    HW123489   3.563   3.338   5.416  0.7641  2.0875  0.4467
 4010SOL    HW223490   3.423   3.337   5.471 -0.2504  2.2704  1.3968
 4011SOL     OW23491   2.691   0.145   7.502  0.2217  0.3296  0.7826
 4011SOL    HW123492   2.644   0.152   7.585  0.7051  1.9541  0.9177
 4011SOL    HW223493   2.665   0.223   7.454  0.0369 -0.4750 -0.4202
 4012SOL     OW23494   4.016   1.407   9.066  0.7679 -0.2672 -0.5027
 4012SOL    HW123495   3.996   1.489   9.111 -2.4983 -1.5292  0.4010
 4012SOL    HW223496   4.075   1.365   9.128 -1.1943 -2.4555 -0.0992
 4013SOL     OW23497   3.857   4.059   3.462 -0.4493  0.2159  0.8763
 4013SOL    HW123498   3.924   4.006   3.504 -2.2967 -0.4583  2.9645
 4013SOL    HW223499   3.906   4.097   3.389  1.2749 -1.5952  1.0842
 4014SOL     OW23500   4.474   2.494  17.606 -0.3288  0.0754 -0.2304
 4014SOL    HW123501   4.422   2.512  17.527  1.2321  0.3206 -1.2063
 4014SOL    HW223502   4.567   2.495  17.585 -0.0509  1.1650  1.0153
 4015SOL     OW23503   0.840   2.321   6.975 -0.0169  0.4948  0.5069
 4015SOL    HW123504   0.868   2.412   6.963  1.3706  0.0416  0.3717
 4015SOL    HW223505   0.770   2.324   6.909  0.3006  0.4489  0.1698
 4016SOL     OW23506   2.240   1.043   9.110  0.0312 -0.0444 -0.3596
 4016SOL    HW123507   2.249   1.135   9.135  1.7539  0.0211 -1.2141
 4016SOL    HW223508   2.144   1.049   9.115 -0.1382 -2.4359 -0.3892
 4017SOL     OW23509   3.075   1.313   3.532 -0.2179 -0.2304  0.1735
 4017SOL    HW123510   3.037   1.308   3.444 -0.7886  0.4236  0.3838
 4017SOL    HW223511   3.019   1.380   3.570  0.1455  0.8244 -1.1314
 4018SOL     OW23512   1.357   0.194  14.739  0.4521 -0.2684 -0.0923
 4018SOL    HW123513   1.281   0.150  14.777 -0.4626  2.0995  0.7596
 4018SOL    HW223514   1.339   0.185  14.645 -0.1975  0.2753 -0.0144
 4019SOL     OW23515   0.640   0.849   6.703 -0.5621  0.4569  0.0361
 4019SOL    HW123516   0.704   0.778   6.706 -0.5936  0.4644  0.8496
 4019SOL    HW223517   0.562   0.794   6.707 -0.7108  0.5682 -1.0932
 4020SOL     OW23518   2.234   2.506   5.063  0.0854  0.3064 -0.4672
 4020SOL    HW123519   2.289   2.497   5.140  0.3515  4.2545 -0.1919
 4020SOL    HW223520   2.144   2.500   5.095 -0.2661 -0.2292 -1.5509
 4021SOL     OW23521   4.252   2.006  16.381 -0.5350  0.3897  0.0394
 4021SOL    HW123522   4.199   2.078  16.346  2.1069  2.5602  0.5044
 4021SOL    HW223523   4.339   2.041  16.361 -0.4081 -0.1357 -0.3380
 4022SOL     OW23524   2.553   3.216   1.933 -0.2342 -0.2664 -0.0032
 4022SOL    HW123525   2.509   3.132   1.919  0.9565 -0.6711 -1.2442
 4022SOL    HW223526   2.489   3.254   1.995 -0.2227 -0.7473  0.2994
 4023SOL     OW23527   0.189   0.442   8.904 -0.3509  0.0615  0.1603
 4023SOL    HW123528   0.251   0.420   8.973 -0.0064  3.5055  0.9533
 4023SOL    HW223529   0.122   0.496   8.946 -1.2126 -0.5628 -0.4151
 4024SOL     OW23530   2.059   1.712   9.142  0.4697 -0.3000 -0.0919
 4024SOL    HW123531   2.041   1.804   9.121  0.4203 -0.2050  0.3724
 4024SOL    HW223532   1.975   1.688   9.182  0.9005 -0.2849  0.8042
 4025SOL     OW23533   1.152   0.827  11.701 -0.1862  0.2597 -0.2192
 4025SOL    HW123534   1.210   0.751  11.707 -0.9970 -0.3156  0.4750
 4025SOL    HW223535   1.177   0.861  11.615 -0.4588  0.1612 -0.3364
 4026SOL     OW23536   1.181   0.615   7.466  0.6736  0.4420  0.2375
 4026SOL    HW123537   1.173   0.704   7.430  0.5989  1.2208  2.2150
 4026SOL    HW223538   1.118   0.621   7.537  0.5957  0.1306  0.1960
 4027SOL     OW23539   1.694   2.581   5.112 -0.6537 -0.7657 -0.6970
 4027SOL    HW123540   1.691   2.516   5.042  2.8784 -1.8939  0.1988
 4027SOL    HW223541   1.788   2.592   5.125 -0.6321 -0.8358 -0.7937
 4028SOL     OW23542   1.337   3.894   4.661  0.2197  0.7023  0.0084
 4028SOL    HW123543   1.321   3.854   4.576  0.8233 -0.4523  0.4355
 4028SOL    HW223544   1.393   3.823   4.694  1.5178  0.8488 -1.9173
 4029SOL     OW23545   1.005   2.908  16.526 -0.2398 -0.2643 -0.0891
 4029SOL    HW123546   0.954   2.986  16.548  0.5616 -0.1613  1.3672
 4029SOL    HW223547   0.946   2.859  16.468 -1.1326  0.1762  0.4585
 4030SOL     OW23548   1.320   3.904  13.933 -0.3420 -0.1853  1.0850
 4030SOL    HW123549   1.398   3.886  13.881  1.6925 -0.8357  4.4067
 4030SOL    HW223550   1.311   3.813  13.962  0.1464 -0.8210 -0.7640
 4031SOL     OW23551   3.724   1.619   9.212  0.7054  0.2000 -0.0910
 4031SOL    HW123552   3.817   1.642   9.209  1.2291 -2.0347 -1.1176
 4031SOL    HW223553   3.713   1.601   9.118 -0.0433 -0.4581  0.1302
 4032SOL     OW23554   0.799   2.628  11.463 -0.0668 -0.4137  0.2144
 4032SOL    HW123555   0.840   2.572  11.529 -0.1540  1.3200  1.7237
 4032SOL    HW223556   0.712   2.656  11.492 -0.2841 -1.7013  0.8118
 4033SOL     OW23557   0.381   2.238   2.551 -0.3054 -0.4069 -0.0739
 4033SOL    HW123558   0.461   2.247   2.500  1.1334 -1.6617  1.9417
 4033SOL    HW223559   0.315   2.247   2.483  0.8426 -0.6884 -1.2237
 4034SOL     OW23560   3.156   3.962   0.132  0.1097  0.0894 -0.3818
 4034SOL    HW123561   3.231   4.020   0.120  0.7651 -0.2131  2.3574
 4034SOL    HW223562   3.200   3.896   0.185  0.6658  0.1233 -0.7953
 4035SOL     OW23563   0.162   1.913   7.873  0.3363 -0.6488 -0.0053
 4035SOL    HW123564   0.215   1.949   7.944 -3.4454 -1.0675  3.0700
 4035SOL    HW223565   0.086   1.971   7.878  1.0015  0.1762  0.4904
 4036SOL     OW23566   0.756   3.208   1.133 -0.2516 -0.8372  0.0271
 4036SOL    HW123567   0.847   3.217   1.159  0.4555  0.9137 -3.0576
 4036SOL    HW223568   0.764   3.144   1.061  2.0932 -0.1318 -0.3225
 4037SOL     OW23569   3.617   1.472   6.090  0.5773 -0.2657 -0.1274
 4037SOL    HW123570   3.640   1.542   6.151 -0.3308 -1.5243  1.6279
 4037SOL    HW223571   3.525   1.493   6.076  0.4447  0.4934  2.0355
 4038SOL     OW23572   2.195   0.993   6.503 -0.4619 -0.1784 -0.1663
 4038SOL    HW123573   2.241   0.911   6.526  1.3846  0.7312 -0.5997
 4038SOL    HW223574   2.184   1.029   6.591 -0.4318 -0.4289 -0.0596
 4039SOL     OW23575   2.221   0.756   3.713  0.6283 -0.3994  0.4249
 4039SOL    HW123576   2.192   0.845   3.734  1.6478  0.0061  0.1244
 4039SOL    HW223577   2.139   0.707   3.714  0.1041  0.5049  1.3779
 4040SOL     OW23578   4.242   2.217   3.078 -0.0805  0.1486  1.0425
 4040SOL    HW123579   4.195   2.180   3.153 -1.6736 -2.5646 -1.3043
 4040SOL    HW223580   4.175   2.205   3.011  0.3216  1.4564  0.4016
 4041SOL     OW23581   1.714   4.108   7.491  0.4678  0.2808 -0.5424
 4041SOL    HW123582   1.744   4.198   7.479 -0.0480  0.5563  0.2478
 4041SOL    HW223583   1.715   4.077   7.581  0.6540  0.6460 -0.4191
 4042SOL     OW23584   1.734   2.870   8.284  0.1759  0.1162 -0.4431
 4042SOL    HW123585   1.742   2.844   8.192  0.6854  0.7468 -0.5801
 4042SOL    HW223586   1.643   2.893   8.305  0.5080  1.0356 -0.0029
 4043SOL     OW23587   1.499   0.238   5.229  0.1401  0.0266  0.4810
 4043SOL    HW123588   1.420   0.293   5.226  0.4458  0.2440 -3.2150
 4043SOL    HW223589   1.562   0.264   5.162  1.9045  0.0350  2.1558
 4044SOL     OW23590   2.551   2.792   6.012 -0.3578 -0.0206  0.3168
 4044SOL    HW123591   2.584   2.836   6.090  2.4648 -1.3097 -0.1872
 4044SOL    HW223592   2.614   2.721   6.001 -0.4420  0.2988 -2.3194
 4045SOL     OW23593   4.597   3.107   4.845  0.0186  0.3479 -0.2950
 4045SOL    HW123594   4.600   3.094   4.750 -1.6919  0.4419 -0.3721
 4045SOL    HW223595   4.582   3.202   4.841 -1.6168  0.1563  1.4061
 4046SOL     OW23596   1.683   0.882   2.713  0.1931  0.5731  0.0088
 4046SOL    HW123597   1.770   0.885   2.673 -0.6926 -0.8555 -2.0186
 4046SOL    HW223598   1.638   0.958   2.676 -1.2962 -0.4493 -0.2931
 4047SOL     OW23599   2.971   3.227  10.220 -0.3453 -0.1801  0.0107
 4047SOL    HW123600   2.964   3.133  10.211 -1.8452 -0.0099 -0.5519
 4047SOL    HW223601   2.960   3.231  10.315  2.7149 -1.8838  0.4296
 4048SOL     OW23602   0.440   2.868   7.845 -0.3568 -0.2245 -0.0798
 4048SOL    HW123603   0.352   2.890   7.875 -0.9146  0.1682 -1.9656
 4048SOL    HW223604   0.450   2.905   7.757 -0.3557  1.0274  0.4532
 4049SOL     OW23605   4.346   0.829   3.998 -0.0294  0.3338 -0.4891
 4049SOL    HW123606   4.409   0.881   4.047 -0.0889  0.3770 -0.4583
 4049SOL    HW223607   4.354   0.737   4.025  0.9759  0.2529 -1.0643
 4050SOL     OW23608   1.943   4.006   4.953  0.2785 -0.3226 -0.1281
 4050SOL    HW123609   2.023   3.955   4.963  1.4609  2.2824  3.4499
 4050SOL    HW223610   1.899   3.978   5.033 -0.5720 -0.5464 -0.6812
 4051SOL     OW23611   3.870   1.227   3.590 -0.0411 -0.0346 -0.2445
 4051SOL    HW123612   3.919   1.158   3.635 -0.8672 -0.1219  0.5122
 4051SOL    HW223613   3.889   1.211   3.497 -0.6071  1.1133 -0.5514
 4052SOL     OW23614   0.634   1.355  11.968  0.0132 -0.2783 -0.6256
 4052SOL    HW123615   0.702   1.290  11.985  1.3726  1.2919 -0.0524
 4052SOL    HW223616   0.553   1.316  12.000 -1.1074  3.0299  0.5297
 4053SOL     OW23617   4.145   3.854  17.247  0.6384 -0.2808 -0.3314
 4053SOL    HW123618   4.198   3.881  17.171  2.0460  1.4718  1.2949
 4053SOL    HW223619   4.195   3.779  17.279  0.8616  0.5870  1.3465
 4054SOL     OW23620   3.250   1.880   7.527 -0.4753  0.5726 -0.0780
 4054SOL    HW123621   3.158   1.865   7.549 -0.5395 -1.8149 -1.9516
 4054SOL    HW223622   3.246   1.924   7.442  0.1196  0.5750 -0.1087
 4055SOL     OW23623   1.794   1.874   7.924 -0.4959 -0.0844 -0.2341
 4055SOL    HW123624   1.777   1.800   7.983 -2.1409  1.6220  1.4405
 4055SOL    HW223625   1.871   1.916   7.962  0.1071  0.4392 -2.0736
 4056SOL     OW23626   2.037   2.121  17.293  0.4053 -0.0408  0.7886
 4056SOL    HW123627   2.071   2.075  17.370 -0.7168 -2.1276  0.0454
 4056SOL    HW223628   2.112   2.174  17.265 -2.0545  1.3396 -3.1234
 4057SOL     OW23629   1.821   1.047  13.110 -0.4617 -0.4846 -0.1598
 4057SOL    HW123630   1.779   1.037  13.195 -1.9599  0.7720 -0.7396
 4057SOL    HW223631   1.784   0.972  13.063  0.2655 -0.0549 -1.4184
 4058SOL     OW23632   3.403   2.428  11.987 -0.3825 -0.2247 -0.3201
 4058SOL    HW123633   3.370   2.344  11.955  2.1785 -1.1978 -0.3879
 4058SOL    HW223634   3.323   2.468  12.022  0.7169  1.3255  0.4315
 4059SOL     OW23635   0.991   3.566   4.253 -0.6263 -0.4071 -0.4186
 4059SOL    HW123636   1.046   3.511   4.197  1.0010  1.2192 -0.4167
 4059SOL    HW223637   1.037   3.546   4.335  1.2749 -0.2574 -1.4563
 4060SOL     OW23638   0.593   3.386   3.790 -0.0055 -0.0856 -0.4091
 4060SOL    HW123639   0.684   3.411   3.774 -0.1665  0.2992 -0.7238
 4060SOL    HW223640   0.592   3.391   3.886 -1.7475 -3.0525 -0.2880
 4061SOL     OW23641   2.613   2.194   8.614  0.0161 -0.1264  0.5558
 4061SOL    HW123642   2.647   2.107   8.594  1.5668  0.6811 -0.2738
 4061SOL    HW223643   2.527   2.168   8.648 -1.3188  0.3519 -2.4174
 4062SOL     OW23644   4.052   3.023  17.027 -0.3754  0.5646 -0.3610
 4062SOL    HW123645   4.121   3.076  17.067  0.8649 -0.6818 -0.8319
 4062SOL    HW223646   4.044   3.067  16.942 -0.3450 -0.0698 -0.6946
 4063SOL     OW23647   1.221   2.456  16.642  0.0899  0.5392  0.2661
 4063SOL    HW123648   1.248   2.498  16.561  0.3858 -2.1373 -1.0337
 4063SOL    HW223649   1.236   2.514  16.717  1.1690  1.0091 -0.3103
 4064SOL     OW23650   1.550   0.380   5.656 -0.1934  0.1463 -0.4177
 4064SOL    HW123651   1.513   0.408   5.740 -2.2294 -1.2616 -0.8493
 4064SOL    HW223652   1.610   0.311   5.684  0.3500  0.1465 -1.5701
 4065SOL     OW23653   3.053   3.494   4.501 -0.0053 -0.0160 -0.4366
 4065SOL    HW123654   3.031   3.440   4.425 -0.1499 -2.4694  1.3688
 4065SOL    HW223655   3.146   3.509   4.488  0.3100 -2.0495 -0.4937
 4066SOL     OW23656   3.060   0.626   8.557  0.0936 -0.8333  0.2694
 4066SOL    HW123657   3.078   0.640   8.464 -0.2754 -0.7074  0.2185
 4066SOL    HW223658   2.968   0.653   8.565 -0.1849 -1.6773 -0.1678
 4067SOL     OW23659   0.588   0.294   3.540  0.4318  0.6068  0.2865
 4067SOL    HW123660   0.679   0.311   3.562  1.0592 -1.3441 -0.7784
 4067SOL    HW223661   0.561   0.375   3.497  1.6442  0.7955 -0.1013
 4068SOL     OW23662   2.815   3.011  13.277  0.5803  0.1631  0.8087
 4068SOL    HW123663   2.838   2.957  13.353  2.1587  1.7761  1.4728
 4068SOL    HW223664   2.754   2.965  13.219 -0.6042  0.6448  1.6680
 4069SOL     OW23665   1.297   3.291   6.354  0.1904  0.6436 -0.4799
 4069SOL    HW123666   1.326   3.200   6.348 -1.2672  0.1607 -0.2456
 4069SOL    HW223667   1.331   3.313   6.267 -0.1006  2.4118 -0.1375
 4070SOL     OW23668   4.121   0.014   8.321  0.1587 -0.0510 -0.1071
 4070SOL    HW123669   4.129   0.109   8.332 -2.0504  0.0940  0.4112
 4070SOL    HW223670   4.107   0.005   8.227  0.6815  1.2789 -0.3132
 4071SOL     OW23671   3.261   2.723  10.735  0.4126  1.0665  0.0889
 4071SOL    HW123672   3.345   2.769  10.724 -0.0767  2.0089  0.2790
 4071SOL    HW223673   3.212   2.777  10.798 -2.3417 -1.9703  0.5521
 4072SOL     OW23674   1.363   2.598  10.800 -0.1909 -0.1526  0.4060
 4072SOL    HW123675   1.349   2.536  10.872  2.6618 -1.1034  0.1233
 4072SOL    HW223676   1.273   2.592  10.766 -0.6936 -1.5859  1.9933
 4073SOL     OW23677   3.331   4.697  13.644 -0.9257  0.7931  0.2501
 4073SOL    HW123678   3.363   4.609  13.623 -0.7783  1.3864 -1.9902
 4073SOL    HW223679   3.256   4.674  13.699 -1.0343 -2.5592 -1.2647
 4074SOL     OW23680   1.126   1.883   5.488 -0.1420 -0.2812  0.4560
 4074SOL    HW123681   1.046   1.887   5.541  0.3840  2.7330  1.0228
 4074SOL    HW223682   1.099   1.829   5.414  2.6609 -1.6993  0.4662
 4075SOL     OW23683   1.993   2.679   7.368  0.3233 -0.1258 -0.2731
 4075SOL    HW123684   2.086   2.695   7.383  0.2708  0.6448 -0.7600
 4075SOL    HW223685   1.992   2.615   7.297 -1.7262 -0.7414  0.3270
 4076SOL     OW23686   4.540   3.465   0.479  0.2319  0.0541  0.3716
 4076SOL    HW123687   4.591   3.506   0.550  0.7018 -0.4945  0.3536
 4076SOL    HW223688   4.475   3.429   0.539 -1.0608  0.4615 -0.8009
 4077SOL     OW23689   2.963   1.611  12.533 -0.8333 -0.4691  0.6366
 4077SOL    HW123690   2.894   1.584  12.594  1.5330 -2.1165  2.5735
 4077SOL    HW223691   2.921   1.696  12.515 -0.2977 -0.1301  1.0099
 4078SOL     OW23692   2.862   3.722  12.642  0.4978  0.5690  0.1447
 4078SOL    HW123693   2.856   3.708  12.548  1.4432 -2.2081  0.4783
 4078SOL    HW223694   2.772   3.743  12.666 -0.2214 -2.0770 -0.2338
 4079SOL     OW23695   1.252   0.297  16.554  0.0837 -0.3431 -0.3683
 4079SOL    HW123696   1.189   0.228  16.531  0.1393 -0.6795  0.4986
 4079SOL    HW223697   1.215   0.307  16.641  1.9194  0.2742  0.3582
 4080SOL     OW23698   2.066   1.951   9.036  0.3837 -0.4080 -0.4840
 4080SOL    HW123699   2.096   2.039   9.060  0.9137 -0.9493  0.8731
 4080SOL    HW223700   2.074   1.945   8.941  0.5827  2.5331 -0.6487
 4081SOL     OW23701   0.002   2.313   2.447  0.2216  0.3701  0.1848
 4081SOL    HW123702   0.058   2.238   2.431 -0.6211 -0.3349  0.5409
 4081SOL    HW223703   0.034   2.387   2.395 -0.0858  0.8600  0.6835
 4082SOL     OW23704   3.583   4.331   0.905 -0.1797 -0.6855  0.3474
 4082SOL    HW123705   3.508   4.329   0.846  1.8998  1.9549 -2.4213
 4082SOL    HW223706   3.643   4.306   0.835 -0.2343  0.3074 -0.0616
 4083SOL     OW23707   0.048   1.878   0.380  0.4620  0.0374  0.7430
 4083SOL    HW123708   0.024   1.850   0.468  2.1879 -0.3751  1.0744
 4083SOL    HW223709   0.044   1.798   0.326 -0.4489  0.5433  0.0467
 4084SOL     OW23710   2.646   2.893   4.018  0.2348  0.3230 -0.0395
 4084SOL    HW123711   2.667   2.856   4.104  0.4103 -0.6370 -0.5036
 4084SOL    HW223712   2.708   2.963   3.999 -1.4907  1.1531 -2.6067
 4085SOL     OW23713   1.246   3.998   3.970 -0.3406 -0.1582 -0.1040
 4085SOL    HW123714   1.312   4.038   3.914  1.6570 -1.4274  1.3376
 4085SOL    HW223715   1.296   3.951   4.037  2.1091 -1.5964 -2.9598
 4086SOL     OW23716   3.619   1.994   9.182  0.4883  0.5218 -0.2051
 4086SOL    HW123717   3.626   1.979   9.276 -1.8891 -2.6460 -0.5404
 4086SOL    HW223718   3.559   2.067   9.164 -1.0299 -0.6878  0.0120
 4087SOL     OW23719   3.440   2.039  15.803  0.0992 -0.0737 -0.1213
 4087SOL    HW123720   3.504   2.031  15.873  0.8840 -2.4321 -1.1094
 4087SOL    HW223721   3.356   2.027  15.847 -0.5166  1.3156 -0.9064
 4088SOL     OW23722   3.125   1.408  16.709  0.0199 -0.6776 -0.4133
 4088SOL    HW123723   3.047   1.451  16.743  1.7151  1.6843  0.4394
 4088SOL    HW223724   3.104   1.317  16.733  2.0331 -1.3753 -1.3376
 4089SOL     OW23725   2.036   4.379  11.801  0.2442 -0.0215  0.0459
 4089SOL    HW123726   2.040   4.313  11.733  0.2526  1.4913 -1.4348
 4089SOL    HW223727   1.989   4.453  11.762  2.3717  0.2357 -2.0729
 4090SOL     OW23728   1.582   1.687   4.303 -0.1361 -0.9130  0.4433
 4090SOL    HW123729   1.564   1.781   4.295  0.2312 -0.9330 -0.5922
 4090SOL    HW223730   1.514   1.647   4.247 -0.1845 -0.2379  0.0248
 4091SOL     OW23731   3.793   3.546   5.294 -0.3091 -0.4942 -0.5869
 4091SOL    HW123732   3.785   3.519   5.386  0.4709 -1.8809 -0.9185
 4091SOL    HW223733   3.770   3.638   5.302  0.3246 -0.3914  0.0327
 4092SOL     OW23734   4.461   1.440   4.217  0.3095  0.8229  0.3278
 4092SOL    HW123735   4.412   1.370   4.174 -0.5993  1.9615 -0.4979
 4092SOL    HW223736   4.491   1.486   4.139 -0.1279 -0.4029 -0.5702
 4093SOL     OW23737   0.651   4.245   8.644 -0.0321 -0.3937 -0.4761
 4093SOL    HW123738   0.712   4.296   8.698  0.5846  0.5556 -2.0467
 4093SOL    HW223739   0.683   4.264   8.555 -1.1593  2.7743 -0.1828
 4094SOL     OW23740   2.890   3.670  10.504 -0.0988 -0.1572 -0.8983
 4094SOL    HW123741   2.908   3.639  10.415  0.7490 -3.6267  0.4640
 4094SOL    HW223742   2.962   3.733  10.513 -1.2457  0.9262  0.5186
 4095SOL     OW23743   1.103   0.785   8.996  0.7224  0.1483 -0.0091
 4095SOL    HW123744   1.130   0.790   8.904  1.7288 -0.4870  0.2497
 4095SOL    HW223745   1.188   0.795   9.038  1.0996 -0.1771 -0.6940
 4096SOL     OW23746   0.400   2.638   1.109  0.0893  0.2175  0.4430
 4096SOL    HW123747   0.387   2.621   1.016  0.5601  0.1330  0.3913
 4096SOL    HW223748   0.360   2.722   1.131 -1.1923 -1.0016  2.7885
 4097SOL     OW23749   2.991   4.531   0.593  0.0292  0.0587 -0.0183
 4097SOL    HW123750   3.077   4.503   0.624  0.0416 -2.3808 -2.2670
 4097SOL    HW223751   3.008   4.589   0.519  1.0586 -2.8331 -2.0339
 4098SOL     OW23752   3.577   3.015   8.085 -0.8362 -0.0705 -0.0586
 4098SOL    HW123753   3.585   2.929   8.125 -2.4773 -0.2620 -0.1552
 4098SOL    HW223754   3.564   3.066   8.165  2.5463  0.2217  0.3084
 4099SOL     OW23755   2.934   0.139   8.571  0.2108 -0.2276  0.0511
 4099SOL    HW123756   2.938   0.207   8.637 -2.6403  0.5752 -0.6156
 4099SOL    HW223757   2.924   0.063   8.628  0.6047 -0.1352  0.2424
 4100SOL     OW23758   3.515   2.769   4.656  0.1554  0.3795  0.1702
 4100SOL    HW123759   3.516   2.679   4.690 -0.3040 -0.5827 -2.3728
 4100SOL    HW223760   3.454   2.804   4.720  2.0360  2.7212  0.6857
 4101SOL     OW23761   3.538   2.117   8.000  0.4524  0.4809  0.1681
 4101SOL    HW123762   3.588   2.068   7.935  1.5360 -1.0219  2.1228
 4101SOL    HW223763   3.457   2.079   7.967  0.3714  0.7618  0.0465
 4102SOL     OW23764   2.125   4.194   4.263 -0.3933 -0.2937 -0.3035
 4102SOL    HW123765   2.074   4.261   4.217  0.3800 -0.6411 -1.6588
 4102SOL    HW223766   2.059   4.158   4.323 -0.7993  0.8279 -0.0739
 4103SOL     OW23767   1.399   0.497   6.744  0.2361  0.2018  0.1679
 4103SOL    HW123768   1.456   0.431   6.703  0.3252 -0.8856  2.0610
 4103SOL    HW223769   1.324   0.446   6.773  2.2780 -2.4482  0.8995
 4104SOL     OW23770   0.679   4.390   2.764  0.4826 -0.5332  0.1875
 4104SOL    HW123771   0.606   4.445   2.792  1.9773  1.5070  0.0860
 4104SOL    HW223772   0.743   4.395   2.836  2.0878 -3.9195 -1.0102
 4105SOL     OW23773   3.813   3.577   1.670  0.1913  0.2636 -0.0981
 4105SOL    HW123774   3.762   3.500   1.695  2.4702 -1.3060 -0.3300
 4105SOL    HW223775   3.747   3.630   1.624  0.4852  1.4885  0.9026
 4106SOL     OW23776   2.747   1.468  10.774  0.1184  0.2320 -0.2034
 4106SOL    HW123777   2.701   1.426  10.846  0.6434 -1.7540 -1.0086
 4106SOL    HW223778   2.777   1.388  10.731  1.4917 -0.3333  1.8181
 4107SOL     OW23779   2.726   1.912  10.275  0.1789 -0.3137  0.1028
 4107SOL    HW123780   2.763   1.923  10.188  0.4917  0.3642  0.3188
 4107SOL    HW223781   2.790   1.952  10.334 -0.9495  1.0191  0.4391
 4108SOL     OW23782   2.527   1.326   9.412  0.0721 -0.2912  0.3993
 4108SOL    HW123783   2.594   1.265   9.443 -1.4795 -2.1813  0.0372
 4108SOL    HW223784   2.468   1.315   9.488 -0.0805  0.9008  0.4551
 4109SOL     OW23785   4.173   1.149   4.661 -0.1410 -0.1943 -0.6131
 4109SOL    HW123786   4.123   1.169   4.582  0.5561 -1.0029 -1.2631
 4109SOL    HW223787   4.136   1.205   4.729 -0.6753  3.9476 -4.2991
 4110SOL     OW23788   3.319   2.690  15.957 -0.5383 -0.5446  0.3539
 4110SOL    HW123789   3.403   2.726  15.985 -0.0504  0.7832 -2.8278
 4110SOL    HW223790   3.351   2.602  15.974 -2.1919 -1.4957 -1.4666
 4111SOL     OW23791   3.548   0.437   4.378 -0.0428  0.1740 -0.4396
 4111SOL    HW123792   3.540   0.478   4.292 -0.2246  1.4867  0.1978
 4111SOL    HW223793   3.547   0.522   4.423  0.2742  0.4217 -0.8968
 4112SOL     OW23794   3.741   3.269   9.150 -0.4925 -0.2173  1.1163
 4112SOL    HW123795   3.659   3.312   9.174 -0.7049 -0.8966  1.6180
 4112SOL    HW223796   3.712   3.205   9.086  3.2763  0.1090 -0.8891
 4113SOL     OW23797   3.055   2.853   4.991  0.7153 -0.2387  0.5057
 4113SOL    HW123798   2.981   2.797   5.014  1.0102 -0.1901  1.5902
 4113SOL    HW223799   3.008   2.929   4.958  1.1220 -0.5538 -0.7844
 4114SOL     OW23800   1.351   1.234   8.534 -0.0136 -0.1433 -0.1248
 4114SOL    HW123801   1.329   1.320   8.499 -1.3236 -0.4403 -0.0380
 4114SOL    HW223802   1.331   1.243   8.627 -1.1119  0.2157 -0.3985
 4115SOL     OW23803   2.976   3.967   2.921  0.1749  0.3292 -0.5054
 4115SOL    HW123804   3.010   4.013   2.845  0.0892 -0.4628 -1.0178
 4115SOL    HW223805   3.023   3.884   2.930  0.0441  0.4616  1.4277
 4116SOL     OW23806   3.486   1.548   4.658  0.1471  0.5938  0.0684
 4116SOL    HW123807   3.463   1.625   4.606  3.1820  2.7920  1.9228
 4116SOL    HW223808   3.417   1.490   4.628 -1.2707  2.0363  0.5248
 4117SOL     OW23809   3.115   2.624   8.593  0.0824  0.3701 -1.2350
 4117SOL    HW123810   3.071   2.547   8.558  0.4054 -0.3092 -0.1569
 4117SOL    HW223811   3.146   2.587   8.676 -1.5523  1.2334 -0.2520
 4118SOL     OW23812   3.271   2.018   9.843 -0.0809  0.2474  0.0455
 4118SOL    HW123813   3.184   2.056   9.833  0.0011  0.5739  0.5786
 4118SOL    HW223814   3.297   2.082   9.909  2.9127 -1.6125  0.7155
 4119SOL     OW23815   3.649   4.263   7.743  0.1845  0.0275 -0.3140
 4119SOL    HW123816   3.583   4.284   7.809  1.9807  1.3080  1.0735
 4119SOL    HW223817   3.719   4.240   7.805  0.7953  2.7924  0.0034
 4120SOL     OW23818   3.910   2.952   4.346 -0.0235  0.1789 -0.5111
 4120SOL    HW123819   3.855   2.912   4.413  1.8345  0.1013  0.9743
 4120SOL    HW223820   3.969   2.883   4.317  0.7720 -0.6490  3.0120
 4121SOL     OW23821   3.411   1.461  12.669 -0.4008 -0.5703  0.0333
 4121SOL    HW123822   3.464   1.418  12.602  1.8930  2.7489 -0.2599
 4121SOL    HW223823   3.333   1.462  12.613  0.7314  1.1791 -1.5154
 4122SOL     OW23824   4.440   3.949   6.599  0.1579  0.4981 -0.1160
 4122SOL    HW123825   4.397   3.987   6.675  0.5651 -0.2031  0.4723
 4122SOL    HW223826   4.409   3.994   6.521  1.2936  0.5444 -0.5479
 4123SOL     OW23827   4.658   2.446  13.052  0.4443  0.0559  0.4097
 4123SOL    HW123828   4.611   2.520  13.089 -0.2307 -0.0909 -0.1554
 4123SOL    HW223829   0.018   2.490  13.026  1.0599 -0.9385  0.6599
 4124SOL     OW23830   4.332   0.930  16.724  0.4560  0.1437 -0.4291
 4124SOL    HW123831   4.280   0.947  16.802 -0.6208  0.4404 -1.1956
 4124SOL    HW223832   4.269   0.878  16.673 -0.0412  0.8246 -0.5088
 4125SOL     OW23833   3.193   0.607   3.042  0.0813 -0.0582 -0.4674
 4125SOL    HW123834   3.191   0.525   3.092  0.6099  0.5453  0.5448
 4125SOL    HW223835   3.183   0.574   2.953  2.8251 -3.7579  0.5908
 4126SOL     OW23836   2.397   2.710  13.009  0.3324  0.0423  0.2212
 4126SOL    HW123837   2.444   2.660  13.076  1.4932  0.7908 -0.0344
 4126SOL    HW223838   2.475   2.732  12.958 -0.0474  2.5486  0.7612
 4127SOL     OW23839   4.547   0.033   2.560  0.7618  0.2150  0.0554
 4127SOL    HW123840   4.560   4.693   2.488  1.0878 -0.4308  0.6625
 4127SOL    HW223841   4.634   0.073   2.570  1.8400 -2.7116  2.5549
 4128SOL     OW23842   4.627   3.377   6.262 -0.0588  0.6866 -0.3814
 4128SOL    HW123843   4.669   3.324   6.330 -1.9593  2.1994  2.0015
 4128SOL    HW223844   4.651   3.331   6.182 -2.8693  1.0200 -1.4137
 4129SOL     OW23845   3.358   1.361   3.501  0.2611 -0.2582 -0.1059
 4129SOL    HW123846   3.275   1.316   3.487 -0.7777  0.4997  3.6858
 4129SOL    HW223847   3.418   1.297   3.461 -0.4024 -1.1992  0.3998
 4130SOL     OW23848   3.254   2.269   5.752 -0.0189 -0.2935 -0.1719
 4130SOL    HW123849   3.215   2.182   5.743  0.7424 -0.6359 -0.1826
 4130SOL    HW223850   3.348   2.256   5.734  0.3841  1.8159  0.4697
 4131SOL     OW23851   1.721   3.482   3.714 -0.3669 -0.1895  0.6851
 4131SOL    HW123852   1.751   3.417   3.650 -3.6015 -0.2117 -0.8473
 4131SOL    HW223853   1.803   3.503   3.758 -0.9023  1.3618  0.9202
 4132SOL     OW23854   2.452   1.928   2.283  0.3321  0.0706  0.1910
 4132SOL    HW123855   2.358   1.940   2.297  0.5382  2.1072 -0.2612
 4132SOL    HW223856   2.461   1.851   2.340 -0.8418 -0.4134 -0.2698
 4133SOL     OW23857   4.271   2.461  10.734  0.1577 -0.5114  0.5265
 4133SOL    HW123858   4.270   2.430  10.644 -2.4377  0.2083  0.3225
 4133SOL    HW223859   4.245   2.378  10.774  0.7635 -0.7531  0.4232
 4134SOL     OW23860   0.952   3.221  17.069  0.1301  0.0379  0.1656
 4134SOL    HW123861   0.867   3.180  17.052  0.9162 -1.6501  0.3431
 4134SOL    HW223862   0.949   3.294  17.008  0.4863 -2.0390 -2.3415
 4135SOL     OW23863   0.218   1.456   5.984 -0.0760  0.7500 -0.5263
 4135SOL    HW123864   0.290   1.506   6.021 -0.2491  0.1707  0.5841
 4135SOL    HW223865   0.148   1.519   5.970 -0.2571  0.3156 -1.5557
 4136SOL     OW23866   0.799   0.734  11.319 -0.3072 -0.0617 -0.2882
 4136SOL    HW123867   0.714   0.706  11.351  0.2110 -0.0581  1.0879
 4136SOL    HW223868   0.851   0.716  11.397 -0.9749 -3.5679 -0.6751
 4137SOL     OW23869   4.469   0.952  13.993 -0.2056  0.9668 -0.0890
 4137SOL    HW123870   4.447   0.948  13.900 -0.3043  0.5294 -0.0462
 4137SOL    HW223871   4.413   1.024  14.023 -1.2622  0.1528 -0.1128
 4138SOL     OW23872   3.683   0.674  17.195 -0.0343  0.0627  0.2413
 4138SOL    HW123873   3.756   0.636  17.147 -1.1291  0.5934 -1.8642
 4138SOL    HW223874   3.724   0.733  17.258  1.1608 -1.9791  1.3475
 4139SOL     OW23875   2.029   3.647   2.409  0.1244  0.2589  0.6324
 4139SOL    HW123876   1.941   3.614   2.392  0.0643  0.2242  0.9995
 4139SOL    HW223877   2.021   3.734   2.370 -3.6215 -0.1402  0.5067
 4140SOL     OW23878   2.423   3.237   7.969 -0.4357 -0.7819  0.0175
 4140SOL    HW123879   2.442   3.151   7.931 -2.0558 -2.7128  3.5208
 4140SOL    HW223880   2.328   3.241   7.962 -0.4065  0.4263  0.3633
 4141SOL     OW23881   2.100   3.761   4.101 -0.4114  0.0800  0.3194
 4141SOL    HW123882   2.137   3.845   4.129 -2.0691  1.1396 -0.7063
 4141SOL    HW223883   2.028   3.744   4.161 -0.3381 -3.4675 -0.6147
 4142SOL     OW23884   0.444   3.971   5.994 -0.1823  0.2409  0.1619
 4142SOL    HW123885   0.425   3.921   5.915 -1.5327 -0.3402  0.8673
 4142SOL    HW223886   0.513   3.919   6.035  0.1057  1.2201  0.9316
 4143SOL     OW23887   0.857   3.812   8.150  0.1153 -0.2793 -0.4773
 4143SOL    HW123888   0.819   3.855   8.074 -0.6488  1.0647  0.6656
 4143SOL    HW223889   0.871   3.725   8.113  0.3831 -0.6890  0.5657
 4144SOL     OW23890   1.639   0.192   1.114  0.6150 -0.4621 -0.0100
 4144SOL    HW123891   1.626   0.283   1.139  0.3057 -0.5560  0.1808
 4144SOL    HW223892   1.726   0.197   1.074 -0.4354  1.4734 -2.0126
 4145SOL     OW23893   1.631   2.659   2.933 -0.1705  0.9564 -0.3713
 4145SOL    HW123894   1.648   2.734   2.877  0.5505  1.4274  0.4725
 4145SOL    HW223895   1.586   2.590   2.883  1.7983  0.0058 -0.8448
 4146SOL     OW23896   1.198   4.476   7.778 -0.1334  0.6716  0.1054
 4146SOL    HW123897   1.195   4.399   7.721 -1.4588  0.0317  1.0467
 4146SOL    HW223898   1.110   4.487   7.812  0.0140 -0.9095  0.9970
 4147SOL     OW23899   0.495   4.114   6.709  0.1494 -0.0666  0.7890
 4147SOL    HW123900   0.564   4.147   6.651 -1.3638 -1.2418 -1.6899
 4147SOL    HW223901   0.537   4.033   6.738 -0.3610 -0.1534  1.2734
 4148SOL     OW23902   3.262   3.598   6.593  0.3205 -0.5448  0.3925
 4148SOL    HW123903   3.186   3.559   6.635  0.4928 -1.1679  0.1422
 4148SOL    HW223904   3.337   3.562   6.641  0.8959  1.6257  1.1099
 4149SOL     OW23905   1.247   3.395  13.938 -0.0410  0.3126 -0.8297
 4149SOL    HW123906   1.183   3.361  13.875  0.5841 -0.3889 -1.0870
 4149SOL    HW223907   1.271   3.477  13.895 -1.3853  1.2815  0.2545
 4150SOL     OW23908   0.682   3.950   7.993 -0.1044  0.4184  0.1855
 4150SOL    HW123909   0.640   3.968   7.909  1.0568 -0.4549 -0.5877
 4150SOL    HW223910   0.699   4.039   8.020 -0.9492  1.1428 -1.6344
 4151SOL     OW23911   4.530   1.004   5.703  0.7807  0.3972 -0.0281
 4151SOL    HW123912   4.454   0.968   5.656  1.4910 -0.6105 -0.4251
 4151SOL    HW223913   4.599   0.957   5.656  1.8998  2.1225 -0.0755
 4152SOL     OW23914   1.481   0.800  14.080  0.0390  0.3195 -0.1768
 4152SOL    HW123915   1.484   0.745  14.159 -0.0465 -0.5144 -0.7590
 4152SOL    HW223916   1.399   0.779  14.035 -0.2465  2.2365 -0.5691
 4153SOL     OW23917   0.334   3.725   2.621  0.9605  0.3084 -1.1219
 4153SOL    HW123918   0.257   3.686   2.578  0.3342  0.4994 -0.1686
 4153SOL    HW223919   0.360   3.785   2.552 -0.1111  1.8122 -0.2071
 4154SOL     OW23920   4.449   0.868   4.377  0.3159 -0.3275  0.1013
 4154SOL    HW123921   4.429   0.799   4.441  0.5549 -0.9605 -0.5054
 4154SOL    HW223922   4.373   0.922   4.397 -0.2430 -0.8187 -0.6906
 4155SOL     OW23923   0.110   3.533   2.638 -0.2866  0.0191  0.7452
 4155SOL    HW123924   0.176   3.472   2.670 -0.6541 -1.2184 -0.8594
 4155SOL    HW223925   0.083   3.479   2.564 -1.6603 -0.5153  1.6438
 4156SOL     OW23926   3.864   2.598  10.364 -0.0411  0.9997  0.2530
 4156SOL    HW123927   3.923   2.527  10.389  2.2309  2.4310 -1.0741
 4156SOL    HW223928   3.925   2.671  10.368 -0.5051  1.3913  0.1684
 4157SOL     OW23929   1.128   4.046  14.988  0.0345 -0.1042 -0.0708
 4157SOL    HW123930   1.104   4.026  14.897 -1.2330 -2.1852  0.7061
 4157SOL    HW223931   1.104   3.959  15.021  2.6980  0.1175  2.4215
 4158SOL     OW23932   0.523   4.590  17.421  0.4564  0.2534  0.4725
 4158SOL    HW123933   0.494   4.528  17.353 -0.0655  0.2487  0.7026
 4158SOL    HW223934   0.607   4.614  17.382 -0.5651  0.2014 -1.8027
 4159SOL     OW23935   1.079   2.572   9.002 -0.4585  0.2783  0.2824
 4159SOL    HW123936   1.004   2.544   9.055  0.1113  0.4845  1.2080
 4159SOL    HW223937   1.059   2.525   8.921  1.8707 -1.9768  0.9924
 4160SOL     OW23938   4.215   3.961   6.279  0.2708 -0.2724 -0.3471
 4160SOL    HW123939   4.170   3.947   6.195 -1.9571  0.7460  0.6574
 4160SOL    HW223940   4.255   3.876   6.296  1.5718  0.3802 -0.1428
 4161SOL     OW23941   1.784   4.285   3.644  0.1166  0.6181 -0.2797
 4161SOL    HW123942   1.788   4.207   3.698  0.9547 -0.0437 -1.3127
 4161SOL    HW223943   1.690   4.306   3.646 -0.6052 -2.4816 -1.2608
 4162SOL     OW23944   0.130   2.240   5.421 -0.0484  0.8268 -0.1917
 4162SOL    HW123945   0.219   2.204   5.430 -1.3364 -2.5139 -0.7380
 4162SOL    HW223946   0.122   2.280   5.507  1.0466 -0.7727  0.6692
 4163SOL     OW23947   1.923   4.661   6.682  0.4545  0.7810  0.7977
 4163SOL    HW123948   1.967   4.580   6.657 -1.2051 -0.3505  1.5332
 4163SOL    HW223949   1.887   4.633   6.766  0.1381 -0.1194  0.3681
 4164SOL     OW23950   1.168   0.729   1.409 -0.3044 -0.1542  0.7655
 4164SOL    HW123951   1.236   0.753   1.472  1.3927  1.9602 -1.8792
 4164SOL    HW223952   1.209   0.742   1.323 -0.3308 -0.2124  0.7442
 4165SOL     OW23953   3.599   2.358  16.281  0.1339  0.3212 -0.3214
 4165SOL    HW123954   3.591   2.410  16.361  1.0739 -1.1758  0.7364
 4165SOL    HW223955   3.683   2.392  16.249 -0.6409  2.0068 -0.5778
 4166SOL     OW23956   4.510   0.802   0.279  0.4173  0.3828 -0.1985
 4166SOL    HW123957   4.509   0.764   0.191 -0.5881 -1.5653  0.6771
 4166SOL    HW223958   4.479   0.725   0.325  0.5142  0.6341  0.2881
 4167SOL     OW23959   2.338   2.620   3.633 -0.1743  0.0620 -0.7564
 4167SOL    HW123960   2.343   2.708   3.595  1.5557  0.9803  1.6087
 4167SOL    HW223961   2.423   2.576   3.628 -0.0335  0.6537 -3.3182
 4168SOL     OW23962   2.379   4.504   6.980 -0.4749  0.2437 -0.0037
 4168SOL    HW123963   2.400   4.556   7.057  0.2391 -0.5673  0.3557
 4168SOL    HW223964   2.285   4.522   6.985 -0.3988  1.2683 -2.1489
 4169SOL     OW23965   4.607   2.581  11.512 -0.2834  0.3056 -0.0888
 4169SOL    HW123966   4.575   2.642  11.446 -0.0765 -0.1838 -0.6420
 4169SOL    HW223967   4.672   2.627  11.566 -0.0240 -2.1896  1.7521
 4170SOL     OW23968   0.998   0.049   8.766  0.0652  0.0355 -0.3358
 4170SOL    HW123969   0.957   4.684   8.778 -1.0852  0.7025  0.4562
 4170SOL    HW223970   0.934   0.111   8.799 -0.5321 -0.6059 -0.2771
 4171SOL     OW23971   4.415   2.675   2.541  0.7068  0.6841 -0.6796
 4171SOL    HW123972   4.355   2.608   2.576  1.6229 -0.7849 -1.9468
 4171SOL    HW223973   4.353   2.738   2.505 -0.2287  1.0011  1.4870
 4172SOL     OW23974   4.558   3.622  13.252 -0.4947  0.3692 -0.1928
 4172SOL    HW123975   4.621   3.644  13.182 -0.3281 -1.0420 -0.4826
 4172SOL    HW223976   4.596   3.684  13.315 -1.8810  1.2491 -0.2389
 4173SOL     OW23977   2.271   0.132  10.054 -0.0766 -0.0231  0.0754
 4173SOL    HW123978   2.274   0.057  10.113  0.3060  0.6283  0.8844
 4173SOL    HW223979   2.356   0.172  10.075  0.5506 -0.5209 -1.5379
 4174SOL     OW23980   3.585   4.168   2.635  0.2947 -0.2642 -0.3726
 4174SOL    HW123981   3.642   4.241   2.658 -0.0808 -0.3984  1.0261
 4174SOL    HW223982   3.616   4.127   2.555 -0.3296  2.1120 -1.8198
 4175SOL     OW23983   2.780   2.845   4.789  0.0103  0.2240  0.4131
 4175SOL    HW123984   2.814   2.822   4.876 -0.0189 -1.8872 -0.1399
 4175SOL    HW223985   2.778   2.941   4.795 -0.8360  0.3136 -1.3254
 4176SOL     OW23986   2.310   4.136   6.738 -0.4023  0.6331  0.0836
 4176SOL    HW123987   2.284   4.092   6.819  0.7772  2.0697  1.2632
 4176SOL    HW223988   2.244   4.098   6.680  1.3072 -1.8977 -0.2024
 4177SOL     OW23989   0.215   0.710  14.696  0.2827 -0.9384  0.1492
 4177SOL    HW123990   0.232   0.683  14.606  0.1156 -0.5438 -0.0020
 4177SOL    HW223991   0.235   0.626  14.737  1.0768 -0.4969  0.6686
 4178SOL     OW23992   1.862   4.404   9.630 -0.4107 -0.1716  0.0075
 4178SOL    HW123993   1.857   4.492   9.591  0.5518  0.9929  2.5122
 4178SOL    HW223994   1.954   4.394   9.651  0.2966  3.2296 -1.4819
 4179SOL     OW23995   0.567   1.485   5.717 -0.8920  0.2890 -0.5727
 4179SOL    HW123996   0.574   1.433   5.637  1.6034  0.0269 -0.1735
 4179SOL    HW223997   0.640   1.467   5.776 -2.2383 -1.3657  0.5947
 4180SOL     OW23998   2.997   1.175   6.909  0.0875 -0.5688 -0.2914
 4180SOL    HW123999   2.909   1.141   6.917  0.1514 -0.9311 -1.1242
 4180SOL    HW224000   3.047   1.102   6.873  1.8880  0.5003  0.0223
 4181SOL     OW24001   3.261   0.527   3.674 -0.3633  0.0147 -0.4452
 4181SOL    HW124002   3.329   0.524   3.607 -1.9382 -0.3469 -2.0390
 4181SOL    HW224003   3.202   0.595   3.640  0.4880  0.1657 -1.5855
 4182SOL     OW24004   2.057   1.559  15.405 -0.5926  0.3469  0.4975
 4182SOL    HW124005   2.071   1.551  15.500  0.9822  0.4481  0.2756
 4182SOL    HW224006   1.964   1.542  15.390 -0.3289 -2.6465  2.3163
 4183SOL     OW24007   0.121   0.436  11.284  0.6938  0.0603 -0.3098
 4183SOL    HW124008   0.115   0.358  11.339 -0.3317  0.3319 -0.0284
 4183SOL    HW224009   0.202   0.477  11.316 -0.4084  0.4680  1.9975
 4184SOL     OW24010   3.369   2.993   2.633 -0.2094 -0.3969 -0.1922
 4184SOL    HW124011   3.337   2.936   2.703 -1.9367  0.7838  0.0035
 4184SOL    HW224012   3.330   3.078   2.655 -2.2447 -1.8689  1.9143
 4185SOL     OW24013   4.475   4.620  11.613  0.2646 -0.4145  0.0601
 4185SOL    HW124014   4.461   4.595  11.522 -1.4258  0.0576  0.1781
 4185SOL    HW224015   4.543   4.564  11.649  0.8010  0.4523  0.3808
 4186SOL     OW24016   3.938   1.856   6.701  0.5276 -0.3238  0.0758
 4186SOL    HW124017   4.024   1.897   6.706 -0.0270  0.7847  0.6220
 4186SOL    HW224018   3.876   1.928   6.710  2.0497  1.2053 -1.8518
 4187SOL     OW24019   3.700   3.423  16.954  0.8217  0.2156  0.1417
 4187SOL    HW124020   3.791   3.418  16.925  0.4899  1.6278 -1.0945
 4187SOL    HW224021   3.650   3.431  16.874 -0.8908  0.3149  1.2237
 4188SOL     OW24022   3.552   1.073  14.564  0.0218 -0.0701 -0.1982
 4188SOL    HW124023   3.525   1.136  14.497  0.2177  0.9215  0.6763
 4188SOL    HW224024   3.561   0.991  14.514 -5.2072 -1.2049  0.6590
 4189SOL     OW24025   4.244   2.400   1.743  0.3453  0.4201  0.1286
 4189SOL    HW124026   4.277   2.317   1.708  0.2214 -0.3650  1.8976
 4189SOL    HW224027   4.313   2.458   1.712 -1.0050  1.0082 -1.7749
 4190SOL     OW24028   1.086   1.668  10.928 -1.0299 -0.3706  0.3715
 4190SOL    HW124029   1.029   1.711  10.992  0.6547  0.5913  1.2407
 4190SOL    HW224030   1.151   1.736  10.909  2.2118 -3.7844 -0.7985
 4191SOL     OW24031   4.660   1.190   1.249 -0.3366  0.2304  0.5235
 4191SOL    HW124032   4.603   1.118   1.276  0.2489 -1.2096 -2.1221
 4191SOL    HW224033   4.674   1.235   1.333  2.4696 -0.0503  0.2325
 4192SOL     OW24034   0.626   2.482   8.191 -0.2196 -0.2181  0.4008
 4192SOL    HW124035   0.611   2.555   8.251  1.6575  1.1507 -0.8139
 4192SOL    HW224036   0.685   2.440   8.253 -0.0697  0.2715  0.5918
 4193SOL     OW24037   1.000   0.392   5.808 -0.0360  0.3111 -0.7053
 4193SOL    HW124038   0.991   0.297   5.811  2.7294  0.0687  0.1855
 4193SOL    HW224039   0.931   0.432   5.860  1.1431 -1.7812  2.4742
 4194SOL     OW24040   1.074   1.008   6.231  0.4089  0.1253 -0.0294
 4194SOL    HW124041   1.054   1.073   6.297  0.6442 -1.1846  1.3316
 4194SOL    HW224042   1.162   1.038   6.209 -0.6729  2.3779 -1.2178
 4195SOL     OW24043   3.682   2.849   4.940 -0.2695 -0.3908  0.5209
 4195SOL    HW124044   3.742   2.912   4.900  0.1225 -0.1275  1.5501
 4195SOL    HW224045   3.709   2.771   4.890 -0.9267  0.3885 -1.0571
 4196SOL     OW24046   4.502   3.648   7.687 -0.0918 -0.5496 -0.2960
 4196SOL    HW124047   4.523   3.568   7.735  0.0033  1.3887  2.8945
 4196SOL    HW224048   4.427   3.675   7.741  0.7592 -2.4070  1.8267
 4197SOL     OW24049   3.595   0.459   0.143  0.1542 -0.1497 -0.0667
 4197SOL    HW124050   3.678   0.487   0.181 -1.4216  3.4213  0.7403
 4197SOL    HW224051   3.574   0.382   0.196 -1.9185  0.6372  0.2839
 4198SOL     OW24052   0.540   0.016   8.899  0.3730 -0.1118  0.6478
 4198SOL    HW124053   0.446   0.030   8.897  0.6283  1.5133 -0.5456
 4198SOL    HW224054   0.549   4.670   8.966 -0.6145 -1.1302 -0.2523
 4199SOL     OW24055   0.708   1.744   5.874 -0.3958  0.3924  0.0944
 4199SOL    HW124056   0.773   1.813   5.880 -1.2352  0.8381  3.9642
 4199SOL    HW224057   0.682   1.750   5.782  0.7626 -1.1311 -0.3379
 4200SOL     OW24058   4.139   1.664   5.775  0.5383 -0.2544 -0.1399
 4200SOL    HW124059   4.112   1.575   5.799 -2.9513  0.9510  0.4333
 4200SOL    HW224060   4.155   1.646   5.683 -0.3371  2.1884 -0.7657
 4201SOL     OW24061   3.193   2.056   0.465 -0.4403 -0.3620  0.1769
 4201SOL    HW124062   3.202   2.010   0.382  0.7222 -0.2569  0.2374
 4201SOL    HW224063   3.284   2.051   0.497 -0.4978  2.1555  0.7415
 4202SOL     OW24064   0.701   0.672   4.292  0.2572  0.1373  0.1787
 4202SOL    HW124065   0.737   0.729   4.360  0.2620 -0.3435  0.5741
 4202SOL    HW224066   0.718   0.589   4.336  0.4171  0.2776  0.3820
 4203SOL     OW24067   0.168   1.749   5.773 -0.1612 -0.4325 -0.6145
 4203SOL    HW124068   0.118   1.677   5.813  2.9834 -1.4959  1.3723
 4203SOL    HW224069   0.193   1.802   5.848 -2.8810 -0.6328  0.4327
 4204SOL     OW24070   3.994   0.358   7.336  0.2250 -0.3369 -0.6650
 4204SOL    HW124071   3.917   0.366   7.280  2.1041  0.9350 -3.0384
 4204SOL    HW224072   4.063   0.398   7.284  2.0825 -2.4408  0.1977
 4205SOL     OW24073   3.492   2.310  12.298 -0.6919  0.0421  0.4757
 4205SOL    HW124074   3.398   2.312  12.278 -0.7756  2.2653  1.0844
 4205SOL    HW224075   3.490   2.358  12.381  0.1458  1.4461 -0.3129
 4206SOL     OW24076   0.747   0.652   4.756  0.0999  0.2638  0.0258
 4206SOL    HW124077   0.797   0.572   4.774 -0.5386  0.4447  2.5159
 4206SOL    HW224078   0.773   0.707   4.830  0.0279 -0.7771  0.8258
 4207SOL     OW24079   0.056   0.210   6.792 -0.2390  0.2976  0.4642
 4207SOL    HW124080   0.033   0.289   6.743  0.0920  1.3236  1.9515
 4207SOL    HW224081   0.151   0.215   6.787 -0.2599  0.6029  0.3847
 4208SOL     OW24082   4.601   2.744   2.904  0.0903  0.8921 -0.5451
 4208SOL    HW124083   4.506   2.748   2.908  0.1723  1.4201  1.3082
 4208SOL    HW224084   4.609   2.648   2.904  0.9171  0.9498  0.8222
 4209SOL     OW24085   0.347   4.119   5.058  0.0294 -0.6544 -0.0423
 4209SOL    HW124086   0.275   4.148   5.113 -0.1973 -0.9316 -0.1933
 4209SOL    HW224087   0.418   4.179   5.082 -1.2591  0.2542  1.4639
 4210SOL     OW24088   3.158   1.710   4.091  1.0180  0.5580  0.0839
 4210SOL    HW124089   3.137   1.731   4.000 -0.3011 -1.9703 -0.2099
 4210SOL    HW224090   3.221   1.639   4.080  1.0344  0.6419 -0.3553
 4211SOL     OW24091   1.243   3.027   3.762  0.1626  0.2521 -0.8174
 4211SOL    HW124092   1.265   3.018   3.669  1.4400 -0.7078 -0.4277
 4211SOL    HW224093   1.270   2.944   3.801 -1.5324  0.4067  0.6714
 4212SOL     OW24094   4.074   0.835  16.565 -0.2892  0.4803 -0.3624
 4212SOL    HW124095   4.100   0.769  16.501 -0.2042  0.1165  0.0500
 4212SOL    HW224096   3.986   0.807  16.591  0.0701  0.2909  0.6512
 4213SOL     OW24097   1.347   1.105   6.191 -0.3643  0.2243 -0.1855
 4213SOL    HW124098   1.340   1.147   6.105 -2.1893 -0.7835 -0.5148
 4213SOL    HW224099   1.402   1.167   6.239 -1.2891  3.0793 -2.8352
 4214SOL     OW24100   2.627   3.548   2.764  0.6475 -0.2044  0.6237
 4214SOL    HW124101   2.672   3.632   2.757 -0.3450  0.1971 -0.9199
 4214SOL    HW224102   2.538   3.555   2.730  1.4834  0.9004 -1.3505
 4215SOL     OW24103   2.174   0.314   2.368  0.0194 -0.6745 -0.2139
 4215SOL    HW124104   2.119   0.332   2.445 -1.3344  0.6428 -1.4939
 4215SOL    HW224105   2.224   0.241   2.405  2.3995  0.5126 -1.0266
 4216SOL     OW24106   2.219   0.660   7.053  0.0720  0.2494  0.3255
 4216SOL    HW124107   2.274   0.708   7.115  0.3324 -0.1070  0.3666
 4216SOL    HW224108   2.165   0.603   7.108  0.3601 -1.5316 -1.2553
 4217SOL     OW24109   4.657   3.503   4.461  0.1203  0.1066  0.2897
 4217SOL    HW124110   4.689   3.528   4.374 -1.2803 -0.1440 -0.3061
 4217SOL    HW224111   4.597   3.573   4.486  0.7593  1.8040 -3.0407
 4218SOL     OW24112   0.944   3.967  16.667  0.0310 -0.0949 -0.2638
 4218SOL    HW124113   0.944   4.059  16.694 -0.8375  0.5341 -2.4336
 4218SOL    HW224114   0.983   3.978  16.580  0.6826  3.6762  0.4836
 4219SOL     OW24115   1.542   0.279  16.465  0.4060  0.2645  0.5008
 4219SOL    HW124116   1.578   0.323  16.388 -0.8288  0.9830  0.3336
 4219SOL    HW224117   1.448   0.277  16.450  0.6325 -0.3592 -0.8993
 4220SOL     OW24118   1.319   4.097   8.151 -0.4717  0.2865  0.5601
 4220SOL    HW124119   1.287   4.175   8.196 -1.4396  0.1043  0.1868
 4220SOL    HW224120   1.241   4.043   8.136 -1.5114  1.7240  0.8374
 4221SOL     OW24121   0.531   2.340  10.735  0.0779 -0.0004  0.3086
 4221SOL    HW124122   0.533   2.405  10.665  0.2851 -0.3914 -0.0544
 4221SOL    HW224123   0.514   2.257  10.690  2.7396  0.2019 -1.1098
 4222SOL     OW24124   3.015   0.142   5.779  0.3048  0.5297  0.4571
 4222SOL    HW124125   2.986   0.212   5.837  1.8901  1.0656  0.5910
 4222SOL    HW224126   3.088   0.191   5.741  0.5865 -2.7165 -3.2916
 4223SOL     OW24127   3.606   1.182   4.682  0.1445 -0.0223 -0.4005
 4223SOL    HW124128   3.637   1.146   4.598 -0.3869  1.4408 -1.2152
 4223SOL    HW224129   3.600   1.098   4.727  0.2867 -0.9182 -2.0460
 4224SOL     OW24130   3.227   1.220  11.292  0.1106 -0.5516 -0.4697
 4224SOL    HW124131   3.297   1.188  11.235 -0.2630 -0.8361 -0.7652
 4224SOL    HW224132   3.169   1.254  11.224  0.2679  0.5503 -0.0558
 4225SOL     OW24133   2.013   2.359   7.062 -1.2214 -0.8198 -0.0655
 4225SOL    HW124134   2.060   2.323   7.137 -1.1023 -1.0239 -0.2388
 4225SOL    HW224135   1.928   2.361   7.106 -0.6924 -1.2037  0.9766
 4226SOL     OW24136   2.441   1.806   0.842  0.2647  0.2693  0.5283
 4226SOL    HW124137   2.484   1.853   0.771  2.2862 -1.4827  0.6051
 4226SOL    HW224138   2.472   1.716   0.837  0.2875  0.3145 -0.1619
 4227SOL     OW24139   3.321   1.953   7.006  0.3604 -0.0595  0.5139
 4227SOL    HW124140   3.323   1.888   6.936 -1.9046  1.2651 -0.7968
 4227SOL    HW224141   3.295   2.034   6.960  1.2969 -1.0963 -1.8374
 4228SOL     OW24142   1.445   2.614   8.137  0.0763  0.0852 -0.8598
 4228SOL    HW124143   1.522   2.666   8.156  1.1035 -1.6199 -0.3915
 4228SOL    HW224144   1.458   2.536   8.191 -0.1598  0.5608 -0.1100
 4229SOL     OW24145   4.185   2.995   5.318 -0.1387 -0.0385  0.7580
 4229SOL    HW124146   4.160   2.903   5.315  0.4201 -0.1939  0.7746
 4229SOL    HW224147   4.266   2.987   5.370  1.5662 -0.8628 -2.0648
 4230SOL     OW24148   2.993   4.446   1.322 -0.1270 -0.4097 -0.4062
 4230SOL    HW124149   3.061   4.492   1.272 -0.7087  0.2676 -0.5706
 4230SOL    HW224150   2.992   4.365   1.270  0.7998 -0.7190  0.0543
 4231SOL     OW24151   2.544   3.415   4.607  0.0585  0.0754  0.1528
 4231SOL    HW124152   2.482   3.407   4.534 -1.1773 -1.3463  1.3613
 4231SOL    HW224153   2.626   3.443   4.567 -1.1401  0.2913 -2.1429
 4232SOL     OW24154   4.616   1.756   4.557 -0.1320 -0.1262  0.1734
 4232SOL    HW124155   4.554   1.736   4.627 -0.9189  0.8952 -0.2381
 4232SOL    HW224156   4.564   1.748   4.477 -0.0577  2.3758 -0.1546
 4233SOL     OW24157   1.319   1.198   5.026  0.6959 -0.2927 -0.9224
 4233SOL    HW124158   1.282   1.213   5.113  0.1734  0.0975 -1.2096
 4233SOL    HW224159   1.282   1.113   5.003  0.1304 -0.1672 -0.5072
 4234SOL     OW24160   3.933   3.911   2.327 -0.5601 -0.6338 -0.2543
 4234SOL    HW124161   3.888   3.881   2.405 -0.2654  0.0403  0.1730
 4234SOL    HW224162   3.930   3.835   2.268  0.0479 -0.9460  0.1182
 4235SOL     OW24163   1.189   3.518   2.842 -0.4595 -0.0926  0.1422
 4235SOL    HW124164   1.110   3.537   2.894 -0.2571 -1.5860  1.0071
 4235SOL    HW224165   1.247   3.593   2.852  0.0181 -0.6824  1.9686
 4236SOL     OW24166   2.575   2.449   1.668 -0.6694 -0.4567 -0.0610
 4236SOL    HW124167   2.637   2.422   1.736 -0.3403  1.9478  0.5640
 4236SOL    HW224168   2.559   2.368   1.619 -0.2982 -1.1471  0.9487
 4237SOL     OW24169   3.919   3.679  17.273 -0.0835  0.1097 -0.6159
 4237SOL    HW124170   3.984   3.749  17.279  1.4192 -1.2141 -1.5591
 4237SOL    HW224171   3.966   3.605  17.234  0.7158 -0.1485  0.8474
 4238SOL     OW24172   2.261   0.485  12.611  0.0546  0.2568 -0.0885
 4238SOL    HW124173   2.216   0.407  12.578 -1.0578  0.3275  1.2976
 4238SOL    HW224174   2.267   0.534  12.529 -2.9305 -2.1427 -1.7500
 4239SOL     OW24175   2.884   0.023   6.891 -0.6560 -0.1268  0.1017
 4239SOL    HW124176   2.895   0.015   6.985 -1.7434 -1.0096  0.1694
 4239SOL    HW224177   2.841   4.661   6.869  1.0283 -0.6778 -1.0787
 4240SOL     OW24178   2.578   2.565   4.304 -0.4269 -0.2355 -0.2902
 4240SOL    HW124179   2.560   2.658   4.321  0.6409  0.2806 -1.9570
 4240SOL    HW224180   2.663   2.577   4.262  0.0504 -1.3910  0.3323
 4241SOL     OW24181   4.568   1.048  16.133 -0.6782 -0.6919 -0.1068
 4241SOL    HW124182   4.651   1.069  16.091 -0.9478 -0.7335 -0.6662
 4241SOL    HW224183   4.614   1.013  16.210  0.7021 -0.8308 -1.0007
 4242SOL     OW24184   0.092   0.345   3.763 -0.1073  0.0588  0.1934
 4242SOL    HW124185   0.156   0.341   3.835 -0.2167  0.1966  0.2997
 4242SOL    HW224186   0.109   0.264   3.715  1.0676  2.2624 -3.1158
 4243SOL     OW24187   3.870   3.499   2.487 -0.1709  0.0684 -0.4285
 4243SOL    HW124188   3.856   3.594   2.488  0.7508  0.2106 -1.2694
 4243SOL    HW224189   3.781   3.466   2.475 -0.1660 -0.8180  1.9122
 4244SOL     OW24190   4.691   0.087   5.869 -0.7031 -0.4314  0.2999
 4244SOL    HW124191   0.041   0.140   5.905  0.5305 -2.8407  1.4348
 4244SOL    HW224192   0.005   4.719   5.877  1.4781  0.4946  1.1151
 4245SOL     OW24193   1.515   3.628  16.069 -0.1064  0.1477 -0.6197
 4245SOL    HW124194   1.460   3.692  16.022 -1.8276 -0.8897 -0.0111
 4245SOL    HW224195   1.598   3.666  16.041  0.3079  1.3051  2.1617
 4246SOL     OW24196   1.066   1.256   2.849 -0.1066 -0.3173  0.5058
 4246SOL    HW124197   1.074   1.285   2.939  1.3003  1.0365 -0.0582
 4246SOL    HW224198   1.036   1.167   2.867  2.1852 -1.3412 -0.7487
 4247SOL     OW24199   2.961   0.250   2.336  0.1157 -0.1336  0.1863
 4247SOL    HW124200   2.932   0.251   2.244  0.5443 -2.5175  0.0196
 4247SOL    HW224201   3.046   0.206   2.328 -0.5944 -2.0088  3.1848
 4248SOL     OW24202   1.244   1.538  10.527 -0.0331 -0.2436 -0.1006
 4248SOL    HW124203   1.302   1.517  10.454 -1.5425  1.2029 -1.6953
 4248SOL    HW224204   1.253   1.633  10.536 -0.0637 -0.2768  0.2950
 4249SOL     OW24205   3.065   3.181   8.854  0.1645 -0.4816 -0.6071
 4249SOL    HW124206   3.091   3.090   8.838 -2.1267 -1.3625  0.6610
 4249SOL    HW224207   2.971   3.170   8.840  0.0075 -1.0657  0.8068
 4250SOL     OW24208   1.069   3.935   8.249 -0.0097 -0.5158  0.3100
 4250SOL    HW124209   0.990   3.906   8.203 -0.3484  0.2085  0.4316
 4250SOL    HW224210   1.019   3.985   8.314 -0.8077  1.3873 -1.7836
 4251SOL     OW24211   3.600   1.798   2.244  0.0242 -0.2404 -0.3220
 4251SOL    HW124212   3.559   1.802   2.158  0.9734  0.7045 -0.7279
 4251SOL    HW224213   3.590   1.889   2.273  2.1712  0.3633 -1.5184
 4252SOL     OW24214   3.417   3.067   7.807 -0.6293  0.2309  0.4526
 4252SOL    HW124215   3.359   2.997   7.776 -0.5148  0.1071  0.5145
 4252SOL    HW224216   3.387   3.132   7.744 -0.2451 -1.4223 -1.4614
 4253SOL     OW24217   3.256   3.902   2.676  0.7930 -0.0117 -0.9592
 4253SOL    HW124218   3.223   3.985   2.709 -0.0405 -1.3615  1.6148
 4253SOL    HW224219   3.177   3.856   2.646  0.8669 -0.4296 -0.5052
 4254SOL     OW24220   0.858   4.023   3.344 -0.4440  0.0074  0.5390
 4254SOL    HW124221   0.823   3.966   3.412  0.8620 -0.5272  0.7659
 4254SOL    HW224222   0.812   3.988   3.267 -1.9307  0.3583  1.2610
 4255SOL     OW24223   1.041   3.314  16.455 -0.5901 -0.1539 -0.4835
 4255SOL    HW124224   1.059   3.261  16.377 -1.9785 -1.4709  0.0921
 4255SOL    HW224225   1.126   3.316  16.498 -0.2735  1.4894 -1.1811
 4256SOL     OW24226   1.350   2.831   2.887 -0.1853 -0.2317  0.0465
 4256SOL    HW124227   1.369   2.896   2.820  2.3705 -2.1025 -1.0570
 4256SOL    HW224228   1.299   2.771   2.831  3.7358 -3.0744 -0.4393
 4257SOL     OW24229   1.710   1.598   2.675 -0.6814 -0.6356  0.4197
 4257SOL    HW124230   1.775   1.640   2.732  0.4563  0.7238 -1.9115
 4257SOL    HW224231   1.656   1.676   2.668  0.4937 -0.0168 -1.6245
 4258SOL     OW24232   0.608   3.036   3.985  0.8479 -0.0135  0.0398
 4258SOL    HW124233   0.526   3.060   4.028  0.8040  1.7893 -1.0366
 4258SOL    HW224234   0.658   3.117   3.997 -0.1321  1.0373 -3.0803
 4259SOL     OW24235   0.377   4.621  12.945 -0.2036  0.1127  0.1698
 4259SOL    HW124236   0.361   4.706  12.904 -0.2107  0.4201  0.8095
 4259SOL    HW224237   0.323   4.633  13.023  2.1963  0.9338  1.7380
 4260SOL     OW24238   0.913   0.057   8.203  0.0869  1.0630  0.5650
 4260SOL    HW124239   0.987   0.008   8.170 -0.8015  0.2703 -0.2302
 4260SOL    HW224240   0.924   0.062   8.298 -1.0032 -0.1771  0.7566
 4261SOL     OW24241   4.427   3.049   6.595  0.0677  0.0619  0.5006
 4261SOL    HW124242   4.470   2.964   6.583 -1.6583 -0.9145  1.3488
 4261SOL    HW224243   4.337   3.018   6.584 -0.4829  2.4983 -1.7207
 4262SOL     OW24244   2.348   4.460  13.738  0.1840 -0.1386  0.1761
 4262SOL    HW124245   2.362   4.400  13.812 -0.6165 -1.2508 -0.5934
 4262SOL    HW224246   2.335   4.544  13.784  0.2196  0.1958 -0.4300
 4263SOL     OW24247   2.493   3.023   3.191  0.4601  0.3393  0.4868
 4263SOL    HW124248   2.427   2.989   3.251  0.8974  0.0241  0.7885
 4263SOL    HW224249   2.459   3.109   3.167 -2.0513 -1.0374 -0.8481
 4264SOL     OW24250   0.825   2.285   5.808 -0.3389 -0.3006  0.3476
 4264SOL    HW124251   0.756   2.349   5.788 -0.7138 -0.7091  0.3200
 4264SOL    HW224252   0.822   2.283   5.903 -0.3895  2.0297  0.3991
 4265SOL     OW24253   0.949   1.781   7.984 -0.0719  0.3542  0.2595
 4265SOL    HW124254   0.977   1.711   8.043 -0.3010  0.4434  0.4746
 4265SOL    HW224255   1.039   1.803   7.959 -0.7491  0.0624 -2.4181
 4266SOL     OW24256   1.117   2.538   7.270 -0.2784 -0.5940 -0.3665
 4266SOL    HW124257   1.167   2.529   7.189  0.4206 -1.7949  0.2108
 4266SOL    HW224258   1.103   2.444   7.273 -0.1683 -0.5966  0.0609
 4267SOL     OW24259   2.885   3.079   7.298  0.3057 -0.4096 -0.8808
 4267SOL    HW124260   2.960   3.120   7.343  0.7965 -1.8577 -0.3857
 4267SOL    HW224261   2.918   2.994   7.270  0.1771 -0.7165 -0.1075
 4268SOL     OW24262   3.311   0.308   2.147  0.0111  0.1904 -0.6676
 4268SOL    HW124263   3.305   0.392   2.100  1.5278  0.2118 -0.8118
 4268SOL    HW224264   3.367   0.322   2.223  0.6564  0.2864 -1.1610
 4269SOL     OW24265   0.166   0.116   5.053 -0.4159 -0.1653  0.4239
 4269SOL    HW124266   0.152   0.025   5.025 -2.2668  0.5806 -1.0599
 4269SOL    HW224267   0.176   0.098   5.146 -2.4606 -1.0541  0.4679
 4270SOL     OW24268   2.716   3.500   5.791 -0.1260  0.2221  0.5775
 4270SOL    HW124269   2.687   3.418   5.830  1.8219 -0.3187  0.8811
 4270SOL    HW224270   2.749   3.539   5.872 -0.5923  0.1933  0.7782
 4271SOL     OW24271   0.036   2.578   5.167  0.0529 -0.1589 -0.4213
 4271SOL    HW124272   0.051   2.497   5.217  0.1740  1.3469  1.9692
 4271SOL    HW224273   0.007   2.534   5.087 -0.0160  1.0476 -1.0510
 4272SOL     OW24274   2.734   1.969  11.725 -0.2190  0.4414 -0.0035
 4272SOL    HW124275   2.776   1.894  11.682 -0.3018  1.0964 -1.2315
 4272SOL    HW224276   2.655   1.975  11.671 -0.0974 -1.1627 -0.3672
 4273SOL     OW24277   2.485   0.664   6.556 -0.2689  0.0582  0.4880
 4273SOL    HW124278   2.479   0.720   6.634 -1.1234 -1.8896  1.8052
 4273SOL    HW224279   2.541   0.595   6.593  0.2655 -0.1065 -0.6284
 4274SOL     OW24280   4.652   1.223   7.223  0.4502  0.6235 -1.0838
 4274SOL    HW124281   4.720   1.243   7.159 -0.3959  1.0214 -1.8653
 4274SOL    HW224282   4.571   1.240   7.175  1.0380  0.7608 -2.0344
 4275SOL     OW24283   1.952   4.097   4.443  0.3631 -0.2250 -0.0076
 4275SOL    HW124284   1.921   4.103   4.534  1.5237  4.0430  0.0880
 4275SOL    HW224285   2.007   4.020   4.457  3.0454  1.8325  0.8506
 4276SOL     OW24286   1.040   2.187  15.963 -0.2655 -0.1802 -0.1461
 4276SOL    HW124287   0.979   2.223  15.899  0.4599 -0.1643 -0.8325
 4276SOL    HW224288   0.979   2.187  16.037  2.2500 -0.7630  1.9297
 4277SOL     OW24289   2.753   4.665  14.714 -0.2805  0.0988  0.4986
 4277SOL    HW124290   2.662   4.647  14.738 -0.4390 -0.5743 -0.5868
 4277SOL    HW224291   2.786   0.002  14.783  0.2777 -0.4425  0.6887
 4278SOL     OW24292   0.142   0.526  10.056  0.2056 -0.2172 -0.4044
 4278SOL    HW124293   0.145   0.524  10.152  0.8965  1.5211 -0.3832
 4278SOL    HW224294   0.050   0.536  10.031 -0.1460  0.4533  1.1520
 4279SOL     OW24295   3.551   2.133   8.409  0.5361 -0.7337  0.4128
 4279SOL    HW124296   3.598   2.162   8.331  1.8633 -3.5524  0.1782
 4279SOL    HW224297   3.539   2.040   8.390  1.6066 -0.0666 -3.6598
 4280SOL     OW24298   0.278   2.662   4.497 -0.3100 -0.1856  0.2555
 4280SOL    HW124299   0.347   2.680   4.560 -1.2964  0.5037  1.1333
 4280SOL    HW224300   0.245   2.574   4.514 -0.2974 -0.4724 -1.2020
 4281SOL     OW24301   2.107   3.464   6.239  0.1305 -0.3517  0.0436
 4281SOL    HW124302   2.190   3.424   6.216  0.7795  1.3199 -0.5404
 4281SOL    HW224303   2.136   3.548   6.275 -1.3393  1.1991 -2.4042
 4282SOL     OW24304   3.769   2.747   3.580 -0.2021  0.0580 -0.5014
 4282SOL    HW124305   3.854   2.713   3.606  0.0480 -0.0234 -1.4281
 4282SOL    HW224306   3.727   2.744   3.666 -1.4413  1.7017 -1.0396
 4283SOL     OW24307   2.477   3.820  12.057 -0.0100  0.0280  0.1790
 4283SOL    HW124308   2.561   3.794  12.020 -0.0251 -0.0128  0.1736
 4283SOL    HW224309   2.427   3.846  11.980  0.0034 -0.3803  0.0343
 4284SOL     OW24310   1.022   0.965   8.376 -0.0397  0.0884 -0.1590
 4284SOL    HW124311   1.002   1.034   8.439  0.1992 -0.0365  0.0547
 4284SOL    HW224312   1.118   0.960   8.383  0.1393  1.9736 -0.9494
 4285SOL     OW24313   1.597   4.178  15.805 -0.0313 -0.5692 -0.2111
 4285SOL    HW124314   1.592   4.268  15.772 -3.8808 -0.7901 -0.1779
 4285SOL    HW224315   1.656   4.136  15.742  1.9825 -0.0030  1.3133
 4286SOL     OW24316   2.624   3.857  10.656  0.0064  0.5150 -0.0830
 4286SOL    HW124317   2.605   3.878  10.564  0.1771 -0.2369 -0.2855
 4286SOL    HW224318   2.629   3.944  10.697 -2.4265 -0.1792  1.6215
 4287SOL     OW24319   2.077   0.021   5.703  0.2419  0.1736 -0.6847
 4287SOL    HW124320   2.084   4.647   5.705 -1.1043  0.0898  0.0645
 4287SOL    HW224321   2.065   0.031   5.609  2.1897  1.8786 -0.7499
 4288SOL     OW24322   2.325   2.465   8.354 -0.2281 -0.4489  0.3205
 4288SOL    HW124323   2.259   2.475   8.286  1.9343  0.1608 -1.7102
 4288SOL    HW224324   2.349   2.557   8.365 -2.4259  0.0511  0.7993
 4289SOL     OW24325   3.396   3.062   6.096  0.3105 -0.2444 -0.1173
 4289SOL    HW124326   3.300   3.053   6.092  0.2400  0.1533  0.6310
 4289SOL    HW224327   3.403   3.158   6.097 -1.6277 -0.0906 -0.2082
 4290SOL     OW24328   3.302   3.594   4.411 -0.3484  0.1696  0.0078
 4290SOL    HW124329   3.353   3.583   4.331 -0.0229  0.5815  0.1532
 4290SOL    HW224330   3.290   3.689   4.416 -0.7044  0.1722 -0.9378
 4291SOL     OW24331   3.809   2.821   8.437  0.4287  0.0626 -0.2967
 4291SOL    HW124332   3.728   2.773   8.455  1.0495 -1.2105 -0.8826
 4291SOL    HW224333   3.853   2.737   8.422  0.0160 -0.3190  0.6727
 4292SOL     OW24334   4.662   1.842  11.046 -0.4367  0.2322  0.0890
 4292SOL    HW124335   0.012   1.905  11.062 -1.4278  1.0787  1.1693
 4292SOL    HW224336   4.691   1.801  10.965  0.3807  1.7250 -0.3765
 4293SOL     OW24337   2.223   1.779   0.021 -0.1369 -0.1644  0.3747
 4293SOL    HW124338   2.149   1.839   0.022  0.1161  0.1915 -2.0619
 4293SOL    HW224339   2.232   1.771   0.116  0.6425  2.6332  0.5500
 4294SOL     OW24340   3.544   0.440   7.642 -0.3804 -0.1847 -0.1747
 4294SOL    HW124341   3.456   0.462   7.611  1.1501  2.5776 -2.5839
 4294SOL    HW224342   3.568   0.530   7.664 -0.6619 -0.4823  1.3276
 4295SOL     OW24343   0.320   4.286  11.024  0.5873 -0.0953  0.1708
 4295SOL    HW124344   0.385   4.319  10.963  2.7878 -0.9063  2.0888
 4295SOL    HW224345   0.261   4.249  10.958  1.6502 -1.2856 -0.0981
 4296SOL     OW24346   1.805   2.017   2.607  0.4665  0.1311 -0.3399
 4296SOL    HW124347   1.740   1.949   2.626  0.4519  0.1783 -0.2194
 4296SOL    HW224348   1.825   2.045   2.697 -0.4423 -1.3625  0.3245
 4297SOL     OW24349   3.551   2.630   5.861 -0.4824  0.4871 -0.7766
 4297SOL    HW124350   3.544   2.722   5.834  0.2590  0.6958 -0.2607
 4297SOL    HW224351   3.478   2.626   5.922 -0.8010 -4.5481 -1.5710
 4298SOL     OW24352   3.799   3.829   0.229  0.6750 -0.2527 -0.1992
 4298SOL    HW124353   3.809   3.806   0.136 -0.4147 -0.6560 -0.2098
 4298SOL    HW224354   3.745   3.757   0.261 -0.3941  0.7934  0.3496
 4299SOL     OW24355   2.665   0.305   4.305 -0.5551  0.3341  0.5923
 4299SOL    HW124356   2.671   0.310   4.400  0.9044 -1.5009  0.5841
 4299SOL    HW224357   2.631   0.394   4.294 -2.1259 -0.5103 -1.3633
 4300SOL     OW24358   3.312   1.035   9.704 -0.3132  0.3750  0.4859
 4300SOL    HW124359   3.319   1.073   9.617 -0.2401  2.9455  1.6286
 4300SOL    HW224360   3.351   0.948   9.692 -0.7538  0.3573 -0.8612
 4301SOL     OW24361   4.244   4.305   5.113  0.7049  0.0335 -0.3836
 4301SOL    HW124362   4.196   4.365   5.058  0.4870 -0.1862 -0.4327
 4301SOL    HW224363   4.196   4.321   5.194  2.0839  1.7647  0.0942
 4302SOL     OW24364   0.913   0.383   5.205  0.2876 -0.8596  0.4509
 4302SOL    HW124365   0.966   0.303   5.198 -0.7753 -1.5715  0.6189
 4302SOL    HW224366   0.889   0.382   5.297 -0.5809 -0.4470  0.2243
 4303SOL     OW24367   2.426   3.113   9.504 -0.0423 -0.4710  0.1569
 4303SOL    HW124368   2.436   3.130   9.410  1.5145  2.3348  0.8538
 4303SOL    HW224369   2.473   3.186   9.545 -2.7852  0.5878  1.4075
 4304SOL     OW24370   2.076   4.285   6.859 -0.8151 -0.2544  0.2700
 4304SOL    HW124371   1.988   4.261   6.887 -0.7009 -1.2810 -0.2665
 4304SOL    HW224372   2.135   4.256   6.929 -0.7499 -0.8038 -0.0157
 4305SOL     OW24373   1.228   3.817   3.758  0.1988 -0.2075  0.1761
 4305SOL    HW124374   1.316   3.826   3.722  0.2644 -0.3787  0.2901
 4305SOL    HW224375   1.232   3.899   3.806  1.5919 -0.7950  1.0662
 4306SOL     OW24376   4.371   1.682   6.220  0.1360  0.1495  0.1920
 4306SOL    HW124377   4.427   1.668   6.297 -1.1792  0.7394  1.2566
 4306SOL    HW224378   4.406   1.767   6.194  0.6972 -0.3444 -0.6790
 4307SOL     OW24379   3.903   1.862  16.534 -0.3068  0.1751  0.0247
 4307SOL    HW124380   3.989   1.823  16.519  0.3270  1.0961  1.2346
 4307SOL    HW224381   3.911   1.876  16.628 -0.9822 -3.1799  0.5498
 4308SOL     OW24382   0.419   0.630   3.664  0.1971  0.5847 -0.0040
 4308SOL    HW124383   0.502   0.610   3.708  1.1716  1.9688 -1.2114
 4308SOL    HW224384   0.459   0.662   3.584  0.5789  0.1821  0.0272
 4309SOL     OW24385   1.410   3.363   9.236 -0.4571 -0.5344 -0.9583
 4309SOL    HW124386   1.378   3.369   9.146 -0.6901  0.3038 -0.8231
 4309SOL    HW224387   1.482   3.304   9.213 -1.7655 -2.5405  0.0981
 4310SOL     OW24388   2.656   0.205   8.567 -0.0170  0.2316  0.4207
 4310SOL    HW124389   2.663   0.157   8.649  1.3373  0.3635  0.3702
 4310SOL    HW224390   2.728   0.158   8.526 -0.6544  0.9064 -1.4613
 4311SOL     OW24391   2.329   3.853  15.415 -0.0413  0.5242 -0.1378
 4311SOL    HW124392   2.238   3.880  15.408 -0.5194 -0.8902  0.6922
 4311SOL    HW224393   2.334   3.810  15.330  2.3264 -0.9051  0.7046
 4312SOL     OW24394   3.621   3.358   6.129  0.2590 -0.5716 -0.4017
 4312SOL    HW124395   3.574   3.428   6.175  2.5729  0.8766 -0.2072
 4312SOL    HW224396   3.614   3.396   6.041 -0.2058 -0.3076 -0.2512
 4313SOL     OW24397   4.433   2.633   3.725  0.1326 -0.4606  0.1142
 4313SOL    HW124398   4.449   2.608   3.634 -0.6930  0.1040 -0.1851
 4313SOL    HW224399   4.345   2.602   3.744  0.0275  0.7508  1.5632
 4314SOL     OW24400   2.961   2.688   7.239  0.2762  0.2463 -0.5808
 4314SOL    HW124401   2.956   2.652   7.327 -1.5897  2.3282  0.1505
 4314SOL    HW224402   3.052   2.674   7.213  1.1481  1.5326  1.7448
 4315SOL     OW24403   2.065   2.265   7.325  0.2227 -0.0616 -0.2988
 4315SOL    HW124404   2.065   2.210   7.403  2.8625  0.3410 -0.0007
 4315SOL    HW224405   1.976   2.256   7.293  0.1800  0.5901 -0.3646
 4316SOL     OW24406   1.214   3.579   4.750  0.5034  0.0797  0.1105
 4316SOL    HW124407   1.222   3.586   4.845 -1.9002  0.3171  0.3051
 4316SOL    HW224408   1.165   3.659   4.731 -0.9627 -0.8361  0.0658
 4317SOL     OW24409   4.502   3.388  17.114  0.1491  0.5672  0.4059
 4317SOL    HW124410   4.513   3.398  17.019 -0.1229 -4.6482 -0.1405
 4317SOL    HW224411   4.483   3.481  17.130 -1.1225  0.4998 -0.6297
 4318SOL     OW24412   2.974   3.515   5.658 -0.1416  0.1472 -0.7100
 4318SOL    HW124413   2.882   3.518   5.685  0.2564 -1.5329  0.8812
 4318SOL    HW224414   2.962   3.426   5.626  0.1989  0.3543 -1.4035
 4319SOL     OW24415   3.972   3.045   7.249  0.1117  0.3104  0.5131
 4319SOL    HW124416   3.996   2.985   7.178  1.3021 -0.3407  1.4746
 4319SOL    HW224417   4.000   3.124   7.204 -2.3287 -0.0121 -1.5422
 4320SOL     OW24418   3.643   3.434   8.534  0.4537 -1.0764  0.5756
 4320SOL    HW124419   3.618   3.514   8.488 -0.7255 -2.0831 -0.5159
 4320SOL    HW224420   3.731   3.420   8.498  0.9005  0.4993  1.0539
 4321SOL     OW24421   2.317   3.065   7.629 -0.2305 -0.4719  0.0328
 4321SOL    HW124422   2.377   3.037   7.697  2.4011  0.8433 -1.7485
 4321SOL    HW224423   2.229   3.041   7.658 -0.2029  1.3006  1.5415
 4322SOL     OW24424   3.689   0.524   6.724  0.3773  0.0325 -0.3231
 4322SOL    HW124425   3.735   0.534   6.640  1.0826 -0.9733 -0.0490
 4322SOL    HW224426   3.634   0.446   6.714 -0.9084  0.7251  1.3493
 4323SOL     OW24427   4.454   0.162   8.997  0.2163 -0.0939 -0.2864
 4323SOL    HW124428   4.451   0.080   9.048  0.3388  0.1983  0.1921
 4323SOL    HW224429   4.462   0.223   9.071  2.3036  1.8941 -2.1679
 4324SOL     OW24430   0.018   2.626   4.171  0.2158  0.3942  0.1316
 4324SOL    HW124431   4.648   2.608   4.195  0.5264  0.4487  1.3666
 4324SOL    HW224432   0.004   2.654   4.081  1.8792 -0.7013 -0.4738
 4325SOL     OW24433   4.622   0.070   5.378 -0.0152  0.6444  0.4862
 4325SOL    HW124434   4.597   4.711   5.424 -0.3817  0.0725 -0.7353
 4325SOL    HW224435   4.544   0.124   5.367 -0.1474  0.2546 -0.4826
 4326SOL     OW24436   0.470   1.389   3.286  0.0466  0.4080  0.1825
 4326SOL    HW124437   0.469   1.425   3.375  0.1709  2.1668 -0.5171
 4326SOL    HW224438   0.466   1.296   3.307 -1.6488  0.6289  0.8886
 4327SOL     OW24439   4.194   0.918   1.004 -0.3899  0.0310  0.2489
 4327SOL    HW124440   4.240   0.899   0.922 -0.1289 -0.4262  0.5032
 4327SOL    HW224441   4.131   0.847   1.000 -0.6509  0.0858  3.9302
 4328SOL     OW24442   1.323   3.827   0.819 -0.7269 -0.1732 -0.4427
 4328SOL    HW124443   1.388   3.794   0.881  1.3631  1.6101 -1.6715
 4328SOL    HW224444   1.309   3.749   0.765  0.5359  0.2710 -1.4118
 4329SOL     OW24445   1.433   3.583   3.475  0.0274  0.9002  0.0208
 4329SOL    HW124446   1.460   3.674   3.461  2.0374  0.4348  0.8097
 4329SOL    HW224447   1.495   3.534   3.421  2.0237  0.1597  2.9376
 4330SOL     OW24448   0.519   1.884  13.166 -0.5228 -0.7452  0.2735
 4330SOL    HW124449   0.600   1.921  13.203  0.4174 -0.7066 -1.8274
 4330SOL    HW224450   0.473   1.966  13.153 -0.0615 -0.6149 -0.5345
 4331SOL     OW24451   2.314   3.993   6.388 -0.2657 -0.1816  0.0493
 4331SOL    HW124452   2.361   4.040   6.319  1.6131  1.0066  2.1299
 4331SOL    HW224453   2.252   4.061   6.414  1.0133  1.0133 -0.0393
 4332SOL     OW24454   3.891   0.772  15.136 -0.5719  0.2524  0.4052
 4332SOL    HW124455   3.849   0.767  15.050 -1.1148  0.4290  0.6604
 4332SOL    HW224456   3.867   0.860  15.165 -1.8219 -0.1621  0.6462
 4333SOL     OW24457   3.498   0.377   2.373  0.1705 -0.0355  0.1234
 4333SOL    HW124458   3.575   0.322   2.359 -0.8486 -1.5903  0.6708
 4333SOL    HW224459   3.534   0.459   2.407  1.1283  0.0320 -1.0772
 4334SOL     OW24460   0.644   3.750   5.002 -0.1782 -0.0329 -0.0334
 4334SOL    HW124461   0.653   3.819   5.068  2.5510 -1.2910  0.8783
 4334SOL    HW224462   0.550   3.731   5.005  0.3348 -2.6877 -0.6087
 4335SOL     OW24463   1.888   2.062   2.873  0.1363  0.2948  0.5457
 4335SOL    HW124464   1.852   2.090   2.957  1.5828 -1.9696  1.9291
 4335SOL    HW224465   1.963   2.121   2.871 -1.0790  1.7848 -1.0704
 4336SOL     OW24466   2.512   2.948   5.762 -0.6059  0.3558  0.4071
 4336SOL    HW124467   2.541   2.929   5.851 -0.3756  2.1244  0.7036
 4336SOL    HW224468   2.550   2.883   5.703 -2.0077 -0.3902  0.3267
 4337SOL     OW24469   0.147   1.963  10.716  0.6637 -0.7330  0.1020
 4337SOL    HW124470   0.172   2.014  10.640  1.1812 -0.7473  0.2643
 4337SOL    HW224471   0.070   2.012  10.746  1.3772  0.2794  0.2571
 4338SOL     OW24472   1.940   0.896   2.589 -0.2787  0.1424 -0.5103
 4338SOL    HW124473   1.970   0.962   2.526  1.8717 -0.8096 -0.4740
 4338SOL    HW224474   1.945   0.810   2.548 -0.6024  0.8499 -2.0522
 4339SOL     OW24475   3.525   2.270  14.836  0.3762  0.2914 -0.5413
 4339SOL    HW124476   3.521   2.351  14.785 -0.5507  1.5859  1.5704
 4339SOL    HW224477   3.608   2.233  14.807  0.0954  0.2207 -1.2568
 4340SOL     OW24478   1.784   3.516  14.272 -0.1249 -0.3568  0.0505
 4340SOL    HW124479   1.859   3.566  14.240  1.0202 -1.7486  0.6189
 4340SOL    HW224480   1.836   3.480  14.343 -1.3486 -1.8140  0.2062
 4341SOL     OW24481   2.054   2.249   8.791 -0.6333 -0.0852  0.3572
 4341SOL    HW124482   1.985   2.186   8.772  0.4907 -1.0129 -0.6747
 4341SOL    HW224483   2.012   2.325   8.830 -0.2312  1.2510 -1.8183
 4342SOL     OW24484   1.240   2.759   7.397 -0.3572 -0.4883 -0.1852
 4342SOL    HW124485   1.191   2.740   7.477  2.3172 -2.7268  0.8971
 4342SOL    HW224486   1.223   2.682   7.343  3.0571 -0.5894 -1.1399
 4343SOL     OW24487   3.925   0.680   3.528  0.2233 -0.4990 -0.1818
 4343SOL    HW124488   3.962   0.623   3.594  0.9086 -1.9290 -1.7940
 4343SOL    HW224489   3.832   0.687   3.553 -0.3090 -2.9525 -1.4648
 4344SOL     OW24490   2.351   1.206  16.059  0.1608 -0.2655 -0.2016
 4344SOL    HW124491   2.317   1.209  16.148 -1.3724 -0.9865 -0.7627
 4344SOL    HW224492   2.288   1.140  16.033  1.3583 -1.0235 -1.1968
 4345SOL     OW24493   3.811   0.049   1.368 -0.3141 -0.1671 -0.2707
 4345SOL    HW124494   3.858   0.103   1.305  0.0035 -1.0016 -0.7428
 4345SOL    HW224495   3.757   0.116   1.411  1.4509  1.1453 -0.0888
 4346SOL     OW24496   2.870   0.252  13.711  0.2945 -0.2796 -0.6620
 4346SOL    HW124497   2.838   0.203  13.787 -2.1390  0.9100 -0.9328
 4346SOL    HW224498   2.872   0.340  13.748  1.2980 -0.8702  0.6938
 4347SOL     OW24499   0.964   4.334  14.357 -0.2651  0.6835 -0.0449
 4347SOL    HW124500   0.886   4.288  14.390 -0.4561  1.0478  0.0118
 4347SOL    HW224501   1.020   4.331  14.434 -1.1405  0.0231  0.5559
 4348SOL     OW24502   2.465   3.801  12.982  0.2260 -0.5371  0.4858
 4348SOL    HW124503   2.533   3.853  13.025  1.0399 -1.1684 -0.0488
 4348SOL    HW224504   2.441   3.746  13.056  0.6936  0.9121  1.6984
 4349SOL     OW24505   3.452   0.688   3.261  0.1359 -0.0773 -0.2083
 4349SOL    HW124506   3.418   0.626   3.197  0.6416 -0.0340 -0.5147
 4349SOL    HW224507   3.543   0.713   3.243  1.2475 -1.1384  3.7759
 4350SOL     OW24508   1.109   0.733   0.263  0.1528 -0.0725 -0.0799
 4350SOL    HW124509   1.119   0.646   0.303  0.1023  0.6673  1.5201
 4350SOL    HW224510   1.171   0.785   0.313  2.5754 -3.1084  0.0699
 4351SOL     OW24511   1.802   2.865   4.606 -0.1332 -0.1885  0.2049
 4351SOL    HW124512   1.818   2.822   4.522  1.9085 -0.0542  0.5225
 4351SOL    HW224513   1.855   2.803   4.656 -1.7167 -0.2993  1.7432
 4352SOL     OW24514   4.304   0.554  14.383 -0.2349 -0.3932  0.1894
 4352SOL    HW124515   4.270   0.501  14.455  1.7777 -3.3878 -1.0430
 4352SOL    HW224516   4.389   0.514  14.364  0.7755  0.5020  2.9045
 4353SOL     OW24517   0.582   2.564   4.622  0.2016  0.0314 -0.4718
 4353SOL    HW124518   0.552   2.640   4.673 -1.5186  0.1681 -1.6994
 4353SOL    HW224519   0.678   2.568   4.624  0.1605  1.1193 -0.5316
 4354SOL     OW24520   1.262   0.355   8.638  0.1411  0.5093  0.0906
 4354SOL    HW124521   1.183   0.404   8.660  1.3130  2.1006  0.8332
 4354SOL    HW224522   1.289   0.413   8.567  0.4956  1.2848  0.8518
 4355SOL     OW24523   4.199   3.955   4.751 -0.1827 -0.3842  0.1283
 4355SOL    HW124524   4.182   3.867   4.784  0.1459 -1.3985 -2.4146
 4355SOL    HW224525   4.288   3.968   4.783 -0.8110  1.4516  1.1466
 4356SOL     OW24526   0.455   1.117   7.573 -0.7105  0.0504 -0.0560
 4356SOL    HW124527   0.442   1.205   7.609 -1.5159  0.2657 -0.8612
 4356SOL    HW224528   0.540   1.095   7.612  1.5046  1.6488 -3.8954
 4357SOL     OW24529   2.879   2.662   5.294  0.4998  0.3111  0.3189
 4357SOL    HW124530   2.919   2.602   5.357  0.8117 -2.3117 -2.3689
 4357SOL    HW224531   2.950   2.696   5.240  1.6504 -0.2381  1.4760
 4358SOL     OW24532   1.450   0.362   3.458  0.1245  0.1449  0.2286
 4358SOL    HW124533   1.443   0.377   3.364 -0.2005 -2.4826 -0.1635
 4358SOL    HW224534   1.528   0.415   3.468  0.1936 -0.2150  1.6825
 4359SOL     OW24535   3.933   3.177   8.860  0.5615 -0.1814  0.0061
 4359SOL    HW124536   3.912   3.268   8.842  0.5565 -0.0049  0.8736
 4359SOL    HW224537   3.915   3.138   8.774 -2.5134  1.9399 -0.3141
 4360SOL     OW24538   2.295   0.210  12.509 -0.3445 -1.1427  0.8245
 4360SOL    HW124539   2.341   0.129  12.487  3.1342  1.8753 -2.9958
 4360SOL    HW224540   2.310   0.220  12.603 -0.4369 -1.2361  0.8496
 4361SOL     OW24541   2.200   1.691   4.206  0.4007  0.0454 -0.2371
 4361SOL    HW124542   2.239   1.643   4.132 -0.5813 -0.0538 -0.6873
 4361SOL    HW224543   2.113   1.693   4.166 -1.3514  0.8107  3.6179
 4362SOL     OW24544   3.258   1.029   4.006  0.0553 -0.6439  0.4402
 4362SOL    HW124545   3.251   1.012   3.912 -1.3639  0.7685  0.2906
 4362SOL    HW224546   3.220   1.117   4.012  2.3843  0.3880  0.0551
 4363SOL     OW24547   3.860   4.403   7.901  0.2987  0.2515  0.1025
 4363SOL    HW124548   3.881   4.418   7.993  0.3726  3.6946 -0.4884
 4363SOL    HW224549   3.881   4.491   7.869  1.8402 -0.1761 -0.0917
 4364SOL     OW24550   1.092   2.869   3.559  0.1720 -0.0250  0.0598
 4364SOL    HW124551   1.071   2.832   3.645 -3.3459 -0.8068 -1.1512
 4364SOL    HW224552   1.008   2.911   3.540 -0.7396 -1.8196  0.1857
 4365SOL     OW24553   4.230   0.513   6.767  0.2464 -0.1618  0.0129
 4365SOL    HW124554   4.231   0.435   6.823  2.0933  0.5930  1.0656
 4365SOL    HW224555   4.195   0.480   6.685  1.9095  0.7178 -1.0514
 4366SOL     OW24556   4.100   0.879   4.109  0.7264  0.3358 -0.2306
 4366SOL    HW124557   4.120   0.972   4.109 -2.5738  1.0648  0.6674
 4366SOL    HW224558   4.184   0.846   4.078  0.5165  0.3430 -0.8242
 4367SOL     OW24559   0.841   2.820  11.109 -0.2867 -0.1579  0.0821
 4367SOL    HW124560   0.747   2.833  11.124 -0.2103 -0.7593  1.1190
 4367SOL    HW224561   0.839   2.736  11.154  2.4477 -0.4980 -0.4467
 4368SOL     OW24562   0.026   4.163   4.470 -0.0019  0.0554 -0.4467
 4368SOL    HW124563   0.026   4.219   4.392  3.5768 -3.3075 -2.8198
 4368SOL    HW224564   0.108   4.116   4.462 -1.3045 -2.6303  1.9001
 4369SOL     OW24565   1.402   1.115  15.015  0.3729 -0.5575 -0.2319
 4369SOL    HW124566   1.376   1.204  15.036  3.4606  0.3122 -0.0906
 4369SOL    HW224567   1.493   1.108  15.044  0.5820 -0.3976 -0.8413
 4370SOL     OW24568   4.005   1.844   4.819  0.5276  0.3878  0.1169
 4370SOL    HW124569   4.025   1.799   4.737 -5.9147  0.7310 -1.6083
 4370SOL    HW224570   4.091   1.880   4.842  0.2843  0.7131  0.5065
 4371SOL     OW24571   4.199   1.567  14.848 -0.0415  0.2802  0.0205
 4371SOL    HW124572   4.131   1.516  14.805 -0.7292  0.4100  0.9539
 4371SOL    HW224573   4.183   1.540  14.939 -1.3555 -1.2761 -0.6730
 4372SOL     OW24574   2.691   1.510   7.473  0.6719 -0.1650  0.1405
 4372SOL    HW124575   2.644   1.566   7.535  0.1671 -0.6255  0.1719
 4372SOL    HW224576   2.725   1.576   7.413 -0.3708  0.0751 -0.1886
 4373SOL     OW24577   3.826   2.884   0.372  0.6103  0.0705 -0.1129
 4373SOL    HW124578   3.832   2.928   0.457 -1.8124  1.5567 -0.7278
 4373SOL    HW224579   3.738   2.909   0.346  0.1723 -0.4625  0.8757
 4374SOL     OW24580   3.966   2.445   1.394  0.0700 -0.5910  0.3823
 4374SOL    HW124581   3.900   2.376   1.402 -0.1528 -0.3633  0.4797
 4374SOL    HW224582   4.033   2.396   1.345  1.0776  1.0667  0.0991
 4375SOL     OW24583   0.333   1.924   7.603  0.0920 -0.0359 -0.4321
 4375SOL    HW124584   0.330   2.018   7.620 -1.0013  0.0492 -1.1060
 4375SOL    HW224585   0.252   1.889   7.640 -0.7726  1.9244 -0.4808
 4376SOL     OW24586   1.310   2.726   3.795 -0.0874 -0.0372  0.0675
 4376SOL    HW124587   1.215   2.713   3.799  0.0168 -1.4656 -2.3416
 4376SOL    HW224588   1.343   2.641   3.769 -1.7777 -0.7252  0.1723
 4377SOL     OW24589   4.108   0.327   0.888 -0.0912  0.0255 -0.0190
 4377SOL    HW124590   4.103   0.248   0.833 -0.4149  0.4891 -0.6541
 4377SOL    HW224591   4.014   0.343   0.885  0.5437  3.4263 -0.9026
 4378SOL     OW24592   0.574   0.256  12.957  1.2906  0.4675 -0.6010
 4378SOL    HW124593   0.562   0.199  13.032  2.2049 -0.4374 -1.1473
 4378SOL    HW224594   0.509   0.223  12.894  1.2020  0.8845 -0.7279
 4379SOL     OW24595   1.979   2.699   9.318 -0.0777  0.1784 -0.3289
 4379SOL    HW124596   2.028   2.656   9.387 -4.2467 -2.0658  1.1941
 4379SOL    HW224597   1.932   2.763   9.371 -2.8731 -1.1826 -1.1403
 4380SOL     OW24598   2.209   0.680   1.550  0.3877  0.2833  0.0386
 4380SOL    HW124599   2.177   0.601   1.594 -1.2101  0.4978 -0.7310
 4380SOL    HW224600   2.278   0.635   1.501 -0.3565  0.6548 -1.3689
 4381SOL     OW24601   2.485   0.244   4.724 -0.0999  0.0663  0.4284
 4381SOL    HW124602   2.412   0.197   4.684 -0.1219  0.5867 -0.1411
 4381SOL    HW224603   2.438   0.312   4.771 -1.3361  0.4132 -1.3210
 4382SOL     OW24604   1.447   4.418   4.229 -0.2543  0.2589  0.1601
 4382SOL    HW124605   1.426   4.385   4.317  0.3116  1.3405  0.6977
 4382SOL    HW224606   1.395   4.354   4.180 -0.0400  1.1693 -1.2525
 4383SOL     OW24607   3.220   1.726  16.445 -0.0416  0.1490  0.0469
 4383SOL    HW124608   3.279   1.666  16.490 -1.1112 -0.5550  0.5144
 4383SOL    HW224609   3.142   1.687  16.484  0.4089 -3.0908 -2.3720
 4384SOL     OW24610   1.431   0.755   1.022  0.3620 -0.2306 -0.4485
 4384SOL    HW124611   1.510   0.731   0.973  0.3086 -0.2508 -0.5243
 4384SOL    HW224612   1.388   0.672   1.041  1.1082 -0.8227 -1.3480
 4385SOL     OW24613   1.785   3.078   7.816  0.2409 -0.3500 -0.1278
 4385SOL    HW124614   1.790   3.094   7.910  2.2322  0.7538 -0.4251
 4385SOL    HW224615   1.806   3.165   7.782 -0.8831  0.3138  0.8415
 4386SOL     OW24616   3.262   4.625   2.039 -0.4136 -0.5868 -0.4041
 4386SOL    HW124617   3.288   4.625   1.947 -0.4952  1.9809 -0.4236
 4386SOL    HW224618   3.204   4.549   2.043  0.0019 -0.9340 -0.9638
 4387SOL     OW24619   0.843   4.239  16.783  0.5057  0.1251 -0.0010
 4387SOL    HW124620   0.861   4.209  16.872 -0.2429  2.6858  1.0087
 4387SOL    HW224621   0.752   4.268  16.784  0.4885  0.1342 -1.2441
 4388SOL     OW24622   1.175   1.410  11.456  0.0143 -0.1369  0.3382
 4388SOL    HW124623   1.140   1.350  11.390  0.8326 -0.1674 -0.0691
 4388SOL    HW224624   1.106   1.477  11.456 -1.5697 -1.7858  1.5707
 4389SOL     OW24625   0.917   0.788   7.260 -0.1788 -0.1807 -0.2721
 4389SOL    HW124626   0.991   0.840   7.290 -0.5985  0.8984 -1.0984
 4389SOL    HW224627   0.948   0.762   7.173  0.9486  3.5662 -0.9673
 4390SOL     OW24628   3.700   2.152  14.447  0.0903 -0.1323 -0.3481
 4390SOL    HW124629   3.698   2.208  14.525 -2.6072  0.6101 -0.9678
 4390SOL    HW224630   3.659   2.069  14.473  0.4977  0.2123  1.3769
 4391SOL     OW24631   1.683   4.717   3.020  0.3757  0.6205  0.2698
 4391SOL    HW124632   1.652   4.678   2.938  1.3355  1.6879 -0.6074
 4391SOL    HW224633   1.601   0.033   3.054 -0.2513 -0.0297 -0.5182
 4392SOL     OW24634   1.785   4.292   6.639 -0.1108 -0.0802 -0.6582
 4392SOL    HW124635   1.763   4.200   6.656 -0.5893  0.1387 -0.0960
 4392SOL    HW224636   1.746   4.336   6.714 -0.0198 -2.1476  0.6086
 4393SOL     OW24637   0.974   0.330   9.571 -0.4456  0.1839 -0.4367
 4393SOL    HW124638   1.049   0.388   9.559  0.7028 -1.2341 -0.1444
 4393SOL    HW224639   0.977   0.280   9.489 -0.8414 -0.9910  0.2706
 4394SOL     OW24640   4.482   3.089   4.565 -0.4946  0.5004  0.2863
 4394SOL    HW124641   4.564   3.138   4.565  0.3466 -0.9199 -1.0407
 4394SOL    HW224642   4.440   3.142   4.497 -0.3143 -0.9988 -1.0022
 4395SOL     OW24643   1.760   1.610   5.212  0.2187 -0.1280  0.4878
 4395SOL    HW124644   1.709   1.690   5.200  1.5110  0.5262 -0.7766
 4395SOL    HW224645   1.729   1.559   5.137 -1.2154 -1.9563  2.3302
 4396SOL     OW24646   0.871   3.494   9.996 -0.4396 -0.3475  0.6154
 4396SOL    HW124647   0.894   3.462  10.083  0.2397 -0.4818  0.3877
 4396SOL    HW224648   0.948   3.548   9.980 -0.8677  1.1435  3.5499
 4397SOL     OW24649   3.504   2.348   5.443  0.1659 -0.0899 -0.1406
 4397SOL    HW124650   3.520   2.256   5.464  1.0788 -0.0834 -0.7843
 4397SOL    HW224651   3.566   2.388   5.504 -1.8429 -1.3545  2.7600
 4398SOL     OW24652   0.802   0.404  13.649  0.2396 -0.1439  0.0089
 4398SOL    HW124653   0.708   0.388  13.656  0.1809  0.9727  1.7275
 4398SOL    HW224654   0.807   0.464  13.723  1.7361 -0.7433  0.3833
 4399SOL     OW24655   2.943   3.860   5.079 -0.0721  0.0371 -0.1715
 4399SOL    HW124656   3.037   3.845   5.085  0.0522  1.6013  2.0250
 4399SOL    HW224657   2.910   3.837   5.166  0.4989 -0.0882  0.0105
 4400SOL     OW24658   4.112   2.503   0.948  0.0108  0.1484 -0.7340
 4400SOL    HW124659   4.136   2.552   0.870  0.0323  0.0210 -0.8082
 4400SOL    HW224660   4.192   2.464   0.982 -0.3814 -0.6126 -0.6764
 4401SOL     OW24661   2.150   0.877  16.330  0.1995  0.1432 -0.0852
 4401SOL    HW124662   2.191   0.845  16.249 -0.5920  0.3804 -0.5796
 4401SOL    HW224663   2.201   0.958  16.328  0.2496  0.1225  0.3526
 4402SOL     OW24664   2.172   2.266  10.127 -0.1098  0.5023  0.2842
 4402SOL    HW124665   2.178   2.309  10.041  0.2368  1.3744  0.7450
 4402SOL    HW224666   2.081   2.272  10.156 -0.4228 -0.3542 -0.4921
 4403SOL     OW24667   1.824   3.192   7.328  0.0733 -0.3833 -0.0464
 4403SOL    HW124668   1.854   3.248   7.256 -1.0615  0.3158  0.0187
 4403SOL    HW224669   1.826   3.108   7.282  2.6141  0.4345 -1.4932
 4404SOL     OW24670   0.481   0.928   2.546  0.3395 -0.0703 -0.0233
 4404SOL    HW124671   0.469   1.015   2.509 -0.6507 -0.3797 -0.4197
 4404SOL    HW224672   0.533   0.950   2.624 -0.3114 -0.4330  0.5176
 4405SOL     OW24673   0.515   3.962   7.014  0.5183 -0.7041  0.5953
 4405SOL    HW124674   0.542   3.941   6.924 -1.5329 -0.3008 -0.1319
 4405SOL    HW224675   0.521   3.880   7.063  2.1758 -0.4456  0.8112
 4406SOL     OW24676   0.163   4.342   3.971  0.5033 -0.3273  0.1509
 4406SOL    HW124677   0.175   4.378   3.883 -0.1669  0.7164  0.4820
 4406SOL    HW224678   0.247   4.301   3.989  1.2039  0.5652 -1.0313
 4407SOL     OW24679   3.989   4.010  17.422  0.1030 -0.4296  0.3133
 4407SOL    HW124680   4.039   3.993  17.501 -0.4833 -1.1690  0.5267
 4407SOL    HW224681   4.015   3.941  17.361 -2.2171 -1.8917  0.9717
 4408SOL     OW24682   3.343   1.489   4.887 -0.3863 -0.1873  0.2776
 4408SOL    HW124683   3.399   1.540   4.827  0.3315  0.7149  1.7056
 4408SOL    HW224684   3.366   1.400   4.862  0.1514  1.0551 -3.6269
 4409SOL     OW24685   2.879   0.666   3.518 -0.0271  0.2894 -0.7292
 4409SOL    HW124686   2.877   0.655   3.423  0.7373  0.3312 -0.7494
 4409SOL    HW224687   2.791   0.633   3.535  0.3097 -1.0665 -1.5554
 4410SOL     OW24688   0.126   2.889  16.644 -0.1682  0.1121  0.2208
 4410SOL    HW124689   0.086   2.961  16.693  0.1169  2.2304 -2.6240
 4410SOL    HW224690   0.120   2.922  16.554  2.6792  0.8516  0.2874
 4411SOL     OW24691   1.196   0.447  17.066 -0.1721 -0.1829 -0.0043
 4411SOL    HW124692   1.268   0.426  17.125 -1.5690  0.8059  2.0323
 4411SOL    HW224693   1.136   0.470  17.136  2.8526 -1.2212  2.9078
 4412SOL     OW24694   3.181   2.236   3.956  0.3378  0.2210  0.1392
 4412SOL    HW124695   3.099   2.277   3.928  0.0749  0.3271  1.0471
 4412SOL    HW224696   3.237   2.217   3.881 -1.2764  2.1658 -1.5517
 4413SOL     OW24697   0.142   1.819   6.994  0.4900  0.2672 -0.0241
 4413SOL    HW124698   0.097   1.870   7.061  1.3522 -0.6138  1.2021
 4413SOL    HW224699   0.090   1.738   6.993  3.9116 -1.9249 -0.0820
 4414SOL     OW24700   2.528   4.112   3.236  0.5480  0.6127  0.1450
 4414SOL    HW124701   2.551   4.164   3.159  1.2693 -1.2088 -0.8349
 4414SOL    HW224702   2.449   4.157   3.267  0.3292  1.3149 -1.4250
 4415SOL     OW24703   1.487   1.824  14.594 -0.2784 -0.0198 -0.0475
 4415SOL    HW124704   1.500   1.882  14.519 -0.9979  1.5346  1.0431
 4415SOL    HW224705   1.443   1.869  14.666 -0.6207 -0.4461  0.0149
 4416SOL     OW24706   2.433   0.480  14.697  1.3093 -0.2264  0.1905
 4416SOL    HW124707   2.451   0.388  14.680  0.7970 -0.1729 -0.6359
 4416SOL    HW224708   2.344   0.487  14.664  1.8616  0.4996 -1.1750
 4417SOL     OW24709   3.963   1.594   3.935  0.4651  0.1974  0.5753
 4417SOL    HW124710   4.022   1.627   4.002  1.0307 -0.4311  0.3856
 4417SOL    HW224711   4.027   1.597   3.865  1.9063  1.2825  1.9521
 4418SOL     OW24712   0.940   0.110  12.837  0.4479 -0.0948  0.3111
 4418SOL    HW124713   0.897   0.050  12.898  0.5676 -0.9826 -0.4729
 4418SOL    HW224714   0.899   0.195  12.852 -0.0236 -0.3808  0.6787
 4419SOL     OW24715   2.527   0.270  15.453  0.0033 -0.1304 -0.5032
 4419SOL    HW124716   2.526   0.243  15.361 -1.2214  0.9447 -0.8130
 4419SOL    HW224717   2.540   0.365  15.446 -0.9617  0.1854  2.2987
 4420SOL     OW24718   1.934   1.611   3.628 -0.4645 -0.3556  0.3502
 4420SOL    HW124719   1.902   1.646   3.545  0.6437 -1.4009 -0.5128
 4420SOL    HW224720   1.965   1.691   3.669 -1.5481  1.1167 -1.6820
 4421SOL     OW24721   3.082   0.269  11.747 -0.8711 -0.4490  0.0566
 4421SOL    HW124722   3.119   0.182  11.757 -1.6351 -0.8291 -0.5242
 4421SOL    HW224723   3.014   0.266  11.814  1.7143  0.1372  2.7182
 4422SOL     OW24724   3.040   1.900  14.409  0.0852  0.2283  0.0537
 4422SOL    HW124725   3.003   1.924  14.324  2.7809  0.7402 -0.9964
 4422SOL    HW224726   3.125   1.943  14.401  0.2932  0.3781  3.2696
 4423SOL     OW24727   2.701   3.537   8.287  0.6685 -0.6107 -0.2979
 4423SOL    HW124728   2.679   3.489   8.207 -0.0201  0.1388 -0.5482
 4423SOL    HW224729   2.741   3.618   8.255  0.4721 -0.0031  1.0002
 4424SOL     OW24730   2.542   1.672   6.884  0.7741  0.1845 -0.4222
 4424SOL    HW124731   2.503   1.759   6.894  2.8639  1.0709 -0.0020
 4424SOL    HW224732   2.536   1.681   6.789  0.2908 -1.1433 -0.5149
 4425SOL     OW24733   0.075   2.736  10.915 -0.7308 -0.5455 -0.2578
 4425SOL    HW124734   4.712   2.714  10.956 -1.2375  3.4185  0.8421
 4425SOL    HW224735   0.115   2.650  10.931 -0.2307 -0.3447 -0.4578
 4426SOL     OW24736   4.686   3.770   3.528  0.1454  0.0464 -0.1208
 4426SOL    HW124737   4.607   3.811   3.563  1.1333  0.4712  1.6285
 4426SOL    HW224738   0.005   3.843   3.479  0.8116 -1.2843 -1.5634
 4427SOL     OW24739   3.959   0.967   3.561 -0.0400 -0.3434  0.0940
 4427SOL    HW124740   3.976   0.874   3.546  2.4160  0.2015 -0.4097
 4427SOL    HW224741   4.050   0.993   3.546 -0.2434  1.0962  1.4145
 4428SOL     OW24742   4.392   3.850  12.198  0.0343  0.0013 -0.0705
 4428SOL    HW124743   4.316   3.803  12.165 -0.5938  1.0664 -0.1368
 4428SOL    HW224744   4.454   3.835  12.127  0.2237  2.3957 -0.4072
 4429SOL     OW24745   3.591   2.042   4.496 -0.1735  0.1659 -0.3426
 4429SOL    HW124746   3.645   2.117   4.520  0.9235  0.0928 -2.5913
 4429SOL    HW224747   3.599   2.044   4.401  3.2487 -0.4978 -0.0483
 4430SOL     OW24748   4.017   2.552   0.140  0.1254 -0.0734  0.0504
 4430SOL    HW124749   4.103   2.521   0.168 -0.8133 -0.2378  2.7351
 4430SOL    HW224750   3.968   2.475   0.170  0.1260 -1.0131 -2.3861
 4431SOL     OW24751   0.559   1.336   5.476  0.4056 -0.2923  0.4806
 4431SOL    HW124752   0.613   1.257   5.473  2.6927  1.3691 -1.7609
 4431SOL    HW224753   0.472   1.306   5.501  1.6237 -3.4802  0.8659
 4432SOL     OW24754   0.181   1.138   1.097  0.0100  0.0982 -0.3999
 4432SOL    HW124755   0.240   1.149   1.171 -0.0673 -0.1671 -0.3002
 4432SOL    HW224756   0.102   1.186   1.124  1.3663  2.5359 -0.7368
 4433SOL     OW24757   3.641   4.628   4.495  0.2996 -0.1481  0.2213
 4433SOL    HW124758   3.663   4.622   4.588 -2.9407  0.7081  1.0360
 4433SOL    HW224759   3.625   0.001   4.491 -0.6761 -0.4066 -2.0669
 4434SOL     OW24760   0.536   0.406  10.447  0.3204 -0.2311  0.5281
 4434SOL    HW124761   0.574   0.464  10.382 -2.8890  0.5335 -0.6517
 4434SOL    HW224762   0.599   0.334  10.447  1.3171  0.6535 -1.3675
 4435SOL     OW24763   2.309   4.400  16.668 -0.3810  0.4881 -0.1799
 4435SOL    HW124764   2.292   4.435  16.580  1.5473 -1.2330 -1.2558
 4435SOL    HW224765   2.405   4.407  16.671 -0.1407 -1.5952 -2.0953
 4436SOL     OW24766   1.282   4.547   2.857 -0.0703  0.5475 -0.8115
 4436SOL    HW124767   1.200   4.501   2.878  0.6399 -1.8255 -3.2071
 4436SOL    HW224768   1.255   4.588   2.775  3.4813  2.5960 -0.9336
 4437SOL     OW24769   0.134   4.601   4.924 -0.3857  0.1141  0.0365
 4437SOL    HW124770   0.206   4.541   4.904 -0.9594 -1.1658  1.8505
 4437SOL    HW224771   0.083   4.601   4.843 -0.3116 -0.6839 -0.0143
 4438SOL     OW24772   1.607   4.055   6.253  0.3938  0.0301  0.2658
 4438SOL    HW124773   1.520   4.016   6.264 -0.4091  2.0517  1.0719
 4438SOL    HW224774   1.584   4.126   6.313 -0.0137 -1.2840  1.6617
 4439SOL     OW24775   4.242   4.025   5.132 -0.8192  0.0801  0.2368
 4439SOL    HW124776   4.235   4.120   5.126 -1.9829  0.1291  2.3932
 4439SOL    HW224777   4.308   4.007   5.065 -0.0839  0.1265  0.9511
 4440SOL     OW24778   2.916   2.519   2.617 -0.0890 -0.3316  0.0108
 4440SOL    HW124779   2.833   2.534   2.662 -0.6856  0.8157 -1.4894
 4440SOL    HW224780   2.969   2.597   2.631  2.1498 -2.0361  1.1685
 4441SOL     OW24781   0.197   0.364   5.152 -0.0467  0.0457  0.2427
 4441SOL    HW124782   0.191   0.277   5.112 -0.8098  1.6614 -3.1984
 4441SOL    HW224783   0.272   0.403   5.107 -0.7354  1.7956  0.6147
 4442SOL     OW24784   2.994   4.108   3.165  0.3738 -0.1597  0.0980
 4442SOL    HW124785   3.004   4.060   3.084 -0.8885  1.0753 -0.7832
 4442SOL    HW224786   3.081   4.098   3.205  0.2642 -2.9218 -0.3443
 4443SOL     OW24787   2.169   4.429   8.581 -0.3404 -0.2823  0.1663
 4443SOL    HW124788   2.129   4.500   8.532 -2.6495 -1.0481  0.9266
 4443SOL    HW224789   2.156   4.454   8.673 -0.9777 -0.9975  0.2659
 4444SOL     OW24790   3.223   3.888  11.000 -0.2939  0.3011  0.4962
 4444SOL    HW124791   3.282   3.923  11.067 -0.0857  0.2478  0.3365
 4444SOL    HW224792   3.139   3.876  11.045  0.4386 -0.7989  1.5681
 4445SOL     OW24793   3.473   3.545   4.652 -0.1744 -0.8908  0.6235
 4445SOL    HW124794   3.497   3.459   4.686  0.3153 -2.5133 -3.9215
 4445SOL    HW224795   3.417   3.519   4.579 -1.2874 -1.8882  1.8164
 4446SOL     OW24796   3.481   4.344   4.672 -0.3907 -0.2886 -0.6738
 4446SOL    HW124797   3.492   4.296   4.590 -1.4484 -1.8214  0.0802
 4446SOL    HW224798   3.570   4.327   4.705 -1.3929  0.4994  2.3950
 4447SOL     OW24799   0.507   4.378  12.883 -0.1214 -0.0523 -0.1024
 4447SOL    HW124800   0.444   4.445  12.909 -0.8306 -0.8535  0.2725
 4447SOL    HW224801   0.496   4.393  12.789 -0.1990  2.3730  0.3033
 4448SOL     OW24802   1.057   3.080   6.322 -0.2882 -0.2647  0.1412
 4448SOL    HW124803   0.982   3.067   6.264 -1.6609  0.8925  1.6704
 4448SOL    HW224804   1.123   3.019   6.289 -0.0392  0.1217 -0.0802
 4449SOL     OW24805   1.725   0.169   2.060 -0.6660  0.7676  0.1425
 4449SOL    HW124806   1.797   0.215   2.103 -2.2737  3.7323 -0.2760
 4449SOL    HW224807   1.770   0.134   1.984  0.9183  0.5944  1.1664
 4450SOL     OW24808   0.718   1.545   3.490  0.1234 -0.0274  0.2823
 4450SOL    HW124809   0.684   1.549   3.579 -1.4349  0.1591 -0.3103
 4450SOL    HW224810   0.749   1.455   3.495 -2.5724 -0.9217  1.0932
 4451SOL     OW24811   4.575   3.991   1.743 -0.1118 -0.3574 -0.0091
 4451SOL    HW124812   4.539   4.052   1.679 -2.3562 -1.3071  0.3345
 4451SOL    HW224813   4.510   3.983   1.813  0.6989  0.5259  0.8470
 4452SOL     OW24814   3.521   2.764  16.133  0.4129 -0.1509  0.0204
 4452SOL    HW124815   3.537   2.735  16.223 -0.7635  1.8111  0.8624
 4452SOL    HW224816   3.522   2.860  16.133 -2.3177 -0.1465 -1.7781
 4453SOL     OW24817   2.105   4.517   5.300 -0.3209  0.1539 -0.0109
 4453SOL    HW124818   2.059   4.477   5.226  0.1299 -0.5538  0.1014
 4453SOL    HW224819   2.103   4.444   5.362 -1.5554 -0.0776 -0.3189
 4454SOL     OW24820   1.718   4.508   6.485 -0.1226  0.1038  0.1996
 4454SOL    HW124821   1.781   4.527   6.416 -0.8448  2.3296  0.1491
 4454SOL    HW224822   1.766   4.434   6.521 -0.6131  0.1978  1.0600
 4455SOL     OW24823   1.222   3.227  16.975  0.0537  0.0812  0.3867
 4455SOL    HW124824   1.150   3.170  16.951 -0.6840  1.5428 -0.8519
 4455SOL    HW224825   1.187   3.309  16.939  1.3339  0.2811 -0.3879
 4456SOL     OW24826   1.188   1.813   3.415 -0.0401 -0.3281  0.7862
 4456SOL    HW124827   1.168   1.788   3.325 -2.1269  2.1527  0.5825
 4456SOL    HW224828   1.096   1.818   3.441 -1.0977 -0.0924 -2.9099
 4457SOL     OW24829   3.392   3.675  17.347  0.3596 -0.2193  0.1698
 4457SOL    HW124830   3.365   3.711  17.432 -0.4359 -0.4362  0.0154
 4457SOL    HW224831   3.374   3.744  17.283 -1.0193  0.0839  0.8645
 4458SOL     OW24832   1.657   1.248  10.651  0.6350 -0.4269  0.5139
 4458SOL    HW124833   1.618   1.196  10.579  0.1009 -1.4482  1.5297
 4458SOL    HW224834   1.727   1.281  10.596 -0.9824  0.9716 -0.6959
 4459SOL     OW24835   2.120   0.674   7.527 -0.6255  0.1539  0.0016
 4459SOL    HW124836   2.210   0.697   7.550  0.3829 -0.4743 -3.2550
 4459SOL    HW224837   2.078   0.712   7.604 -0.2958 -0.5956  0.5539
 4460SOL     OW24838   0.250   2.647   2.543 -0.0604 -0.0999  1.1259
 4460SOL    HW124839   0.161   2.670   2.571 -0.9181 -0.7992 -1.0128
 4460SOL    HW224840   0.303   2.712   2.589  0.7560 -0.0055  0.0267
 4461SOL     OW24841   0.452   2.925   7.569  0.0110 -0.6167  0.0792
 4461SOL    HW124842   0.494   2.910   7.485  1.2757  0.8924  0.4456
 4461SOL    HW224843   0.468   3.019   7.580 -0.2126 -0.6028  0.2976
 4462SOL     OW24844   1.529   4.353   8.372  0.3712 -0.7093  0.2190
 4462SOL    HW124845   1.452   4.309   8.407 -0.1780 -0.9439 -1.2820
 4462SOL    HW224846   1.607   4.300   8.386  0.8335  0.1935  1.0827
 4463SOL     OW24847   1.980   2.659  11.118 -0.5281 -0.2535 -0.0035
 4463SOL    HW124848   2.056   2.602  11.134 -1.2958 -1.6455 -1.3955
 4463SOL    HW224849   1.961   2.675  11.211  2.9392 -0.2425  0.7311
 4464SOL     OW24850   0.035   0.938  10.518  0.3663 -0.2581 -0.2186
 4464SOL    HW124851   0.116   0.886  10.520  0.8024  0.4165 -0.3993
 4464SOL    HW224852   4.703   0.898  10.587 -1.0115  2.8707  0.5173
 4465SOL     OW24853   1.211   4.648   0.946 -0.3308 -0.0718  0.3293
 4465SOL    HW124854   1.164   4.693   0.876  0.9716  1.8594  0.7078
 4465SOL    HW224855   1.295   4.693   0.945 -0.7521  0.7130  0.6785
 4466SOL     OW24856   3.572   1.186  14.793 -0.5792  0.5981  0.1137
 4466SOL    HW124857   3.500   1.134  14.826  0.9773 -1.0277  0.9494
 4466SOL    HW224858   3.587   1.153  14.704 -2.1162 -1.9430  0.8296
 4467SOL     OW24859   0.340   1.680   7.882  0.2095 -0.6192  0.2530
 4467SOL    HW124860   0.324   1.659   7.790 -2.2881 -0.6314  0.6950
 4467SOL    HW224861   0.304   1.768   7.888 -0.3961 -0.8537  0.0044
 4468SOL     OW24862   2.497   1.537   5.431 -0.3771 -0.7014  0.5112
 4468SOL    HW124863   2.424   1.597   5.415 -0.0274 -0.1112  1.1046
 4468SOL    HW224864   2.463   1.449   5.419  0.3204 -1.0267  0.9312
 4469SOL     OW24865   1.901   0.849   4.320  0.8110 -0.0890  0.5370
 4469SOL    HW124866   1.833   0.799   4.274  0.6242  1.0740 -0.4610
 4469SOL    HW224867   1.862   0.882   4.401 -1.7060  3.8182 -2.2599
 4470SOL     OW24868   0.322   1.132  14.265 -0.4073  0.1208 -0.5798
 4470SOL    HW124869   0.374   1.086  14.200 -0.0333 -1.4252  0.7979
 4470SOL    HW224870   0.362   1.086  14.339 -0.2173  2.7674  0.9443
 4471SOL     OW24871   2.919   1.602   7.976  0.5341 -0.3428 -0.3692
 4471SOL    HW124872   2.994   1.547   7.999  0.4560  0.0631  0.8617
 4471SOL    HW224873   2.849   1.565   8.031  1.6141  1.5082  2.2653
 4472SOL     OW24874   0.104   0.493  12.410 -0.4542  0.0670  0.9015
 4472SOL    HW124875   0.070   0.443  12.336  0.9413 -0.9316  0.9375
 4472SOL    HW224876   0.076   0.578  12.375 -0.4638 -0.3760 -0.1671
 4473SOL     OW24877   4.357   4.690   6.849  0.4511 -0.3307 -0.2136
 4473SOL    HW124878   4.409   4.610   6.839  0.8046 -0.2967  1.3830
 4473SOL    HW224879   4.269   4.658   6.828  0.4217  0.0771 -0.6939
 4474SOL     OW24880   4.551   3.749   4.566 -0.3287 -0.2339 -0.3467
 4474SOL    HW124881   4.610   3.798   4.509 -0.6276  0.8243  0.2688
 4474SOL    HW224882   4.496   3.824   4.589  0.4719  0.7305 -1.5617
 4475SOL     OW24883   2.059   0.382   6.678 -0.1168 -0.0620 -0.1142
 4475SOL    HW124884   2.000   0.308   6.665  1.0592 -1.0571  0.2669
 4475SOL    HW224885   2.077   0.402   6.586  0.8325  0.1163  0.1120
 4476SOL     OW24886   3.411   4.641  11.620  0.2569  0.7247  0.3052
 4476SOL    HW124887   3.403   4.564  11.677  2.2176  0.4014  0.1515
 4476SOL    HW224888   3.447   4.602  11.541  3.6265 -0.6178  2.4563
 4477SOL     OW24889   0.098   1.221   8.198 -0.2538  0.2989 -0.0219
 4477SOL    HW124890   0.083   1.299   8.145 -0.4167  1.2756  1.4428
 4477SOL    HW224891   0.025   1.169   8.165 -0.4260  0.0177  0.8027
 4478SOL     OW24892   1.687   1.450   8.435 -0.1965 -0.1573 -0.1666
 4478SOL    HW124893   1.701   1.542   8.414  0.3960 -0.8343 -2.7311
 4478SOL    HW224894   1.610   1.459   8.492 -1.7857 -3.7628 -1.7153
 4479SOL     OW24895   2.221   3.278   4.342  0.0687  0.0120 -0.1717
 4479SOL    HW124896   2.295   3.317   4.294 -0.5572 -0.2907 -1.3722
 4479SOL    HW224897   2.136   3.297   4.303  1.0322  0.4883 -2.0461
 4480SOL     OW24898   3.952   3.408   9.056 -0.1669 -0.0063 -0.0964
 4480SOL    HW124899   3.881   3.358   9.097 -0.4111  2.8624  2.9398
 4480SOL    HW224900   3.895   3.476   9.019  0.8347 -0.3859 -2.3659
 4481SOL     OW24901   0.382   4.677   1.834  0.6155 -0.3681 -0.5520
 4481SOL    HW124902   0.297   4.715   1.856  0.7271 -1.1422  1.1737
 4481SOL    HW224903   0.376   4.667   1.739  2.7152  1.5816 -0.8833
 4482SOL     OW24904   3.832   0.650   2.288 -0.6173  0.6421 -0.0356
 4482SOL    HW124905   3.751   0.649   2.238 -0.2806 -1.1293 -0.5194
 4482SOL    HW224906   3.837   0.742   2.316  0.4402  0.1599  1.3485
 4483SOL     OW24907   3.214   1.930   0.218  0.6480  0.1245 -0.1298
 4483SOL    HW124908   3.306   1.903   0.213 -0.2747 -2.5534 -2.6055
 4483SOL    HW224909   3.167   1.850   0.198 -0.8561  0.3613  2.3867
 4484SOL     OW24910   2.768   4.268  14.656  0.0624  0.2743  0.1618
 4484SOL    HW124911   2.699   4.314  14.704  2.6313  1.7710  2.4439
 4484SOL    HW224912   2.738   4.177  14.657  3.6679 -0.9152  1.6996
 4485SOL     OW24913   3.646   1.130   5.246 -0.3556 -0.4222 -0.6995
 4485SOL    HW124914   3.722   1.074   5.231  0.1193  0.0380 -0.0505
 4485SOL    HW224915   3.628   1.094   5.333  1.2536 -2.5891 -1.2685
 4486SOL     OW24916   4.713   4.636   9.514  0.2040  0.2972 -0.5251
 4486SOL    HW124917   0.078   4.599   9.533 -0.1381 -0.5629 -0.6342
 4486SOL    HW224918   4.711   4.608   9.422  1.2844  1.6640 -0.9595
 4487SOL     OW24919   3.714   2.787  15.554  0.0975  0.0208 -0.5895
 4487SOL    HW124920   3.778   2.841  15.507  1.9691 -1.4307  0.2934
 4487SOL    HW224921   3.628   2.806  15.517  1.3805  1.8455 -2.6401
 4488SOL     OW24922   3.036   0.778   7.880  0.1768  0.1702 -0.5053
 4488SOL    HW124923   3.119   0.822   7.860  1.2544 -0.8886  1.6057
 4488SOL    HW224924   3.068   0.716   7.945 -0.6680  0.1934 -0.0645
 4489SOL     OW24925   0.353   1.092   6.275 -0.5702 -0.3955 -0.0647
 4489SOL    HW124926   0.435   1.050   6.299  0.1608  0.7540 -0.5345
 4489SOL    HW224927   0.362   1.175   6.322  0.2752  1.2366 -3.0706
 4490SOL     OW24928   0.285   2.460  17.572  0.5324 -0.0112  0.0521
 4490SOL    HW124929   0.348   2.511  17.623 -0.8363 -0.0096  1.7469
 4490SOL    HW224930   0.306   2.371  17.601  0.4482 -0.8519 -2.4907
 4491SOL     OW24931   4.369   0.469   3.104 -0.2817 -0.6615  0.9748
 4491SOL    HW124932   4.286   0.476   3.057  0.4510  1.5653  0.0568
 4491SOL    HW224933   4.407   0.551   3.074 -1.0178 -0.0975  1.5530
 4492SOL     OW24934   3.455   1.763   8.118  0.1666  0.0882  0.2088
 4492SOL    HW124935   3.420   1.836   8.168  0.0646  0.9983 -1.1667
 4492SOL    HW224936   3.495   1.714   8.189  0.4999  0.2929  0.1614
 4493SOL     OW24937   3.935   3.136  17.360 -0.4771  0.5873  0.0888
 4493SOL    HW124938   3.937   3.158  17.266  1.5475  0.8249  0.1730
 4493SOL    HW224939   3.988   3.212  17.386  1.6027 -0.2888 -1.5279
 4494SOL     OW24940   1.744   0.920  14.053 -0.0323 -0.1741  0.9658
 4494SOL    HW124941   1.685   0.862  14.102 -1.0127 -0.7110 -0.8357
 4494SOL    HW224942   1.693   0.921  13.972  0.5596 -0.8160  0.5809
 4495SOL     OW24943   0.589   3.799  14.796 -0.2100 -0.2421 -0.0893
 4495SOL    HW124944   0.511   3.855  14.796 -1.0918 -1.4390  1.6950
 4495SOL    HW224945   0.657   3.812  14.862 -1.3848  1.3973  0.7848
 4496SOL     OW24946   4.622   2.702  17.381 -0.2919 -0.2923  0.3974
 4496SOL    HW124947   4.665   2.617  17.373  0.8368  0.2854  0.3382
 4496SOL    HW224948   4.642   2.727  17.471 -2.1233  2.0883  0.1406
 4497SOL     OW24949   3.352   4.716   8.435 -0.6403  0.1920  0.6125
 4497SOL    HW124950   3.259   0.007   8.415 -0.1693  1.1966 -0.9713
 4497SOL    HW224951   3.372   4.670   8.353  2.7929 -0.6840  1.9563
 4498SOL     OW24952   1.704   0.098   7.619 -0.2630 -0.3177  0.2191
 4498SOL    HW124953   1.758   0.176   7.634  0.4338 -0.7665  0.0444
 4498SOL    HW224954   1.638   0.103   7.688 -2.1537 -0.1954 -1.6393
 4499SOL     OW24955   2.611   2.443   7.221  0.5573 -0.2914 -0.0770
 4499SOL    HW124956   2.660   2.474   7.144 -0.2988 -1.8424 -1.2445
 4499SOL    HW224957   2.688   2.404   7.263 -0.2639 -1.1646  0.5865
 4500SOL     OW24958   3.128   1.512   7.387  0.0043 -0.1988 -0.0624
 4500SOL    HW124959   3.118   1.595   7.340 -0.5606 -0.1892  0.0828
 4500SOL    HW224960   3.217   1.483   7.365 -0.3211 -1.3614  0.1307
 4501SOL     OW24961   3.273   1.233   7.204  0.0253  0.1093  0.4226
 4501SOL    HW124962   3.332   1.217   7.130  1.2409 -0.8466  1.6062
 4501SOL    HW224963   3.334   1.231   7.277  0.2507 -1.2950  0.1990
 4502SOL     OW24964   1.495   1.663   8.133 -0.0181 -0.1934  0.0052
 4502SOL    HW124965   1.562   1.643   8.198 -0.3723  1.5769  0.9189
 4502SOL    HW224966   1.535   1.643   8.048 -1.3284  0.3982 -0.7568
 4503SOL     OW24967   1.208   3.905   9.083  0.3798  0.3090 -0.4455
 4503SOL    HW124968   1.183   3.844   9.152  1.5015  1.1271  0.7121
 4503SOL    HW224969   1.303   3.894   9.092  0.4617  1.6194  0.4277
 4504SOL     OW24970   2.042   0.417   1.939 -0.8860 -0.1711  0.0898
 4504SOL    HW124971   2.113   0.354   1.948 -0.0869  0.4233 -1.9818
 4504SOL    HW224972   2.014   0.433   2.029 -0.0606  1.3628  0.0774
 4505SOL     OW24973   4.547   2.342   8.479 -0.3100 -0.2057  0.1879
 4505SOL    HW124974   4.549   2.258   8.526  0.0323 -1.1405 -1.4889
 4505SOL    HW224975   4.629   2.379   8.512  0.2934 -3.4298  2.3303
 4506SOL     OW24976   2.540   4.388   7.829  0.0511  0.3250  0.4793
 4506SOL    HW124977   2.562   4.415   7.739 -0.2446 -1.2292 -0.0569
 4506SOL    HW224978   2.598   4.312   7.836 -3.0713 -1.9872  1.3121
 4507SOL     OW24979   4.082   0.275   3.120 -0.7098 -0.5185 -0.7104
 4507SOL    HW124980   4.071   0.370   3.125  0.6587 -0.3811 -0.4608
 4507SOL    HW224981   4.025   0.248   3.192 -1.2445  1.9874 -0.2099
 4508SOL     OW24982   4.072   0.647   0.926 -0.1137 -0.5149  0.2727
 4508SOL    HW124983   4.073   0.602   1.011 -0.3932 -2.6323 -0.8310
 4508SOL    HW224984   3.999   0.599   0.886 -0.7093  0.5535  0.0922
 4509SOL     OW24985   3.399   3.089  17.378  0.1441  0.4243 -0.3588
 4509SOL    HW124986   3.469   3.025  17.392 -1.9842 -2.0652 -1.0466
 4509SOL    HW224987   3.320   3.051  17.416  0.0537 -0.2639 -1.2362
 4510SOL     OW24988   0.726   1.183  15.087  0.2320 -0.4397  0.2333
 4510SOL    HW124989   0.678   1.247  15.034  0.9231  0.6787  0.9605
 4510SOL    HW224990   0.723   1.241  15.162  3.3530 -0.1642  0.1428
 4511SOL     OW24991   3.713   1.705  17.220  0.2906  0.8079  0.0248
 4511SOL    HW124992   3.770   1.666  17.286 -0.3782  0.9461  0.6837
 4511SOL    HW224993   3.774   1.706  17.147 -1.0400 -2.1747 -1.1207
 4512SOL     OW24994   4.098   3.947   7.812  0.0289  0.3657  0.2975
 4512SOL    HW124995   4.117   4.028   7.766  1.4569  0.3080  0.7919
 4512SOL    HW224996   4.011   3.971   7.843 -0.3579 -0.4121 -0.1721
 4513SOL     OW24997   3.299   3.997   7.877 -0.5332  0.4593 -0.3308
 4513SOL    HW124998   3.279   4.075   7.929 -0.7257 -0.1245  0.4674
 4513SOL    HW224999   3.208   3.972   7.862 -0.6876  0.7907  0.0586
 4514SOL     OW25000   1.156   0.064   7.644  0.6289  0.6716 -0.1931
 4514SOL    HW125001   1.099   0.006   7.695  2.4521 -0.2379  0.7992
 4514SOL    HW225002   1.133   0.059   7.551 -1.8571  0.2468  0.4487
 4515SOL     OW25003   3.293   4.564  14.293 -0.0079  0.1714  0.7830
 4515SOL    HW125004   3.334   4.492  14.244 -0.8002 -0.7536  1.4706
 4515SOL    HW225005   3.313   4.639  14.237 -0.5321  0.0643  0.4568
 4516SOL     OW25006   2.210   2.514   2.828 -0.0606 -0.0865 -0.1157
 4516SOL    HW125007   2.115   2.521   2.817 -0.1594 -0.6473  0.3955
 4516SOL    HW225008   2.220   2.530   2.922 -0.1883 -2.7109  0.3458
 4517SOL     OW25009   2.428   3.029   2.333 -0.0782 -0.4075  0.2605
 4517SOL    HW125010   2.508   3.074   2.307 -2.2468  2.2178 -1.9110
 4517SOL    HW225011   2.373   3.087   2.386 -0.1955 -0.5522  0.2968
 4518SOL     OW25012   1.823   0.671   4.953  0.2788  0.0962  0.0287
 4518SOL    HW125013   1.781   0.741   4.903  1.2760  1.8949  1.7210
 4518SOL    HW225014   1.916   0.673   4.930 -0.0881 -1.1486 -1.5948
 4519SOL     OW25015   1.594   0.685   2.069  0.2743  0.1749  0.6118
 4519SOL    HW125016   1.652   0.627   2.021 -2.0947 -1.4176 -0.3308
 4519SOL    HW225017   1.656   0.752   2.098  0.0856  0.0405  1.3297
 4520SOL     OW25018   3.551   2.323   9.448 -0.0654  0.0404  0.1205
 4520SOL    HW125019   3.502   2.258   9.498 -1.7306  0.0012 -1.5590
 4520SOL    HW225020   3.481   2.348   9.388 -0.8182 -0.2599  0.8683
 4521SOL     OW25021   3.973   2.920   9.682 -0.7733 -0.0759 -0.3863
 4521SOL    HW125022   3.999   2.890   9.595 -2.1970  2.5949 -1.7325
 4521SOL    HW225023   3.888   2.964   9.674 -0.5640  0.3330 -0.3521
 4522SOL     OW25024   0.781   1.695  15.414 -0.1480 -0.3206  0.2521
 4522SOL    HW125025   0.777   1.744  15.332  2.9854 -0.9534 -0.2962
 4522SOL    HW225026   0.875   1.692  15.431 -0.2969 -1.9167  0.7498
 4523SOL     OW25027   0.909   0.306  16.576 -1.0819  0.4449  0.3675
 4523SOL    HW125028   0.953   0.221  16.580 -1.2629  0.3493  0.3154
 4523SOL    HW225029   0.900   0.317  16.481  1.3291  1.2144  0.2128
 4524SOL     OW25030   2.255   2.749   4.883  0.0431 -0.9029  0.5541
 4524SOL    HW125031   2.216   2.667   4.914  1.2637 -1.4045  0.7830
 4524SOL    HW225032   2.238   2.806   4.958 -1.9541 -0.3978 -0.3049
 4525SOL     OW25033   3.012   2.112   6.130  0.0857  0.1206  0.4077
 4525SOL    HW125034   3.056   2.081   6.209 -0.4410 -0.7314  0.3648
 4525SOL    HW225035   3.019   2.026   6.088  0.1022  0.7059 -0.7739
 4526SOL     OW25036   2.445   1.533   3.280  0.0298  0.0410 -0.4246
 4526SOL    HW125037   2.472   1.497   3.196 -0.2097 -1.6518  0.2305
 4526SOL    HW225038   2.382   1.462   3.293 -0.2960  0.3688 -0.1925
 4527SOL     OW25039   3.649   2.239   3.468 -0.0302 -0.4378  0.2419
 4527SOL    HW125040   3.570   2.239   3.523  0.4499 -0.8605  0.9401
 4527SOL    HW225041   3.623   2.177   3.400  1.3644 -0.0457 -0.6442
 4528SOL     OW25042   2.903   2.333   6.607  0.1823  0.1151 -0.0564
 4528SOL    HW125043   2.889   2.414   6.656  2.0788  2.5227 -3.4789
 4528SOL    HW225044   2.960   2.372   6.542 -0.8567 -1.5395 -1.9728
 4529SOL     OW25045   0.957   0.036   6.355 -0.2328  0.0549 -0.3465
 4529SOL    HW125046   1.026   4.702   6.389 -0.9840 -0.4264  0.3955
 4529SOL    HW225047   0.887   4.720   6.409 -0.3573 -0.9828 -1.2312
 4530SOL     OW25048   2.090   1.014   4.077 -0.0094 -0.0650  0.1350
 4530SOL    HW125049   2.103   0.920   4.095  0.9672 -0.4284 -2.5320
 4530SOL    HW225050   1.998   1.025   4.101 -0.3710 -0.7269 -0.9553
 4531SOL     OW25051   4.499   3.379   8.333 -0.0077  0.3111 -1.0725
 4531SOL    HW125052   4.406   3.402   8.341  0.0835  0.2619  0.1659
 4531SOL    HW225053   4.539   3.443   8.393  0.7589 -1.3755  0.2253
 4532SOL     OW25054   0.005   2.069   3.580 -0.0253 -0.1222 -0.6601
 4532SOL    HW125055   0.049   2.143   3.537  0.5793  0.6430  1.2881
 4532SOL    HW225056   0.073   2.030   3.635 -0.4100 -0.1887 -0.2341
 4533SOL     OW25057   3.515   0.542   5.956 -0.1804 -0.4825  0.2425
 4533SOL    HW125058   3.576   0.488   5.906 -3.0970 -1.8099 -1.8572
 4533SOL    HW225059   3.490   0.607   5.891  0.9518 -1.2056 -0.9031
 4534SOL     OW25060   1.142   4.185   5.009  0.2745 -0.1453 -0.2267
 4534SOL    HW125061   1.201   4.222   5.074 -1.3430  1.6307  0.2216
 4534SOL    HW225062   1.185   4.102   4.989 -1.4449 -0.4365 -2.7583
 4535SOL     OW25063   4.266   0.136   9.378  0.4257  0.1494  0.1492
 4535SOL    HW125064   4.272   0.205   9.312 -1.3315 -0.5281 -0.7301
 4535SOL    HW225065   4.305   0.059   9.338 -2.5050 -0.9648 -0.5608
 4536SOL     OW25066   1.327   2.671  11.298 -0.2762 -0.4115  0.1716
 4536SOL    HW125067   1.333   2.580  11.327  0.0532 -0.8814 -1.3379
 4536SOL    HW225068   1.242   2.703  11.330 -0.4078 -0.2082 -0.3675
 4537SOL     OW25069   4.324   3.318   5.512  0.4159 -0.1004 -0.2103
 4537SOL    HW125070   4.242   3.367   5.506  1.1187  0.8724 -1.7837
 4537SOL    HW225071   4.352   3.332   5.603 -0.0525  0.8912 -0.2167
 4538SOL     OW25072   2.602   1.831   2.023 -0.2355  0.6393  0.2127
 4538SOL    HW125073   2.658   1.896   1.981  4.1731 -2.4423  1.2162
 4538SOL    HW225074   2.663   1.800   2.091 -0.2748 -1.1440 -0.5522
 4539SOL     OW25075   0.557   4.547   6.003 -0.0674  0.2892 -0.3527
 4539SOL    HW125076   0.572   4.481   5.935 -0.6312 -1.2190  1.0114
 4539SOL    HW225077   0.600   4.508   6.079  3.2436  1.0356 -1.8292
 4540SOL     OW25078   2.848   2.316   5.487  0.1976  0.2948 -0.2220
 4540SOL    HW125079   2.775   2.364   5.447 -0.2258 -1.0151 -1.0231
 4540SOL    HW225080   2.908   2.390   5.495  1.7479 -1.0037  0.1405
 4541SOL     OW25081   2.571   0.504  17.466 -0.5046  0.1288 -0.2417
 4541SOL    HW125082   2.541   0.543  17.548  0.5578  3.5134 -1.4567
 4541SOL    HW225083   2.537   0.576  17.414 -0.0377  2.6543  2.9872
 4542SOL     OW25084   3.928   1.406   8.507 -0.3270  0.1733 -0.7387
 4542SOL    HW125085   3.880   1.324   8.493  1.1850 -0.8698  0.2157
 4542SOL    HW225086   3.907   1.423   8.599  0.1172 -1.9609 -0.2421
 4543SOL     OW25087   3.082   0.909   9.596 -0.1506  0.2465 -0.4418
 4543SOL    HW125088   3.102   0.819   9.569  1.6675  0.6350 -0.3888
 4543SOL    HW225089   3.160   0.924   9.650 -1.1005 -0.5984  1.1903
 4544SOL     OW25090   3.271   3.166  13.171  0.4031  1.2012  0.5312
 4544SOL    HW125091   3.200   3.112  13.206  1.5354  1.1200  2.6957
 4544SOL    HW225092   3.344   3.121  13.213 -0.1583 -1.0345 -0.8838
 4545SOL     OW25093   3.691   0.743   5.345  0.1623  0.4297  0.4020
 4545SOL    HW125094   3.621   0.809   5.346 -0.8462 -0.5917 -1.6333
 4545SOL    HW225095   3.643   0.682   5.289 -1.2411  1.1392  0.8046
 4546SOL     OW25096   2.573   4.653   3.085 -0.0042 -0.1803  0.7725
 4546SOL    HW125097   2.498   4.594   3.092 -0.7774  0.7773  0.5013
 4546SOL    HW225098   2.609   4.649   3.174 -0.4603 -2.4509  0.8690
 4547SOL     OW25099   1.889   3.023   4.333  0.5383 -0.2882  0.0347
 4547SOL    HW125100   1.824   2.958   4.309 -0.4307  1.5947 -2.4154
 4547SOL    HW225101   1.966   2.966   4.332 -0.6420 -1.9029  1.3683
 4548SOL     OW25102   0.884   1.283   5.708 -0.6772  0.4328  0.0622
 4548SOL    HW125103   0.856   1.344   5.776 -0.3292 -0.3782  0.9323
 4548SOL    HW225104   0.975   1.309   5.698 -1.4356  2.7608 -0.8348
 4549SOL     OW25105   3.348   1.851  11.159  0.3462  0.0271 -0.0727
 4549SOL    HW125106   3.363   1.885  11.247 -0.3438  0.6963 -0.2141
 4549SOL    HW225107   3.440   1.845  11.132  0.1717  1.0506 -0.8685
 4550SOL     OW25108   4.717   2.803   8.052 -0.7040  0.4331 -0.3670
 4550SOL    HW125109   0.058   2.854   8.001 -1.3119  0.8963 -0.6356
 4550SOL    HW225110   0.051   2.731   8.083 -0.4090  0.5679 -0.5909
 4551SOL     OW25111   1.089   3.408   3.205  0.2069 -0.1734  0.5166
 4551SOL    HW125112   1.004   3.369   3.223  0.9838 -1.5171  1.3071
 4551SOL    HW225113   1.143   3.336   3.236 -0.3658 -0.5451  0.6451
 4552SOL     OW25114   1.868   4.268   1.520 -0.2158 -0.7524 -0.2204
 4552SOL    HW125115   1.873   4.186   1.570  1.0706 -0.6992 -0.2475
 4552SOL    HW225116   1.939   4.319   1.560 -1.4834  1.0362 -0.2813
 4553SOL     OW25117   3.398   2.523   5.645  0.6491 -0.1062  0.0528
 4553SOL    HW125118   3.372   2.447   5.593  2.9489 -1.1526  0.4106
 4553SOL    HW225119   3.492   2.512   5.658  0.9233  1.8517 -0.2762
 4554SOL     OW25120   0.976   1.418   4.359  0.0166 -0.1761  0.1075
 4554SOL    HW125121   0.950   1.352   4.295  0.7520  0.1789 -0.5496
 4554SOL    HW225122   0.920   1.489   4.326  1.7581  1.3430  0.4099
 4555SOL     OW25123   0.569   1.531   0.450  0.2411 -0.2288 -0.0412
 4555SOL    HW125124   0.658   1.510   0.423  0.6229  0.3801  0.7529
 4555SOL    HW225125   0.580   1.572   0.535  2.4230 -1.8625  0.4597
 4556SOL     OW25126   1.988   3.910  12.702 -0.7186  0.0056  0.4994
 4556SOL    HW125127   2.072   3.863  12.696  0.1257  1.3728  1.6334
 4556SOL    HW225128   1.938   3.850  12.648 -0.1855  0.0976 -0.1057
 4557SOL     OW25129   2.614   3.756  12.737 -0.2015 -0.2116 -0.0918
 4557SOL    HW125130   2.556   3.780  12.664  0.3579  0.3329 -0.3572
 4557SOL    HW225131   2.561   3.765  12.816  0.0580 -1.7383  0.2530
 4558SOL     OW25132   3.745   2.503  16.071 -0.0767  0.7913 -0.4393
 4558SOL    HW125133   3.796   2.577  16.105  1.4388  0.8989 -2.9706
 4558SOL    HW225134   3.664   2.546  16.045 -0.6588  0.6614  1.1415
 4559SOL     OW25135   0.215   1.660   3.522 -0.0430 -0.2818 -0.3586
 4559SOL    HW125136   0.204   1.566   3.515 -1.3374 -0.1996  0.7132
 4559SOL    HW225137   0.143   1.690   3.466  0.4290 -0.2184 -0.9387
 4560SOL     OW25138   1.889   2.234   4.594 -0.3408 -0.4362 -0.0265
 4560SOL    HW125139   1.809   2.204   4.551 -1.7749  1.3086  1.4087
 4560SOL    HW225140   1.912   2.154   4.642 -0.8625 -1.7610 -1.9765
 4561SOL     OW25141   1.573   1.611   9.399 -0.0319 -0.3181  0.2256
 4561SOL    HW125142   1.556   1.687   9.343 -1.2130  0.1602  1.2679
 4561SOL    HW225143   1.493   1.566   9.373 -0.4102  0.3287  0.2826
 4562SOL     OW25144   4.427   3.935   4.940 -0.4126  0.2738  0.3128
 4562SOL    HW125145   4.404   3.855   4.987 -0.8909  1.2949  1.8154
 4562SOL    HW225146   4.496   3.907   4.880 -0.1435  1.8812 -0.1145
 4563SOL     OW25147   2.557   4.316  11.989  0.6065 -0.5839  0.0998
 4563SOL    HW125148   2.495   4.304  11.917  1.2510 -0.3812 -0.4872
 4563SOL    HW225149   2.569   4.224  12.014 -0.1067 -1.0218 -1.1981
 4564SOL     OW25150   2.230   1.036   7.904 -0.4396 -0.1217 -0.4163
 4564SOL    HW125151   2.237   1.001   7.815  1.1293  0.3107 -0.4557
 4564SOL    HW225152   2.319   1.069   7.912  0.2476 -2.0373 -0.1086
 4565SOL     OW25153   3.852   0.689   7.498  0.5301  0.4431  0.2840
 4565SOL    HW125154   3.827   0.628   7.568  1.0622 -0.1408 -0.0349
 4565SOL    HW225155   3.945   0.671   7.509  0.5841  1.3352  1.3322
 4566SOL     OW25156   0.991   0.348   7.533  0.6433  0.4326 -0.0515
 4566SOL    HW125157   1.002   0.362   7.439 -0.7602 -0.4640 -0.3393
 4566SOL    HW225158   0.959   0.258   7.532  2.9585 -0.4281  2.3430
 4567SOL     OW25159   4.265   0.782   1.272  0.4425  0.0325 -0.3504
 4567SOL    HW125160   4.298   0.758   1.359  1.3198  0.8882 -0.4411
 4567SOL    HW225161   4.196   0.846   1.285 -0.3512 -0.5552 -1.6735
 4568SOL     OW25162   1.750   4.510   4.177  0.0986 -0.2503 -0.4275
 4568SOL    HW125163   1.660   4.481   4.191 -0.4048  1.5231  0.0813
 4568SOL    HW225164   1.747   4.606   4.169 -1.2847 -0.1783  1.0300
 4569SOL     OW25165   3.562   4.566   2.727  0.2018  0.0248 -0.3757
 4569SOL    HW125166   3.541   4.650   2.686 -0.8658 -0.0388  0.0310
 4569SOL    HW225167   3.518   4.503   2.671 -0.2276 -1.3374  1.4896
 4570SOL     OW25168   2.523   0.738  10.756 -0.3531  0.2547  0.1359
 4570SOL    HW125169   2.525   0.665  10.694  2.7364  0.6476 -0.2166
 4570SOL    HW225170   2.438   0.782  10.747  0.3612  2.0654  2.1511
 4571SOL     OW25171   1.091   4.562  12.566  0.1374 -0.2435 -0.2449
 4571SOL    HW125172   1.147   4.487  12.586 -0.7145 -0.8978 -0.2948
 4571SOL    HW225173   1.005   4.520  12.569  0.8003 -1.5663  0.5625
 4572SOL     OW25174   0.097   0.346  17.354  0.0485  0.5484 -0.1193
 4572SOL    HW125175   0.047   0.398  17.417  0.2445 -1.3485  1.6067
 4572SOL    HW225176   0.033   0.344  17.283  0.2640  0.2731 -0.2996
 4573SOL     OW25177   3.922   2.362  17.464  0.3034 -0.1138 -0.2390
 4573SOL    HW125178   3.845   2.415  17.443  0.0976 -0.0269  0.7372
 4573SOL    HW225179   3.990   2.429  17.452 -0.9416  0.9259 -1.4870
 4574SOL     OW25180   4.280   2.681  16.911 -0.8145  0.2864 -0.0597
 4574SOL    HW125181   4.332   2.687  16.992 -0.3135 -0.3707 -0.3377
 4574SOL    HW225182   4.349   2.655  16.850 -1.0488  1.8693 -1.0112
 4575SOL     OW25183   3.439   3.825   6.036  0.1949  0.1162  0.2997
 4575SOL    HW125184   3.509   3.760   6.046  0.3778  0.1307 -0.9341
 4575SOL    HW225185   3.439   3.832   5.940  3.5817 -1.8896  0.1603
 4576SOL     OW25186   3.929   4.560  12.436 -0.1187  0.0660  0.2034
 4576SOL    HW125187   3.963   4.471  12.425 -0.3853 -0.1207  0.8660
 4576SOL    HW225188   3.838   4.547  12.460 -0.1362 -2.9435 -1.5553
 4577SOL     OW25189   1.587   2.666   7.316 -0.2873  0.9318 -0.3281
 4577SOL    HW125190   1.640   2.609   7.372 -0.0476  0.3781 -1.1106
 4577SOL    HW225191   1.548   2.608   7.250 -0.1700 -0.9755  1.2622
 4578SOL     OW25192   2.507   3.886   6.730 -0.2749  0.0764 -0.0787
 4578SOL    HW125193   2.426   3.843   6.701 -1.3226  1.2073  1.1314
 4578SOL    HW225194   2.476   3.940   6.803  0.1727 -0.2788  0.3760
 4579SOL     OW25195   2.699   1.194   6.027 -0.0678 -1.1199 -0.3068
 4579SOL    HW125196   2.650   1.164   5.949  0.5781  1.3342 -1.6540
 4579SOL    HW225197   2.690   1.114   6.079 -1.4390  2.4266  4.9063
 4580SOL     OW25198   3.788   1.648  10.320  0.0977 -0.2067  0.0456
 4580SOL    HW125199   3.843   1.726  10.330 -0.4571  0.1969 -0.0691
 4580SOL    HW225200   3.836   1.608  10.247  1.2759  1.3469 -0.0187
 4581SOL     OW25201   1.224   1.354   9.018  0.3667 -0.3635  0.2641
 4581SOL    HW125202   1.221   1.287   8.950  0.0878 -0.7114  0.6183
 4581SOL    HW225203   1.263   1.320   9.099  0.9139 -1.0521 -0.2864
 4582SOL     OW25204   3.901   1.477  11.169  0.0455 -0.1702 -0.3311
 4582SOL    HW125205   3.922   1.391  11.131  0.5047 -0.3007  0.2000
 4582SOL    HW225206   3.808   1.483  11.147 -0.2312 -0.2864  0.8006
 4583SOL     OW25207   3.516   0.735   6.182  0.0945 -0.7761 -0.5987
 4583SOL    HW125208   3.513   0.665   6.117 -0.7450 -1.2986 -0.0052
 4583SOL    HW225209   3.483   0.811   6.135 -0.1437  0.1341  1.0288
 4584SOL     OW25210   2.435   2.460   8.657  0.0013  0.2511 -0.6705
 4584SOL    HW125211   2.472   2.379   8.691 -2.0045 -0.2808  0.2489
 4584SOL    HW225212   2.342   2.466   8.680 -0.2780 -0.6229 -1.5878
 4585SOL     OW25213   3.221   4.056   3.333 -0.4246 -0.2703 -0.2737
 4585SOL    HW125214   3.239   3.969   3.297  0.3620 -0.7440  1.2506
 4585SOL    HW225215   3.296   4.072   3.391 -0.5907 -0.9284  0.1282
 4586SOL     OW25216   3.266   3.931   3.853 -0.0488 -0.7456 -0.4854
 4586SOL    HW125217   3.300   4.009   3.808  0.4817 -2.3266 -2.8217
 4586SOL    HW225218   3.232   3.972   3.932  3.2599 -1.1917  1.1825
 4587SOL     OW25219   3.314   2.598   6.707  0.1419 -0.6292 -0.9781
 4587SOL    HW125220   3.272   2.512   6.715  2.0307 -1.6191 -1.5234
 4587SOL    HW225221   3.407   2.580   6.719 -0.3067 -1.5094  1.1112
 4588SOL     OW25222   2.528   2.790   4.983 -0.1533  0.1077 -0.4375
 4588SOL    HW125223   2.446   2.794   4.934 -0.6517 -2.7441  0.1659
 4588SOL    HW225224   2.561   2.702   4.967  1.2219  0.2525  1.5547
 4589SOL     OW25225   3.623   2.242  11.915 -0.4571  0.3084 -0.0009
 4589SOL    HW125226   3.537   2.278  11.935 -0.6349  0.6139 -1.2866
 4589SOL    HW225227   3.663   2.319  11.875  0.2052 -0.4852 -0.8897
 4590SOL     OW25228   1.062   2.863   6.725  0.3906 -0.1466 -0.5820
 4590SOL    HW125229   1.041   2.949   6.763 -3.7807 -1.3512 -0.1937
 4590SOL    HW225230   1.087   2.882   6.635 -0.0866 -0.4974 -0.7876
 4591SOL     OW25231   4.399   0.310   4.675 -0.4399 -0.0186  0.1573
 4591SOL    HW125232   4.418   0.359   4.595 -0.0699  0.3283  0.4559
 4591SOL    HW225233   4.491   0.299   4.701 -0.1526 -1.7194 -1.5635
 4592SOL     OW25234   0.832   1.165   8.672  0.3412  0.3526 -0.2237
 4592SOL    HW125235   0.822   1.208   8.757 -0.0848  0.0656 -0.1320
 4592SOL    HW225236   0.889   1.093   8.701 -0.4624  0.3775  1.4013
 4593SOL     OW25237   4.602   0.592  13.770 -0.1870 -0.2273  0.2236
 4593SOL    HW125238   4.606   0.565  13.862  1.0596  3.5103  1.2680
 4593SOL    HW225239   4.549   0.518  13.742  0.1008 -0.3856  0.1056
 4594SOL     OW25240   4.449   1.260   9.454  0.0809 -0.3513 -0.2828
 4594SOL    HW125241   4.472   1.180   9.406 -1.2439 -0.7213 -0.3164
 4594SOL    HW225242   4.531   1.276   9.500 -0.3128 -2.6948  1.2355
 4595SOL     OW25243   4.101   1.126  12.630 -0.6001  0.3334 -0.0020
 4595SOL    HW125244   4.097   1.074  12.710 -0.5900  2.2510  1.2327
 4595SOL    HW225245   4.008   1.134  12.606 -0.7552 -1.5624 -0.0430
 4596SOL     OW25246   1.720   4.323   0.347 -0.0605 -0.2796  0.4279
 4596SOL    HW125247   1.804   4.325   0.393  0.3982  0.5153 -0.4535
 4596SOL    HW225248   1.742   4.286   0.262 -0.7147 -0.5247  0.3632
 4597SOL     OW25249   1.777   1.631  13.544 -0.1727 -0.2005  0.0067
 4597SOL    HW125250   1.783   1.683  13.464  0.5797 -0.4392 -0.0921
 4597SOL    HW225251   1.807   1.550  13.502  0.5746 -0.4052  0.9469
 4598SOL     OW25252   1.675   4.121   7.782 -0.7209 -0.9481  0.0734
 4598SOL    HW125253   1.580   4.125   7.796 -0.5499  0.6481  0.7096
 4598SOL    HW225254   1.701   4.212   7.794 -1.1198 -1.0218  1.4771
 4599SOL     OW25255   0.403   1.443   1.180 -0.3701  0.0904  0.3394
 4599SOL    HW125256   0.493   1.437   1.214  0.0178  0.4087 -0.6257
 4599SOL    HW225257   0.380   1.352   1.158  2.5588 -1.1187  2.1484
 4600SOL     OW25258   2.364   1.304  10.428  0.3379  0.3903 -0.3869
 4600SOL    HW125259   2.283   1.324  10.476 -0.1722  0.6990 -1.3805
 4600SOL    HW225260   2.323   1.321  10.343  1.7275  1.0584 -0.9173
 4601SOL     OW25261   3.871   4.532   6.210  0.0106  0.6383 -0.1094
 4601SOL    HW125262   3.808   4.546   6.139  0.2362 -0.8332 -0.5912
 4601SOL    HW225263   3.934   4.595   6.175  1.0649 -1.7916 -2.5923
 4602SOL     OW25264   0.058   4.107   3.570 -0.9417 -0.1128  0.4894
 4602SOL    HW125265   0.048   4.200   3.550  3.2183  0.3033  0.3658
 4602SOL    HW225266   0.133   4.103   3.629 -0.0375  1.2721 -0.5786
 4603SOL     OW25267   0.681   2.978  16.201 -0.0802 -0.1985 -0.7331
 4603SOL    HW125268   0.602   2.935  16.168  0.1545 -1.5778  0.4441
 4603SOL    HW225269   0.694   3.041  16.131 -1.3133  0.1721 -0.6208
 4604SOL     OW25270   1.162   4.089   1.703  0.4129 -0.1346 -0.0796
 4604SOL    HW125271   1.070   4.076   1.678  0.0537  1.5573  0.3431
 4604SOL    HW225272   1.184   4.146   1.629  1.8562 -2.6776 -1.6025
 4605SOL     OW25273   4.462   3.121   8.559 -0.0820  0.3602  0.6074
 4605SOL    HW125274   4.514   3.199   8.577  0.0613  0.1588  1.0583
 4605SOL    HW225275   4.521   3.046   8.564 -1.3723 -0.6542  0.6517
 4606SOL     OW25276   3.953   1.448   5.085 -0.2049 -0.2279  0.1954
 4606SOL    HW125277   3.863   1.419   5.077  0.3225 -1.6401 -0.6462
 4606SOL    HW225278   3.940   1.534   5.044 -2.2636 -0.2961  0.7185
 4607SOL     OW25279   0.752   2.801   9.545  0.5319 -0.0826  0.3376
 4607SOL    HW125280   0.704   2.787   9.627 -1.3055 -0.7513 -0.8453
 4607SOL    HW225281   0.845   2.792   9.569  0.8056  2.4970  0.2516
 4608SOL     OW25282   0.018   2.028  14.481 -0.3245 -0.7267  0.0328
 4608SOL    HW125283   4.672   1.960  14.492 -0.9938  0.1742  1.6038
 4608SOL    HW225284   4.693   2.104  14.515  0.8091  0.1280 -0.3369
 4609SOL     OW25285   0.085   2.550   2.312  0.6525  0.8285  0.7718
 4609SOL    HW125286   0.118   2.625   2.263  2.9201  0.8932  2.4286
 4609SOL    HW225287   0.092   2.588   2.399  4.3494 -0.3320  0.9665
 4610SOL     OW25288   2.565   0.055   4.354 -0.2967  0.3937 -0.2036
 4610SOL    HW125289   2.626   0.128   4.355  1.6098 -1.2049  1.5214
 4610SOL    HW225290   2.497   0.091   4.297 -0.9544 -1.1001 -0.3855
 4611SOL     OW25291   4.368   0.163   8.675 -0.2574 -0.3525 -0.3614
 4611SOL    HW125292   4.282   0.133   8.701 -0.1246 -1.8442 -1.6575
 4611SOL    HW225293   4.383   0.235   8.736  3.9225 -0.6577 -0.9960
 4612SOL     OW25294   3.775   0.089   5.624  0.2800  0.0529 -0.0486
 4612SOL    HW125295   3.865   0.073   5.595  0.4341  0.0728  0.4256
 4612SOL    HW225296   3.768   0.168   5.569 -0.5191 -1.4579 -2.1123
 4613SOL     OW25297   0.866   2.348   8.727  0.0841 -0.5241 -0.3703
 4613SOL    HW125298   0.825   2.350   8.813  1.3281 -2.4410  0.2411
 4613SOL    HW225299   0.797   2.297   8.685  0.2434 -1.5844  0.6674
 4614SOL     OW25300   1.358   1.247  17.608 -0.1631  0.8666  0.1767
 4614SOL    HW125301   1.275   1.260  17.654 -0.8798 -1.0130 -0.5650
 4614SOL    HW225302   1.335   1.245  17.515 -1.9705  1.0626  0.6291
 4615SOL     OW25303   1.959   1.083  16.747 -0.0466  0.2804  0.3984
 4615SOL    HW125304   1.897   1.129  16.805  0.1288  2.0396 -0.8006
 4615SOL    HW225305   1.908   1.068  16.667  1.1446  0.7767 -0.4461
 4616SOL     OW25306   4.457   4.484  16.236  0.1092 -0.4336 -0.0376
 4616SOL    HW125307   4.400   4.468  16.161 -0.6192 -1.2980  0.7170
 4616SOL    HW225308   4.408   4.563  16.260  1.3877  0.1430  0.6612
 4617SOL     OW25309   3.629   2.746   8.109  0.1038  0.7674 -0.5338
 4617SOL    HW125310   3.541   2.721   8.081 -0.4910  0.5606  1.5524
 4617SOL    HW225311   3.657   2.674   8.165 -2.2277  0.2357 -0.0510
 4618SOL     OW25312   3.598   3.879   9.543 -0.0712  0.1115 -0.1710
 4618SOL    HW125313   3.679   3.864   9.495 -0.8141 -0.3991 -1.2485
 4618SOL    HW225314   3.591   3.795   9.588 -1.7599 -1.1221 -2.7717
 4619SOL     OW25315   2.096   3.990   9.393 -0.2688  0.0092 -0.2060
 4619SOL    HW125316   2.169   4.047   9.372  0.1639 -0.3886  0.2115
 4619SOL    HW225317   2.025   4.053   9.398 -0.8522 -0.7413  1.0774
 4620SOL     OW25318   2.381   1.618   1.098  0.4163  0.0062 -0.3776
 4620SOL    HW125319   2.408   1.610   1.006 -0.9471 -1.5665 -0.6338
 4620SOL    HW225320   2.466   1.602   1.140  0.3127  0.2516 -0.0751
 4621SOL     OW25321   3.232   1.951  10.141 -0.1189  0.0807  0.5120
 4621SOL    HW125322   3.202   1.944  10.232 -1.7288 -1.0446 -0.1060
 4621SOL    HW225323   3.175   1.884  10.104 -0.2149  0.4426  0.0061
 4622SOL     OW25324   3.475   0.444   1.186 -0.5666 -0.8257 -0.5745
 4622SOL    HW125325   3.438   0.506   1.123 -0.8340 -1.7505 -1.3279
 4622SOL    HW225326   3.417   0.451   1.262 -0.7208  2.7004 -1.0128
 4623SOL     OW25327   1.628   1.398  15.028  0.1229  0.0089 -0.3245
 4623SOL    HW125328   1.606   1.385  14.936 -2.5286 -0.9681  0.4488
 4623SOL    HW225329   1.717   1.433  15.028  0.9093 -1.9817 -1.8686
 4624SOL     OW25330   3.982   3.124   0.523 -0.4700  0.5763  0.0289
 4624SOL    HW125331   3.895   3.145   0.488  0.6554  0.7986 -2.6060
 4624SOL    HW225332   4.044   3.160   0.460  2.5392 -0.1868  2.6084
 4625SOL     OW25333   1.306   3.786   4.398 -0.0501 -0.1790 -0.0837
 4625SOL    HW125334   1.322   3.818   4.310  0.5792  1.6839  0.7088
 4625SOL    HW225335   1.250   3.708   4.391  0.1483 -0.1829 -1.5783
 4626SOL     OW25336   1.669   4.641   4.825  0.5753  0.4821  0.4431
 4626SOL    HW125337   1.715   4.689   4.756 -2.9855  0.4525 -1.9465
 4626SOL    HW225338   1.731   4.649   4.898 -0.6283  1.3225  1.3768
 4627SOL     OW25339   0.973   2.210  11.326 -0.1983  0.1820 -0.1425
 4627SOL    HW125340   1.049   2.251  11.285 -1.6596  2.4997 -0.4853
 4627SOL    HW225341   0.914   2.208  11.251  0.7744  1.2751 -0.9378
 4628SOL     OW25342   4.089   0.950  13.824 -0.5485 -0.3486 -0.4309
 4628SOL    HW125343   4.066   0.872  13.774  2.1865 -1.9481  0.7435
 4628SOL    HW225344   4.134   0.911  13.900  1.7159 -0.7208 -1.9668
 4629SOL     OW25345   2.360   1.976   8.191 -0.2835  0.6027 -0.1049
 4629SOL    HW125346   2.339   2.059   8.234  1.1245  1.0929 -0.3603
 4629SOL    HW225347   2.446   1.956   8.227  0.5257 -1.2284 -3.0677
 4630SOL     OW25348   3.100   2.989   8.390 -0.7218  0.3801  0.0669
 4630SOL    HW125349   3.185   2.948   8.378 -1.1369 -0.3503 -0.3477
 4630SOL    HW225350   3.068   2.949   8.470 -0.8703  0.9267  0.2839
 4631SOL     OW25351   0.041   0.773   3.304  0.3302 -0.3904 -0.1943
 4631SOL    HW125352   0.005   0.753   3.391 -0.3201  0.8259 -0.1819
 4631SOL    HW225353   4.696   0.837   3.277  1.8875  1.3287  0.0673
 4632SOL     OW25354   0.331   3.834   2.947 -0.1107  0.2936 -0.1761
 4632SOL    HW125355   0.304   3.833   3.039 -0.1961  0.2201 -0.2017
 4632SOL    HW225356   0.419   3.798   2.954  0.3126  1.1170 -1.1651
 4633SOL     OW25357   4.004   4.190   2.372 -0.1590 -0.1408 -0.5045
 4633SOL    HW125358   4.044   4.171   2.287 -0.7690  0.9328 -1.0364
 4633SOL    HW225359   3.978   4.105   2.408  0.8634 -1.0902 -2.0301
 4634SOL     OW25360   1.901   2.083   6.347  0.3355  0.4334  0.3362
 4634SOL    HW125361   1.977   2.052   6.397 -0.6204 -1.4812  0.5909
 4634SOL    HW225362   1.839   2.012   6.365  0.3834  0.2344 -0.2693
 4635SOL     OW25363   1.782   2.063  13.382 -0.5632  0.3872  0.5757
 4635SOL    HW125364   1.821   1.992  13.434  0.8198  0.7902  0.0855
 4635SOL    HW225365   1.730   2.021  13.314  1.1801 -0.4484 -0.2382
 4636SOL     OW25366   2.840   3.282   9.364  0.2658  0.3030 -0.3696
 4636SOL    HW125367   2.847   3.187   9.367  2.0319  0.4248 -0.5226
 4636SOL    HW225368   2.833   3.297   9.270 -2.5008 -0.0318 -0.2058
 4637SOL     OW25369   3.935   0.757   3.822  0.4251 -0.4606 -0.8280
 4637SOL    HW125370   3.909   0.748   3.914 -2.0090  1.0245 -1.3478
 4637SOL    HW225371   3.858   0.806   3.791  1.9841  2.0490 -0.6832
 4638SOL     OW25372   0.989   4.685   3.227 -0.2406  0.2429  0.3001
 4638SOL    HW125373   0.968   4.698   3.319 -0.3978  1.4250  0.0994
 4638SOL    HW225374   1.010   4.592   3.230  0.8447  0.5143  1.3073
 4639SOL     OW25375   0.474   0.876   0.379  0.1904 -0.2391 -0.0470
 4639SOL    HW125376   0.539   0.814   0.413  0.8931  0.0629 -0.8233
 4639SOL    HW225377   0.399   0.823   0.353 -0.8135  1.6266 -0.9150
 4640SOL     OW25378   4.125   0.488  11.458  0.3489  0.3976  0.7149
 4640SOL    HW125379   4.047   0.491  11.514 -0.7799 -1.5945 -0.7197
 4640SOL    HW225380   4.170   0.413  11.498  0.2341 -0.6965 -1.1824
 4641SOL     OW25381   1.396   4.658   8.042  0.6471  0.7452  0.4243
 4641SOL    HW125382   1.441   4.609   7.973 -2.6653 -1.5705 -0.0882
 4641SOL    HW225383   1.442   4.624   8.119 -0.5669  0.7291  1.1490
 4642SOL     OW25384   2.706   4.102  10.729 -1.0491  0.0231 -0.1441
 4642SOL    HW125385   2.762   4.114  10.805  2.3609  0.3320 -2.7295
 4642SOL    HW225386   2.766   4.067  10.663 -3.0405 -2.8875 -0.4620
 4643SOL     OW25387   3.540   2.063   7.314  0.4665  0.0733  0.6340
 4643SOL    HW125388   3.445   2.077   7.308  0.3910 -0.6228  0.2214
 4643SOL    HW225389   3.553   1.982   7.363  1.4603 -0.1049  0.0486
 4644SOL     OW25390   0.772   0.620   2.450  0.0290 -0.1618  0.0898
 4644SOL    HW125391   0.770   0.524   2.449 -0.7073 -0.1353 -1.0650
 4644SOL    HW225392   0.812   0.641   2.366 -0.1930 -0.9877 -0.2231
 4645SOL     OW25393   4.266   0.016   7.268 -0.5661 -0.5905  0.0217
 4645SOL    HW125394   4.213   4.658   7.276  2.1507 -2.1631  2.6851
 4645SOL    HW225395   4.329   0.001   7.339  1.4606  0.5550 -1.5370
 4646SOL     OW25396   4.094   2.245   4.840 -1.2124 -0.5815  0.2719
 4646SOL    HW125397   4.075   2.336   4.866 -1.7025 -0.6857  0.2858
 4646SOL    HW225398   4.190   2.248   4.841 -1.2920  2.1999  0.2211
 4647SOL     OW25399   2.863   4.310   8.717 -0.1145  0.1994 -0.2639
 4647SOL    HW125400   2.801   4.240   8.694 -1.4816  2.2840 -2.8727
 4647SOL    HW225401   2.925   4.259   8.769 -1.7122  0.9584  2.3811
 4648SOL     OW25402   4.518   3.013   0.666 -0.4221  0.1865 -0.2293
 4648SOL    HW125403   4.555   3.029   0.753 -0.6573 -1.5790  0.1964
 4648SOL    HW225404   4.592   2.984   0.612  0.4112  0.5893  0.6997
 4649SOL     OW25405   3.850   0.637   6.995 -0.4011  0.3977  0.1588
 4649SOL    HW125406   3.922   0.697   6.977 -1.6259  2.2765  1.5288
 4649SOL    HW225407   3.880   0.558   7.039  0.5126  0.3897 -0.4854
 4650SOL     OW25408   2.665   1.628   5.617  0.3054  0.1272 -0.0916
 4650SOL    HW125409   2.602   1.594   5.554  0.5725  1.1320 -0.9012
 4650SOL    HW225410   2.748   1.635   5.569  1.0445  1.3369  1.3389
 4651SOL     OW25411   4.063   3.130   2.760  0.5022 -0.6565 -0.3942
 4651SOL    HW125412   4.144   3.083   2.780  1.2820  1.2909  0.9667
 4651SOL    HW225413   4.014   3.140   2.841 -1.0443 -0.6302 -1.3410
 4652SOL     OW25414   0.944   2.822  12.373 -0.4287  0.4232  0.1684
 4652SOL    HW125415   0.888   2.786  12.304  1.2768 -1.7582 -0.0469
 4652SOL    HW225416   1.022   2.768  12.361 -0.8786 -0.3598  0.7802
 4653SOL     OW25417   3.340   2.282  13.532  0.3223 -0.1421 -0.1627
 4653SOL    HW125418   3.288   2.266  13.453 -0.0097 -0.1550  0.0612
 4653SOL    HW225419   3.339   2.192  13.565  0.5906  0.6943  2.1613
 4654SOL     OW25420   4.094   3.606  11.381  0.1137 -0.1975 -0.4365
 4654SOL    HW125421   4.146   3.527  11.396 -1.0192 -0.7146  0.7996
 4654SOL    HW225422   4.052   3.570  11.303 -0.1444 -2.5146  0.7716
 4655SOL     OW25423   0.962   1.113   9.075  0.4664 -0.0748  0.4484
 4655SOL    HW125424   0.945   1.207   9.083  0.5712  0.1346 -1.7828
 4655SOL    HW225425   1.004   1.101   9.160 -0.9990  0.9256  1.3189
 4656SOL     OW25426   3.496   1.580   2.836 -0.2435 -0.0003  0.4534
 4656SOL    HW125427   3.498   1.484   2.836 -0.2589 -0.0005  0.5512
 4656SOL    HW225428   3.428   1.602   2.899  1.2579 -0.8775  2.3663
 4657SOL     OW25429   4.138   2.650   6.824  0.0043 -0.1791 -0.5500
 4657SOL    HW125430   4.190   2.601   6.888  2.3737  3.4565  0.3011
 4657SOL    HW225431   4.119   2.591   6.751 -2.2946  3.0298 -2.5103
 4658SOL     OW25432   1.384   1.518   5.201 -1.1111 -0.1315 -0.1061
 4658SOL    HW125433   1.427   1.591   5.157 -2.0927  1.1260  0.9871
 4658SOL    HW225434   1.307   1.505   5.145 -1.5299 -1.4686  0.7842
 4659SOL     OW25435   2.319   2.869   1.956 -1.0343 -0.1921  0.4007
 4659SOL    HW125436   2.362   2.849   2.040  0.9873 -0.6883 -0.7427
 4659SOL    HW225437   2.343   2.793   1.903  0.2587  0.5064 -0.0039
 4660SOL     OW25438   2.942   2.095   8.634  0.1000  0.2475 -0.2064
 4660SOL    HW125439   2.948   2.093   8.730 -1.0783 -1.5602 -0.1689
 4660SOL    HW225440   3.021   2.047   8.608  0.4875  2.0262 -2.3105
 4661SOL     OW25441   0.895   4.563  14.933 -0.6794 -0.1753 -0.1224
 4661SOL    HW125442   0.879   4.623  15.006  0.4932 -1.4198  1.1671
 4661SOL    HW225443   0.957   4.503  14.975  2.7883  1.7964 -2.4516
 4662SOL     OW25444   1.601   2.428  12.165 -0.4507 -0.1169 -0.2426
 4662SOL    HW125445   1.590   2.423  12.070 -2.4716 -1.2929  0.0441
 4662SOL    HW225446   1.681   2.482  12.165 -0.6181  0.1316 -0.4125
 4663SOL     OW25447   3.926   1.151  11.262 -0.0395 -0.0239 -0.6068
 4663SOL    HW125448   3.986   1.218  11.230 -0.5015  0.0051 -1.4134
 4663SOL    HW225449   3.911   1.172  11.354 -2.6361 -0.1601 -0.9755
 4664SOL     OW25450   2.863   2.724   6.988 -0.3104  0.4766 -0.8871
 4664SOL    HW125451   2.925   2.796   6.997 -0.4055  0.4451  0.0338
 4664SOL    HW225452   2.876   2.691   7.077 -0.6936  3.9043  0.4250
 4665SOL     OW25453   0.521   2.950   0.973  0.2042 -0.4955 -0.4468
 4665SOL    HW125454   0.462   3.005   1.024  0.6653  0.5873 -1.0694
 4665SOL    HW225455   0.465   2.905   0.910  0.6883 -1.9495  0.1500
 4666SOL     OW25456   1.955   2.954   0.663 -0.5921  0.1898  0.0641
 4666SOL    HW125457   1.882   2.938   0.722 -0.9764 -2.0477 -0.9869
 4666SOL    HW225458   1.911   2.922   0.584  1.5155  2.8424 -2.1781
 4667SOL     OW25459   2.570   2.383   7.566  0.1342  0.2379 -0.4946
 4667SOL    HW125460   2.604   2.468   7.591 -1.4831  0.7959 -0.1404
 4667SOL    HW225461   2.474   2.385   7.570  0.1681  1.2861 -0.2210
 4668SOL     OW25462   4.023   1.421   5.849  0.1827  0.0230 -0.3024
 4668SOL    HW125463   4.058   1.384   5.930 -1.0145  0.6262  0.4984
 4668SOL    HW225464   4.075   1.377   5.782 -1.2198 -0.1215 -1.2990
 4669SOL     OW25465   4.416   3.551   4.236  0.7711 -0.3474 -0.0688
 4669SOL    HW125466   4.338   3.561   4.290 -0.3165 -2.3444 -1.2634
 4669SOL    HW225467   4.386   3.584   4.152 -0.1292 -0.4779  0.2105
 4670SOL     OW25468   1.684   4.434   3.124  0.0485  0.2419  0.2584
 4670SOL    HW125469   1.707   4.342   3.132  1.4512  0.5452 -0.2368
 4670SOL    HW225470   1.612   4.432   3.062  0.5211 -1.2448 -0.2232
 4671SOL     OW25471   3.741   2.527  15.472 -0.0175  0.3591 -0.0370
 4671SOL    HW125472   3.738   2.610  15.520  0.7397  0.3071  0.1122
 4671SOL    HW225473   3.803   2.566  15.410 -0.1700  0.8034  0.0933
 4672SOL     OW25474   2.963   4.478   8.044  0.3477 -0.2635  0.3198
 4672SOL    HW125475   3.041   4.447   8.090  1.3092 -0.6842 -1.6379
 4672SOL    HW225476   2.902   4.472   8.118  0.2760 -1.4775  0.1593
 4673SOL     OW25477   3.193   3.464   2.983  0.2438  0.3626 -0.1841
 4673SOL    HW125478   3.145   3.446   2.902 -1.5809  1.5609  0.6142
 4673SOL    HW225479   3.272   3.415   2.962  0.8254  0.4249  1.8323
 4674SOL     OW25480   2.593   1.642  17.304 -0.1915  0.2560  0.0681
 4674SOL    HW125481   2.566   1.722  17.259 -0.6439  0.1727  0.1946
 4674SOL    HW225482   2.565   1.578  17.238 -0.5010  0.0798  0.3686
 4675SOL     OW25483   1.513   3.684   3.715  0.6156  0.2445  0.5863
 4675SOL    HW125484   1.594   3.634   3.724 -1.3702 -2.7532  1.4503
 4675SOL    HW225485   1.471   3.627   3.650  0.4387 -0.2835  1.1676
 4676SOL     OW25486   4.057   0.838  15.449 -0.1068  0.1190 -0.0818
 4676SOL    HW125487   4.035   0.791  15.369 -0.7234 -0.4917  0.4540
 4676SOL    HW225488   4.099   0.916  15.412  0.7488  0.4809  1.6064
 4677SOL     OW25489   4.413   4.061  12.754 -0.1965  0.2835  0.2207
 4677SOL    HW125490   4.441   4.028  12.839  2.2163  0.8483 -0.3360
 4677SOL    HW225491   4.345   3.998  12.731 -0.0449  0.1390  0.1709
 4678SOL     OW25492   0.136   3.093   2.804  0.0930 -0.2789 -0.2441
 4678SOL    HW125493   0.145   3.187   2.789  2.2786 -0.0484  2.4882
 4678SOL    HW225494   0.058   3.089   2.858 -0.6301  1.8404 -1.1475
 4679SOL     OW25495   1.441   0.443  11.151  0.2889 -0.0204 -0.0539
 4679SOL    HW125496   1.491   0.362  11.142 -0.5599 -0.4580 -0.8110
 4679SOL    HW225497   1.494   0.505  11.100  0.7809 -1.0681 -0.8345
 4680SOL     OW25498   4.710   0.483  14.616 -0.1182  0.0783  0.1062
 4680SOL    HW125499   4.695   0.491  14.710 -0.2034 -0.2572  0.1242
 4680SOL    HW225500   0.066   0.427  14.625 -1.7017 -2.2265 -0.4268
 4681SOL     OW25501   3.325   2.732  17.348 -0.5228  0.3881  0.0576
 4681SOL    HW125502   3.306   2.784  17.426  0.6272 -1.7311  1.7425
 4681SOL    HW225503   3.239   2.708  17.314  0.5847 -2.8726 -0.4320
 4682SOL     OW25504   1.521   1.660   7.029  0.1081  0.6658  0.2063
 4682SOL    HW125505   1.588   1.724   7.006 -1.0034  1.3357 -1.2177
 4682SOL    HW225506   1.567   1.610   7.096  1.2131 -1.6320 -2.2232
 4683SOL     OW25507   3.868   2.326   8.825  0.1055  0.4770  0.1302
 4683SOL    HW125508   3.949   2.306   8.871 -0.7522  0.9152  1.8288
 4683SOL    HW225509   3.864   2.239   8.784  2.2610  0.9228 -1.0552
 4684SOL     OW25510   2.334   1.139   3.952  0.7829  0.4795  0.1036
 4684SOL    HW125511   2.327   1.116   3.859 -2.4614  1.4806  0.0969
 4684SOL    HW225512   2.262   1.090   3.991 -1.6257  3.4003 -0.7090
 4685SOL     OW25513   2.893   1.017  12.939  0.3652  0.3155  0.1531
 4685SOL    HW125514   2.891   1.110  12.958 -0.7431  0.4960 -0.9036
 4685SOL    HW225515   2.974   1.013  12.888  0.8500 -0.3829  0.9610
 4686SOL     OW25516   0.034   2.471   8.611 -0.3017 -0.3695  0.7869
 4686SOL    HW125517   4.710   2.554   8.629  1.7923  0.2686  3.1474
 4686SOL    HW225518   0.086   2.463   8.692 -0.0424  0.8087  0.7441
 4687SOL     OW25519   1.246   2.237   4.202  0.2273 -0.5678  0.2394
 4687SOL    HW125520   1.158   2.246   4.166 -0.3351  0.8110  1.9354
 4687SOL    HW225521   1.280   2.163   4.152  2.2904  2.0112 -2.2309
 4688SOL     OW25522   4.348   0.643   5.822  0.4296 -1.0541 -0.2865
 4688SOL    HW125523   4.271   0.680   5.865  1.1713 -1.1952  1.1597
 4688SOL    HW225524   4.323   0.653   5.730 -1.7398 -0.7080  0.3434
 4689SOL     OW25525   3.599   1.809   3.263  0.0821  0.3311 -0.0279
 4689SOL    HW125526   3.574   1.869   3.192  3.0524  0.3901 -1.0081
 4689SOL    HW225527   3.524   1.824   3.321 -0.1340 -0.5913 -0.0727
 4690SOL     OW25528   2.747   0.485   6.678  1.1652 -0.3415  0.0339
 4690SOL    HW125529   2.806   0.522   6.612  1.2797  0.6025  0.6550
 4690SOL    HW225530   2.794   0.516   6.756  0.9264 -0.1658  0.1093
 4691SOL     OW25531   1.748   0.287  16.646  0.1069 -0.1516 -0.1676
 4691SOL    HW125532   1.677   0.302  16.584  1.1187  0.3976 -1.1940
 4691SOL    HW225533   1.705   0.292  16.731 -1.6616  0.4303 -1.1074
 4692SOL     OW25534   2.668   2.968   1.593 -0.1547  0.1770  0.4841
 4692SOL    HW125535   2.703   3.015   1.669  0.7699  2.3574 -1.2853
 4692SOL    HW225536   2.587   3.018   1.581  0.9979  1.5249 -1.6683
 4693SOL     OW25537   0.697   1.075   3.170  0.7390  0.1033 -0.1254
 4693SOL    HW125538   0.788   1.061   3.194  0.5625  1.3570  1.3160
 4693SOL    HW225539   0.708   1.131   3.094  2.8290 -0.3877 -0.1809
 4694SOL     OW25540   2.265   1.274   2.874 -0.3492  0.1551  0.1519
 4694SOL    HW125541   2.195   1.265   2.938 -0.7121 -2.9588 -0.6599
 4694SOL    HW225542   2.246   1.214   2.802  0.5764  1.1265 -0.8887
 4695SOL     OW25543   1.574   4.116   9.342 -0.1838  0.1984  0.1928
 4695SOL    HW125544   1.619   4.077   9.417 -0.2408 -0.7015 -0.2448
 4695SOL    HW225545   1.563   4.206   9.374  1.5453  0.7820 -0.8584
 4696SOL     OW25546   3.395   3.399  17.127 -0.1110 -0.3829 -0.4972
 4696SOL    HW125547   3.372   3.450  17.050  1.4665 -0.5189 -1.0441
 4696SOL    HW225548   3.320   3.339  17.130 -0.1909 -0.2967 -0.8049
 4697SOL     OW25549   1.864   1.676  12.967 -0.4093  0.3120  0.6407
 4697SOL    HW125550   1.941   1.655  12.914 -0.9649 -0.4359  0.1225
 4697SOL    HW225551   1.867   1.597  13.020  0.9074 -0.0744 -0.0021
 4698SOL     OW25552   2.203   2.417   6.172  0.2410 -0.1001  0.9025
 4698SOL    HW125553   2.250   2.476   6.113  0.2094  0.1646  1.1391
 4698SOL    HW225554   2.116   2.410   6.131 -0.6289 -1.9353  3.0554
 4699SOL     OW25555   1.567   2.510   4.067 -0.2516 -0.1262 -0.4644
 4699SOL    HW125556   1.621   2.516   3.988  0.0945 -1.5668 -0.3475
 4699SOL    HW225557   1.531   2.598   4.080  1.0692  0.6707 -2.1586
 4700SOL     OW25558   3.488   3.770   4.817 -1.2595  0.9400  0.6249
 4700SOL    HW125559   3.482   3.691   4.762  0.7013 -0.7298  2.8439
 4700SOL    HW225560   3.401   3.808   4.805 -1.7192 -0.3753 -0.2396
 4701SOL     OW25561   4.403   2.392  16.993 -0.2582 -0.4485 -0.3947
 4701SOL    HW125562   4.482   2.421  16.947  0.5164 -1.2689  0.4097
 4701SOL    HW225563   4.397   2.464  17.057 -0.0264 -0.1080 -0.7582
 4702SOL     OW25564   3.698   3.248   3.880 -0.1481  0.2451  0.1595
 4702SOL    HW125565   3.781   3.242   3.832 -0.1500 -1.5091  0.3992
 4702SOL    HW225566   3.661   3.161   3.868 -0.3696  0.6326 -1.9194
 4703SOL     OW25567   4.058   3.810   7.549  0.4934 -0.5543 -0.2010
 4703SOL    HW125568   4.067   3.898   7.588  0.8464 -0.6475 -0.0683
 4703SOL    HW225569   4.106   3.820   7.467 -0.8026  0.7745 -0.7961
 4704SOL     OW25570   3.524   4.529   5.014 -1.0694  0.2050 -0.1453
 4704SOL    HW125571   3.528   4.578   5.096  0.9474  0.8008 -0.6089
 4704SOL    HW225572   3.555   4.443   5.042  0.0727  0.6230 -0.1547
 4705SOL     OW25573   3.675   4.528   1.065  0.0912  0.0982 -0.2624
 4705SOL    HW125574   3.629   4.468   1.006 -1.0727  1.4005 -0.6885
 4705SOL    HW225575   3.688   4.470   1.140 -1.3600 -1.1279 -0.9418
 4706SOL     OW25576   4.423   1.431  16.627 -0.1838 -0.9058 -0.2148
 4706SOL    HW125577   4.374   1.368  16.574 -1.1603 -1.9460  1.9249
 4706SOL    HW225578   4.369   1.510  16.621 -0.2233 -1.0421 -1.6910
 4707SOL     OW25579   1.052   4.078   6.560 -0.0112  0.0653  0.0296
 4707SOL    HW125580   0.988   4.122   6.504  2.4369  1.6001 -1.5638
 4707SOL    HW225581   0.997   4.006   6.592 -0.1873  0.0827 -0.2336
 4708SOL     OW25582   1.874   4.563  10.493  0.0072 -0.8666  0.1945
 4708SOL    HW125583   1.834   4.647  10.517  0.8347 -0.1871 -0.8172
 4708SOL    HW225584   1.951   4.600  10.451 -0.0461 -0.2951  0.5926
 4709SOL     OW25585   3.521   1.005  13.366 -0.0335 -0.0943  0.0053
 4709SOL    HW125586   3.506   0.994  13.460 -0.3629 -1.7757 -0.2437
 4709SOL    HW225587   3.483   0.923  13.334 -0.4394  0.2347 -0.3425
 4710SOL     OW25588   3.629   0.613   3.052 -0.2085  0.3135 -0.1608
 4710SOL    HW125589   3.717   0.650   3.056  1.2492 -3.0578 -0.7998
 4710SOL    HW225590   3.601   0.638   2.964 -1.8107 -0.7111  0.0464
 4711SOL     OW25591   4.314   2.422   8.374  0.2531 -0.2958  0.5384
 4711SOL    HW125592   4.401   2.389   8.394  0.1801 -0.0921  1.1828
 4711SOL    HW225593   4.269   2.338   8.364  0.9867 -0.1986 -3.8118
 4712SOL     OW25594   3.061   1.563   4.877  0.2215  0.3669 -0.1991
 4712SOL    HW125595   3.060   1.595   4.787 -0.9241  2.2420  0.4839
 4712SOL    HW225596   3.152   1.535   4.882  0.6870  2.2993  1.9935
 4713SOL     OW25597   2.636   0.901  10.440  0.0838  0.2961 -0.3091
 4713SOL    HW125598   2.610   0.812  10.463 -0.1237  0.6904  0.9467
 4713SOL    HW225599   2.550   0.942  10.450 -0.3465 -0.4777 -0.7803
 4714SOL     OW25600   4.355   2.157  10.405  0.4156 -0.0469 -0.9062
 4714SOL    HW125601   4.445   2.125  10.415  0.3881  0.4608  0.8468
 4714SOL    HW225602   4.327   2.116  10.323 -0.9082 -1.7415  0.3915
 4715SOL     OW25603   3.695   1.001   5.880  0.0398 -0.4099  0.0395
 4715SOL    HW125604   3.607   1.008   5.842 -0.6856 -1.0903  1.5508
 4715SOL    HW225605   3.734   1.085   5.857  0.3257 -0.3524  0.7441
 4716SOL     OW25606   2.244   3.235   4.609  0.9475  0.4439 -0.9909
 4716SOL    HW125607   2.249   3.314   4.663  0.0773 -0.8054  0.9389
 4716SOL    HW225608   2.244   3.276   4.523 -0.8308 -0.3004 -1.3445
 4717SOL     OW25609   0.619   3.015   6.057  0.1899  0.3593  0.1253
 4717SOL    HW125610   0.550   2.948   6.049 -0.4543  1.2826 -1.8997
 4717SOL    HW225611   0.690   2.966   6.016  0.4738 -0.6269  1.7647
 4718SOL     OW25612   4.584   2.910  12.523  0.0024 -0.3921 -0.0042
 4718SOL    HW125613   4.577   2.843  12.591 -1.2183  0.7541  1.0088
 4718SOL    HW225614   4.492   2.934  12.507 -0.1983 -1.4783 -0.4758
 4719SOL     OW25615   3.250   1.323   3.185  0.1946 -0.3305 -0.2233
 4719SOL    HW125616   3.199   1.349   3.108 -2.4130  1.1456  2.0215
 4719SOL    HW225617   3.220   1.234   3.203 -0.1114 -0.5240 -1.6610
 4720SOL     OW25618   2.113   2.208   2.857 -0.2160 -0.3633  0.2077
 4720SOL    HW125619   2.090   2.265   2.930  0.3791 -0.8585  0.7774
 4720SOL    HW225620   2.084   2.255   2.778  1.8079 -0.2854 -0.4739
 4721SOL     OW25621   2.481   3.604   1.354  0.7353  0.5693 -0.0457
 4721SOL    HW125622   2.564   3.570   1.321  1.1481  0.3379  1.2151
 4721SOL    HW225623   2.471   3.565   1.441 -1.1732  0.8948 -0.1126
 4722SOL     OW25624   1.660   3.578  13.803 -0.4160  0.0844  0.2028
 4722SOL    HW125625   1.593   3.514  13.779  0.7372 -0.8965 -0.4258
 4722SOL    HW225626   1.703   3.542  13.881 -2.7234  1.4628  2.1007
 4723SOL     OW25627   2.716   2.923   1.132 -0.2792  0.2571 -0.2142
 4723SOL    HW125628   2.641   2.976   1.160 -0.6947  0.3628 -1.5224
 4723SOL    HW225629   2.732   2.958   1.045  0.1572  1.7976  0.4794
 4724SOL     OW25630   4.352   3.827   8.059  0.1217  0.2669 -0.5749
 4724SOL    HW125631   4.356   3.922   8.074  2.1912 -0.0553  0.9905
 4724SOL    HW225632   4.433   3.791   8.096 -1.3352 -1.5347  0.8078
 4725SOL     OW25633   2.134   2.541   3.807  0.7965  0.7497  0.2906
 4725SOL    HW125634   2.082   2.621   3.814 -1.7132 -0.7091 -2.0958
 4725SOL    HW225635   2.205   2.572   3.750  0.3501  0.9317 -0.1625
 4726SOL     OW25636   0.429   1.941   8.376 -0.1645 -0.0581  0.1901
 4726SOL    HW125637   0.404   1.987   8.457 -1.1386  1.0950 -0.7618
 4726SOL    HW225638   0.425   1.851   8.408 -0.9544  0.3869  1.3600
 4727SOL     OW25639   1.629   4.454   1.967 -0.5935 -0.8066 -0.4228
 4727SOL    HW125640   1.670   4.407   2.040  1.9702 -1.4730 -2.3004
 4727SOL    HW225641   1.688   4.437   1.894 -1.6037 -1.3629 -1.1060
 4728SOL     OW25642   4.230   1.033   4.374 -0.1354  0.8140  0.0069
 4728SOL    HW125643   4.228   1.070   4.285 -0.0370 -0.9720 -0.7355
 4728SOL    HW225644   4.247   1.119   4.412  2.1403  0.0848  0.6061
 4729SOL     OW25645   3.974   4.169   4.786 -0.1405  0.8955  0.6459
 4729SOL    HW125646   4.038   4.197   4.851  1.6158 -0.9124 -0.3176
 4729SOL    HW225647   4.007   4.194   4.699  0.1158 -3.5994 -0.5674
 4730SOL     OW25648   4.060   4.126   8.138 -0.2571  0.3084 -0.2117
 4730SOL    HW125649   4.148   4.105   8.107 -0.8247 -0.4405 -1.2942
 4730SOL    HW225650   4.001   4.083   8.076  0.8063 -2.3418  0.5907
 4731SOL     OW25651   3.782   4.380   5.302 -0.1470 -0.4245 -0.7005
 4731SOL    HW125652   3.777   4.296   5.257  1.1496 -0.3228 -1.0157
 4731SOL    HW225653   3.689   4.384   5.325 -0.6105 -1.5832 -2.4692
 4732SOL     OW25654   3.518   1.248   2.924  0.1289 -0.0409 -0.5112
 4732SOL    HW125655   3.526   1.301   3.003 -0.3637 -0.8895  0.1107
 4732SOL    HW225656   3.422   1.249   2.925  0.1125 -1.4388  0.0071
 4733SOL     OW25657   1.770   0.819   8.350 -0.2258  0.4342  0.2941
 4733SOL    HW125658   1.788   0.897   8.298  0.7553  0.4633  0.6923
 4733SOL    HW225659   1.798   0.842   8.439  0.2081  0.5611  0.1244
 4734SOL     OW25660   4.170   0.353   9.523 -0.4643 -0.2186 -0.2428
 4734SOL    HW125661   4.189   0.280   9.465  1.8929  0.0374  0.2077
 4734SOL    HW225662   4.216   0.320   9.600 -0.3965  0.7847  0.1497
 4735SOL     OW25663   0.667   4.241   5.411 -0.0878  0.0097  0.0148
 4735SOL    HW125664   0.695   4.186   5.485  1.7146 -2.2689 -2.3057
 4735SOL    HW225665   0.576   4.250   5.438 -0.2681 -0.7350 -0.3383
 4736SOL     OW25666   2.178   3.936  16.899 -0.2634  0.2502  0.5485
 4736SOL    HW125667   2.231   3.969  16.827  0.8426  1.0888  1.7316
 4736SOL    HW225668   2.186   3.841  16.899 -2.2639  0.0990 -1.7933
 4737SOL     OW25669   0.773   0.538   9.104  0.0902 -0.4535 -0.0126
 4737SOL    HW125670   0.801   0.630   9.105 -1.2587 -0.0625  0.7297
 4737SOL    HW225671   0.789   0.527   9.010 -2.5228 -2.1808 -0.2526
 4738SOL     OW25672   1.710   0.424  11.010 -0.0466  0.1059 -0.7586
 4738SOL    HW125673   1.656   0.345  11.007  0.3912 -0.2483  0.7833
 4738SOL    HW225674   1.789   0.408  10.958  0.6759 -2.3874  1.1098
 4739SOL     OW25675   3.660   2.446   5.653  0.3983  0.0300  0.0777
 4739SOL    HW125676   3.719   2.493   5.594 -1.3570  1.2487 -0.6926
 4739SOL    HW225677   3.653   2.493   5.736 -2.5969 -3.2129  1.6605
 4740SOL     OW25678   3.901   0.438   8.693 -0.3707  0.6487  0.5238
 4740SOL    HW125679   3.838   0.372   8.721 -0.6715  1.0097  0.6884
 4740SOL    HW225680   3.853   0.469   8.617 -0.0535 -1.4324 -0.5431
 4741SOL     OW25681   4.551   2.684   3.278  0.0675 -0.6088  0.0901
 4741SOL    HW125682   4.569   2.771   3.243  0.4410 -1.4675 -1.8769
 4741SOL    HW225683   4.455   2.678   3.271  0.0351  1.0814 -0.9846
 4742SOL     OW25684   1.449   3.471   4.385  0.0348  0.3499  0.0049
 4742SOL    HW125685   1.508   3.402   4.354  1.5654  0.3645  2.9142
 4742SOL    HW225686   1.437   3.520   4.304  0.6011 -1.1428 -0.9824
 4743SOL     OW25687   2.253   0.360   8.239  0.0956 -0.1679  0.1787
 4743SOL    HW125688   2.278   0.408   8.159 -4.4546  0.1130 -1.0411
 4743SOL    HW225689   2.333   0.307   8.247  0.5406  0.2859 -1.2835
 4744SOL     OW25690   4.425   0.977   7.643  0.3682  0.0774  0.5934
 4744SOL    HW125691   4.417   1.062   7.686  0.4527  0.1038  0.5573
 4744SOL    HW225692   4.510   0.990   7.601  0.0342  0.8419  0.1511
 4745SOL     OW25693   0.094   4.536   2.897 -0.3835  0.4903 -0.1577
 4745SOL    HW125694   0.081   4.468   2.831 -1.3353  1.2713 -0.7781
 4745SOL    HW225695   0.027   4.598   2.867 -1.2991 -0.3710  0.1227
 4746SOL     OW25696   3.714   1.199   7.504 -0.8010  0.2482  0.1209
 4746SOL    HW125697   3.731   1.252   7.426  0.4044 -2.3143 -1.3695
 4746SOL    HW225698   3.631   1.237   7.534  0.3994  0.9174  2.5709
 4747SOL     OW25699   0.044   2.906   3.418  0.6084  0.6912  0.0827
 4747SOL    HW125700   0.135   2.877   3.425  0.6447  0.3135 -2.1431
 4747SOL    HW225701   0.031   2.902   3.324 -0.3848 -0.3553  0.2641
 4748SOL     OW25702   1.633   0.932   7.508  0.0710 -0.3563 -0.3766
 4748SOL    HW125703   1.635   0.836   7.508  1.0459 -0.3260  4.7292
 4748SOL    HW225704   1.711   0.955   7.457 -0.4498  0.4856 -0.7893
 4749SOL     OW25705   2.230   3.448   2.372  0.0931 -0.1422 -0.2914
 4749SOL    HW125706   2.268   3.466   2.286 -1.1936  4.0017  0.0029
 4749SOL    HW225707   2.143   3.488   2.371 -1.5401 -3.6493  0.5332
 4750SOL     OW25708   0.186   4.661   6.350 -0.5796  0.3050  0.0667
 4750SOL    HW125709   0.201   4.699   6.263  0.6457 -0.1273  0.1005
 4750SOL    HW225710   0.103   4.701   6.379 -0.0255  1.7358 -0.3020
 4751SOL     OW25711   2.542   0.216   7.720 -0.1861  0.0176  0.0118
 4751SOL    HW125712   2.542   0.298   7.672  1.3110  0.0175  0.0241
 4751SOL    HW225713   2.597   0.244   7.793  0.9651 -1.1504 -0.4002
 4752SOL     OW25714   1.781   4.294   5.034  0.5648  0.2808 -1.0866
 4752SOL    HW125715   1.770   4.199   5.026 -3.4551  0.5923  1.1514
 4752SOL    HW225716   1.874   4.304   5.055  0.2190 -1.0216  1.0975
 4753SOL     OW25717   2.455   3.846  14.114  0.6299  0.1415  0.3108
 4753SOL    HW125718   2.543   3.826  14.145  0.6589  0.3372  0.3558
 4753SOL    HW225719   2.426   3.763  14.075  1.3628 -0.5238  1.1887
 4754SOL     OW25720   0.025   0.437  15.607 -0.6584  0.0513  0.2402
 4754SOL    HW125721   0.074   0.482  15.676  2.3540 -0.7824 -1.3355
 4754SOL    HW225722   4.691   0.504  15.566  1.2171  0.4145 -1.7066
 4755SOL     OW25723   1.363   3.571   9.382 -0.8059  0.0099  0.2176
 4755SOL    HW125724   1.394   3.533   9.465  0.3917  1.1324  0.2788
 4755SOL    HW225725   1.372   3.494   9.326 -0.5347  0.4209 -0.3065
 4756SOL     OW25726   2.096   3.862   2.196 -0.3726  0.5312  0.0099
 4756SOL    HW125727   2.143   3.805   2.135 -1.7773 -1.0342  0.3939
 4756SOL    HW225728   2.108   3.948   2.155 -0.7875 -0.5492 -2.3932
 4757SOL     OW25729   1.525   1.670   3.568  0.3286  0.0248  0.1070
 4757SOL    HW125730   1.535   1.651   3.475 -2.8914 -1.9832  0.2000
 4757SOL    HW225731   1.466   1.745   3.567 -1.0934 -1.1234 -0.9958
 4758SOL     OW25732   4.648   1.935   0.897  0.0423 -0.4213  0.0968
 4758SOL    HW125733   4.692   1.852   0.883  2.7953  0.7160  1.8958
 4758SOL    HW225734   4.666   1.975   0.812  0.4317  0.0702  0.4068
 4759SOL     OW25735   4.699   0.979   4.822 -0.2118 -0.1243  0.0491
 4759SOL    HW125736   4.672   0.924   4.748 -0.2361  0.3934 -0.3276
 4759SOL    HW225737   4.652   0.937   4.894 -2.6635 -1.4890 -2.3170
 4760SOL     OW25738   2.628   3.550   6.517 -0.2199  0.0179  0.8066
 4760SOL    HW125739   2.574   3.627   6.502 -1.0041 -0.5652  0.6504
 4760SOL    HW225740   2.700   3.598   6.559 -0.5155  1.0913  0.0958
 4761SOL     OW25741   0.760   4.242   4.215  0.1467 -0.2518 -0.4417
 4761SOL    HW125742   0.714   4.261   4.133  1.0906  1.2522 -0.6265
 4761SOL    HW225743   0.715   4.161   4.238  1.7391 -1.0980 -0.2578
 4762SOL     OW25744   3.176   0.094   2.216 -0.3152  0.5627  0.3259
 4762SOL    HW125745   3.214   0.032   2.155 -0.4676  1.5739 -0.8048
 4762SOL    HW225746   3.197   0.176   2.171 -0.9062 -0.9576 -2.6743
 4763SOL     OW25747   3.611   2.146   1.060  0.1953 -1.0422 -0.0400
 4763SOL    HW125748   3.659   2.106   1.132 -2.1577 -0.1092  1.9961
 4763SOL    HW225749   3.521   2.120   1.076  0.2596 -2.2901 -1.5953
 4764SOL     OW25750   1.462   1.944  11.719  0.3364  0.4208  0.5865
 4764SOL    HW125751   1.387   1.964  11.662  0.4833  2.4278  1.0801
 4764SOL    HW225752   1.506   1.867  11.685  1.1124  0.5225  1.3725
 4765SOL     OW25753   4.442   3.541   7.182 -0.0605 -0.4818 -0.7272
 4765SOL    HW125754   4.440   3.538   7.086 -1.5715 -0.7283 -0.6807
 4765SOL    HW225755   4.357   3.506   7.206  0.9660 -1.8208  1.0101
 4766SOL     OW25756   1.725   3.861   7.838 -0.3040  0.0123  0.1034
 4766SOL    HW125757   1.716   3.955   7.826 -0.6536  0.0571  0.7088
 4766SOL    HW225758   1.814   3.844   7.869 -0.4785  0.3380  0.7801
 4767SOL     OW25759   1.001   1.203   3.815 -0.2645  0.5682  0.0075
 4767SOL    HW125760   1.059   1.135   3.851 -1.9184 -0.1401  1.3495
 4767SOL    HW225761   0.978   1.180   3.725 -1.0611  2.0961 -0.1781
 4768SOL     OW25762   1.885   2.504   9.121  0.2886  0.7480 -0.4786
 4768SOL    HW125763   1.918   2.560   9.191  1.3494  0.7392 -0.9624
 4768SOL    HW225764   1.854   2.428   9.170 -1.3998  0.5474 -1.8689
 4769SOL     OW25765   1.994   2.234  12.135 -0.0248 -0.0409 -0.0060
 4769SOL    HW125766   1.960   2.188  12.212 -0.8468  0.8265  0.1530
 4769SOL    HW225767   1.913   2.232  12.083  0.2519  0.6919 -0.4630
 4770SOL     OW25768   1.889   2.303   6.567  0.2825 -0.2698  0.6256
 4770SOL    HW125769   1.831   2.234   6.534 -2.4940  3.0835 -1.4816
 4770SOL    HW225770   1.970   2.266   6.531  0.1045 -0.2068  0.1639
 4771SOL     OW25771   1.427   1.902  12.712  0.3159  0.0788 -0.2131
 4771SOL    HW125772   1.359   1.897  12.779 -0.4904  1.7623 -0.8883
 4771SOL    HW225773   1.371   1.881  12.638 -1.5959 -1.3822  1.6631
 4772SOL     OW25774   4.292   1.477   4.554  0.2953  0.3144  0.2405
 4772SOL    HW125775   4.213   1.509   4.598 -0.8927 -1.0302 -0.8956
 4772SOL    HW225776   4.329   1.431   4.629 -1.4469 -0.7936  0.4192
 4773SOL     OW25777   2.945   4.094   9.279  0.1090  0.3429  0.2773
 4773SOL    HW125778   2.968   4.023   9.220 -0.2119  1.3599 -1.0490
 4773SOL    HW225779   2.882   4.137   9.221 -1.9181 -0.0037  2.1659
 4774SOL     OW25780   0.138   2.025   8.354 -0.9237 -0.6538 -0.2364
 4774SOL    HW125781   0.128   2.060   8.443 -1.5490  0.2642 -0.6787
 4774SOL    HW225782   0.153   1.931   8.364 -1.3310 -0.2302  4.4735
 4775SOL     OW25783   2.840   2.315  15.020  0.5028 -0.2735  0.8741
 4775SOL    HW125784   2.919   2.343  14.974 -0.3207  1.1798  0.3646
 4775SOL    HW225785   2.831   2.359  15.105 -0.3227 -0.3262  0.8176
 4776SOL     OW25786   2.323   1.888   1.063  0.1664  0.0939  0.0555
 4776SOL    HW125787   2.332   1.797   1.093  0.3668  0.0971  0.0070
 4776SOL    HW225788   2.374   1.888   0.981  0.3389 -1.3044  0.1490
 4777SOL     OW25789   0.754   0.966   6.041 -0.1178 -0.2626 -0.2053
 4777SOL    HW125790   0.834   0.917   6.064 -0.1683 -0.0535  0.4262
 4777SOL    HW225791   0.791   1.050   6.013  2.1897 -2.3442 -3.3983
 4778SOL     OW25792   2.140   3.016   8.145 -0.4182  0.7100  0.4962
 4778SOL    HW125793   2.068   3.074   8.169  2.3901  3.9614  1.0061
 4778SOL    HW225794   2.173   3.052   8.062  1.3771 -1.3003  0.3168
 4779SOL     OW25795   3.031   3.490   9.599  0.2985  0.4400  0.2864
 4779SOL    HW125796   3.094   3.558   9.622 -1.2492  2.7952 -2.4489
 4779SOL    HW225797   3.003   3.507   9.509 -0.9478  0.5524  0.7004
 4780SOL     OW25798   4.660   2.712   3.916  0.4396  0.7018 -0.4641
 4780SOL    HW125799   4.574   2.672   3.901  1.0668 -1.3554  1.4468
 4780SOL    HW225800   4.700   2.691   3.831  1.3150 -1.5197  0.4903
 4781SOL     OW25801   1.379   1.647  13.434  0.0777 -0.1082 -0.3830
 4781SOL    HW125802   1.445   1.709  13.462  0.0811  0.2563 -1.2056
 4781SOL    HW225803   1.341   1.629  13.521  0.8156  1.1679  0.2048
 4782SOL     OW25804   4.229   3.049   4.146  0.4441 -0.2940 -0.0357
 4782SOL    HW125805   4.172   3.053   4.068  0.2023 -2.2443  0.0314
 4782SOL    HW225806   4.310   3.092   4.119 -0.6714  0.0045 -2.9221
 4783SOL     OW25807   2.538   4.133  16.707  0.1999  0.0008 -0.1250
 4783SOL    HW125808   2.560   4.127  16.800 -2.2275  1.1404  0.5276
 4783SOL    HW225809   2.446   4.107  16.706  0.9148 -2.5289  0.0619
 4784SOL     OW25810   3.624   2.936   3.467 -0.1822  0.0835 -0.0138
 4784SOL    HW125811   3.685   2.871   3.503 -0.4850 -1.1357 -1.6772
 4784SOL    HW225812   3.670   3.019   3.477 -1.5884  0.7299  1.1381
 4785SOL     OW25813   3.981   1.527   4.578 -0.2575  0.2207 -0.0687
 4785SOL    HW125814   3.963   1.502   4.487 -0.7020 -1.8861  0.5941
 4785SOL    HW225815   3.896   1.547   4.615  0.1077 -0.3845  1.1021
 4786SOL     OW25816   2.152   1.496   5.459  0.2185 -0.5891 -0.2905
 4786SOL    HW125817   2.140   1.591   5.465  0.2187 -0.5080 -1.6103
 4786SOL    HW225818   2.169   1.473   5.550  0.1826 -0.8877 -0.3589
 4787SOL     OW25819   0.116   4.719   0.236  0.1023 -0.2561  0.6738
 4787SOL    HW125820   0.210   4.710   0.221 -0.1387 -0.4600 -0.7783
 4787SOL    HW225821   0.099   4.660   0.162 -0.0509 -0.9390  1.2606
 4788SOL     OW25822   3.185   4.314  17.488 -0.1925 -0.3519  0.1399
 4788SOL    HW125823   3.265   4.309  17.541  0.7384 -2.4916 -1.4863
 4788SOL    HW225824   3.139   4.391  17.522  1.2905  0.2719  0.7135
 4789SOL     OW25825   2.937   2.025  14.656 -0.1297  0.1773  0.5534
 4789SOL    HW125826   2.849   1.996  14.680 -0.0316 -1.2749 -0.8751
 4789SOL    HW225827   2.959   1.972  14.580 -1.7059 -0.2490  0.3964
 4790SOL     OW25828   2.129   2.080  17.573  0.7656  0.1058  0.2467
 4790SOL    HW125829   2.051   2.071  17.628 -0.3306 -1.2337 -1.5048
 4790SOL    HW225830   2.142   2.174  17.582  0.6441  0.0969  0.5197
 4791SOL     OW25831   3.290   1.675   0.502  0.7452 -0.0727 -0.7539
 4791SOL    HW125832   3.204   1.708   0.478  1.6955  2.7067 -0.3612
 4791SOL    HW225833   3.294   1.583   0.476  0.7714 -0.1768 -0.3815
 4792SOL     OW25834   1.166   4.526   9.759  0.6237  0.0945 -0.1001
 4792SOL    HW125835   1.097   4.502   9.697  1.2740 -0.7681 -0.4789
 4792SOL    HW225836   1.242   4.493   9.712 -1.2349 -1.9168 -1.7252
 4793SOL     OW25837   2.280   3.776   9.392 -0.3755 -0.5247 -0.0510
 4793SOL    HW125838   2.245   3.700   9.438 -0.4178  0.0486  0.8775
 4793SOL    HW225839   2.198   3.823   9.378  0.2272  0.8980  1.1514
 4794SOL     OW25840   3.060   3.564   4.005 -0.3777  0.4240 -0.7308
 4794SOL    HW125841   3.118   3.582   3.932  0.3980  1.4394  0.1281
 4794SOL    HW225842   3.006   3.643   4.015  1.7389  1.8211 -0.5417
 4795SOL     OW25843   2.092   3.983   5.656  0.0856 -0.2993  0.5831
 4795SOL    HW125844   2.187   3.974   5.668  0.1046 -1.5849 -0.6249
 4795SOL    HW225845   2.093   3.944   5.569  2.2573  1.2719 -0.0824
 4796SOL     OW25846   3.080   0.303   2.751 -0.0009  0.0059  0.0935
 4796SOL    HW125847   3.102   0.237   2.685  1.4276  0.0742  0.5124
 4796SOL    HW225848   3.060   0.251   2.829  0.8781 -0.0194  0.2996
 4797SOL     OW25849   3.161   1.093  17.541  0.4155 -0.8517  0.1634
 4797SOL    HW125850   3.250   1.066  17.565  1.1973 -0.1780 -2.0213
 4797SOL    HW225851   3.167   1.117  17.449 -1.6319  2.2920  0.8143
 4798SOL     OW25852   1.188   2.089   4.864  0.1029 -0.0704  0.4891
 4798SOL    HW125853   1.244   2.038   4.805 -0.2140  1.1907 -0.8960
 4798SOL    HW225854   1.180   2.174   4.822 -0.5446  0.6130  1.9893
 4799SOL     OW25855   3.700   3.495   5.892 -0.6004  0.4215  0.5394
 4799SOL    HW125856   3.702   3.588   5.871  1.4247 -0.1549 -1.7865
 4799SOL    HW225857   3.613   3.478   5.856 -0.2042  0.1342 -0.2813
 4800SOL     OW25858   4.096   3.867   3.476  0.1168 -0.4899 -0.2991
 4800SOL    HW125859   4.188   3.848   3.457  0.8831  0.6188  2.2722
 4800SOL    HW225860   4.070   3.786   3.520 -2.7285 -0.1063 -1.2808
 4801SOL     OW25861   0.794   0.636   7.572  0.2781  0.7281  0.0143
 4801SOL    HW125862   0.704   0.613   7.548  0.3314 -0.6478  1.0940
 4801SOL    HW225863   0.839   0.658   7.491  1.1166  2.4355  0.9412
 4802SOL     OW25864   1.315   1.407  13.263  0.1984  0.5783 -0.0714
 4802SOL    HW125865   1.309   1.382  13.355 -1.5590  0.0979 -0.3165
 4802SOL    HW225866   1.251   1.352  13.218  0.1334 -0.8223  1.7196
 4803SOL     OW25867   1.406   2.702  14.908 -0.1312 -0.2668 -0.1792
 4803SOL    HW125868   1.402   2.694  14.813 -0.5483 -1.4546 -0.0607
 4803SOL    HW225869   1.501   2.707  14.919 -0.0923  0.5366 -0.8711
 4804SOL     OW25870   1.182   3.686   3.415 -0.2562  0.2575 -0.2860
 4804SOL    HW125871   1.176   3.640   3.331 -0.3018  0.1187 -0.2062
 4804SOL    HW225872   1.252   3.634   3.454 -2.4646 -1.7941  0.9639
 4805SOL     OW25873   3.595   4.067   0.217 -0.1122 -0.2653 -0.0773
 4805SOL    HW125874   3.672   4.011   0.206  0.3782  0.4088 -0.0441
 4805SOL    HW225875   3.592   4.066   0.313 -1.9980 -2.5530 -0.1342
 4806SOL     OW25876   2.677   0.551   5.242  0.0999  0.3283  0.0980
 4806SOL    HW125877   2.604   0.600   5.204 -0.3583 -0.1862  0.3072
 4806SOL    HW225878   2.642   0.465   5.218 -0.7017 -0.2025  3.1364
 4807SOL     OW25879   1.136   0.818   4.062 -0.2640 -0.7782 -0.0046
 4807SOL    HW125880   1.217   0.771   4.042  0.8740  0.7060  1.0751
 4807SOL    HW225881   1.069   0.752   4.050 -0.2170 -0.9582  0.7530
 4808SOL     OW25882   2.099   2.253   5.244  0.3406 -0.1143 -0.0794
 4808SOL    HW125883   2.008   2.236   5.268  1.1556 -3.4306  0.6644
 4808SOL    HW225884   2.135   2.314   5.308 -1.1201  0.9562 -0.2792
 4809SOL     OW25885   1.422   4.667   1.989  0.0297  0.0429 -0.3419
 4809SOL    HW125886   1.491   4.616   1.946 -2.5392 -2.3985 -1.5265
 4809SOL    HW225887   1.396   4.606   2.058  2.2047 -0.3571  0.1252
 4810SOL     OW25888   2.448   3.644  13.892 -0.0752 -0.4630  0.3212
 4810SOL    HW125889   2.503   3.580  13.936 -0.0120 -0.6473 -0.0245
 4810SOL    HW225890   2.364   3.603  13.915 -0.3541  0.1044  0.3179
 4811SOL     OW25891   2.437   1.389   7.922  0.4206  0.5999 -0.3032
 4811SOL    HW125892   2.405   1.370   7.833 -0.4892  1.8234 -0.2303
 4811SOL    HW225893   2.528   1.412   7.905  1.2019 -0.6834  2.1615
 4812SOL     OW25894   2.682   2.690   0.353 -0.0409 -0.4845  0.1424
 4812SOL    HW125895   2.684   2.595   0.363 -1.1874 -0.3489  1.6397
 4812SOL    HW225896   2.727   2.712   0.435 -2.3602  2.7442  0.5347
 4813SOL     OW25897   1.957   4.467   0.019 -0.0173 -0.2610 -0.0057
 4813SOL    HW125898   2.038   4.473  17.655  0.1789  2.0352  0.5751
 4813SOL    HW225899   1.958   4.543   0.077 -0.1515  0.8882 -1.5002
 4814SOL     OW25900   1.399   2.951   4.585  0.2339 -0.6788  0.3398
 4814SOL    HW125901   1.451   2.873   4.569 -0.2217 -0.3783 -2.6702
 4814SOL    HW225902   1.447   3.017   4.534  1.2999 -0.4892  1.6132
 4815SOL     OW25903   1.458   0.223   7.056 -0.3350  0.1683 -0.6067
 4815SOL    HW125904   1.527   0.270   7.008  0.5901 -0.1969  0.3458
 4815SOL    HW225905   1.498   0.136   7.047  1.3095  0.8553 -0.0350
 4816SOL     OW25906   2.209   0.907   8.418 -0.0752 -0.0638  0.2156
 4816SOL    HW125907   2.140   0.960   8.459 -0.5386 -0.9325  0.5509
 4816SOL    HW225908   2.224   0.829   8.470  0.1963 -1.3202 -1.7295
 4817SOL     OW25909   0.302   0.150  17.395 -0.3558 -0.5473 -0.2175
 4817SOL    HW125910   0.225   0.204  17.408  0.9443  1.2138  0.1875
 4817SOL    HW225911   0.364   0.189  17.456  0.5018 -0.8316 -0.8941
 4818SOL     OW25912   3.811   3.482   1.216  0.2909 -0.2941 -0.1262
 4818SOL    HW125913   3.821   3.575   1.234  1.9996 -0.8036  1.6556
 4818SOL    HW225914   3.851   3.450   1.298  1.1585  0.3691 -0.2936
 4819SOL     OW25915   1.893   0.015  15.701 -0.1433 -0.0345 -0.4722
 4819SOL    HW125916   1.889   4.650  15.658 -0.2484 -0.8652  1.2060
 4819SOL    HW225917   1.813   0.057  15.671 -0.5162 -0.4016  0.0060
 4820SOL     OW25918   4.021   3.682   8.512 -0.0295  0.6547 -0.0353
 4820SOL    HW125919   3.975   3.741   8.452  0.2434  1.8785  0.9628
 4820SOL    HW225920   3.997   3.710   8.600  0.2288  0.6009  0.0522
 4821SOL     OW25921   1.543   2.353   1.230  0.2785  0.6529 -0.2397
 4821SOL    HW125922   1.461   2.401   1.219 -0.0146  0.6540  2.0137
 4821SOL    HW225923   1.576   2.394   1.310 -0.5283  0.9159 -0.0348
 4822SOL     OW25924   3.043   3.351   2.791  0.0375 -0.6535 -0.2019
 4822SOL    HW125925   2.965   3.394   2.756  0.7838  0.2224 -0.7890
 4822SOL    HW225926   3.000   3.287   2.847 -0.8067  1.0841  1.1411
 4823SOL     OW25927   0.656   0.577   3.779  0.1059 -0.0294  0.1168
 4823SOL    HW125928   0.669   0.541   3.867 -0.8203 -0.8258 -0.0769
 4823SOL    HW225929   0.712   0.519   3.726  0.8671  0.7579  0.0667
 4824SOL     OW25930   0.615   2.862  10.166 -0.3802  0.2686  0.1662
 4824SOL    HW125931   0.620   2.955  10.145  0.5926 -0.8155 -4.2901
 4824SOL    HW225932   0.595   2.871  10.259 -0.3411 -0.7092  0.2742
 4825SOL     OW25933   4.152   3.301   3.417  0.2013  0.6133  0.4287
 4825SOL    HW125934   4.152   3.260   3.504 -2.9777  0.4014  0.3441
 4825SOL    HW225935   4.170   3.239   3.346 -2.2403  0.1862  0.1699
 4826SOL     OW25936   1.896   4.301   5.673  0.0086 -0.0815 -0.5187
 4826SOL    HW125937   1.981   4.294   5.631 -0.0159  1.4605 -0.8122
 4826SOL    HW225938   1.922   4.329   5.761  0.5096 -0.3775 -0.5762
 4827SOL     OW25939   0.346   3.325   1.415 -0.2786 -0.1881 -0.0364
 4827SOL    HW125940   0.408   3.252   1.411  0.6294  0.5465  0.7666
 4827SOL    HW225941   0.261   3.288   1.441 -0.9117  1.7924  0.6594
 4828SOL     OW25942   3.540   3.512   6.624 -0.0225 -0.3670  0.3021
 4828SOL    HW125943   3.632   3.527   6.600  0.1033  1.4937  2.0368
 4828SOL    HW225944   3.498   3.467   6.550 -0.5421 -0.5621  0.7206
 4829SOL     OW25945   0.178   4.151   5.260 -0.2765 -0.4016  0.2311
 4829SOL    HW125946   0.168   4.062   5.292  3.2703 -1.4777 -1.6891
 4829SOL    HW225947   0.089   4.159   5.225 -0.6197  1.3685  1.5026
 4830SOL     OW25948   1.007   0.734   3.733  0.4993  0.3120 -0.7626
 4830SOL    HW125949   1.095   0.709   3.705  0.8402 -2.1364  2.4269
 4830SOL    HW225950   0.991   0.689   3.816 -0.2107  0.8985 -0.5811
 4831SOL     OW25951   1.071   1.301   3.121 -0.6795  0.2618  0.1296
 4831SOL    HW125952   1.164   1.321   3.134 -0.0135 -2.0518 -1.0597
 4831SOL    HW225953   1.033   1.388   3.112 -1.0787 -0.0799 -1.4469
 4832SOL     OW25954   3.198   1.673   5.826 -0.3851  0.2539 -0.0808
 4832SOL    HW125955   3.133   1.608   5.851 -0.4780  0.0462 -0.8677
 4832SOL    HW225956   3.155   1.758   5.831 -0.8576  0.0417 -0.4766
 4833SOL     OW25957   0.127   3.931   8.583 -0.1175  0.6480 -0.2575
 4833SOL    HW125958   0.219   3.937   8.557  0.1178  2.0992  0.9201
 4833SOL    HW225959   0.095   3.957   8.497 -0.6380  2.6170  0.5427
 4834SOL     OW25960   3.078   1.511  11.582  0.3531  0.1991 -0.0365
 4834SOL    HW125961   3.090   1.428  11.537  0.1324  1.1219 -1.8055
 4834SOL    HW225962   3.085   1.487  11.674 -0.1885  0.2445  0.0175
 4835SOL     OW25963   4.323   3.948   5.671  0.6085  0.6125 -0.3525
 4835SOL    HW125964   4.325   4.024   5.612  1.0664 -0.1194 -1.2823
 4835SOL    HW225965   4.411   3.915   5.656  0.5916  0.3587  0.1205
 4836SOL     OW25966   2.773   4.536  11.963 -0.1994 -0.7002  0.3467
 4836SOL    HW125967   2.778   4.562  11.871 -0.6409  0.8117  0.7599
 4836SOL    HW225968   2.686   4.496  11.972 -0.4889 -0.3808 -1.0052
 4837SOL     OW25969   2.133   4.587   7.000 -0.3869  0.1706 -0.4261
 4837SOL    HW125970   2.057   4.562   6.947 -0.2283 -1.0421 -0.0924
 4837SOL    HW225971   2.145   4.680   6.985  3.5394  0.0881  2.1469
 4838SOL     OW25972   2.069   4.348  10.636  0.0759 -0.8896  0.6130
 4838SOL    HW125973   2.013   4.414  10.677 -0.8741 -2.3919  1.7408
 4838SOL    HW225974   2.109   4.295  10.705  4.0052  0.5850 -0.5280
 4839SOL     OW25975   0.306   2.185   3.715 -0.5337  0.4671  0.0331
 4839SOL    HW125976   0.401   2.186   3.698 -0.3444  1.5488  1.1829
 4839SOL    HW225977   0.299   2.099   3.758  0.4683  0.1869 -0.3555
 4840SOL     OW25978   3.800   3.790   1.276  0.1208  0.1210 -0.2211
 4840SOL    HW125979   3.875   3.768   1.222  0.2212 -0.1770  0.0389
 4840SOL    HW225980   3.836   3.865   1.323  1.5924 -1.6142  1.4494
 4841SOL     OW25981   3.394   0.952   6.910  0.5158 -0.6389 -0.1900
 4841SOL    HW125982   3.423   0.938   6.820  0.9592 -2.3915  0.2394
 4841SOL    HW225983   3.456   0.893   6.952 -0.0687  0.2591  1.9379
 4842SOL     OW25984   2.940   2.953   4.310  0.2124  0.0484 -0.7873
 4842SOL    HW125985   2.981   2.998   4.236  1.1916 -1.5364 -1.2253
 4842SOL    HW225986   3.019   2.958   4.364 -0.5848  0.6108  0.3019
 4843SOL     OW25987   2.522   4.561  16.347  0.2818 -0.3998 -0.0518
 4843SOL    HW125988   2.560   4.474  16.333  0.3744 -0.0511 -2.0593
 4843SOL    HW225989   2.601   4.592  16.392  0.0909 -0.4081  0.2856
 4844SOL     OW25990   3.649   3.086   5.668  0.2632 -0.1599  0.2407
 4844SOL    HW125991   3.554   3.082   5.678  0.1915  0.6177 -0.1303
 4844SOL    HW225992   3.661   3.029   5.592 -0.7586 -0.8228  0.5886
 4845SOL     OW25993   3.044   3.415   1.245 -0.3461 -0.0680  0.0676
 4845SOL    HW125994   3.113   3.352   1.223 -1.0957 -0.3168 -1.5551
 4845SOL    HW225995   2.973   3.373   1.197 -0.3981  0.6127 -0.4447
 4846SOL     OW25996   3.720   1.785  13.195  0.1657 -0.2372 -0.5384
 4846SOL    HW125997   3.807   1.748  13.185  0.2395  0.2518 -1.8107
 4846SOL    HW225998   3.685   1.760  13.109  0.8560 -0.2637 -0.8046
 4847SOL     OW25999   3.778   4.505   0.723  0.6167 -0.3949 -0.3619
 4847SOL    HW126000   3.758   4.577   0.783 -0.2203 -0.8096 -0.1469
 4847SOL    HW226001   3.855   4.524   0.671  1.1817 -1.3408  0.1309
 4848SOL     OW26002   3.773   0.711   5.041  0.0009 -0.0937  0.7251
 4848SOL    HW126003   3.722   0.676   4.967  0.7153 -1.0130  0.6707
 4848SOL    HW226004   3.715   0.687   5.114 -0.8900  1.5515  0.5570
 4849SOL     OW26005   1.095   2.270  15.501 -0.5169 -0.0329  0.0248
 4849SOL    HW126006   1.157   2.273  15.428  0.2291 -0.6703  0.6347
 4849SOL    HW226007   1.068   2.179  15.507  0.4208 -0.2298  1.1178
 4850SOL     OW26008   1.719   1.151   6.257 -0.1018 -0.8026 -0.4414
 4850SOL    HW126009   1.723   1.058   6.280 -1.0088 -0.1370  2.3705
 4850SOL    HW226010   1.803   1.181   6.293 -0.3026 -0.0274 -0.6211
 4851SOL     OW26011   4.350   0.679   8.227 -0.3445 -0.2500 -0.1901
 4851SOL    HW126012   4.433   0.720   8.252 -1.0281  0.1432  1.4548
 4851SOL    HW226013   4.393   0.593   8.218 -1.9457 -1.1128  0.3374
 4852SOL     OW26014   0.143   1.509   4.571  0.6089 -0.6076  0.2448
 4852SOL    HW126015   0.231   1.545   4.576  0.1091  0.5109  1.0938
 4852SOL    HW226016   0.102   1.550   4.495  0.8742 -1.2003 -0.2151
 4853SOL     OW26017   3.255   1.912   3.765 -0.1894 -0.3126  0.1534
 4853SOL    HW126018   3.341   1.871   3.753  0.3839  1.2359 -1.0000
 4853SOL    HW226019   3.193   1.840   3.773 -0.2903 -0.3345 -0.7937
 4854SOL     OW26020   4.210   4.676   4.715  0.3139 -0.0042  0.4621
 4854SOL    HW126021   4.260   4.661   4.796 -0.5127 -0.6173  0.8537
 4854SOL    HW226022   4.185   0.045   4.736  1.0353 -0.0266  1.4364
 4855SOL     OW26023   2.110   3.057   9.811  0.1481 -0.2221 -0.4035
 4855SOL    HW126024   2.140   2.999   9.741 -0.4445 -0.6683 -0.2856
 4855SOL    HW226025   2.055   2.995   9.859  0.8575 -1.5898 -1.3723
 4856SOL     OW26026   4.317   4.232   1.391 -0.3735  0.5473 -0.2009
 4856SOL    HW126027   4.345   4.288   1.319  1.1082 -1.2064 -0.9587
 4856SOL    HW226028   4.394   4.240   1.446 -0.5792 -0.9826  0.2995
 4857SOL     OW26029   1.809   3.804   3.756 -0.5172  0.2545  0.2523
 4857SOL    HW126030   1.792   3.748   3.680 -2.7314  1.2130  0.0220
 4857SOL    HW226031   1.854   3.747   3.818  0.6287  0.8871 -0.0120
 4858SOL     OW26032   1.465   0.606   0.681 -0.1661 -0.6457 -0.2476
 4858SOL    HW126033   1.522   0.672   0.720 -1.0633 -0.6440  1.0706
 4858SOL    HW226034   1.497   0.600   0.591  0.5233  1.2293 -0.1163
 4859SOL     OW26035   3.208   0.907   7.175  0.0339 -0.3579 -0.3467
 4859SOL    HW126036   3.205   0.963   7.098 -1.2631  1.2051  0.8323
 4859SOL    HW226037   3.300   0.881   7.177  1.0248  2.9972 -1.5036
 4860SOL     OW26038   0.525   2.578   6.139  0.4209 -0.1968  0.8667
 4860SOL    HW126039   0.451   2.545   6.190  0.8424 -1.4927  0.6397
 4860SOL    HW226040   0.591   2.582   6.208  1.1300 -1.5402  0.2451
 4861SOL     OW26041   1.971   3.995  17.624 -0.5387  0.0366 -0.5924
 4861SOL    HW126042   1.879   4.006  17.648 -0.1335  0.8702  0.5790
 4861SOL    HW226043   1.983   3.902  17.643  0.2882 -0.2609 -2.5541
 4862SOL     OW26044   3.718   1.348   4.940  0.0494 -0.8837 -0.5056
 4862SOL    HW126045   3.648   1.350   5.005  2.7176  0.3359  2.3514
 4862SOL    HW226046   3.668   1.340   4.859 -0.5022  1.7532 -0.4029
 4863SOL     OW26047   4.089   1.698   2.311 -0.0590  0.1451 -0.4834
 4863SOL    HW126048   4.137   1.780   2.297 -0.2329  0.5553  1.2874
 4863SOL    HW226049   4.154   1.652   2.364  0.9245  1.4075 -0.5982
 4864SOL     OW26050   3.853   0.514   0.217 -0.1837 -0.0285 -0.5497
 4864SOL    HW126051   3.868   0.511   0.122 -0.4163  1.9012 -0.6402
 4864SOL    HW226052   3.883   0.599   0.248  3.9672 -1.3262 -1.0745
 4865SOL     OW26053   0.193   3.580   0.583  0.3972 -0.0773  0.0511
 4865SOL    HW126054   0.284   3.587   0.612 -0.6845  4.5141  2.4299
 4865SOL    HW226055   0.143   3.611   0.658  1.2281 -1.7439  1.2967
 4866SOL     OW26056   3.610   1.864   1.428  0.1680 -0.4124 -0.0490
 4866SOL    HW126057   3.662   1.939   1.399 -1.6984  0.9086  0.1073
 4866SOL    HW226058   3.530   1.884   1.380  1.9335  0.7725 -2.4908
 4867SOL     OW26059   2.577   4.116  12.463  0.0122 -0.0764  0.0978
 4867SOL    HW126060   2.541   4.083  12.380 -1.1609 -0.4863  0.7788
 4867SOL    HW226061   2.531   4.054  12.519  0.2187 -1.2891 -1.0817
 4868SOL     OW26062   3.062   1.428   0.677  0.1815 -1.0647 -0.4945
 4868SOL    HW126063   3.148   1.421   0.717  0.8973  1.6715 -1.5594
 4868SOL    HW226064   3.091   1.413   0.587  2.9023 -0.9995  0.3775
 4869SOL     OW26065   1.917   0.077   6.954 -0.0818  0.0656  0.0277
 4869SOL    HW126066   1.931   0.058   7.047 -1.0373 -2.5518 -0.3766
 4869SOL    HW226067   1.827   0.052   6.934  1.0650 -2.1455 -2.3438
 4870SOL     OW26068   1.128   2.738  16.733 -0.1937 -0.6591  0.2632
 4870SOL    HW126069   1.217   2.771  16.717 -0.9312  0.6740 -1.0061
 4870SOL    HW226070   1.072   2.781  16.669  0.0643  1.6948  1.6237
 4871SOL     OW26071   3.354   0.362  11.420  0.2329  0.1114  0.6440
 4871SOL    HW126072   3.284   0.383  11.358  0.4346 -0.5442  0.1857
 4871SOL    HW226073   3.424   0.423  11.397  1.0131 -1.6617 -1.7526
 4872SOL     OW26074   1.488   4.695   4.215  0.6732 -0.1646 -0.2200
 4872SOL    HW126075   1.435   4.705   4.294  0.9600 -0.9021  0.0688
 4872SOL    HW226076   1.470   4.602   4.201 -0.7457 -0.2568  2.2132
 4873SOL     OW26077   2.058   3.914   2.891 -0.1170 -0.0614  0.0815
 4873SOL    HW126078   2.111   3.835   2.904 -0.5377 -0.0221  1.9393
 4873SOL    HW226079   2.037   3.907   2.798 -0.4230 -0.3535  0.1725
 4874SOL     OW26080   4.338   2.664   2.101 -0.4242 -0.4084 -0.3164
 4874SOL    HW126081   4.355   2.614   2.180  1.4714  1.0830  0.2513
 4874SOL    HW226082   4.265   2.611   2.071 -0.8444  0.8402 -1.5482
 4875SOL     OW26083   1.420   0.762   6.655 -0.3412  0.1262  0.8379
 4875SOL    HW126084   1.515   0.755   6.663 -0.4202 -0.2514  1.4981
 4875SOL    HW226085   1.392   0.674   6.683  0.9489 -0.7937 -0.7794
 4876SOL     OW26086   0.741   3.160   0.110  0.1981  0.3627  0.2998
 4876SOL    HW126087   0.768   3.126   0.024 -2.4223  1.8534 -1.1051
 4876SOL    HW226088   0.679   3.090   0.134 -1.8014  1.1177 -2.6750
 4877SOL     OW26089   4.567   4.486   4.099 -0.1920  0.0447 -0.3109
 4877SOL    HW126090   4.498   4.497   4.165 -1.2696 -2.4566 -1.0005
 4877SOL    HW226091   4.525   4.523   4.021  0.3056  1.1830 -0.0403
 4878SOL     OW26092   1.818   0.160   3.405  0.6078  0.3870  0.0218
 4878SOL    HW126093   1.893   0.120   3.361 -0.1614 -2.0420  0.9175
 4878SOL    HW226094   1.748   0.101   3.377  0.9429 -0.8104  1.6851
 4879SOL     OW26095   0.648   1.516   8.988 -0.4186 -0.6832  0.6034
 4879SOL    HW126096   0.567   1.529   8.938 -0.0834 -2.0884 -0.2938
 4879SOL    HW226097   0.614   1.528   9.077  0.0088 -1.7624  0.9054
 4880SOL     OW26098   2.597   0.858   5.177  0.1151  0.5888  0.2188
 4880SOL    HW126099   2.533   0.919   5.214  0.7448  2.3969 -1.6886
 4880SOL    HW226100   2.537   0.793   5.142 -2.3677  3.4862 -0.8702
 4881SOL     OW26101   2.987   2.493   4.806 -0.0563 -0.2988  0.3225
 4881SOL    HW126102   2.930   2.553   4.758  1.0145 -1.1338 -1.9398
 4881SOL    HW226103   2.970   2.413   4.757  0.3314 -0.0669 -0.1760
 4882SOL     OW26104   4.471   4.167   4.274  0.0552 -0.1687  0.4054
 4882SOL    HW126105   4.440   4.126   4.193 -1.7373  0.6695  0.6463
 4882SOL    HW226106   4.545   4.217   4.239  0.2579 -0.8191 -0.0862
 4883SOL     OW26107   2.465   0.462   8.111 -0.1238  0.2467 -0.5991
 4883SOL    HW126108   2.520   0.511   8.050 -0.0148  1.3432  0.3914
 4883SOL    HW226109   2.503   0.493   8.193  1.9090 -0.0874 -1.4082
 4884SOL     OW26110   0.486   3.875  17.320 -0.0489  0.3191  0.0998
 4884SOL    HW126111   0.553   3.814  17.287  1.5088  0.9370  2.0661
 4884SOL    HW226112   0.460   3.901  17.232 -4.9225  0.5985  1.6245
 4885SOL     OW26113   4.020   3.391  14.423  0.9926 -0.1628  0.0324
 4885SOL    HW126114   4.084   3.321  14.414  0.2937 -0.6215 -1.4024
 4885SOL    HW226115   3.970   3.376  14.343 -0.6411  2.3508  0.5569
 4886SOL     OW26116   2.083   4.181  12.217 -0.5952 -0.3869  0.2484
 4886SOL    HW126117   2.097   4.270  12.186  0.6557 -0.0859  1.6948
 4886SOL    HW226118   2.146   4.138  12.159  0.9095  0.2634  1.4072
 4887SOL     OW26119   1.994   2.113   9.852  0.1418 -0.1333 -0.1885
 4887SOL    HW126120   2.070   2.114   9.910 -0.3401  1.3810  0.4144
 4887SOL    HW226121   1.922   2.095   9.913  0.7732  0.1774  0.6553
 4888SOL     OW26122   2.213   2.861  16.628  0.6165  0.1243  0.4974
 4888SOL    HW126123   2.235   2.824  16.543 -1.2561  2.0899 -0.8614
 4888SOL    HW226124   2.197   2.952  16.599 -0.1639 -0.6776 -1.6106
 4889SOL     OW26125   1.114   3.987  14.699  0.2904  0.4505 -0.3283
 4889SOL    HW126126   1.182   3.921  14.711  0.2712  0.5803  0.5315
 4889SOL    HW226127   1.108   4.010  14.606  2.4676 -1.4134 -0.9187
 4890SOL     OW26128   1.912   2.348   5.472  0.1061 -0.0906 -0.4080
 4890SOL    HW126129   1.920   2.255   5.451 -1.5237 -0.1417 -0.8014
 4890SOL    HW226130   1.980   2.366   5.537  0.7476 -0.0289 -1.0949
 4891SOL     OW26131   0.693   1.081   7.872  0.7134  0.7753 -0.0484
 4891SOL    HW126132   0.778   1.037   7.871 -0.8188 -2.2192  1.2338
 4891SOL    HW226133   0.679   1.077   7.778 -0.6057  2.4283  0.0829
 4892SOL     OW26134   1.567   1.852   2.669  0.7684 -0.0535  0.8262
 4892SOL    HW126135   1.496   1.855   2.733 -0.7565 -3.1199 -0.7329
 4892SOL    HW226136   1.526   1.846   2.583 -1.3404  1.1561  1.7608
 4893SOL     OW26137   2.908   2.767   9.745 -0.1024 -0.1743  0.4998
 4893SOL    HW126138   2.819   2.736   9.758 -0.5803  0.1714 -2.1131
 4893SOL    HW226139   2.914   2.825   9.821 -1.4594 -4.2587  3.7126
 4894SOL     OW26140   3.943   4.241   8.652  0.5489  0.2324 -0.2382
 4894SOL    HW126141   3.946   4.212   8.560  1.8384 -1.0504  0.2120
 4894SOL    HW226142   4.021   4.296   8.654 -0.0593  0.9274  3.3080
 4895SOL     OW26143   1.454   0.496   3.786 -0.2470  0.2393 -0.5919
 4895SOL    HW126144   1.404   0.422   3.751 -2.1484  0.9832  0.5597
 4895SOL    HW226145   1.538   0.465   3.818 -0.8873  0.9267  1.7313
 4896SOL     OW26146   0.596   2.867   5.197 -0.3750 -0.0823  0.5925
 4896SOL    HW126147   0.584   2.882   5.291  1.8819  0.3033  0.8010
 4896SOL    HW226148   0.555   2.781   5.185  0.2012 -0.7031  3.1938
 4897SOL     OW26149   1.523   1.890  16.387 -0.5163  0.2907  0.0310
 4897SOL    HW126150   1.556   1.901  16.476 -1.0518 -1.8205  0.4878
 4897SOL    HW226151   1.584   1.943  16.336  0.4945 -0.6666  0.2497
 4898SOL     OW26152   3.852   1.045   7.206 -0.4153 -0.0982 -0.2514
 4898SOL    HW126153   3.822   0.998   7.128  0.8311 -3.0171  1.0504
 4898SOL    HW226154   3.917   0.980   7.233 -0.5753  0.5537  1.7066
 4899SOL     OW26155   2.995   1.849   6.022 -0.0418  0.1984 -0.3339
 4899SOL    HW126156   2.902   1.865   6.038  0.3878  0.6258  1.8182
 4899SOL    HW226157   2.978   1.773   5.966  0.4286 -1.1090  1.2656
 4900SOL     OW26158   2.831   0.073  14.982  0.4962  0.2758  0.5465
 4900SOL    HW126159   2.846   0.042  15.071  1.8109 -0.1061  0.1840
 4900SOL    HW226160   2.739   0.102  14.988  0.7133  0.8678  1.0747
 4901SOL     OW26161   0.625   1.820  16.344  0.3461 -0.1379  0.4143
 4901SOL    HW126162   0.641   1.813  16.438  3.8522  3.2603  0.0469
 4901SOL    HW226163   0.693   1.759  16.315  0.8384 -0.9021  3.2127
 4902SOL     OW26164   3.883   1.987   2.477  0.1908  0.6472 -0.3628
 4902SOL    HW126165   3.812   1.952   2.423  1.5274 -0.9378 -1.0780
 4902SOL    HW226166   3.960   1.984   2.421  0.0352  1.0946 -0.6089
 4903SOL     OW26167   1.602   2.181   8.831 -0.0574  0.3734 -0.2231
 4903SOL    HW126168   1.621   2.255   8.889  1.9270 -1.8189  1.9132
 4903SOL    HW226169   1.543   2.229   8.773  1.1542 -0.2398 -1.9732
 4904SOL     OW26170   3.361   4.434   6.554 -0.7497 -0.0680  0.0718
 4904SOL    HW126171   3.397   4.456   6.468  0.7111 -0.9533  0.4416
 4904SOL    HW226172   3.340   4.341   6.539 -0.6802 -0.2301  0.9468
 4905SOL     OW26173   0.842   2.125  16.217  0.0984  0.5815  0.0049
 4905SOL    HW126174   0.827   2.070  16.294 -0.1773  0.0656 -0.4207
 4905SOL    HW226175   0.891   2.199  16.253  0.8614  1.0974 -2.0814
 4906SOL     OW26176   2.078   4.626  12.277 -0.4632 -0.2197  0.3917
 4906SOL    HW126177   2.159   4.620  12.328 -0.6240  0.0532  0.6771
 4906SOL    HW226178   2.091   4.556  12.213 -1.2456 -0.8675  0.9463
 4907SOL     OW26179   3.216   2.844   3.067  0.5796  0.4550 -0.0525
 4907SOL    HW126180   3.298   2.825   3.112  0.9048 -1.1372 -1.3231
 4907SOL    HW226181   3.150   2.811   3.129  1.4688  1.0940  1.2207
 4908SOL     OW26182   3.317   1.667  15.265 -0.5547  0.1828  0.5332
 4908SOL    HW126183   3.328   1.673  15.360 -0.7694 -0.1485  0.5800
 4908SOL    HW226184   3.240   1.717  15.239  0.1575  0.3539 -1.2608
 4909SOL     OW26185   3.316   3.612   9.465 -0.4976  0.2618  0.2780
 4909SOL    HW126186   3.281   3.636   9.551  0.4814 -0.9946  1.0271
 4909SOL    HW226187   3.295   3.686   9.408 -1.9780 -1.0797 -0.9190
 4910SOL     OW26188   2.456   1.926   3.474 -0.0265  0.6857 -0.3396
 4910SOL    HW126189   2.487   1.872   3.401 -0.7871  0.2299 -0.3266
 4910SOL    HW226190   2.494   2.013   3.463 -3.5848  2.3438  0.2822
 4911SOL     OW26191   4.560   1.553   6.382  0.4036  0.0763  0.4795
 4911SOL    HW126192   4.654   1.560   6.398  0.8091 -1.6404 -1.2440
 4911SOL    HW226193   4.578   1.488   6.315  1.9415  2.8270 -1.7771
 4912SOL     OW26194   2.023   3.944   7.159 -0.1498  0.1380 -0.0328
 4912SOL    HW126195   1.958   3.883   7.196  0.2630  0.0624  0.5636
 4912SOL    HW226196   2.041   3.992   7.239 -0.6262 -0.3147  0.3443
 4913SOL     OW26197   4.315   4.405   1.183  0.0910  0.2857  0.2401
 4913SOL    HW126198   4.407   4.408   1.210  0.2874 -0.1979 -0.3810
 4913SOL    HW226199   4.332   4.362   1.099 -1.6605 -1.3320  0.6967
 4914SOL     OW26200   2.300   1.182   8.272  0.0213 -0.3710  0.2513
 4914SOL    HW126201   2.387   1.163   8.308  0.0188 -2.0954 -0.6346
 4914SOL    HW226202   2.269   1.091   8.271 -1.3399  0.1184 -1.1063
 4915SOL     OW26203   0.477   1.387   8.233 -0.1902  0.1008  0.6116
 4915SOL    HW126204   0.489   1.343   8.150  0.9253 -0.2447  0.9501
 4915SOL    HW226205   0.455   1.472   8.196  1.3115 -0.6854 -2.0884
 4916SOL     OW26206   2.474   0.784   1.264 -0.2117 -0.1127 -0.2072
 4916SOL    HW126207   2.462   0.718   1.332  1.6174 -0.8571 -0.5819
 4916SOL    HW226208   2.564   0.816   1.273  0.1095 -1.3950  1.1926
 4917SOL     OW26209   1.696   1.089   5.033  1.1369 -0.0368  0.4663
 4917SOL    HW126210   1.677   1.183   5.034 -0.2439 -0.3207  0.9566
 4917SOL    HW226211   1.764   1.083   5.100  1.4892  0.2809  0.1390
 4918SOL     OW26212   0.517   3.551  14.947  0.7649 -0.6579  0.2352
 4918SOL    HW126213   0.433   3.591  14.926  1.3972  0.2994 -0.4522
 4918SOL    HW226214   0.536   3.501  14.868  2.5103 -1.4860  1.1548
 4919SOL     OW26215   2.354   3.246   0.619  0.9152 -0.0416 -0.1625
 4919SOL    HW126216   2.272   3.247   0.668  0.7116  0.4482 -0.5136
 4919SOL    HW226217   2.314   3.235   0.533  1.3660 -0.5385 -0.3035
 4920SOL     OW26218   1.092   4.332   6.673  0.4418  0.5005 -0.1220
 4920SOL    HW126219   1.085   4.248   6.628  0.7426 -0.8128  2.2530
 4920SOL    HW226220   1.018   4.313   6.731  0.4957  0.8626  0.0679
 4921SOL     OW26221   0.016   1.767  13.604 -0.1357 -0.3654  0.3395
 4921SOL    HW126222   0.076   1.692  13.601  1.4918  0.9573  0.2478
 4921SOL    HW226223   4.673   1.735  13.540  0.6021  0.8359 -0.9864
 4922SOL     OW26224   2.319   1.791   9.748 -0.2276 -0.5330 -0.1132
 4922SOL    HW126225   2.259   1.743   9.804  0.4064  1.9170  2.6507
 4922SOL    HW226226   2.275   1.800   9.663 -0.0317 -0.4639 -0.2073
 4923SOL     OW26227   1.599   4.270   2.711 -0.3782 -0.6428  0.0010
 4923SOL    HW126228   1.676   4.213   2.716 -0.2401 -0.5365 -0.9164
 4923SOL    HW226229   1.613   4.317   2.629  1.4641 -1.4107 -0.1217
 4924SOL     OW26230   0.456   0.594   8.850 -0.4557  0.2741 -0.5175
 4924SOL    HW126231   0.436   0.577   8.942 -3.2286 -0.5138 -1.2401
 4924SOL    HW226232   0.495   0.511   8.822  0.5984  0.5972  0.0171
 4925SOL     OW26233   4.559   2.906  17.211 -0.1716  0.5674  0.0670
 4925SOL    HW126234   4.603   2.850  17.274 -2.2797 -0.5010  0.5993
 4925SOL    HW226235   4.494   2.838  17.192 -0.3462  0.6744  0.2731
 4926SOL     OW26236   1.009   3.738  14.994 -0.1052 -0.0041  0.4355
 4926SOL    HW126237   1.054   3.700  15.069  0.3847 -0.5688 -0.1420
 4926SOL    HW226238   1.064   3.704  14.923  0.3849  0.4251  0.6175
 4927SOL     OW26239   3.296   0.374  12.732  0.0505  0.5064  0.1067
 4927SOL    HW126240   3.304   0.461  12.693 -2.7645  0.9583  0.5195
 4927SOL    HW226241   3.263   0.333  12.652 -1.9347  2.8474 -0.2789
 4928SOL     OW26242   1.182   2.695  16.030 -0.2966 -0.3683 -0.2300
 4928SOL    HW126243   1.139   2.617  16.064  0.3000 -0.2015  0.9231
 4928SOL    HW226244   1.196   2.667  15.940 -0.6623  1.3152 -0.8071
 4929SOL     OW26245   3.443   3.125   1.040 -0.0017 -0.1916  1.1131
 4929SOL    HW126246   3.439   3.168   0.955 -0.6614 -1.6255  0.4112
 4929SOL    HW226247   3.454   3.034   1.012  1.2251 -0.1143  1.3552
 4930SOL     OW26248   1.249   2.514   4.875 -0.0586  0.7599 -0.0788
 4930SOL    HW126249   1.322   2.564   4.840 -0.7838  1.2196 -0.9336
 4930SOL    HW226250   1.185   2.585   4.882 -0.6370  0.2066  0.2539
 4931SOL     OW26251   1.460   3.985  12.765  0.1556  0.7217 -0.1863
 4931SOL    HW126252   1.481   4.059  12.822 -1.7518  0.7833  0.4087
 4931SOL    HW226253   1.524   3.919  12.792  1.8722  1.3742 -2.6059
 4932SOL     OW26254   0.114   1.205   3.733  0.4082 -0.6256 -0.3481
 4932SOL    HW126255   0.066   1.277   3.693  0.4076 -1.5232 -1.9426
 4932SOL    HW226256   0.142   1.163   3.652  0.8935  0.9625 -1.0162
 4933SOL     OW26257   0.304   3.124   5.272  0.0524  0.3819  0.1786
 4933SOL    HW126258   0.305   3.186   5.199  0.3396 -2.5482 -2.2944
 4933SOL    HW226259   0.278   3.183   5.343 -0.6144 -1.7211  1.6874
 4934SOL     OW26260   4.127   0.772   3.113 -0.0975 -0.0300  0.4772
 4934SOL    HW126261   4.154   0.718   3.039 -0.8918  0.4476 -0.1713
 4934SOL    HW226262   4.196   0.763   3.178 -0.9818 -1.1208  1.2755
 4935SOL     OW26263   1.194   2.091   2.824 -0.1217  0.1352  0.5120
 4935SOL    HW126264   1.257   2.094   2.752 -0.8136  0.7838 -0.0652
 4935SOL    HW226265   1.175   1.997   2.828  1.6959 -0.1933  1.4196
 4936SOL     OW26266   4.557   2.677   0.692  0.3300  0.3433  0.1500
 4936SOL    HW126267   4.617   2.616   0.735 -1.5089 -1.4509  0.1694
 4936SOL    HW226268   4.614   2.725   0.632  1.6719 -2.4060 -0.7654
 4937SOL     OW26269   2.259   1.628   8.575  0.1310  0.1406 -0.5868
 4937SOL    HW126270   2.232   1.538   8.556  0.0924 -0.2095  1.1375
 4937SOL    HW226271   2.172   1.666   8.566  0.2505  0.4429 -0.4462
 4938SOL     OW26272   0.209   1.868   5.245  0.7292  0.4833  0.1031
 4938SOL    HW126273   0.127   1.856   5.293  1.4074 -0.1817  1.0766
 4938SOL    HW226274   0.253   1.938   5.292  0.0238  0.1725  1.2188
 4939SOL     OW26275   0.591   3.041  10.380  0.1065 -0.0280 -0.2306
 4939SOL    HW126276   0.653   3.105  10.345 -1.2729  0.1838 -2.2644
 4939SOL    HW226277   0.582   3.075  10.469 -0.5822 -2.6895  0.7109
 4940SOL     OW26278   1.120   3.110   4.947  0.1874 -0.1119 -0.7947
 4940SOL    HW126279   1.193   3.063   4.907 -1.0214 -1.8480 -0.9520
 4940SOL    HW226280   1.084   3.155   4.870  3.9078  1.3661 -1.6314
 4941SOL     OW26281   0.117   0.646   2.681  0.2422 -0.1682  0.2427
 4941SOL    HW126282   0.176   0.721   2.673  0.2877 -0.1454  0.8166
 4941SOL    HW226283   0.164   0.582   2.627 -2.2501 -0.9403 -1.0231
 4942SOL     OW26284   0.022   1.209  10.409  0.0397  0.4658  0.3316
 4942SOL    HW126285   4.687   1.254  10.471  0.5979 -2.8355  3.1864
 4942SOL    HW226286   0.005   1.119  10.434 -0.5985  0.1977 -1.0448
 4943SOL     OW26287   2.443   4.083   2.867  0.1014  0.0383  0.5359
 4943SOL    HW126288   2.399   4.154   2.822 -3.9068 -1.2241  2.5004
 4943SOL    HW226289   2.393   4.010   2.830 -0.8690  0.8574  0.2495
 4944SOL     OW26290   2.543   1.751   3.927  0.2530  0.2072  0.5510
 4944SOL    HW126291   2.475   1.792   3.980  0.4497  0.1561  0.8426
 4944SOL    HW226292   2.518   1.658   3.931 -1.2398  0.5042 -1.7181
 4945SOL     OW26293   0.090   1.525  13.928 -0.2328 -0.3202  0.2067
 4945SOL    HW126294   0.183   1.548  13.933 -0.6995  1.6356 -0.4161
 4945SOL    HW226295   0.070   1.535  14.021 -3.5658 -2.0616 -0.3357
 4946SOL     OW26296   4.710   0.733   4.175 -0.2370  0.0281 -0.3501
 4946SOL    HW126297   0.044   0.693   4.107 -1.9578  0.4958 -2.0168
 4946SOL    HW226298   4.624   0.720   4.136  0.1944 -2.0763 -0.6175
 4947SOL     OW26299   3.411   2.377   1.783 -0.1876 -0.4366  0.4164
 4947SOL    HW126300   3.333   2.411   1.827 -1.0188 -0.4069 -1.0818
 4947SOL    HW226301   3.477   2.445   1.797 -1.6114  1.3461 -1.5930
 4948SOL     OW26302   1.053   4.424   3.195 -0.2770 -0.2844  0.4846
 4948SOL    HW126303   1.127   4.363   3.185 -1.5857 -1.7953  0.0204
 4948SOL    HW226304   1.001   4.370   3.255  0.3677 -1.3522  0.0871
 4949SOL     OW26305   3.874   0.285   2.181  0.0254  0.1100 -0.2999
 4949SOL    HW126306   3.947   0.345   2.200 -0.1268 -0.2756  1.5795
 4949SOL    HW226307   3.838   0.334   2.108  1.1705  0.9089 -0.3436
 4950SOL     OW26308   1.563   1.728  11.619 -0.7413  0.2965  0.4209
 4950SOL    HW126309   1.571   1.690  11.706  2.8886  0.7716  0.3037
 4950SOL    HW226310   1.637   1.686  11.575 -0.7016  0.8792 -0.0778
 4951SOL     OW26311   0.602   0.366   8.396  0.8680  0.0057  0.0396
 4951SOL    HW126312   0.636   0.299   8.336 -0.1336 -0.7009  0.2755
 4951SOL    HW226313   0.584   0.444   8.344 -2.1191 -1.7578 -1.5835
 4952SOL     OW26314   0.263   4.660   1.071  0.3356 -0.6178  0.5450
 4952SOL    HW126315   0.335   0.001   1.076  0.2925 -0.5862  0.7600
 4952SOL    HW226316   0.295   4.613   0.994 -2.0448  0.2477 -0.9883
 4953SOL     OW26317   3.244   1.994  15.992  0.1138 -0.2072 -0.9014
 4953SOL    HW126318   3.259   1.903  15.966  1.2165 -0.9041  2.1936
 4953SOL    HW226319   3.216   1.981  16.083  1.3095 -1.6956 -0.7500
 4954SOL     OW26320   2.712   1.706   6.448  0.2857 -0.1842  0.3099
 4954SOL    HW126321   2.771   1.659   6.389  0.3138 -1.3152  1.2568
 4954SOL    HW226322   2.687   1.640   6.512  1.8079 -0.8556  0.2101
 4955SOL     OW26323   2.544   2.141  12.178  0.3873 -0.0533  0.2043
 4955SOL    HW126324   2.633   2.175  12.165  0.2924 -0.3030 -1.1003
 4955SOL    HW226325   2.511   2.121  12.091  0.0180 -0.0770  0.3528
 4956SOL     OW26326   1.081   0.490  10.171  0.1223 -0.2059 -0.2332
 4956SOL    HW126327   1.034   0.556  10.221  1.3196  0.0236  0.5756
 4956SOL    HW226328   1.144   0.472  10.241  0.9012 -0.8449 -1.0883
 4957SOL     OW26329   0.022   1.332   6.452  0.0972  0.2825 -0.1098
 4957SOL    HW126330   0.011   1.255   6.508  0.6952  0.6974  0.5707
 4957SOL    HW226331   0.033   1.291   6.366  0.8795  3.2856 -1.4372
 4958SOL     OW26332   1.705   0.445  16.976 -0.3506 -0.3354  0.3357
 4958SOL    HW126333   1.629   0.478  16.928 -0.4923  0.5817  1.1755
 4958SOL    HW226334   1.683   0.486  17.060  0.4496 -1.4211  1.0655
 4959SOL     OW26335   2.524   2.694   1.786  0.2857 -0.1785  0.5369
 4959SOL    HW126336   2.539   2.614   1.736  1.0072  0.1441  0.2365
 4959SOL    HW226337   2.500   2.747   1.709 -1.9080 -1.7541  0.1411
 4960SOL     OW26338   4.172   2.795   2.655 -0.7829 -0.5939  0.3487
 4960SOL    HW126339   4.170   2.843   2.573 -1.5022  1.7154  1.7353
 4960SOL    HW226340   4.122   2.718   2.627 -1.7343 -0.4346  1.6299
 4961SOL     OW26341   2.732   3.072   3.339  0.1389  0.2426 -0.1644
 4961SOL    HW126342   2.671   3.040   3.405 -0.0549  1.1560  0.0987
 4961SOL    HW226343   2.683   3.133   3.285  1.5622  0.6083 -1.0486
 4962SOL     OW26344   3.424   2.197   9.134 -0.3720 -0.0289 -0.1680
 4962SOL    HW126345   3.334   2.190   9.102 -0.4874  0.1751  0.1107
 4962SOL    HW226346   3.412   2.260   9.205  0.3759  2.1261 -1.9265
 4963SOL     OW26347   3.957   0.773  13.000  0.7113 -0.3111  0.1661
 4963SOL    HW126348   3.976   0.789  13.092  0.0544 -0.2052  0.2822
 4963SOL    HW226349   3.943   0.678  12.992  0.4064 -0.0139 -2.6882
 4964SOL     OW26350   1.932   1.040   7.871  0.3258 -0.0717 -0.1255
 4964SOL    HW126351   1.927   1.062   7.778 -0.1365  0.4878  0.0311
 4964SOL    HW226352   2.027   1.049   7.885  0.5451 -0.9758 -1.0572
 4965SOL     OW26353   2.765   2.890  17.230 -0.3602  0.3146  0.0409
 4965SOL    HW126354   2.780   2.800  17.201  0.4704  1.4073 -2.9723
 4965SOL    HW226355   2.746   2.930  17.145 -2.6781  0.2335  0.5303
 4966SOL     OW26356   4.428   2.941   0.337  0.2352  0.2484 -0.6463
 4966SOL    HW126357   4.418   2.992   0.418 -2.1656 -1.7226  0.2833
 4966SOL    HW226358   4.404   2.853   0.365 -2.5143  1.4909  0.7959
 4967SOL     OW26359   0.184   0.044   5.319 -0.1727  0.2676 -0.4116
 4967SOL    HW126360   0.182   4.670   5.335 -1.3185  0.2333 -0.7356
 4967SOL    HW226361   0.092   0.050   5.345  0.0506 -1.0170  0.6817
 4968SOL     OW26362   3.896   2.240   6.553 -0.3373  0.1884 -0.1863
 4968SOL    HW126363   3.847   2.231   6.471 -1.0393 -0.3078  0.2859
 4968SOL    HW226364   3.964   2.172   6.553 -0.2646  0.2596  0.1152
 4969SOL     OW26365   4.334   1.065   1.234  0.4981  0.2237  0.2118
 4969SOL    HW126366   4.281   1.078   1.156  0.6264  0.8776  0.2307
 4969SOL    HW226367   4.323   0.971   1.246  0.3142  0.3990  1.4943
 4970SOL     OW26368   1.080   0.955   2.887 -0.0831 -0.1665 -0.1813
 4970SOL    HW126369   1.102   0.893   2.956 -1.8973 -1.0319 -0.3827
 4970SOL    HW226370   1.168   0.972   2.851  0.2783 -0.5614  0.5200
 4971SOL     OW26371   2.441   0.673  17.305 -0.0279 -1.0493  0.1757
 4971SOL    HW126372   2.424   0.760  17.269  1.0904 -0.4135  1.1845
 4971SOL    HW226373   2.391   0.615  17.247 -0.8514  0.1646 -0.3196
 4972SOL     OW26374   0.993   4.153   9.630  0.0046 -0.5861  0.3081
 4972SOL    HW126375   1.017   4.121   9.716 -1.4473 -1.6962  0.3138
 4972SOL    HW226376   0.947   4.230   9.662  0.5691  1.1171 -2.9519
 4973SOL     OW26377   4.489   3.936   7.222  0.0274 -0.2973 -0.4239
 4973SOL    HW126378   4.419   3.899   7.169  1.6505 -0.3923 -2.5111
 4973SOL    HW226379   4.451   3.999   7.283 -0.0311  0.9213 -1.7212
 4974SOL     OW26380   1.910   3.134   9.006 -0.4927  0.0087  0.0134
 4974SOL    HW126381   1.915   3.183   9.088  1.0024 -0.8291  0.4165
 4974SOL    HW226382   1.866   3.053   9.032 -0.3961 -0.1306 -0.2540
 4975SOL     OW26383   1.320   0.492   1.075 -0.1091  0.7166 -0.1597
 4975SOL    HW126384   1.395   0.477   1.133  0.1060 -0.4770 -0.7581
 4975SOL    HW226385   1.262   0.426   1.111  2.5192 -0.3260  2.1460
 4976SOL     OW26386   2.703   3.087   2.345 -0.1755 -0.4221 -0.4349
 4976SOL    HW126387   2.754   3.054   2.420 -0.8322  1.9143  1.0305
 4976SOL    HW226388   2.764   3.084   2.271 -0.6816 -0.4989 -0.8443
 4977SOL     OW26389   2.112   0.573   6.074  0.4223 -0.3128  0.2529
 4977SOL    HW126390   2.028   0.530   6.055 -0.1380  0.9832 -0.1764
 4977SOL    HW226391   2.073   0.637   6.133 -1.5423 -0.8585 -0.4453
 4978SOL     OW26392   3.111   1.667   3.806  0.4444 -0.4152  0.3802
 4978SOL    HW126393   3.176   1.605   3.773  2.3559  2.4304 -1.1620
 4978SOL    HW226394   3.032   1.626   3.771 -1.0731  1.4155  1.6504
 4979SOL     OW26395   2.584   1.730  16.673  0.0301  0.2661 -0.4195
 4979SOL    HW126396   2.608   1.759  16.761 -2.5334  3.5453 -0.8174
 4979SOL    HW226397   2.489   1.721  16.685  0.3662 -0.6041  1.5880
 4980SOL     OW26398   4.651   0.690   6.918 -0.0693 -0.5903 -0.1958
 4980SOL    HW126399   4.627   0.755   6.984  0.9248 -0.6887  0.2510
 4980SOL    HW226400   4.623   0.612   6.966  1.3290 -0.6448  0.5108
 4981SOL     OW26401   3.607   0.318   1.783  0.5521 -0.1015 -0.0427
 4981SOL    HW126402   3.597   0.244   1.842 -1.1165  0.6651  0.6180
 4981SOL    HW226403   3.552   0.384   1.825  1.3884 -0.2413  1.2536
 4982SOL     OW26404   0.186   4.050   3.822  0.5180  0.6421  0.2586
 4982SOL    HW126405   0.250   4.094   3.877  1.7062  0.8565 -1.3332
 4982SOL    HW226406   0.206   3.966   3.864 -0.3656 -1.4754 -3.6094
 4983SOL     OW26407   3.451   2.498  17.440  0.6239 -0.2160  0.0271
 4983SOL    HW126408   3.395   2.571  17.417 -1.6914 -1.9074  0.2748
 4983SOL    HW226409   3.424   2.499  17.532  0.1740 -1.3005 -0.0861
 4984SOL     OW26410   2.287   0.687   1.938  0.1031 -0.0945 -0.2484
 4984SOL    HW126411   2.377   0.718   1.946  0.4088 -1.1405  0.4816
 4984SOL    HW226412   2.285   0.622   2.008  1.8574 -1.9788 -1.9343
 4985SOL     OW26413   4.311   0.434  12.533  0.3571 -0.0444 -0.0183
 4985SOL    HW126414   4.331   0.342  12.516  0.1904 -0.1543  0.4033
 4985SOL    HW226415   4.293   0.432  12.627  4.1117  3.6299  0.7714
 4986SOL     OW26416   0.754   2.850  12.581 -0.2378  0.2480  0.4282
 4986SOL    HW126417   0.791   2.938  12.573 -2.6536  1.2363  0.2087
 4986SOL    HW226418   0.823   2.793  12.546 -1.8951 -0.3804 -1.8039
 4987SOL     OW26419   2.172   1.633   2.831 -0.1917  0.1778  0.4375
 4987SOL    HW126420   2.248   1.575   2.825 -0.1343  0.1899  1.0392
 4987SOL    HW226421   2.197   1.708   2.776 -2.2191  0.7140  0.2480
 4988SOL     OW26422   3.848   3.225   8.203  0.1382  0.3621  0.0082
 4988SOL    HW126423   3.769   3.176   8.227 -0.1277  0.8005  0.0170
 4988SOL    HW226424   3.899   3.154   8.165  0.3764  0.0349  0.9386
 4989SOL     OW26425   1.456   4.080   5.111 -0.4657 -0.2771 -0.3584
 4989SOL    HW126426   1.424   4.069   5.200  0.2186  0.3432 -0.0383
 4989SOL    HW226427   1.488   4.170   5.113 -0.3852 -0.3344  0.7562
 4990SOL     OW26428   2.835   2.865   2.851  0.8472  0.0676  0.0499
 4990SOL    HW126429   2.812   2.939   2.795  0.1023  1.0460  1.6564
 4990SOL    HW226430   2.760   2.852   2.909 -0.0887 -1.2211 -1.4392
 4991SOL     OW26431   1.261   2.970  16.407 -0.2511  0.3903 -0.4147
 4991SOL    HW126432   1.216   3.022  16.341  1.3994  0.6330 -1.3350
 4991SOL    HW226433   1.186   2.962  16.466  0.3080 -0.3938  0.1975
 4992SOL     OW26434   1.560   2.856   0.593  0.1816  0.2261  0.0889
 4992SOL    HW126435   1.610   2.840   0.513  1.1287 -0.9375  0.9118
 4992SOL    HW226436   1.501   2.928   0.573 -1.4122 -0.7813  1.1725
 4993SOL     OW26437   4.442   0.276   7.390  0.0063 -0.2604 -0.2338
 4993SOL    HW126438   4.462   0.183   7.392 -0.7938 -0.4137  0.5877
 4993SOL    HW226439   4.497   0.301   7.464  1.2051  0.3051 -1.3077
 4994SOL     OW26440   0.903   0.664   0.119  0.1313 -0.3728  0.0569
 4994SOL    HW126441   0.859   0.599   0.175 -1.3759  0.5170 -0.0931
 4994SOL    HW226442   0.981   0.692   0.167 -0.8133  0.1414  1.3203
 4995SOL     OW26443   3.613   2.862   2.683 -0.4842  0.3910  0.0656
 4995SOL    HW126444   3.524   2.899   2.682 -0.6052  0.0755 -1.8547
 4995SOL    HW226445   3.612   2.821   2.770 -3.4778  0.7037  0.1729
 4996SOL     OW26446   1.440   3.300   6.116 -0.2000 -0.1838 -0.6755
 4996SOL    HW126447   1.506   3.335   6.055  0.1034  1.0573  0.3677
 4996SOL    HW226448   1.423   3.219   6.068  0.2661 -0.8079  0.2185
 4997SOL     OW26449   2.577   2.224   2.449  0.0895 -0.0100  0.4217
 4997SOL    HW126450   2.605   2.312   2.422  2.7912 -1.0252 -0.1096
 4997SOL    HW226451   2.525   2.197   2.374 -0.7158  2.1715  0.2022
 4998SOL     OW26452   0.413   1.356   4.347  0.1205  0.2789  0.1241
 4998SOL    HW126453   0.487   1.295   4.359  1.6823  1.7643 -2.0203
 4998SOL    HW226454   0.336   1.304   4.370  0.3676  0.5559  1.5973
 4999SOL     OW26455   1.166   3.990   5.650 -0.0439  0.1121 -0.1249
 4999SOL    HW126456   1.237   3.927   5.636 -0.5653 -0.6036  0.4597
 4999SOL    HW226457   1.217   4.066   5.678 -1.4308  1.1917 -0.5673
 5000SOL     OW26458   1.503   2.310   3.358  0.7355 -0.1187  0.5493
 5000SOL    HW126459   1.420   2.279   3.322  0.6956  0.3407  0.2457
 5000SOL    HW226460   1.549   2.230   3.383  0.2359 -0.0418  1.7342
 5001SOL     OW26461   3.955   0.040   5.026  0.1327  0.1060  0.2187
 5001SOL    HW126462   3.887   0.043   4.959 -1.3194 -1.1650  1.6314
 5001SOL    HW226463   3.906   0.035   5.108  0.5701 -1.6215  0.3643
 5002SOL     OW26464   2.470   2.446   5.260  0.5162  0.0864 -0.1153
 5002SOL    HW126465   2.525   2.422   5.185  1.2131  0.2590  0.3389
 5002SOL    HW226466   2.507   2.387   5.326 -0.6169 -1.7053 -1.0616
 5003SOL     OW26467   0.394   0.427   8.003 -0.3983  0.2126 -0.0679
 5003SOL    HW126468   0.376   0.497   7.940 -1.0968 -0.8461 -1.0399
 5003SOL    HW226469   0.309   0.435   8.047 -1.0369 -0.7506 -1.1233
 5004SOL     OW26470   3.124   1.658   6.212  0.0092  0.6035  0.1887
 5004SOL    HW126471   3.085   1.737   6.174  0.3209 -0.2316 -1.8659
 5004SOL    HW226472   3.150   1.601   6.140  0.8168  1.1810  0.0131
 5005SOL     OW26473   0.060   3.837  12.874 -0.2500  0.4926 -0.7399
 5005SOL    HW126474   0.143   3.885  12.879  0.8162 -1.5112  0.6555
 5005SOL    HW226475   0.060   3.815  12.781 -3.2901 -1.3657 -0.2833
 5006SOL     OW26476   4.466   2.153   0.934 -0.5322  0.8391 -0.1108
 5006SOL    HW126477   4.524   2.076   0.936  0.8640  1.8994 -0.1503
 5006SOL    HW226478   4.384   2.106   0.948  0.7308 -1.6752 -1.1495
 5007SOL     OW26479   1.745   2.597  14.944 -0.2017  0.3198  0.3023
 5007SOL    HW126480   1.778   2.565  15.028  0.1002 -0.4324 -0.1013
 5007SOL    HW226481   1.787   2.683  14.944 -2.1416  1.2526 -2.1202
 5008SOL     OW26482   0.232   1.097  10.628 -0.2001  0.4745  0.8236
 5008SOL    HW126483   0.141   1.111  10.601  0.6033  0.7226 -1.7828
 5008SOL    HW226484   0.236   1.003  10.647  3.0397  0.1157 -1.6479
 5009SOL     OW26485   2.678   2.442   6.475  0.2480 -0.0445  0.0523
 5009SOL    HW126486   2.709   2.507   6.413  1.4484  0.3585  1.0729
 5009SOL    HW226487   2.755   2.389   6.495 -1.0019 -0.7552  3.1526
 5010SOL     OW26488   2.747   0.009  14.457 -0.4347  0.1961 -0.3739
 5010SOL    HW126489   2.661   0.047  14.439 -0.6532 -0.4421 -0.7001
 5010SOL    HW226490   2.749   0.005  14.552 -4.0084  3.5012 -0.1659
 5011SOL     OW26491   2.355   0.722   7.649 -0.2648 -0.2525 -0.0128
 5011SOL    HW126492   2.369   0.719   7.744  0.2771  1.1057 -0.0480
 5011SOL    HW226493   2.396   0.807   7.628 -1.9857  0.7426  0.6537
 5012SOL     OW26494   2.027   3.965   6.626 -0.0784  0.4818  0.7530
 5012SOL    HW126495   1.971   3.969   6.704 -1.7999 -0.9459 -0.4075
 5012SOL    HW226496   1.971   4.002   6.558  1.0086 -2.7862 -1.8926
 5013SOL     OW26497   4.119   2.710   7.813 -0.0305  0.0692 -0.0034
 5013SOL    HW126498   4.027   2.698   7.836  0.1814  2.0094  1.8486
 5013SOL    HW226499   4.156   2.622   7.827  0.4125  0.2464 -0.0504
 5014SOL     OW26500   4.305   4.487   2.914 -0.1977 -0.5086  0.1897
 5014SOL    HW126501   4.334   4.447   2.832  1.2931 -2.1052  1.4940
 5014SOL    HW226502   4.387   4.523   2.950 -1.0773  1.4692  0.1982
 5015SOL     OW26503   1.804   1.399  10.492  0.0425 -0.0583 -0.0986
 5015SOL    HW126504   1.735   1.427  10.432  0.9278 -0.6085 -1.3763
 5015SOL    HW226505   1.823   1.491  10.513 -0.6714 -0.0120  0.3285
 5016SOL     OW26506   2.012   1.140   4.793 -0.1062  0.0133 -0.0626
 5016SOL    HW126507   2.035   1.230   4.769 -1.9958  0.1501 -1.3310
 5016SOL    HW226508   2.073   1.090   4.738  0.6329  1.5313 -0.6126
 5017SOL     OW26509   1.703   0.279   6.969  0.0218  0.4437 -0.6492
 5017SOL    HW126510   1.772   0.237   7.020 -0.7452 -1.0192 -0.8312
 5017SOL    HW226511   1.756   0.344   6.923 -0.1352  2.1676  1.6124
 5018SOL     OW26512   3.856   2.777   1.909  0.1041 -0.4473  0.4560
 5018SOL    HW126513   3.887   2.815   1.827 -0.1182  0.8458  0.9590
 5018SOL    HW226514   3.876   2.684   1.902  0.8129 -0.2465 -0.2019
 5019SOL     OW26515   0.004   0.959   9.234 -0.0998  0.4778  0.3605
 5019SOL    HW126516   0.070   0.970   9.302  0.0713 -0.2345  0.2996
 5019SOL    HW226517   0.059   0.976   9.158 -0.9166 -0.3827 -0.4192
 5020SOL     OW26518   2.852   0.370   0.859 -0.6141  0.1621 -0.1330
 5020SOL    HW126519   2.917   0.391   0.926  0.1012  1.4577 -1.2499
 5020SOL    HW226520   2.905   0.352   0.781 -1.0727  0.7673 -0.5815
 5021SOL     OW26521   3.573   1.416   7.580  0.3966  0.6783 -0.4215
 5021SOL    HW126522   3.600   1.508   7.573  2.7526  0.1643  1.6897
 5021SOL    HW226523   3.562   1.413   7.675 -0.4533  0.0731 -0.5474
 5022SOL     OW26524   3.084   1.621   7.694 -0.3995 -0.5587 -0.2712
 5022SOL    HW126525   3.085   1.567   7.615 -2.4164 -0.8390 -0.0953
 5022SOL    HW226526   3.033   1.697   7.665  0.5384  0.6156  1.1890
 5023SOL     OW26527   2.202   3.397   6.992  0.0110 -0.1777  0.4352
 5023SOL    HW126528   2.197   3.344   7.072 -0.5583  2.6878  2.3114
 5023SOL    HW226529   2.292   3.375   6.968  0.3587  1.1039  0.5989
 5024SOL     OW26530   2.764   4.331   2.207  0.3096 -0.0267  0.4487
 5024SOL    HW126531   2.735   4.367   2.123 -0.8365 -2.8509 -0.3789
 5024SOL    HW226532   2.704   4.383   2.260 -1.9098 -1.3090 -0.8298
 5025SOL     OW26533   3.177   3.421  10.195 -0.4012 -0.0576 -0.1554
 5025SOL    HW126534   3.232   3.411  10.118  2.0118  0.7500  1.4647
 5025SOL    HW226535   3.127   3.340  10.183  0.9778 -0.9874  0.3826
 5026SOL     OW26536   4.559   3.401   5.976 -0.0585 -0.4922  0.7837
 5026SOL    HW126537   4.636   3.344   5.979  0.0611 -0.3135  1.1003
 5026SOL    HW226538   4.491   3.362   6.031  0.8153 -1.4990  1.1686
 5027SOL     OW26539   1.298   0.560   8.418  0.8275  0.1085 -0.4360
 5027SOL    HW126540   1.314   0.493   8.351 -0.5001 -0.5031 -0.1486
 5027SOL    HW226541   1.234   0.612   8.370  1.4707  0.6841 -0.6633
 5028SOL     OW26542   4.335   3.008  12.464  0.6573 -0.1153  0.0048
 5028SOL    HW126543   4.297   3.085  12.506 -1.0644 -2.4024  2.6239
 5028SOL    HW226544   4.277   2.934  12.482  1.8942 -0.6370  1.8222
 5029SOL     OW26545   3.970   4.507   3.242  0.0304  0.2377  0.3607
 5029SOL    HW126546   4.040   4.563   3.206  0.7671 -0.1289  1.2181
 5029SOL    HW226547   3.998   4.503   3.334 -1.1970 -2.6356  0.6196
 5030SOL     OW26548   0.218   1.365   7.454  0.4435  0.4457 -0.1155
 5030SOL    HW126549   0.196   1.275   7.429 -2.2859  1.4110 -1.1496
 5030SOL    HW226550   0.144   1.415   7.421  0.5992  0.6653 -0.1298
 5031SOL     OW26551   2.156   3.983   9.022 -0.1715  0.3631 -0.1569
 5031SOL    HW126552   2.137   4.050   9.087 -0.3611 -0.4791  0.6505
 5031SOL    HW226553   2.091   4.005   8.956  2.4868  1.0543 -2.5607
 5032SOL     OW26554   2.816   4.664  10.816 -0.1307 -0.4151  0.3579
 5032SOL    HW126555   2.822   4.713  10.898 -1.4641 -1.6842  1.2214
 5032SOL    HW226556   2.748   4.707  10.764  0.5494 -1.3359 -1.2925
 5033SOL     OW26557   1.168   1.140   5.554 -0.4216 -0.0928 -0.4177
 5033SOL    HW126558   1.139   1.222   5.515 -2.1960  0.2847  1.6939
 5033SOL    HW226559   1.260   1.139   5.527  0.3900 -0.4918  2.3274
 5034SOL     OW26560   2.606   4.405   8.849 -0.0031 -0.1633 -0.3091
 5034SOL    HW126561   2.544   4.400   8.776  1.5106  0.6813 -1.6487
 5034SOL    HW226562   2.690   4.394   8.805  0.2323 -2.7664  0.7746
 5035SOL     OW26563   0.102   2.283   4.008  0.1764 -0.4073  0.0946
 5035SOL    HW126564   0.030   2.293   4.070 -0.1977 -1.1213 -0.2218
 5035SOL    HW226565   0.110   2.188   3.996  1.8286 -0.0912 -1.2040
 5036SOL     OW26566   3.823   0.856   6.077  0.3402  0.3227  0.5726
 5036SOL    HW126567   3.807   0.906   5.997  1.0464  0.9184  0.8016
 5036SOL    HW226568   3.745   0.893   6.119 -0.5294 -2.0377  1.0117
 5037SOL     OW26569   3.644   0.229   6.265  0.1565 -0.0515  0.3424
 5037SOL    HW126570   3.738   0.246   6.270  0.1142 -0.0636  1.1760
 5037SOL    HW226571   3.636   0.150   6.317 -0.1508  0.5186  1.1685
 5038SOL     OW26572   2.216   2.800   8.017  0.3614  0.7290  0.4969
 5038SOL    HW126573   2.273   2.859   7.968  0.5967 -0.4436 -0.6748
 5038SOL    HW226574   2.167   2.856   8.077  1.1175  0.5512  1.2691
 5039SOL     OW26575   4.394   4.552   4.299  0.0872 -0.2253  0.2330
 5039SOL    HW126576   4.367   4.461   4.313 -0.3184 -0.3466 -1.3511
 5039SOL    HW226577   4.417   4.585   4.386 -2.2300  0.0570  0.7460
 5040SOL     OW26578   1.968   2.298   9.616  0.1376  0.8857  0.6203
 5040SOL    HW126579   1.903   2.243   9.571  0.3544  0.2994  1.0285
 5040SOL    HW226580   1.979   2.244   9.694  1.0083  0.2222  0.0403
 5041SOL     OW26581   4.041   0.658   8.775 -0.1870 -0.2647 -0.5448
 5041SOL    HW126582   4.021   0.564   8.769  2.3554 -0.7250 -2.0031
 5041SOL    HW226583   3.972   0.678   8.838 -0.2599 -0.6651 -0.4984
 5042SOL     OW26584   4.241   4.279   3.935 -0.3344 -0.9753  0.2523
 5042SOL    HW126585   4.206   4.238   3.856  0.7938  1.0611 -1.3033
 5042SOL    HW226586   4.258   4.369   3.909 -0.5329 -1.5412 -1.8638
 5043SOL     OW26587   0.142   0.159   8.873  0.4136 -0.0355 -0.6372
 5043SOL    HW126588   0.106   0.161   8.784  0.2284 -4.3419 -0.6794
 5043SOL    HW226589   0.165   0.250   8.890  1.2909 -0.3620 -0.0717
 5044SOL     OW26590   1.399   3.161   9.001 -0.1143  0.4753  0.2051
 5044SOL    HW126591   1.491   3.172   8.979 -0.1158  1.5355  0.7158
 5044SOL    HW226592   1.390   3.075   8.959  0.1746  0.8231 -0.5638
 5045SOL     OW26593   3.174   2.324   0.555 -0.8295  0.6431  0.5886
 5045SOL    HW126594   3.154   2.238   0.516  0.3288  0.7620 -0.2686
 5045SOL    HW226595   3.233   2.307   0.628  0.5846 -2.2468 -1.2177
 5046SOL     OW26596   1.292   0.882  15.128  0.5687  0.2148  0.5814
 5046SOL    HW126597   1.323   0.961  15.084  1.0488  1.1138  2.5503
 5046SOL    HW226598   1.208   0.915  15.161  1.7048  0.6285  3.0834
 5047SOL     OW26599   1.618   2.104  17.071  0.0441  0.0031  0.4001
 5047SOL    HW126600   1.587   2.135  16.986 -0.1118  1.1906  0.8945
 5047SOL    HW226601   1.583   2.015  17.076  0.7673 -0.2977  0.1101
 5048SOL     OW26602   3.746   3.242   9.456 -0.0942 -0.0230  0.0427
 5048SOL    HW126603   3.668   3.193   9.432  1.9552 -3.2601 -0.0025
 5048SOL    HW226604   3.813   3.187   9.415  0.4250 -0.2814  1.2196
 5049SOL     OW26605   3.516   4.251   2.323 -0.2159  0.3473  0.5303
 5049SOL    HW126606   3.434   4.203   2.316 -0.2940  0.9118 -2.2355
 5049SOL    HW226607   3.580   4.181   2.335  0.7365  1.3418  1.3346
 5050SOL     OW26608   2.743   3.100   6.905  0.3839  0.4182  0.1425
 5050SOL    HW126609   2.724   3.191   6.927  0.6718  0.0946  1.7422
 5050SOL    HW226610   2.667   3.087   6.848  0.1965 -1.3863  0.8119
 5051SOL     OW26611   0.601   1.067  16.687  0.8425 -0.4836  0.3900
 5051SOL    HW126612   0.668   1.119  16.641  0.7717  0.7539  1.6588
 5051SOL    HW226613   0.564   1.006  16.623 -0.2292 -0.9455  1.4649
 5052SOL     OW26614   3.418   2.138  11.593 -0.8247 -0.3480 -0.4504
 5052SOL    HW126615   3.349   2.197  11.561 -1.3071 -0.2692  0.7384
 5052SOL    HW226616   3.408   2.135  11.688  3.9214  0.4857  0.0680
 5053SOL     OW26617   2.705   2.629   9.473 -0.1461 -0.0728 -0.0668
 5053SOL    HW126618   2.630   2.601   9.421 -1.2118 -0.8178  1.8828
 5053SOL    HW226619   2.667   2.705   9.517 -1.4526  0.3881 -2.0304
 5054SOL     OW26620   1.212   3.318   5.125 -0.6638 -0.1388  0.2359
 5054SOL    HW126621   1.117   3.333   5.121 -0.7080  0.0710  2.0101
 5054SOL    HW226622   1.220   3.244   5.065 -3.3712 -0.7233  0.5723
 5055SOL     OW26623   4.631   3.932  12.561  0.2106 -0.0856 -0.2353
 5055SOL    HW126624   4.579   3.915  12.639  0.6907 -0.2579  0.0488
 5055SOL    HW226625   4.670   4.018  12.578  0.7127  0.2610 -3.0422
 5056SOL     OW26626   1.663   0.737   6.022  0.0909  0.6402 -0.5739
 5056SOL    HW126627   1.604   0.804   6.057 -0.7702 -0.7742  0.6845
 5056SOL    HW226628   1.602   0.681   5.974 -1.2829  0.7009  1.1074
 5057SOL     OW26629   3.603   3.062   1.614 -0.1141 -0.0600 -0.2726
 5057SOL    HW126630   3.675   3.001   1.598  0.2719  0.5161 -0.7518
 5057SOL    HW226631   3.537   2.994   1.621  0.7987 -0.9181  0.0906
 5058SOL     OW26632   1.857   1.609   4.277  0.2778 -0.2009  0.0485
 5058SOL    HW126633   1.888   1.667   4.207  1.2609 -1.6189 -0.6943
 5058SOL    HW226634   1.771   1.647   4.292  1.3551  1.0980  2.7813
 5059SOL     OW26635   3.366   1.007   8.860  0.1280 -0.2082 -0.0419
 5059SOL    HW126636   3.316   1.085   8.836  1.4914  0.4522 -0.7877
 5059SOL    HW226637   3.404   1.037   8.943  1.2522 -2.4232  0.2441
 5060SOL     OW26638   3.276   3.167  14.582 -0.1095 -0.1142 -0.1045
 5060SOL    HW126639   3.343   3.099  14.582  0.2839  0.2917  1.8556
 5060SOL    HW226640   3.212   3.111  14.626  0.0747  0.7128  1.1934
 5061SOL     OW26641   3.140   0.195  13.349 -0.0626  0.4755 -0.1518
 5061SOL    HW126642   3.087   0.246  13.288 -1.0926  0.4524  0.7227
 5061SOL    HW226643   3.077   0.143  13.398 -0.7883 -0.1759 -1.7638
 5062SOL     OW26644   3.318   3.830  17.118  0.3757 -0.2218  0.8821
 5062SOL    HW126645   3.248   3.893  17.101  1.4866  1.1255  1.2854
 5062SOL    HW226646   3.382   3.866  17.057 -2.0426 -0.3121 -1.7193
 5063SOL     OW26647   4.575   2.664   4.931 -0.6100  0.2294 -0.3568
 5063SOL    HW126648   4.622   2.746   4.942  0.7781 -0.3798 -1.6006
 5063SOL    HW226649   4.643   2.598   4.941  0.1246  1.6802  4.1759
 5064SOL     OW26650   0.240   1.585   4.084  0.0697 -1.0330 -0.1039
 5064SOL    HW126651   0.289   1.569   4.165  0.4824  0.1264 -0.1324
 5064SOL    HW226652   0.242   1.494   4.055  0.9589 -1.0765  0.1135
 5065SOL     OW26653   4.126   4.655   4.464  0.0249 -0.0337 -0.1971
 5065SOL    HW126654   4.119   4.648   4.560 -0.9115  1.4760 -0.1640
 5065SOL    HW226655   4.092   0.022   4.451 -0.1999 -0.3527 -1.7080
 5066SOL     OW26656   1.880   0.088   7.210  0.3497 -0.2764  0.4552
 5066SOL    HW126657   1.828   0.046   7.279  1.1867  0.5074  1.5708
 5066SOL    HW226658   1.934   0.149   7.260  0.8041 -1.4153  1.3579
 5067SOL     OW26659   2.161   1.762   0.823 -0.1919  0.1645 -0.3268
 5067SOL    HW126660   2.256   1.773   0.824 -0.1842  0.0459  0.1391
 5067SOL    HW226661   2.150   1.677   0.865 -2.2598  1.6397  2.0874
 5068SOL     OW26662   3.770   2.625   6.014 -0.2145 -0.3303  0.4397
 5068SOL    HW126663   3.730   2.710   6.032  0.8234  0.3431 -0.3833
 5068SOL    HW226664   3.705   2.595   5.950  0.7891 -2.2103  0.3023
 5069SOL     OW26665   2.559   2.455   7.899 -0.1448 -1.0753  0.4716
 5069SOL    HW126666   2.557   2.359   7.900  0.3161 -1.0859  0.2797
 5069SOL    HW226667   2.573   2.467   7.993  2.1861  0.4013 -0.0747
 5070SOL     OW26668   2.106   0.187   5.913 -0.0018  0.2188  0.4410
 5070SOL    HW126669   2.174   0.247   5.884 -1.8154  2.2048  0.2754
 5070SOL    HW226670   2.083   0.142   5.832  4.0019  2.7768 -2.0906
 5071SOL     OW26671   4.044   3.737   2.634 -0.2209 -0.3616 -0.1091
 5071SOL    HW126672   3.977   3.750   2.567 -0.9139 -0.2156  0.5980
 5071SOL    HW226673   3.990   3.766   2.708 -1.5842  1.3271 -1.7706
 5072SOL     OW26674   2.362   3.641   8.970 -0.4667 -0.4459  0.2931
 5072SOL    HW126675   2.405   3.649   9.055  1.5404  0.9936 -0.8440
 5072SOL    HW226676   2.278   3.605   8.999 -1.6145  0.9511 -1.2813
 5073SOL     OW26677   3.751   2.823   4.078  0.7652 -0.3143  0.5015
 5073SOL    HW126678   3.723   2.754   4.138  2.1814 -2.4054 -1.2395
 5073SOL    HW226679   3.816   2.771   4.031 -0.1464 -2.1729  1.2795
 5074SOL     OW26680   0.309   0.136   4.386 -0.4197  0.8488 -0.4684
 5074SOL    HW126681   0.280   0.109   4.299  0.3381  0.7638 -0.6932
 5074SOL    HW226682   0.360   0.216   4.375  1.6859 -0.2789  1.0945
 5075SOL     OW26683   3.277   2.246  10.051 -0.1212  0.3374 -0.5702
 5075SOL    HW126684   3.183   2.263  10.064  0.0705  0.3726  0.7417
 5075SOL    HW226685   3.295   2.235  10.144 -0.3371  1.1416 -0.4349
 5076SOL     OW26686   4.309   2.206   8.095  0.1576  0.0493  0.0132
 5076SOL    HW126687   4.236   2.197   8.156  0.9957 -1.1755  0.8272
 5076SOL    HW226688   4.362   2.136   8.133 -0.2488 -0.6971 -0.7920
 5077SOL     OW26689   3.189   1.937  16.256 -0.0583 -0.8035 -0.6650
 5077SOL    HW126690   3.277   1.944  16.294 -1.1169 -0.2470  1.6599
 5077SOL    HW226691   3.158   1.866  16.313 -2.1565 -1.8000 -3.0282
 5078SOL     OW26692   3.379   1.390   2.577 -0.4915  0.3904  0.0699
 5078SOL    HW126693   3.397   1.333   2.502  1.3061 -1.9590  2.3043
 5078SOL    HW226694   3.464   1.388   2.621  0.8833 -2.2991 -2.6838
 5079SOL     OW26695   0.761   0.833   9.963  0.2990 -0.0971 -0.1703
 5079SOL    HW126696   0.814   0.856  10.039  0.0614 -2.0556  0.5725
 5079SOL    HW226697   0.793   0.743   9.960 -1.1593 -0.6638  1.1851
 5080SOL     OW26698   3.619   0.228   1.117  0.0925 -0.5720  0.2662
 5080SOL    HW126699   3.545   0.285   1.100 -0.0362 -0.0409  2.6856
 5080SOL    HW226700   3.575   0.154   1.159  0.1913 -0.2189  0.9933
 5081SOL     OW26701   1.351   2.189   6.273 -0.1985  0.3477 -0.1881
 5081SOL    HW126702   1.428   2.153   6.317 -1.0610 -0.3921  0.7224
 5081SOL    HW226703   1.385   2.263   6.225  1.3718  0.1919  0.6945
 5082SOL     OW26704   3.645   2.236   7.503  0.1040  0.1865  0.3743
 5082SOL    HW126705   3.611   2.175   7.438  2.1210 -0.0420 -0.4503
 5082SOL    HW226706   3.720   2.269   7.453 -1.4532  0.1535 -1.9915
 5083SOL     OW26707   4.706   0.279  12.246 -0.2629 -0.3954  0.0407
 5083SOL    HW126708   4.647   0.306  12.316 -1.1695  0.8856 -1.2107
 5083SOL    HW226709   4.648   0.283  12.169  1.5780 -1.7552 -1.4050
 5084SOL     OW26710   4.312   0.146   3.050  0.7270 -0.1659 -0.1386
 5084SOL    HW126711   4.390   0.183   3.092 -0.3476  1.2082  0.6311
 5084SOL    HW226712   4.245   0.203   3.086 -0.1281 -0.4591 -1.2487
 5085SOL     OW26713   2.149   0.569   8.364  0.1727 -0.2614 -0.3301
 5085SOL    HW126714   2.175   0.615   8.444  2.7116 -1.2159 -0.5957
 5085SOL    HW226715   2.209   0.495   8.352  0.2834 -0.3259  0.6363
 5086SOL     OW26716   4.317   4.195   5.560  0.0945 -0.0630  0.3414
 5086SOL    HW126717   4.325   4.248   5.639  1.5406  0.6066 -0.2573
 5086SOL    HW226718   4.402   4.212   5.519 -1.0995  3.9473 -0.4287
 5087SOL     OW26719   3.078   1.682   7.168 -0.3570  0.5059  0.5433
 5087SOL    HW126720   3.070   1.614   7.102 -0.4172 -1.3833  2.4837
 5087SOL    HW226721   3.096   1.755   7.109  1.3736  0.3302  0.8477
 5088SOL     OW26722   3.468   3.956   1.525  0.2933  0.3340  0.3588
 5088SOL    HW126723   3.529   4.007   1.578 -0.2661 -0.2073  1.5430
 5088SOL    HW226724   3.508   3.869   1.523 -1.1307 -0.2878 -1.1803
 5089SOL     OW26725   2.782   0.509   3.235 -0.4901 -0.6413 -0.3304
 5089SOL    HW126726   2.818   0.460   3.309  1.2646 -1.6468 -1.8351
 5089SOL    HW226727   2.763   0.435   3.177 -1.1223 -0.4997 -0.3094
 5090SOL     OW26728   1.948   2.927   9.982  0.9701  0.1185 -0.5261
 5090SOL    HW126729   1.857   2.934   9.951  0.8647 -3.0555 -0.9342
 5090SOL    HW226730   1.939   2.975  10.064 -0.3709  0.9961 -1.1817
 5091SOL     OW26731   0.964   0.351   4.165 -0.0695  0.2966 -0.0949
 5091SOL    HW126732   1.025   0.413   4.205 -0.3842  2.0281 -2.3066
 5091SOL    HW226733   0.918   0.323   4.244  0.2331  0.6765  0.2180
 5092SOL     OW26734   1.797   3.200   9.252 -0.3749 -0.3667 -0.0410
 5092SOL    HW126735   1.766   3.261   9.318 -0.9980  0.6668 -1.2858
 5092SOL    HW226736   1.716   3.153   9.232 -1.7153  1.2126  1.7001
 5093SOL     OW26737   1.838   1.072   8.773  0.2163  0.8465 -0.0335
 5093SOL    HW126738   1.765   1.096   8.717 -0.7772  1.7970  1.6961
 5093SOL    HW226739   1.794   1.023   8.842 -1.4853  0.6034 -1.2851
 5094SOL     OW26740   3.876   2.721   2.755  0.1351 -0.6162  0.2882
 5094SOL    HW126741   3.868   2.769   2.673 -0.1461 -0.9293  0.1298
 5094SOL    HW226742   3.881   2.630   2.724  1.8845 -0.6256  0.6026
 5095SOL     OW26743   2.147   0.688   4.309 -0.2626 -0.4441  0.1374
 5095SOL    HW126744   2.085   0.758   4.325  1.9553  1.8069 -1.0719
 5095SOL    HW226745   2.135   0.674   4.215  0.7632 -0.6004  0.0196
 5096SOL     OW26746   0.295   4.668   6.658  0.5523  1.0093  0.6392
 5096SOL    HW126747   0.300   4.706   6.570 -2.0778  2.1398  0.9827
 5096SOL    HW226748   0.331   4.581   6.640 -1.0752  0.2111  1.2417
 5097SOL     OW26749   1.254   4.615   8.409 -0.4253 -0.1570 -0.2768
 5097SOL    HW126750   1.273   4.628   8.501 -1.0752 -0.7786 -0.0538
 5097SOL    HW226751   1.207   4.532   8.420 -1.5809  0.6972  1.2096
 5098SOL     OW26752   3.872   3.381   3.306  0.1119  0.1656  0.3484
 5098SOL    HW126753   3.914   3.398   3.391  0.9841 -0.8360  0.1222
 5098SOL    HW226754   3.933   3.407   3.237 -0.7481  0.4664 -0.2864
 5099SOL     OW26755   3.639   1.015   9.177  0.3338 -0.5156 -0.4416
 5099SOL    HW126756   3.663   1.106   9.193 -1.0309  0.0160 -1.4051
 5099SOL    HW226757   3.721   0.969   9.194  0.4869  0.6155  1.9188
 5100SOL     OW26758   4.709   1.441  15.931 -0.5544 -0.2887  0.2519
 5100SOL    HW126759   0.056   1.444  15.864 -1.3016  0.8475 -0.4733
 5100SOL    HW226760   4.708   1.349  15.956 -0.3739 -0.0860  1.0054
 5101SOL     OW26761   0.706   2.882   8.285  0.0789 -0.3032  0.4669
 5101SOL    HW126762   0.630   2.829   8.311 -2.0592  2.2914 -0.5454
 5101SOL    HW226763   0.713   2.853   8.194  2.0766  1.7511 -0.0106
 5102SOL     OW26764   0.557   4.114   5.663  0.5268 -0.3402  0.0907
 5102SOL    HW126765   0.497   4.050   5.702  1.3859 -0.6943  0.8555
 5102SOL    HW226766   0.629   4.095   5.724  0.5137  1.5423  0.6896
 5103SOL     OW26767   4.470   3.242   6.792  0.0734 -0.4383  0.2463
 5103SOL    HW126768   4.535   3.189   6.746 -0.0658 -0.7980  0.4550
 5103SOL    HW226769   4.395   3.200   6.750 -0.0270  1.3035 -1.2749
 5104SOL     OW26770   1.583   0.925  13.810 -0.1085  0.2369  0.4952
 5104SOL    HW126771   1.544   1.012  13.819  1.6609  1.0806 -0.1069
 5104SOL    HW226772   1.509   0.865  13.826  0.5904 -0.1873  2.1018
 5105SOL     OW26773   3.277   1.104   5.046  0.4275 -0.3451  0.1722
 5105SOL    HW126774   3.349   1.041   5.038  1.1142  0.1945  2.3423
 5105SOL    HW226775   3.297   1.152   4.965  4.0287 -3.3717 -0.7881
 5106SOL     OW26776   2.584   2.460   3.453 -0.3171  0.4841 -0.5342
 5106SOL    HW126777   2.579   2.533   3.392 -0.4530  0.9237 -0.0003
 5106SOL    HW226778   2.632   2.498   3.527 -1.1145  1.2891 -0.4270
 5107SOL     OW26779   3.644   3.960   2.836  0.6555 -0.2280  0.4319
 5107SOL    HW126780   3.614   4.037   2.788  1.6532 -0.0302  0.1164
 5107SOL    HW226781   3.735   3.991   2.833 -0.2246  2.2832 -0.9784
 5108SOL     OW26782   1.428   3.030   2.457  0.6645 -0.1734 -0.2550
 5108SOL    HW126783   1.464   3.002   2.373 -0.4277  1.6891 -1.3310
 5108SOL    HW226784   1.360   2.964   2.464 -1.1722  1.9311  1.5486
 5109SOL     OW26785   0.001   2.891   4.933 -0.2924 -0.2953  0.1213
 5109SOL    HW126786   4.681   2.967   4.894 -0.8159 -0.3502  0.5792
 5109SOL    HW226787   0.009   2.931   5.020 -1.2910 -0.2357  0.1770
 5110SOL     OW26788   3.676   0.029   9.789 -0.2838 -0.0800 -0.1905
 5110SOL    HW126789   3.650   0.050   9.878  1.0006 -0.5760  0.3092
 5110SOL    HW226790   3.593   0.018   9.743 -0.8501 -2.0694  1.3422
 5111SOL     OW26791   1.509   2.610   9.362  0.1469  0.3525  0.1974
 5111SOL    HW126792   1.455   2.564   9.299 -1.0628  0.7785  0.9166
 5111SOL    HW226793   1.548   2.542   9.418 -0.0943 -0.0568 -0.1342
 5112SOL     OW26794   2.093   2.436   6.817 -0.1934  0.8119 -0.1193
 5112SOL    HW126795   2.054   2.376   6.881 -0.9998  1.8815  0.3942
 5112SOL    HW226796   2.091   2.520   6.863  3.1151  1.1457 -0.5730
 5113SOL     OW26797   3.943   0.751   4.294  0.0179 -0.2664  0.2256
 5113SOL    HW126798   4.008   0.814   4.264 -2.2541  2.4930  1.0031
 5113SOL    HW226799   3.884   0.751   4.219  0.2557  1.9491  0.0392
 5114SOL     OW26800   0.128   2.128   0.215 -0.3223  0.0589  0.5268
 5114SOL    HW126801   0.093   2.073   0.285 -1.7977 -1.0186 -1.0731
 5114SOL    HW226802   0.163   2.062   0.155 -0.1921  0.0355  0.6295
 5115SOL     OW26803   0.830   0.302  17.556 -0.8031  0.1709  0.8825
 5115SOL    HW126804   0.852   0.264  17.641  1.7591 -0.1208  0.0961
 5115SOL    HW226805   0.910   0.285  17.505 -2.3963 -1.3520 -1.0964
 5116SOL     OW26806   1.766   0.357   8.474  0.3944 -0.5637 -0.0294
 5116SOL    HW126807   1.748   0.429   8.534  2.8531 -0.2044  0.2717
 5116SOL    HW226808   1.798   0.412   8.403  0.7687  0.4687  0.9402
 5117SOL     OW26809   0.874   2.757  14.708 -0.0355 -0.4826 -0.0838
 5117SOL    HW126810   0.803   2.803  14.753  1.2028  1.3411  0.0216
 5117SOL    HW226811   0.944   2.822  14.717  0.7408 -1.3921  0.3923
 5118SOL     OW26812   0.519   2.307   5.551 -0.7361  0.0525  0.6297
 5118SOL    HW126813   0.536   2.400   5.538  0.0844 -0.3608 -1.3176
 5118SOL    HW226814   0.604   2.279   5.517 -0.1264  3.5495 -0.6764
 5119SOL     OW26815   3.554   1.933  17.053 -0.6225 -0.0911  0.0392
 5119SOL    HW126816   3.461   1.910  17.046 -0.4473 -0.9676  0.5711
 5119SOL    HW226817   3.587   1.879  17.125  1.4077 -0.9338 -1.5442
 5120SOL     OW26818   2.562   0.038   7.088 -0.0245 -0.4033  0.5473
 5120SOL    HW126819   2.631   0.101   7.107  0.7847 -1.3481  0.7741
 5120SOL    HW226820   2.529   0.076   7.006  1.7006 -1.7783 -0.7946
 5121SOL     OW26821   1.132   3.478   6.505 -0.4699 -0.1206  0.6643
 5121SOL    HW126822   1.072   3.430   6.448 -0.6056 -1.5376  2.0202
 5121SOL    HW226823   1.216   3.440   6.482 -1.1252 -0.3864 -1.2825
 5122SOL     OW26824   0.455   3.564   2.341  0.7743  0.1724  0.2109
 5122SOL    HW126825   0.368   3.583   2.306  1.3179  1.9140 -0.1996
 5122SOL    HW226826   0.463   3.656   2.367 -1.9871 -0.0122  1.7454
 5123SOL     OW26827   3.108   4.054   4.886  0.0905 -0.2393  0.0574
 5123SOL    HW126828   3.103   4.065   4.981 -1.0095  1.2669 -0.1782
 5123SOL    HW226829   3.041   4.118   4.864 -1.0193 -1.3669  0.2136
 5124SOL     OW26830   0.816   2.025   5.083 -0.0101  0.0906 -0.5146
 5124SOL    HW126831   0.778   2.106   5.114  0.6743  0.4312 -0.5649
 5124SOL    HW226832   0.907   2.036   5.111 -0.9263  0.0931  2.3755
 5125SOL     OW26833   2.952   4.051   0.832 -0.4075 -0.2561 -0.6167
 5125SOL    HW126834   2.952   4.013   0.920  0.9606  2.6010  0.6307
 5125SOL    HW226835   2.858   4.059   0.816 -0.7781  0.0685  1.7779
 5126SOL     OW26836   2.331   2.501   5.832 -0.0827  0.0006 -0.3110
 5126SOL    HW126837   2.417   2.540   5.813 -0.6677  1.1175 -0.6209
 5126SOL    HW226838   2.314   2.544   5.916  1.9641  2.8643 -1.3568
 5127SOL     OW26839   3.454   4.518   8.876 -0.3142  0.2366 -0.1844
 5127SOL    HW126840   3.378   4.554   8.828 -0.3000 -1.6115 -1.5737
 5127SOL    HW226841   3.485   4.458   8.809 -0.9205 -0.3442  0.0559
 5128SOL     OW26842   3.283   4.468   5.485  0.1117  0.0019  0.2184
 5128SOL    HW126843   3.253   4.470   5.576  0.2603  1.7728  0.2225
 5128SOL    HW226844   3.195   4.457   5.449 -0.4429 -0.6368  1.7880
 5129SOL     OW26845   0.595   2.938   9.837 -0.1846  0.1397 -0.2335
 5129SOL    HW126846   0.603   2.998   9.911  1.6115 -0.7112  0.2767
 5129SOL    HW226847   0.684   2.901   9.840 -0.1398  0.3538  1.4655
 5130SOL     OW26848   4.474   3.903   6.936 -0.2895  0.1496  0.3152
 5130SOL    HW126849   4.555   3.894   6.886 -1.0129 -2.2933 -0.4152
 5130SOL    HW226850   4.462   3.808   6.932 -1.7535  0.2389  2.3273
 5131SOL     OW26851   0.354   4.108  15.089 -0.0532  0.1223  0.2600
 5131SOL    HW126852   0.412   4.064  15.150  0.4801  1.8592  1.0088
 5131SOL    HW226853   0.281   4.144  15.140 -0.8740 -3.0022  1.2441
 5132SOL     OW26854   1.842   2.473   4.904 -0.1504  0.2759  0.3501
 5132SOL    HW126855   1.819   2.431   4.821  1.4465  0.1764 -0.0345
 5132SOL    HW226856   1.891   2.405   4.950 -1.5365 -0.3254  0.9474
 5133SOL     OW26857   3.910   4.596   8.753  0.2752  0.0725 -0.2334
 5133SOL    HW126858   3.877   4.548   8.828  2.0908 -0.2132  0.3987
 5133SOL    HW226859   3.837   4.656   8.741 -0.7268 -0.5865  2.7529
 5134SOL     OW26860   1.856   3.631   8.599  0.6051 -0.2685 -0.0769
 5134SOL    HW126861   1.795   3.696   8.565 -0.1459  0.0861  1.9063
 5134SOL    HW226862   1.802   3.552   8.606 -1.2883  0.8716 -1.9392
 5135SOL     OW26863   3.439   0.748  13.383  0.6233 -0.8848 -0.8897
 5135SOL    HW126864   3.404   0.670  13.341  0.9009 -3.0921  3.0161
 5135SOL    HW226865   3.441   0.720  13.474  1.0228  0.3250 -0.5218
 5136SOL     OW26866   4.242   1.767  15.044 -0.0059  0.2568  0.6293
 5136SOL    HW126867   4.220   1.813  14.963  0.1349  1.3059  1.1721
 5136SOL    HW226868   4.164   1.714  15.062  0.4608 -0.0626  1.7252
 5137SOL     OW26869   1.646   2.131   7.070 -0.8654 -0.3537  0.0490
 5137SOL    HW126870   1.625   2.172   6.986 -0.7376  2.1872  1.2756
 5137SOL    HW226871   1.718   2.183   7.106 -0.7144  0.1067 -0.9182
 5138SOL     OW26872   2.603   0.353   5.569 -0.7066 -0.3894 -0.2185
 5138SOL    HW126873   2.558   0.336   5.487 -0.0242 -1.1827 -0.4320
 5138SOL    HW226874   2.562   0.433   5.601  1.6134 -0.0370  1.8754
 5139SOL     OW26875   1.778   2.995   6.914 -0.4523 -0.2879 -0.7072
 5139SOL    HW126876   1.746   2.905   6.917 -0.2228 -0.3644 -0.5745
 5139SOL    HW226877   1.869   2.983   6.886  0.1300 -0.2843  1.2414
 5140SOL     OW26878   0.467   4.660  15.795  0.0502 -0.4548  0.0296
 5140SOL    HW126879   0.424   4.661  15.881  1.4992 -0.2054  0.7629
 5140SOL    HW226880   0.548   4.706  15.815 -1.7240  1.9474  1.7182
 5141SOL     OW26881   1.992   0.733   2.110 -0.3364  0.1445  0.6996
 5141SOL    HW126882   2.060   0.666   2.115 -2.0938 -1.6468  0.0620
 5141SOL    HW226883   1.991   0.748   2.016 -1.2865 -1.2749  0.4918
 5142SOL     OW26884   1.669   2.603   1.205 -0.4466 -0.6674 -0.4923
 5142SOL    HW126885   1.682   2.559   1.289  0.8403  0.1313 -0.2699
 5142SOL    HW226886   1.623   2.681   1.236  1.3662 -0.7847  2.4403
 5143SOL     OW26887   0.967   3.524   0.452 -0.3749 -0.1205  0.4531
 5143SOL    HW126888   0.992   3.576   0.375 -1.1505 -0.5965 -0.1227
 5143SOL    HW226889   0.941   3.597   0.507 -2.9336 -0.5920 -0.1352
 5144SOL     OW26890   2.505   3.022   7.159  0.1496  0.3625 -0.0878
 5144SOL    HW126891   2.477   3.089   7.221 -0.5462  0.3404 -0.3838
 5144SOL    HW226892   2.597   3.047   7.148  0.1268  0.1929 -0.6910
 5145SOL     OW26893   3.376   1.541   4.089 -0.6494  0.1688 -0.3324
 5145SOL    HW126894   3.410   1.512   4.004  1.2212 -0.3875  0.5854
 5145SOL    HW226895   3.452   1.591   4.119 -0.6329  0.2695 -0.5414
 5146SOL     OW26896   3.874   0.252   6.657 -0.0869 -0.1784  0.0399
 5146SOL    HW126897   3.947   0.214   6.707  0.5999  0.8463 -0.1759
 5146SOL    HW226898   3.802   0.278   6.715 -0.4522 -2.3844  0.5821
 5147SOL     OW26899   1.695   1.108   2.459 -0.6446  0.4133 -0.3502
 5147SOL    HW126900   1.602   1.089   2.449 -0.9599  0.8365  1.6650
 5147SOL    HW226901   1.691   1.192   2.504 -1.4130 -0.7100  1.6762
 5148SOL     OW26902   1.566   1.156   3.785 -0.0620 -0.0961 -0.4116
 5148SOL    HW126903   1.495   1.195   3.733 -1.8492  0.4300  2.3700
 5148SOL    HW226904   1.528   1.068   3.794 -0.3772  0.0857  0.0473
 5149SOL     OW26905   1.018   0.685   7.684  0.6474  1.2129 -0.6355
 5149SOL    HW126906   1.011   0.739   7.762 -0.9735 -0.9890  0.7382
 5149SOL    HW226907   0.927   0.689   7.657  0.3875  4.0260  0.7066
 5150SOL     OW26908   4.184   0.417  12.198  0.2052  0.4165  0.4681
 5150SOL    HW126909   4.160   0.324  12.206 -0.9345  0.6426 -0.3728
 5150SOL    HW226910   4.147   0.437  12.112  2.0693 -0.3623 -0.5126
 5151SOL     OW26911   0.986   0.647   1.584  0.2673  0.2927  0.4439
 5151SOL    HW126912   1.062   0.633   1.641 -0.7233  1.9507  2.1551
 5151SOL    HW226913   1.036   0.682   1.511 -0.5893 -0.6627 -0.5932
 5152SOL     OW26914   4.077   0.679  13.748 -0.2608  0.5002 -0.1231
 5152SOL    HW126915   4.160   0.656  13.706 -0.8967  0.4261 -1.3375
 5152SOL    HW226916   4.039   0.594  13.772  1.6007  0.3155  2.1845
 5153SOL     OW26917   2.117   3.630   3.611  0.3815 -0.1648  0.1204
 5153SOL    HW126918   2.120   3.692   3.684 -2.3065  0.0309  0.0669
 5153SOL    HW226919   2.041   3.664   3.564 -1.8378 -2.3108  2.1489
 5154SOL     OW26920   3.034   2.235   7.435  0.2312  0.2553 -0.1809
 5154SOL    HW126921   2.982   2.195   7.505  2.0393  1.7916  2.0179
 5154SOL    HW226922   3.033   2.164   7.371  1.7484  0.1767 -0.1107
 5155SOL     OW26923   3.266   2.845  15.546 -0.2252  0.1495  0.2888
 5155SOL    HW126924   3.318   2.788  15.490 -1.1448 -0.5942  0.1902
 5155SOL    HW226925   3.321   2.858  15.623  1.3651 -1.3483 -0.5737
 5156SOL     OW26926   0.611   1.184   0.811 -0.6398  0.4214  0.0743
 5156SOL    HW126927   0.535   1.144   0.769 -1.1348  0.0371  1.3659
 5156SOL    HW226928   0.596   1.170   0.904 -0.0013 -1.3390 -0.0899
 5157SOL     OW26929   3.546   1.383  10.706 -0.1396  0.1052  0.3775
 5157SOL    HW126930   3.502   1.311  10.660 -0.2899  2.1416 -2.6628
 5157SOL    HW226931   3.556   1.454  10.642 -0.9207 -1.3015 -1.2991
 5158SOL     OW26932   2.033   2.014   9.471  0.3853  0.0030  0.0868
 5158SOL    HW126933   2.083   1.967   9.405 -0.6223  1.0158 -1.3815
 5158SOL    HW226934   2.048   1.958   9.547 -0.3614  0.8496  0.8637
 5159SOL     OW26935   3.387   0.952   6.055  0.0745 -0.0971 -0.0198
 5159SOL    HW126936   3.305   0.925   6.012  0.0772  0.2950 -0.2707
 5159SOL    HW226937   3.422   0.991   5.975  0.0575 -0.0444 -0.0016
 5160SOL     OW26938   3.617   1.304   2.194 -0.6672 -0.4951  0.1309
 5160SOL    HW126939   3.695   1.248   2.186 -0.2234  0.0147  0.8633
 5160SOL    HW226940   3.653   1.392   2.207 -1.1616 -0.1828 -0.6549
 5161SOL     OW26941   0.251   0.524   2.468  0.3851  0.1725  0.0375
 5161SOL    HW126942   0.321   0.587   2.482  2.4804 -2.0963 -0.1820
 5161SOL    HW226943   0.249   0.524   2.372 -1.3320  1.7164  0.0775
 5162SOL     OW26944   0.693   3.517   4.171  0.6497  0.1878 -0.2354
 5162SOL    HW126945   0.785   3.493   4.182  0.9661  0.9374 -1.3497
 5162SOL    HW226946   0.661   3.505   4.261 -1.4047  1.1934 -0.8364
 5163SOL     OW26947   0.503   3.774   4.679 -0.9130  0.3968  0.0996
 5163SOL    HW126948   0.433   3.825   4.721 -0.8529 -1.7799  2.9033
 5163SOL    HW226949   0.449   3.749   4.604  0.5066  0.8360 -1.0543
 5164SOL     OW26950   3.496   3.922   9.048  0.6095 -0.0221  0.0220
 5164SOL    HW126951   3.558   3.893   9.115 -0.3374 -3.6824 -0.6961
 5164SOL    HW226952   3.419   3.943   9.101  1.0095 -1.5329  1.1683
 5165SOL     OW26953   3.273   4.247   2.904 -0.4047  0.4750  0.1746
 5165SOL    HW126954   3.190   4.286   2.877  0.1098  1.4151 -0.0718
 5165SOL    HW226955   3.323   4.327   2.920 -0.1966  0.1507  1.1137
 5166SOL     OW26956   3.978   0.055  17.681 -0.0510  0.1092  0.3490
 5166SOL    HW126957   3.903   0.084   0.047  0.2656  0.7177  0.4731
 5166SOL    HW226958   3.944   4.689  17.664  0.2188  0.4406 -1.9515
 5167SOL     OW26959   4.661   1.615   6.916 -0.2571  0.1512  0.4207
 5167SOL    HW126960   4.570   1.614   6.943 -0.3116  1.9784  0.3110
 5167SOL    HW226961   4.657   1.640   6.823  2.0968  1.8047  0.7559
 5168SOL     OW26962   3.704   2.586  15.085 -0.0888  0.1340  0.0686
 5168SOL    HW126963   3.703   2.669  15.134 -1.9638  1.2473 -1.8871
 5168SOL    HW226964   3.612   2.583  15.060  0.3535 -2.0439 -1.2161
 5169SOL     OW26965   2.689   2.351   8.921 -0.2174  0.5037  0.1071
 5169SOL    HW126966   2.751   2.398   8.976 -1.2011  0.0648  1.5868
 5169SOL    HW226967   2.693   2.402   8.839 -0.8274  0.7703  0.2435
 5170SOL     OW26968   2.333   1.105   4.744 -1.0466 -0.1023  0.1342
 5170SOL    HW126969   2.398   1.099   4.674  0.5070  1.8694  1.4030
 5170SOL    HW226970   2.260   1.117   4.684 -0.2437  2.2367 -0.3909
 5171SOL     OW26971   4.471   1.644   2.880 -0.6272  0.3759 -0.0291
 5171SOL    HW126972   4.460   1.701   2.804  0.8864 -1.5904 -1.7132
 5171SOL    HW226973   4.435   1.562   2.845  0.2773 -0.0806  0.1141
 5172SOL     OW26974   3.913   2.965   6.605 -0.2314  0.0843  0.0628
 5172SOL    HW126975   3.849   3.001   6.543 -0.6621  1.2496  1.1692
 5172SOL    HW226976   3.897   2.873   6.585 -0.6708  0.1403  0.1473
 5173SOL     OW26977   4.142   3.572   4.309 -0.3114  0.2906 -0.6123
 5173SOL    HW126978   4.097   3.647   4.347  0.2172  0.5360 -0.4675
 5173SOL    HW226979   4.109   3.498   4.361  3.3385 -0.4324  0.6963
 5174SOL     OW26980   2.772   1.164   4.024 -0.0169  0.0009  0.2629
 5174SOL    HW126981   2.680   1.164   4.049 -0.0532  0.3004  0.1271
 5174SOL    HW226982   2.817   1.220   4.087  0.6414 -0.8908  0.5832
 5175SOL     OW26983   2.715   4.514  11.687 -0.1702 -0.6748  0.9344
 5175SOL    HW126984   2.760   4.431  11.702 -0.0996 -0.6845  0.6611
 5175SOL    HW226985   2.706   4.523  11.592  1.4373  0.6828  0.9011
 5176SOL     OW26986   2.573   4.119   8.127 -0.2003  0.0635 -0.4754
 5176SOL    HW126987   2.555   4.058   8.198  1.8317 -2.0582 -1.7431
 5176SOL    HW226988   2.649   4.163   8.165 -1.8255  1.0132  1.6705
 5177SOL     OW26989   1.491   3.264  14.059 -0.7297  0.0948  0.1574
 5177SOL    HW126990   1.451   3.199  14.001 -0.5512 -1.4548  1.7332
 5177SOL    HW226991   1.414   3.292  14.109  0.3176 -0.3432  2.0379
 5178SOL     OW26992   3.327   0.599   6.517  0.1914 -0.1253 -0.6235
 5178SOL    HW126993   3.292   0.525   6.568 -1.1065  0.5122 -0.5815
 5178SOL    HW226994   3.419   0.572   6.520 -0.3247 -1.9400 -1.0760
 5179SOL     OW26995   0.174   1.215   2.791  0.0315 -0.3917  0.1561
 5179SOL    HW126996   0.247   1.249   2.842  1.5601 -1.4645 -1.2724
 5179SOL    HW226997   0.144   1.292   2.742  0.1713  0.3948  1.3282
 5180SOL     OW26998   3.699   1.700   6.220  0.1673  0.1927  0.3427
 5180SOL    HW126999   3.705   1.795   6.217  0.8830  0.2239  3.0731
 5180SOL    HW227000   3.690   1.685   6.314 -2.0799 -1.3892 -0.1168
 5181SOL     OW27001   0.526   3.578   2.734  0.6780 -0.1173  0.5195
 5181SOL    HW127002   0.458   3.645   2.725  2.0393  1.3083  0.9574
 5181SOL    HW227003   0.489   3.506   2.683 -0.9304 -1.2386  3.2869
 5182SOL     OW27004   0.344   2.081   4.461 -0.3975 -0.4587  0.7558
 5182SOL    HW127005   0.438   2.077   4.477  0.1127  1.0057 -1.7823
 5182SOL    HW227006   0.330   2.167   4.420  0.7870 -1.3160 -1.4253
 5183SOL     OW27007   3.118   3.007   6.046 -0.6071 -0.1772 -1.4006
 5183SOL    HW127008   3.031   3.044   6.066  0.6440  2.7658 -1.3242
 5183SOL    HW227009   3.101   2.923   6.003  0.2307 -0.7863 -0.5342
 5184SOL     OW27010   1.999   2.911   5.448  0.1138  0.3722  0.4364
 5184SOL    HW127011   2.011   2.832   5.501 -0.4156 -0.6127 -0.9154
 5184SOL    HW227012   2.058   2.974   5.490 -1.6283  2.6185 -0.4736
 5185SOL     OW27013   4.157   0.965   8.472 -0.4379  0.8870  0.3134
 5185SOL    HW127014   4.234   0.977   8.528 -0.0228 -2.1086  0.4070
 5185SOL    HW227015   4.085   0.993   8.528  0.3333  2.3344  0.5651
 5186SOL     OW27016   4.626   1.796  10.799 -0.2140  0.2059 -0.0503
 5186SOL    HW127017   4.555   1.779  10.736 -0.9012 -2.0355  1.2990
 5186SOL    HW227018   4.674   1.868  10.759  0.9604 -0.1986  0.6482
 5187SOL     OW27019   2.271   0.916   5.601 -0.1803 -0.2777  0.1896
 5187SOL    HW127020   2.251   0.912   5.694 -1.7455 -0.5238 -0.1419
 5187SOL    HW227021   2.240   1.004   5.578 -0.0170 -1.1746 -3.5433
 5188SOL     OW27022   3.671   2.550   8.305 -0.0015 -0.1463 -0.1564
 5188SOL    HW127023   3.606   2.570   8.372 -0.3850  0.2080 -0.6375
 5188SOL    HW227024   3.639   2.473   8.258 -0.1541 -1.0687  1.4385
 5189SOL     OW27025   3.270   4.177   2.263 -0.1732 -0.6570  0.4920
 5189SOL    HW127026   3.196   4.227   2.297 -3.4309 -3.6954 -2.0282
 5189SOL    HW227027   3.223   4.146   2.185 -0.5383  0.4885  0.2523
 5190SOL     OW27028   3.120   2.166  14.129  0.2371 -0.3010  0.1185
 5190SOL    HW127029   3.061   2.095  14.153  0.3139 -0.1358  0.7859
 5190SOL    HW227030   3.159   2.130  14.049  2.6301  1.3286  0.5554
 5191SOL     OW27031   2.622   4.705   8.750 -0.3050  0.5833 -0.3525
 5191SOL    HW127032   2.548   4.703   8.690 -1.0488  0.4639  0.5838
 5191SOL    HW227033   2.577   4.688   8.832 -0.9952  0.7713 -0.6957
 5192SOL     OW27034   0.051   1.648   2.722  0.1178  0.0849  0.2041
 5192SOL    HW127035   0.073   1.741   2.722 -1.0624  0.3652  0.0240
 5192SOL    HW227036   0.014   1.634   2.809 -3.0052 -0.6383 -1.2356
 5193SOL     OW27037   2.221   2.058  16.232 -0.0389  0.5856 -0.3333
 5193SOL    HW127038   2.309   2.021  16.242 -0.2754  0.0515 -0.2269
 5193SOL    HW227039   2.209   2.015  16.147  3.0668  0.8892 -0.9264
 5194SOL     OW27040   2.470   1.095   6.948 -0.0969 -0.3138 -0.2967
 5194SOL    HW127041   2.522   1.174   6.962  0.0651 -0.9325  2.4509
 5194SOL    HW227042   2.494   1.036   7.019  1.3419  0.1182 -0.4348
 5195SOL     OW27043   2.436   4.430   0.423 -0.2592 -0.1662  0.6863
 5195SOL    HW127044   2.422   4.370   0.496 -3.9766 -0.5921 -0.3608
 5195SOL    HW227045   2.522   4.392   0.404  0.3174  1.7573 -0.5863
 5196SOL     OW27046   3.890   2.782   9.447  0.9862  0.2191  0.0097
 5196SOL    HW127047   3.838   2.721   9.499 -0.4867  1.4832  0.0294
 5196SOL    HW227048   3.877   2.744   9.360  0.1298  4.2224 -1.6121
 5197SOL     OW27049   0.540   2.683   4.012 -0.2199 -0.4471 -0.4047
 5197SOL    HW127050   0.450   2.673   4.043 -0.1441 -1.7386 -0.6299
 5197SOL    HW227051   0.585   2.601   4.030  2.2313  0.8844 -0.5715
 5198SOL     OW27052   1.629   1.304   0.319  0.8771 -0.0945  0.9269
 5198SOL    HW127053   1.556   1.323   0.261  0.9743 -0.9313  0.5367
 5198SOL    HW227054   1.602   1.355   0.395  0.8486 -1.7112  2.0041
 5199SOL     OW27055   2.147   2.481  11.210 -0.1375  0.3071  0.4100
 5199SOL    HW127056   2.143   2.451  11.301 -0.0563  0.2413  0.3924
 5199SOL    HW227057   2.216   2.423  11.179 -0.2531 -0.3260  1.3238
 5200SOL     OW27058   3.729   0.271   7.482 -0.1951 -0.7121 -0.6991
 5200SOL    HW127059   3.677   0.329   7.536  0.8761 -0.6094  0.2108
 5200SOL    HW227060   3.670   0.257   7.407  2.3270 -0.6486 -2.6954
 5201SOL     OW27061   0.721   3.137   5.663 -0.7427 -0.1314 -0.1458
 5201SOL    HW127062   0.684   3.063   5.711  1.4782 -0.7510  0.6069
 5201SOL    HW227063   0.770   3.105   5.587  1.5314  0.4991  1.0833
 5202SOL     OW27064   0.449   2.195   9.586  0.0594  0.3541 -0.2186
 5202SOL    HW127065   0.365   2.165   9.620  0.3636  0.1339  0.3522
 5202SOL    HW227066   0.422   2.214   9.497  0.8871 -3.0031 -1.1694
 5203SOL     OW27067   3.925   3.659   9.597 -0.1455  0.8851  0.2739
 5203SOL    HW127068   3.975   3.695   9.670  2.1667  0.5797 -1.1789
 5203SOL    HW227069   3.849   3.637   9.651 -0.5547  1.8894  0.1069
 5204SOL     OW27070   4.516   3.496  15.746  0.8543  0.6914  0.2687
 5204SOL    HW127071   4.520   3.581  15.789 -0.3912  0.2469  1.2537
 5204SOL    HW227072   4.422   3.477  15.744  1.0543 -0.1734 -1.6187
 5205SOL     OW27073   2.240   1.645  11.727  0.0172  0.1223 -0.4624
 5205SOL    HW127074   2.164   1.588  11.742 -0.5729  0.7575 -1.0823
 5205SOL    HW227075   2.310   1.586  11.756 -0.1183 -0.0328 -0.4484
 5206SOL     OW27076   2.818   2.683  12.369 -0.4018  1.0064 -0.6037
 5206SOL    HW127077   2.851   2.735  12.442  2.6802 -1.2754 -0.3599
 5206SOL    HW227078   2.774   2.614  12.419  1.5417 -1.3213 -2.0851
 5207SOL     OW27079   2.412   3.442  10.633  0.0110  0.0640 -0.6552
 5207SOL    HW127080   2.490   3.497  10.628  0.1836 -0.1513 -0.3545
 5207SOL    HW227081   2.346   3.500  10.595  1.0036  0.9043 -1.0970
 5208SOL     OW27082   1.128   2.557   2.357  0.0929  0.1424 -0.1538
 5208SOL    HW127083   1.110   2.545   2.450 -0.1598 -1.4933 -0.4085
 5208SOL    HW227084   1.086   2.483   2.313 -1.1353 -1.3054  3.4943
 5209SOL     OW27085   3.983   2.750  17.001  0.2424  0.6415 -0.2166
 5209SOL    HW127086   4.002   2.691  16.928 -0.9801 -1.9893  1.5944
 5209SOL    HW227087   4.056   2.811  16.994  1.2545 -0.4319  0.8254
 5210SOL     OW27088   3.756   3.530  14.062  0.4969 -0.2694  0.0932
 5210SOL    HW127089   3.697   3.595  14.101 -0.7389 -2.5498  2.0171
 5210SOL    HW227090   3.769   3.581  13.982 -2.0696 -0.7006 -0.6178
 5211SOL     OW27091   4.307   4.488   0.330  0.0348  0.0811  0.1357
 5211SOL    HW127092   4.394   4.528   0.332  0.4505 -0.8120  0.1049
 5211SOL    HW227093   4.298   4.481   0.425 -1.1005  1.2989  0.1167
 5212SOL     OW27094   0.556   1.596   3.970  0.3754  0.0740 -0.7457
 5212SOL    HW127095   0.556   1.514   4.018 -2.2798  0.3711 -0.2563
 5212SOL    HW227096   0.573   1.560   3.883  1.6120 -2.3117  0.4977
 5213SOL     OW27097   2.363   2.138   8.825  0.8134 -0.0939 -0.0240
 5213SOL    HW127098   2.363   2.134   8.729 -0.0842  1.5146 -0.0963
 5213SOL    HW227099   2.268   2.149   8.833  0.7832  0.0261 -0.5008
 5214SOL     OW27100   0.184   0.529   3.257 -0.0489  0.7900  0.3175
 5214SOL    HW127101   0.165   0.622   3.266 -1.1856  0.8067 -2.3145
 5214SOL    HW227102   0.187   0.510   3.163 -0.1090  1.3242  0.2100
 5215SOL     OW27103   4.326   2.062  16.636  0.3006 -0.0437 -0.1927
 5215SOL    HW127104   4.358   2.151  16.626  0.5470 -0.1684 -0.5321
 5215SOL    HW227105   4.294   2.031  16.551  0.2378 -1.0946  0.2054
 5216SOL     OW27106   1.601   1.368  13.380  0.3062 -0.1645 -0.0869
 5216SOL    HW127107   1.544   1.367  13.303  1.1768  0.1524 -0.7288
 5216SOL    HW227108   1.552   1.441  13.419  0.2730 -0.8899  1.2443
 5217SOL     OW27109   0.144   3.894   7.847 -0.4547 -0.0835  0.2527
 5217SOL    HW127110   0.110   3.883   7.758  1.5745  2.0239 -0.7555
 5217SOL    HW227111   0.188   3.979   7.847  1.4189 -1.0352 -0.3381
 5218SOL     OW27112   1.653   1.347  12.996  0.1782 -0.6504  0.6465
 5218SOL    HW127113   1.645   1.406  12.921 -1.2773 -0.0065  1.3038
 5218SOL    HW227114   1.741   1.311  12.985  1.4676  2.6509  0.2794
 5219SOL     OW27115   2.042   1.885   9.735  0.3799 -0.0464 -0.0179
 5219SOL    HW127116   2.069   1.835   9.812  0.4234 -0.9660 -0.6274
 5219SOL    HW227117   2.032   1.969   9.779 -0.0259 -0.2618  0.3004
 5220SOL     OW27118   4.063   0.662   6.485  0.1529  0.2063  0.3452
 5220SOL    HW127119   4.097   0.724   6.420 -0.4634 -0.5577 -0.7173
 5220SOL    HW227120   4.090   0.710   6.563 -1.4076  0.9666  0.4173
 5221SOL     OW27121   0.623   0.957   8.350  0.2119  0.6349 -0.0540
 5221SOL    HW127122   0.612   0.899   8.426  0.3092  1.5749  0.6844
 5221SOL    HW227123   0.536   0.995   8.336  0.7693  1.9298  0.0096
 5222SOL     OW27124   3.296   3.053  11.162 -0.3899  0.2905  0.1186
 5222SOL    HW127125   3.372   3.062  11.219 -0.2882 -0.1441  0.0540
 5222SOL    HW227126   3.309   3.117  11.092  0.1058  0.5447  0.4444
 5223SOL     OW27127   4.076   3.534   7.586 -0.0657 -0.1436 -0.5434
 5223SOL    HW127128   4.026   3.613   7.567  2.2550  1.3619 -0.3768
 5223SOL    HW227129   4.065   3.514   7.679 -2.5416 -1.1290 -1.0364
 5224SOL     OW27130   0.063   0.501   7.731  0.2682  0.0069  0.4094
 5224SOL    HW127131   0.139   0.559   7.722 -0.5926  0.7639 -2.1380
 5224SOL    HW227132   0.113   0.420   7.723  1.7135  0.9115  0.1438
 5225SOL     OW27133   2.217   4.476  12.578  0.1318  0.7529 -0.2162
 5225SOL    HW127134   2.202   4.433  12.662  3.1512  0.1776  0.0248
 5225SOL    HW227135   2.161   4.432  12.513 -2.0996  0.5960  1.8202
 5226SOL     OW27136   1.777   3.167   8.086 -0.0884  0.3026 -0.3713
 5226SOL    HW127137   1.706   3.216   8.127 -0.4541  1.1395 -2.0049
 5226SOL    HW227138   1.822   3.134   8.163  0.5369  2.4938  0.2052
 5227SOL     OW27139   1.664   3.332   7.670  0.4114 -0.0523 -0.0431
 5227SOL    HW127140   1.665   3.424   7.696 -1.1699  0.3053 -1.2692
 5227SOL    HW227141   1.644   3.345   7.577  0.9392  1.0790  0.0079
 5228SOL     OW27142   2.152   4.311   3.041 -0.4685 -0.0761 -0.2016
 5228SOL    HW127143   2.102   4.365   3.102 -0.3202  0.1944 -0.3186
 5228SOL    HW227144   2.192   4.248   3.102 -0.0531  3.1542  2.8783
 5229SOL     OW27145   3.504   3.265   0.054 -0.2888  0.1271  0.3383
 5229SOL    HW127146   3.577   3.249   0.113 -0.6271 -1.3033  0.3565
 5229SOL    HW227147   3.551   3.254  17.659 -0.5191  1.2717  0.0435
 5230SOL     OW27148   0.230   2.667  10.619  0.0172  0.0904 -0.1587
 5230SOL    HW127149   0.258   2.733  10.556 -1.3969  2.0858  1.2705
 5230SOL    HW227150   0.302   2.665  10.682 -0.3081  0.8949  0.2410
 5231SOL     OW27151   4.718   4.536  15.188 -0.1084  0.1504  0.1024
 5231SOL    HW127152   4.656   4.464  15.177 -0.4147  0.1518  1.8427
 5231SOL    HW227153   4.670   4.614  15.159 -0.6531 -0.0569  0.4388
 5232SOL     OW27154   3.361   0.487   3.942  0.1622 -0.4791  0.0694
 5232SOL    HW127155   3.268   0.495   3.963  0.2030 -2.7562  1.0917
 5232SOL    HW227156   3.363   0.496   3.847  0.9430  0.4905  0.1701
 5233SOL     OW27157   2.463   1.636   4.708 -0.3338 -0.0969  0.0388
 5233SOL    HW127158   2.537   1.696   4.722 -0.0974 -0.0913 -1.2995
 5233SOL    HW227159   2.431   1.659   4.621  0.6717  0.3278 -0.2190
 5234SOL     OW27160   2.962   2.431   5.089  0.1067  0.4186  0.3283
 5234SOL    HW127161   3.028   2.362   5.080 -0.4649  0.0833 -1.2295
 5234SOL    HW227162   2.976   2.492   5.017  1.1993 -1.1586 -0.7924
 5235SOL     OW27163   3.032   0.890   4.109  0.2886  0.4199 -0.5187
 5235SOL    HW127164   2.995   0.914   4.194 -0.6495  2.5736 -1.5342
 5235SOL    HW227165   3.106   0.950   4.098 -0.1309  0.6934 -1.8449
 5236SOL     OW27166   0.552   2.473  14.634  0.3375  0.3598 -0.4627
 5236SOL    HW127167   0.615   2.458  14.705 -2.2811 -0.0329  1.7783
 5236SOL    HW227168   0.569   2.403  14.571 -0.6955  0.5279 -0.9345
 5237SOL     OW27169   2.910   4.444  14.519  0.2656 -0.0130  0.7822
 5237SOL    HW127170   2.864   4.521  14.553 -0.6126  1.2172 -3.1228
 5237SOL    HW227171   2.864   4.378  14.571 -0.2212  0.3950  0.8762
 5238SOL     OW27172   0.444   1.651   1.417 -0.3658  0.0655  0.6076
 5238SOL    HW127173   0.480   1.738   1.430  2.7320 -0.9635 -1.1658
 5238SOL    HW227174   0.520   1.593   1.408  0.5675  1.1750  1.3701
 5239SOL     OW27175   2.498   4.177   7.169 -0.1805 -0.3693  0.5160
 5239SOL    HW127176   2.465   4.108   7.225  1.4897 -0.1857  1.7382
 5239SOL    HW227177   2.556   4.124   7.113  0.5032  0.1662  0.7136
 5240SOL     OW27178   4.426   3.939   1.991  0.1353 -0.5395  0.3593
 5240SOL    HW127179   4.489   3.970   2.057 -1.8063  1.4268  1.2991
 5240SOL    HW227180   4.345   3.971   2.030  1.7692 -0.3516  3.6284
 5241SOL     OW27181   1.938   0.182   4.463  0.4189 -0.5779 -0.1771
 5241SOL    HW127182   1.884   0.200   4.386  0.4511  1.1709  0.2040
 5241SOL    HW227183   2.026   0.190   4.425  0.2207  0.5399 -0.4286
 5242SOL     OW27184   3.467   2.367   8.859 -0.1349 -0.7135 -0.1185
 5242SOL    HW127185   3.449   2.289   8.911  0.4193  0.5130  1.9310
 5242SOL    HW227186   3.442   2.326   8.777 -0.3901  2.5231 -1.6380
 5243SOL     OW27187   3.625   2.113  17.342  0.4438 -0.0367 -0.3947
 5243SOL    HW127188   3.618   2.155  17.427 -2.8322 -0.5255 -0.4186
 5243SOL    HW227189   3.553   2.152  17.292 -0.0827  1.0157  1.2086
 5244SOL     OW27190   1.282   4.295  12.592 -0.4166  0.6529  0.0956
 5244SOL    HW127191   1.321   4.361  12.649  0.9997  1.6243 -1.9909
 5244SOL    HW227192   1.340   4.219  12.591  0.1155  1.0900 -2.4051
 5245SOL     OW27193   3.331   1.143  15.523  0.1932  0.4611  0.5968
 5245SOL    HW127194   3.298   1.082  15.457 -2.7943  2.7176  0.0156
 5245SOL    HW227195   3.415   1.097  15.529  0.5143  0.6042 -2.8701
 5246SOL     OW27196   1.385   1.770  13.951  1.3236  0.2019  0.6327
 5246SOL    HW127197   1.348   1.710  14.016 -1.3573  1.0930 -0.0567
 5246SOL    HW227198   1.477   1.748  13.939  1.5358  1.0844  0.6572
 5247SOL     OW27199   0.417   3.910   8.217  0.2006  0.4773  0.4615
 5247SOL    HW127200   0.420   3.975   8.147 -0.5334 -0.5190 -0.4965
 5247SOL    HW227201   0.352   3.845   8.189 -0.5278  0.8115  1.3765
 5248SOL     OW27202   3.762   1.446   6.901 -0.2968  0.2162  0.3177
 5248SOL    HW127203   3.807   1.364   6.880 -0.5054  0.2964 -0.4551
 5248SOL    HW227204   3.835   1.508   6.906 -0.6335  0.7227 -1.1184
 5249SOL     OW27205   3.611   3.956   7.283 -0.5433  0.3799  0.6040
 5249SOL    HW127206   3.518   3.971   7.264 -0.6085 -0.6987  0.0481
 5249SOL    HW227207   3.644   4.044   7.265  1.5678 -0.1443  1.9420
 5250SOL     OW27208   0.936   1.818   9.061 -0.1076 -0.3867  0.3727
 5250SOL    HW127209   0.886   1.789   8.985 -0.8054 -0.2997  0.7948
 5250SOL    HW227210   0.929   1.913   9.052  0.9923 -0.4274 -0.9292
 5251SOL     OW27211   4.501   1.859   3.254  0.1067  0.0791  0.5084
 5251SOL    HW127212   4.464   1.809   3.182 -0.8304  1.7310 -0.1502
 5251SOL    HW227213   4.457   1.943   3.244  2.3201  1.1388 -0.4037
 5252SOL     OW27214   1.749   2.988  10.857 -0.0433  0.2276 -0.6461
 5252SOL    HW127215   1.819   3.003  10.794 -1.6726  0.8356 -2.3280
 5252SOL    HW227216   1.769   3.064  10.912  0.6623 -0.8996  0.6648
 5253SOL     OW27217   4.268   0.262  13.762 -0.2842 -0.0632 -0.2088
 5253SOL    HW127218   4.338   0.280  13.699  1.5313  0.4467  1.9397
 5253SOL    HW227219   4.298   0.306  13.842  2.2077  1.0876 -1.7725
 5254SOL     OW27220   3.635   3.564   2.715  0.3216 -0.0717  0.3949
 5254SOL    HW127221   3.566   3.629   2.707 -1.2071 -1.5952  1.0609
 5254SOL    HW227222   3.611   3.517   2.635  1.5734  0.9698 -0.5870
 5255SOL     OW27223   4.717   2.330   3.705  0.0626  0.4231 -0.0157
 5255SOL    HW127224   0.059   2.278   3.755  0.1848  1.2756  0.7171
 5255SOL    HW227225   4.637   2.313   3.755  0.1470  0.4341  0.1236
 5256SOL     OW27226   1.741   1.757  13.300 -0.2517  0.6501  0.5092
 5256SOL    HW127227   1.817   1.778  13.246 -0.1830 -2.8786 -0.7944
 5256SOL    HW227228   1.686   1.835  13.292 -1.5200 -0.1697  1.1710
 5257SOL     OW27229   3.560   4.670   3.971  0.3005 -0.2166 -0.1227
 5257SOL    HW127230   3.477   4.717   3.969  1.4231  1.6957 -1.0621
 5257SOL    HW227231   3.521   4.613   4.037 -3.0246  3.1710  0.8408
 5258SOL     OW27232   2.067   3.351   3.651  0.0407  0.1274  0.1797
 5258SOL    HW127233   2.078   3.443   3.674  0.6002 -0.2589  1.5051
 5258SOL    HW227234   2.143   3.315   3.698  1.2280  0.5634 -1.4229
 5259SOL     OW27235   0.853   4.346   4.573 -0.1202  0.0631 -0.4340
 5259SOL    HW127236   0.761   4.322   4.564  0.0128 -0.3897 -0.5760
 5259SOL    HW227237   0.842   4.441   4.577 -2.3802 -0.1811 -0.9417
 5260SOL     OW27238   0.138   1.176   2.007  0.1181 -0.1136  0.1148
 5260SOL    HW127239   0.108   1.105   1.951  0.4205 -0.6322  0.6120
 5260SOL    HW227240   0.162   1.129   2.087 -0.3133 -1.3043 -0.4490
 5261SOL     OW27241   3.947   3.211   9.743  0.0471  0.4959  0.1362
 5261SOL    HW127242   3.890   3.264   9.687  1.4085 -0.3735 -2.0612
 5261SOL    HW227243   4.011   3.182   9.678 -0.7414 -0.9184 -0.0067
 5262SOL     OW27244   3.671   0.814   0.279  0.3214  0.2762 -0.1344
 5262SOL    HW127245   3.763   0.825   0.305 -0.0755  0.3558  1.2142
 5262SOL    HW227246   3.676   0.823   0.184  1.7510  0.7898 -0.0072
 5263SOL     OW27247   4.048   1.484  13.488  0.2778  0.3342  0.3707
 5263SOL    HW127248   4.071   1.550  13.553  3.0720  0.8266 -1.1399
 5263SOL    HW227249   3.952   1.479  13.496  0.1456  2.5085  0.2181
 5264SOL     OW27250   4.655   1.557   8.781 -0.3313 -0.1152  0.3076
 5264SOL    HW127251   4.674   1.650   8.783  0.7632 -0.3220 -1.3442
 5264SOL    HW227252   4.651   1.535   8.875 -2.8765  2.9129  0.9041
 5265SOL     OW27253   1.391   0.658   9.738 -0.4612  0.2048 -0.1164
 5265SOL    HW127254   1.416   0.570   9.709 -2.7923 -0.2485 -0.7374
 5265SOL    HW227255   1.428   0.662   9.826 -1.4599  0.0253  0.3143
 5266SOL     OW27256   2.319   0.823   6.101  0.6729  0.4424  0.1804
 5266SOL    HW127257   2.258   0.870   6.158  0.8945 -0.5751  1.2754
 5266SOL    HW227258   2.375   0.782   6.167  0.3445  0.2058  0.3150
 5267SOL     OW27259   0.353   0.019   3.339 -0.3354  0.0128  0.1564
 5267SOL    HW127260   0.336   0.086   3.273  1.2844  0.9521  0.7017
 5267SOL    HW227261   0.442   0.002   3.308 -0.6952 -0.5058 -0.5949
 5268SOL     OW27262   1.930   1.712  10.214 -0.3584 -0.2210 -0.1173
 5268SOL    HW127263   1.868   1.675  10.151  0.7350 -2.4368  0.1097
 5268SOL    HW227264   2.008   1.724  10.159 -0.2562 -3.8213 -0.7388
 5269SOL     OW27265   1.835   2.517   9.582  0.2836 -0.1005  0.3353
 5269SOL    HW127266   1.887   2.439   9.603 -0.7528 -1.3357 -1.6832
 5269SOL    HW227267   1.748   2.480   9.595  0.0452 -0.0199 -1.0229
 5270SOL     OW27268   2.350   2.727   8.464 -0.3833  0.0436 -0.3225
 5270SOL    HW127269   2.284   2.679   8.514  1.6899 -3.0732 -0.5484
 5270SOL    HW227270   2.403   2.755   8.538 -1.2974 -0.5719  0.5628
 5271SOL     OW27271   1.314   2.845  10.908  0.2572  0.5631 -0.4575
 5271SOL    HW127272   1.219   2.841  10.897  0.2237 -1.6098  0.5746
 5271SOL    HW227273   1.341   2.755  10.892 -1.1975  0.2248 -1.0833
 5272SOL     OW27274   4.319   0.459   6.387  0.0742  0.0862  0.7076
 5272SOL    HW127275   4.393   0.481   6.331 -1.8983  0.1897 -1.8327
 5272SOL    HW227276   4.270   0.540   6.400  1.7080  1.0066  1.1352
 5273SOL     OW27277   2.399   0.287   3.106 -0.1955 -0.1708  0.2277
 5273SOL    HW127278   2.395   0.194   3.085  0.5708 -0.5091  1.5983
 5273SOL    HW227279   2.338   0.318   3.039  0.0367 -0.0988  0.0535
 5274SOL     OW27280   3.329   0.734   8.604 -0.3383  0.3346  0.6692
 5274SOL    HW127281   3.321   0.782   8.686 -1.4362 -0.4697  1.0327
 5274SOL    HW227282   3.238   0.709   8.589 -0.4412  0.4291  1.1435
 5275SOL     OW27283   4.113   4.680   2.687  0.3344  0.0706  0.1200
 5275SOL    HW127284   4.106   4.598   2.736 -1.8260 -0.2576 -0.7604
 5275SOL    HW227285   4.199   4.718   2.708  1.6086 -2.3618 -0.7262
 5276SOL     OW27286   0.036   1.783   3.327 -0.1942  0.3068  0.1725
 5276SOL    HW127287   4.663   1.789   3.313 -0.2376 -1.7418 -0.4185
 5276SOL    HW227288   0.053   1.877   3.328  0.2328  0.2333 -0.3474
 5277SOL     OW27289   0.080   3.074  11.106 -0.1224 -0.7267 -0.1570
 5277SOL    HW127290   0.127   3.029  11.036  2.6159 -1.2442  1.9688
 5277SOL    HW227291   0.139   3.148  11.124 -1.4540 -0.3284  2.5819
 5278SOL     OW27292   1.928   0.269   7.432 -0.2299 -0.3443 -0.3613
 5278SOL    HW127293   1.945   0.308   7.517 -1.0596 -0.5079 -0.1191
 5278SOL    HW227294   1.834   0.285   7.423 -0.6703 -2.3907  0.5987
 5279SOL     OW27295   0.799   2.190   4.375  0.1150 -0.1591  0.1460
 5279SOL    HW127296   0.724   2.147   4.334  1.3985 -0.9898 -1.3244
 5279SOL    HW227297   0.833   2.135   4.446  0.1877  0.5591  0.6642
 5280SOL     OW27298   0.862   4.253   6.410  0.5924  0.1968 -0.1497
 5280SOL    HW127299   0.914   4.282   6.335 -1.1347  2.0622 -0.6472
 5280SOL    HW227300   0.785   4.217   6.366 -0.4646  0.0146  1.8433
 5281SOL     OW27301   2.546   2.080   4.228  0.1562  0.1186 -0.0731
 5281SOL    HW127302   2.500   2.164   4.227 -1.4727 -0.7754  0.3061
 5281SOL    HW227303   2.589   2.082   4.313 -1.6569 -0.5055  0.8320
 5282SOL     OW27304   1.545   2.072   8.573 -0.2168  0.0512  0.0284
 5282SOL    HW127305   1.584   2.109   8.652 -2.1935 -0.8031  1.4090
 5282SOL    HW227306   1.452   2.063   8.591 -0.6619 -0.8010 -2.6723
 5283SOL     OW27307   0.066   1.813   4.171 -0.3123  0.2494  0.4856
 5283SOL    HW127308   0.117   1.744   4.127  0.4078  1.4785 -0.5960
 5283SOL    HW227309   0.129   1.833   4.240  1.1453  1.1274 -1.0822
 5284SOL     OW27310   0.896   4.089   9.347  0.6275  0.5664 -0.0537
 5284SOL    HW127311   0.866   4.000   9.330 -0.1914  1.1287 -1.6048
 5284SOL    HW227312   0.913   4.091   9.441  2.1241  0.1456 -0.3143
 5285SOL     OW27313   3.976   3.670   6.942 -0.2855  0.3186  0.3031
 5285SOL    HW127314   3.933   3.721   7.011 -0.8374  2.0006 -1.2944
 5285SOL    HW227315   3.919   3.697   6.870 -0.2185 -3.7701 -1.2636
 5286SOL     OW27316   3.850   2.878  10.018  0.6240 -0.8751 -0.0577
 5286SOL    HW127317   3.794   2.854   9.943  1.1796 -1.1343 -0.3905
 5286SOL    HW227318   3.788   2.842  10.082 -0.4595 -1.3434 -1.3580
 5287SOL     OW27319   2.281   1.026   6.773  0.3126 -0.2948  0.3019
 5287SOL    HW127320   2.363   1.024   6.822  0.8836 -1.5476 -0.7186
 5287SOL    HW227321   2.250   1.115   6.791 -0.3069 -0.8545  1.9941
 5288SOL     OW27322   2.883   4.556   6.449  0.1655  0.4124  0.1140
 5288SOL    HW127323   2.804   4.520   6.410  1.2575 -2.2920  0.4307
 5288SOL    HW227324   2.899   4.616   6.376  2.0184 -1.6045 -1.1372
 5289SOL     OW27325   1.324   3.669  14.031  0.2616 -0.1908  0.1586
 5289SOL    HW127326   1.263   3.651  14.102 -0.0998  1.4726  0.2849
 5289SOL    HW227327   1.389   3.599  14.038  1.3619  0.9125  1.1540
 5290SOL     OW27328   0.678   2.265   7.829 -0.2242  0.8638 -0.0659
 5290SOL    HW127329   0.675   2.267   7.733  2.0521  1.0584 -0.1364
 5290SOL    HW227330   0.585   2.287   7.841 -0.8302 -2.2927  0.9934
 5291SOL     OW27331   3.580   3.659   8.388  0.1301  0.3974 -0.1198
 5291SOL    HW127332   3.537   3.614   8.316  2.6411 -2.2237 -0.0198
 5291SOL    HW227333   3.623   3.731   8.342  1.4962 -1.1933 -1.3634
 5292SOL     OW27334   0.610   2.883   7.317 -0.0222  0.0471  0.1992
 5292SOL    HW127335   0.597   2.915   7.228 -0.8456  3.6378  1.6189
 5292SOL    HW227336   0.703   2.896   7.330 -0.1326  0.0270  1.0050
 5293SOL     OW27337   4.629   3.638   5.843  0.3871  0.0514 -0.1660
 5293SOL    HW127338   4.682   3.608   5.917 -0.5270 -1.4947 -0.1352
 5293SOL    HW227339   4.667   3.724   5.827  1.8583 -0.7543 -0.9564
 5294SOL     OW27340   3.605   0.577   4.851  0.0373 -0.6507  0.2877
 5294SOL    HW127341   3.559   0.510   4.902  0.3699 -0.1219  1.2941
 5294SOL    HW227342   3.548   0.591   4.776 -0.2256 -2.6591  0.1310
 5295SOL     OW27343   2.609   0.590   1.743 -0.3495 -0.0660 -0.2645
 5295SOL    HW127344   2.689   0.616   1.697 -1.1260  1.0008 -1.0149
 5295SOL    HW227345   2.576   0.662   1.797  0.8635  0.0496  0.3171
 5296SOL     OW27346   1.597   3.361   7.387  0.4508  0.6694  0.0807
 5296SOL    HW127347   1.681   3.318   7.371  0.3148  0.9893 -1.4748
 5296SOL    HW227348   1.558   3.358   7.299 -2.1918 -1.9376  1.3056
 5297SOL     OW27349   0.815   2.083  12.736 -0.4574 -0.6335 -0.0733
 5297SOL    HW127350   0.754   2.067  12.664  0.2236 -0.3931 -0.7009
 5297SOL    HW227351   0.792   2.019  12.803 -2.1729 -1.0034 -1.0361
 5298SOL     OW27352   1.210   2.412  15.006  0.1651 -0.5542 -0.4262
 5298SOL    HW127353   1.272   2.409  14.934 -0.6449  0.2489 -1.1567
 5298SOL    HW227354   1.212   2.503  15.038 -0.1821 -1.3510  1.8497
 5299SOL     OW27355   1.490   0.535  16.848 -0.0434  0.1505  0.0232
 5299SOL    HW127356   1.487   0.537  16.752 -0.6576 -0.6894  0.0193
 5299SOL    HW227357   1.406   0.578  16.862 -0.7678 -1.3482  0.3664
 5300SOL     OW27358   0.358   2.272   9.335  0.5609 -0.1032  0.1766
 5300SOL    HW127359   0.421   2.335   9.302  0.7408 -0.1790  0.3710
 5300SOL    HW227360   0.389   2.190   9.297 -0.6454  0.9465 -3.0220
 5301SOL     OW27361   2.088   2.124   7.548  0.4422 -0.4416 -0.0655
 5301SOL    HW127362   2.057   2.034   7.539 -0.9567 -0.0646  1.1478
 5301SOL    HW227363   2.018   2.169   7.595  0.6416  0.7452 -0.8873
 5302SOL     OW27364   2.661   2.122  16.550 -0.1984  0.2780 -0.3130
 5302SOL    HW127365   2.612   2.105  16.630  1.3323  0.5732  0.6771
 5302SOL    HW227366   2.596   2.182  16.512 -0.0961 -0.0486 -0.9921
 5303SOL     OW27367   3.891   0.925   2.331 -0.0406 -0.2184  0.1754
 5303SOL    HW127368   3.859   0.999   2.279  1.2460  0.7618  0.7600
 5303SOL    HW227369   3.977   0.950   2.366  0.6236 -0.6803 -1.1215
 5304SOL     OW27370   4.482   0.841  13.722  0.5569 -0.4219 -0.4472
 5304SOL    HW127371   4.409   0.866  13.666 -0.0577  0.5131  0.7596
 5304SOL    HW227372   4.489   0.746  13.710 -0.4116 -0.8350  2.1332
 5305SOL     OW27373   2.138   2.635   1.463 -0.3055 -0.1175 -0.0956
 5305SOL    HW127374   2.055   2.618   1.508 -0.7758  0.5100 -0.7203
 5305SOL    HW227375   2.112   2.666   1.376 -1.8822 -0.6133  0.1938
 5306SOL     OW27376   2.835   1.809   7.815 -0.4692  0.6078 -0.2814
 5306SOL    HW127377   2.879   1.738   7.862 -0.8791 -0.0171 -0.8445
 5306SOL    HW227378   2.806   1.853   7.894 -0.7193  0.4625 -0.2924
 5307SOL     OW27379   2.309   4.016   4.542  0.4408  0.2667 -0.6434
 5307SOL    HW127380   2.395   3.990   4.574  0.3398 -0.2192 -0.7749
 5307SOL    HW227381   2.276   4.050   4.625 -0.9411  0.8103 -1.3964
 5308SOL     OW27382   3.125   2.641   2.837  0.1438  0.2462 -0.3246
 5308SOL    HW127383   3.106   2.693   2.758 -1.2316 -1.4772 -1.1382
 5308SOL    HW227384   3.047   2.662   2.889  0.1098  0.7166 -0.5681
 5309SOL     OW27385   4.234   3.190   0.809 -0.8176 -0.0069  0.2339
 5309SOL    HW127386   4.308   3.130   0.819  2.1742  3.1981 -2.2891
 5309SOL    HW227387   4.156   3.136   0.821  0.1969 -1.5996 -0.3655
 5310SOL     OW27388   0.907   4.456   9.639  0.1143 -0.2535 -0.2556
 5310SOL    HW127389   0.892   4.502   9.557 -1.5447  0.7696  0.6124
 5310SOL    HW227390   0.815   4.432   9.649  0.7272 -2.9616 -1.1867
 5311SOL     OW27391   0.853   0.748   4.984  0.1721 -0.0095  0.1711
 5311SOL    HW127392   0.938   0.739   4.939  0.7883 -0.3404  1.4044
 5311SOL    HW227393   0.857   0.835   5.024  1.5133  0.6596 -1.4287
 5312SOL     OW27394   1.174   4.314   8.255 -0.3103  0.0007  0.8637
 5312SOL    HW127395   1.164   4.323   8.350  2.9654  1.6571  1.0601
 5312SOL    HW227396   1.108   4.370   8.216  0.1735 -1.0725 -1.5069
 5313SOL     OW27397   1.608   2.316   3.003 -0.0846 -0.4743  0.0243
 5313SOL    HW127398   1.518   2.323   3.035 -0.3584 -0.0252 -0.8275
 5313SOL    HW227399   1.597   2.356   2.917  0.1444  1.2888  0.8099
 5314SOL     OW27400   0.003   4.568   9.264 -0.0755  0.1303 -0.3978
 5314SOL    HW127401   0.046   4.573   9.178  0.8847 -0.4895  0.0390
 5314SOL    HW227402   4.721   4.475   9.284 -0.6138  1.0079  3.6284
 5315SOL     OW27403   4.682   1.598   5.925 -0.3140  0.1868 -0.4467
 5315SOL    HW127404   4.631   1.602   6.005  0.4432 -3.6322  0.2556
 5315SOL    HW227405   4.631   1.543   5.865 -1.6943  1.3113 -0.2902
 5316SOL     OW27406   2.284   4.416   9.446 -0.6414  0.8049 -0.3642
 5316SOL    HW127407   2.284   4.320   9.449  0.2057  0.7821 -0.8904
 5316SOL    HW227408   2.193   4.438   9.427 -0.7455  0.8039  0.1464
 5317SOL     OW27409   4.262   0.423   3.629  0.0715 -0.0932 -0.6168
 5317SOL    HW127410   4.327   0.364   3.667  1.6271  1.8291 -0.2964
 5317SOL    HW227411   4.194   0.437   3.695  0.0493 -0.1838 -0.6202
 5318SOL     OW27412   0.271   0.009   4.634 -0.3024  0.2943  0.3789
 5318SOL    HW127413   0.303   0.078   4.575 -0.4590  0.8996  1.0018
 5318SOL    HW227414   0.181   0.009   4.602 -1.2644  1.3770  3.0549
 5319SOL     OW27415   1.057   3.294  14.915 -0.3538 -0.1848 -0.0810
 5319SOL    HW127416   1.082   3.382  14.886  0.0305  0.1028  1.1071
 5319SOL    HW227417   1.105   3.301  14.998 -1.7602 -1.2246  0.8288
 5320SOL     OW27418   1.202   2.750   5.214 -0.3589  0.0907 -0.1098
 5320SOL    HW127419   1.208   2.846   5.220 -0.0140  0.0834 -0.2858
 5320SOL    HW227420   1.296   2.739   5.232 -0.3507 -1.7997 -1.3414
 5321SOL     OW27421   1.820   3.002  11.712  0.1869  0.0699  0.0694
 5321SOL    HW127422   1.896   2.994  11.655 -0.1558  2.1896 -0.6979
 5321SOL    HW227423   1.758   3.039  11.649 -0.5325 -0.4160  0.4971
 5322SOL     OW27424   0.852   3.353   0.832  0.3484  0.0649 -0.1324
 5322SOL    HW127425   0.899   3.329   0.752  0.4715 -2.0767  0.5787
 5322SOL    HW227426   0.838   3.264   0.864 -0.8995 -0.2198 -1.4664
 5323SOL     OW27427   0.492   1.396   6.649 -0.0964 -0.0788  0.2558
 5323SOL    HW127428   0.530   1.320   6.693 -0.2608 -1.0849 -1.3352
 5323SOL    HW227429   0.565   1.435   6.602 -0.0896 -0.3789  0.0132
 5324SOL     OW27430   0.523   0.504   4.689  0.3641  0.3223 -0.1978
 5324SOL    HW127431   0.460   0.571   4.661 -1.0063 -1.2755 -0.9710
 5324SOL    HW227432   0.600   0.553   4.717  2.2324 -2.0009 -1.3260
 5325SOL     OW27433   2.170   4.604   3.429 -0.2277  0.5529 -0.0497
 5325SOL    HW127434   2.179   4.690   3.470  0.7344  1.0078 -1.2364
 5325SOL    HW227435   2.221   4.548   3.486 -0.6658 -0.0325 -0.2351
 5326SOL     OW27436   0.497   1.728   1.107  0.1482  0.1085  0.6223
 5326SOL    HW127437   0.460   1.705   1.022 -0.5530 -0.8429  1.1845
 5326SOL    HW227438   0.557   1.794   1.074 -1.7619  1.2330 -0.5585
 5327SOL     OW27439   2.241   4.436   2.428  0.2440 -0.0749 -0.0522
 5327SOL    HW127440   2.151   4.425   2.457  0.5887 -2.7710 -0.0830
 5327SOL    HW227441   2.256   4.360   2.372  2.1069  1.6843 -1.9467
 5328SOL     OW27442   0.252   0.209  12.206 -0.4179  0.1991  0.1672
 5328SOL    HW127443   0.160   0.235  12.207 -1.0197 -1.9737  0.6636
 5328SOL    HW227444   0.234   0.117  12.223  0.1858 -0.0934 -0.7689
 5329SOL     OW27445   4.642   3.830  15.039  0.0028 -0.0163  0.3043
 5329SOL    HW127446   4.579   3.822  15.110  1.5919  1.2153  1.8400
 5329SOL    HW227447   4.592   3.816  14.958  2.0812  0.7408 -1.1208
 5330SOL     OW27448   3.739   2.578   9.581  0.2142  0.1415 -0.0755
 5330SOL    HW127449   3.650   2.569   9.613  0.0416 -0.6412 -0.7742
 5330SOL    HW227450   3.772   2.488   9.577 -0.4002 -0.1246  0.7800
 5331SOL     OW27451   0.324   3.785  15.028  0.2162  0.2915  0.6022
 5331SOL    HW127452   0.270   3.822  15.098  0.2126 -0.3444  0.9350
 5331SOL    HW227453   0.259   3.810  14.962 -0.2375  2.2017  1.7796
 5332SOL     OW27454   0.133   2.498   0.149  0.2767 -0.4548 -0.3281
 5332SOL    HW127455   0.158   2.544   0.229  1.7149  0.6355 -1.4187
 5332SOL    HW227456   0.157   2.570   0.092  2.9558 -1.8002 -0.9019
 5333SOL     OW27457   3.780   1.633  16.806  0.1881 -0.1235  0.0484
 5333SOL    HW127458   3.690   1.666  16.803  0.1445 -0.1779  0.7762
 5333SOL    HW227459   3.761   1.558  16.749  2.7579  1.9222 -3.5608
 5334SOL     OW27460   3.909   4.151  12.929 -0.7251 -0.1592 -0.1643
 5334SOL    HW127461   3.827   4.101  12.928  0.7618 -2.5683  0.8634
 5334SOL    HW227462   3.966   4.107  12.866 -1.1043  0.6747 -1.0934
 5335SOL     OW27463   2.083   3.731   8.878  0.5142 -0.0082 -0.3759
 5335SOL    HW127464   2.076   3.798   8.945  1.6111  1.0701 -1.3278
 5335SOL    HW227465   2.137   3.667   8.923  0.4369  0.7375  0.7697
 5336SOL     OW27466   2.710   1.269   0.488  0.1681 -0.7800 -0.4743
 5336SOL    HW127467   2.781   1.275   0.424  1.6679  1.7021  1.4306
 5336SOL    HW227468   2.632   1.246   0.437  0.2528 -0.5907 -0.6898
 5337SOL     OW27469   0.409   2.328   0.470  0.0821  0.1436  0.0186
 5337SOL    HW127470   0.407   2.399   0.534 -1.4937  0.5236 -0.4544
 5337SOL    HW227471   0.488   2.345   0.419 -0.0146  0.6141  0.0267
 5338SOL     OW27472   2.262   2.586  15.717 -0.5350  0.2326  0.7302
 5338SOL    HW127473   2.167   2.592  15.727 -0.7828 -1.9422 -0.2676
 5338SOL    HW227474   2.284   2.669  15.676 -0.7938 -0.4630 -0.8357
 5339SOL     OW27475   0.678   3.807   0.697 -0.4311 -0.9656  0.0506
 5339SOL    HW127476   0.755   3.752   0.709 -0.3169 -0.4076  1.7624
 5339SOL    HW227477   0.675   3.865   0.773 -2.0624 -0.7200 -0.1993
 5340SOL     OW27478   1.388   0.528   7.854 -0.5362 -0.0629  0.3136
 5340SOL    HW127479   1.351   0.440   7.856 -0.9121  0.1109  0.9356
 5340SOL    HW227480   1.468   0.515   7.803 -0.6055 -0.1429  0.2255
 5341SOL     OW27481   3.518   3.117   4.938  0.1857  0.7328 -0.0480
 5341SOL    HW127482   3.580   3.104   4.867  0.7162 -2.0265  0.9511
 5341SOL    HW227483   3.453   3.171   4.892  0.7371  2.1133  0.7975
 5342SOL     OW27484   3.624   4.579   7.655  0.1844  0.4311 -0.3851
 5342SOL    HW127485   3.572   4.634   7.713 -1.4454 -0.9059 -0.5817
 5342SOL    HW227486   3.670   4.527   7.720  1.4276  0.3459 -1.3254
 5343SOL     OW27487   2.776   2.605   5.922  0.1915 -0.4808 -0.1758
 5343SOL    HW127488   2.855   2.604   5.868  0.2631 -2.9953 -0.0206
 5343SOL    HW227489   2.793   2.522   5.967  0.3487 -1.2399 -1.6545
 5344SOL     OW27490   0.337   3.894   3.594  0.0339  0.7899 -0.2703
 5344SOL    HW127491   0.321   3.974   3.645 -2.2093  1.0327 -1.3440
 5344SOL    HW227492   0.384   3.945   3.528 -0.3592  0.0242 -1.1509
 5345SOL     OW27493   4.345   4.132  15.125 -0.1777 -0.8477  0.1029
 5345SOL    HW127494   4.357   4.041  15.153 -0.6181 -1.1074 -0.5566
 5345SOL    HW227495   4.270   4.126  15.065 -1.7681  0.8221  1.9069
 5346SOL     OW27496   0.510   4.541  10.848  0.0998  0.7665 -0.4050
 5346SOL    HW127497   0.570   4.541  10.923  2.0411 -1.9008 -1.9451
 5346SOL    HW227498   0.524   4.455  10.808 -0.7389  0.3141  0.2709
 5347SOL     OW27499   2.000   1.970   8.657  0.4597 -0.1911 -0.0409
 5347SOL    HW127500   1.967   2.015   8.580 -0.5375  0.1552  0.5841
 5347SOL    HW227501   1.927   1.993   8.715 -0.7768 -0.0361 -1.6599
 5348SOL     OW27502   0.948   1.341   3.492 -0.2259  0.2818  0.4103
 5348SOL    HW127503   0.918   1.337   3.401  1.3636 -1.0978 -0.0417
 5348SOL    HW227504   1.000   1.262   3.500 -3.2087 -1.5946  1.3249
 5349SOL     OW27505   2.303   2.853  11.113 -0.5287  0.3440 -0.4315
 5349SOL    HW127506   2.398   2.852  11.103 -0.4360 -1.9852  0.5555
 5349SOL    HW227507   2.270   2.797  11.042  1.3440  1.7839 -2.4255
 5350SOL     OW27508   1.559   1.350  17.057  0.4297 -0.0795 -0.7510
 5350SOL    HW127509   1.513   1.267  17.066 -0.2886  0.4183  0.2348
 5350SOL    HW227510   1.535   1.403  17.133  1.6576 -0.5852 -0.0142
 5351SOL     OW27511   0.937   2.268  15.699 -0.2271 -0.4445 -0.0911
 5351SOL    HW127512   0.901   2.181  15.681  1.7888 -1.8817  2.9605
 5351SOL    HW227513   0.988   2.284  15.619 -0.4090  2.4024  0.3734
 5352SOL     OW27514   3.878   3.016   7.974  0.5588 -0.5400 -0.1902
 5352SOL    HW127515   3.963   3.025   7.931  1.9601 -0.4808  2.5889
 5352SOL    HW227516   3.882   2.923   7.993 -1.1298 -0.9454 -1.8525
 5353SOL     OW27517   3.021   2.332   8.578 -0.5104  0.2009 -0.4806
 5353SOL    HW127518   2.993   2.241   8.584 -0.3339  0.2584  1.1912
 5353SOL    HW227519   3.113   2.327   8.551 -0.7623 -0.2913 -1.2526
 5354SOL     OW27520   2.595   1.429   4.891  0.0960 -0.0797  0.2241
 5354SOL    HW127521   2.661   1.493   4.918  0.2735 -0.5957  0.9805
 5354SOL    HW227522   2.513   1.478   4.896 -0.8846 -1.7311  0.3654
 5355SOL     OW27523   0.440   1.992   6.342  0.8462 -0.2816 -0.2089
 5355SOL    HW127524   0.438   1.940   6.261  0.0188 -1.1910  0.3900
 5355SOL    HW227525   0.507   2.059   6.326 -1.5574  1.5387 -2.7928
 5356SOL     OW27526   0.233   2.724  12.437  0.0868 -0.2478  0.2599
 5356SOL    HW127527   0.195   2.639  12.456  0.0863 -0.6081 -1.3831
 5356SOL    HW227528   0.247   2.714  12.343  0.3914  1.6829  0.0854
 5357SOL     OW27529   4.434   1.380   6.818 -0.2254  0.4112 -0.2135
 5357SOL    HW127530   4.446   1.474   6.807 -1.2934  0.8369  2.3002
 5357SOL    HW227531   4.342   1.371   6.792 -0.8796  2.8830  1.2857
 5358SOL     OW27532   2.733   3.191   0.676 -0.0213 -0.1824 -0.3933
 5358SOL    HW127533   2.736   3.287   0.681 -1.4322 -0.1983  0.9222
 5358SOL    HW227534   2.823   3.163   0.658 -0.0670 -0.9089  0.5342
 5359SOL     OW27535   3.958   2.304   1.723  0.2956 -0.3940  0.0388
 5359SOL    HW127536   4.040   2.335   1.684 -0.9301 -0.6694 -2.7397
 5359SOL    HW227537   3.989   2.227   1.771  3.2618  1.4822  1.1339
 5360SOL     OW27538   1.476   2.774   4.032  0.5984 -0.3400  0.0476
 5360SOL    HW127539   1.406   2.768   3.967  1.2409  1.6165 -0.8211
 5360SOL    HW227540   1.518   2.857   4.009 -2.7064  1.3631  0.1370
 5361SOL     OW27541   3.239   2.908   8.089 -0.4158  0.0778  0.1459
 5361SOL    HW127542   3.282   2.823   8.093  0.0188  0.2651 -0.7259
 5361SOL    HW227543   3.206   2.915   8.179  1.9859 -0.4658  1.0702
 5362SOL     OW27544   3.194   3.588   5.992 -0.5264  0.0311 -0.2480
 5362SOL    HW127545   3.190   3.615   5.900 -1.6187  0.0484 -0.1976
 5362SOL    HW227546   3.247   3.650   6.041 -2.1586  1.0085  0.2686
 5363SOL     OW27547   0.592   4.057  15.275 -0.5557  0.3735 -0.0118
 5363SOL    HW127548   0.661   4.112  15.313 -0.8901  0.5526  0.3312
 5363SOL    HW227549   0.531   4.048  15.348  0.0893 -3.6891  0.0178
 5364SOL     OW27550   4.649   4.122  14.431 -0.1032  0.6023 -0.3778
 5364SOL    HW127551   4.657   4.116  14.336 -1.5338 -0.4906 -0.4310
 5364SOL    HW227552   4.606   4.207  14.443  0.3972  1.0039 -1.4491
 5365SOL     OW27553   0.638   4.644  12.727 -0.3687 -0.0526  0.3782
 5365SOL    HW127554   0.575   4.714  12.742  0.6733  0.7207  1.1387
 5365SOL    HW227555   0.719   4.680  12.764 -1.6896  2.6554  0.5893
 5366SOL     OW27556   0.593   2.975   0.198  0.2767 -0.2244 -0.2461
 5366SOL    HW127557   0.616   2.902   0.256  0.7121 -0.2052 -0.3959
 5366SOL    HW227558   0.499   2.983   0.214  0.4027 -0.6501  0.7068
 5367SOL     OW27559   0.131   3.007   4.019  0.2804 -0.4157 -0.3975
 5367SOL    HW127560   0.139   2.911   4.012  1.3137 -0.4459  1.2748
 5367SOL    HW227561   0.103   3.027   3.930  0.2348 -1.2441 -0.5743
 5368SOL     OW27562   1.276   0.227   2.210  0.8435 -0.0496 -0.2046
 5368SOL    HW127563   1.216   0.282   2.260 -0.5682 -2.4787  0.7532
 5368SOL    HW227564   1.353   0.283   2.220 -0.2320  1.1908  1.0292
 5369SOL     OW27565   0.324   2.917  17.614  0.0438 -0.5806  0.4923
 5369SOL    HW127566   0.377   2.997  17.620  0.3907 -0.8621  1.1744
 5369SOL    HW227567   0.234   2.948  17.605 -0.1886 -0.5215  3.1119
 5370SOL     OW27568   3.570   3.284  14.303  0.5927 -0.2221  0.0923
 5370SOL    HW127569   3.501   3.329  14.351 -0.4538 -1.1746 -0.5122
 5370SOL    HW227570   3.520   3.253  14.228  2.5406 -0.8592 -0.9325
 5371SOL     OW27571   4.370   4.410  13.127  0.2664  0.3735  0.4856
 5371SOL    HW127572   4.400   4.386  13.214  0.9799  0.6847  0.3268
 5371SOL    HW227573   4.422   4.347  13.077 -0.9954 -0.4739  0.2221
 5372SOL     OW27574   1.623   3.291   3.983  0.1297 -0.6745 -0.4397
 5372SOL    HW127575   1.612   3.297   3.888 -0.0254  2.3698 -0.2380
 5372SOL    HW227576   1.657   3.378   4.007 -2.5992  0.1686  0.3854
 5373SOL     OW27577   3.188   3.508  17.305 -0.5219  0.3896 -0.0400
 5373SOL    HW127578   3.273   3.552  17.303 -0.1990 -0.1925  0.8912
 5373SOL    HW227579   3.152   3.536  17.220  1.5617 -0.4888 -1.2187
 5374SOL     OW27580   0.455   4.459   7.127  0.3926  0.9625  0.0294
 5374SOL    HW127581   0.376   4.420   7.090  0.1193  2.1350 -0.6267
 5374SOL    HW227582   0.433   4.552   7.121  0.5302  0.8663 -2.3222
 5375SOL     OW27583   2.716   3.723  14.402  0.3042 -0.3666 -0.0472
 5375SOL    HW127584   2.684   3.813  14.410  1.3706  0.0032  0.0625
 5375SOL    HW227585   2.677   3.700  14.317 -1.0945  1.9538 -0.0284
 5376SOL     OW27586   2.831   2.544   6.254 -0.3650  0.0863 -0.5986
 5376SOL    HW127587   2.826   2.483   6.180  0.2441  0.4685 -0.9618
 5376SOL    HW227588   2.806   2.629   6.217  2.3124  0.3063 -1.8980
 5377SOL     OW27589   3.263   0.294   3.418 -0.0182  0.2437 -0.1835
 5377SOL    HW127590   3.341   0.261   3.463  0.4185  0.0535 -1.0961
 5377SOL    HW227591   3.301   0.340   3.344 -0.5702  1.1129  0.0676
 5378SOL     OW27592   2.624   2.699   9.828  0.0574  0.2851  0.4513
 5378SOL    HW127593   2.589   2.709   9.917 -0.5695  0.8522  0.1428
 5378SOL    HW227594   2.679   2.621   9.829 -0.2246  0.0868  0.4958
 5379SOL     OW27595   1.341   3.965  10.895  0.6736 -0.2113 -0.9039
 5379SOL    HW127596   1.250   3.989  10.877  0.6005  1.6788  1.9574
 5379SOL    HW227597   1.350   3.890  10.836  2.6634 -0.6516 -0.0496
 5380SOL     OW27598   1.662   1.014  15.616  0.3301 -0.2744 -0.0867
 5380SOL    HW127599   1.567   1.016  15.628  0.3726 -0.1318  0.2367
 5380SOL    HW227600   1.675   0.928  15.577  1.7625 -0.4936  0.8717
 5381SOL     OW27601   0.739   3.004   2.243  0.4841 -0.3095 -0.0826
 5381SOL    HW127602   0.780   2.966   2.166  1.6588 -1.7280  1.2608
 5381SOL    HW227603   0.652   2.966   2.252 -0.1994  0.7751 -1.9090
 5382SOL     OW27604   3.988   0.496   3.745  0.2031 -0.4393 -0.0249
 5382SOL    HW127605   3.954   0.570   3.795 -2.0836 -0.9144 -0.8732
 5382SOL    HW227606   3.925   0.438   3.787  1.1432 -0.3746  1.4878
 5383SOL     OW27607   2.712   4.678  11.303 -0.2985  0.5571  0.4941
 5383SOL    HW127608   2.707   4.583  11.297 -0.2249  0.6037 -0.3385
 5383SOL    HW227609   2.747   4.709  11.219 -0.2621  0.1281  0.3509
 5384SOL     OW27610   4.004   0.826   7.260 -0.0668 -0.3018 -0.0791
 5384SOL    HW127611   4.095   0.852   7.272 -0.8704  2.0973  0.6688
 5384SOL    HW227612   3.987   0.762   7.329  1.0225 -0.7959 -0.2643
 5385SOL     OW27613   0.020   1.396  13.680  0.5405 -0.5398  0.2542
 5385SOL    HW127614   0.041   1.456  13.751  1.1914 -0.6046  0.1217
 5385SOL    HW227615   0.011   1.307  13.715 -2.3976 -0.3420  0.0115
 5386SOL     OW27616   0.724   3.893   3.160  0.2537 -0.0075 -0.4222
 5386SOL    HW127617   0.703   3.826   3.095  0.9734  0.5537 -1.2245
 5386SOL    HW227618   0.701   3.972   3.111 -1.5579 -0.5753 -0.5018
 5387SOL     OW27619   0.333   3.670  11.772  0.1904 -0.5091 -0.3945
 5387SOL    HW127620   0.338   3.756  11.730  2.0034 -1.0208 -1.2035
 5387SOL    HW227621   0.259   3.692  11.828  0.9095  0.1819  0.2942
 5388SOL     OW27622   2.322   1.946   6.271 -0.2643 -0.3005  0.2131
 5388SOL    HW127623   2.396   1.885   6.275 -0.0599  0.0117  1.3047
 5388SOL    HW227624   2.279   1.926   6.188 -0.4782  0.1688  0.2158
 5389SOL     OW27625   4.626   0.569   4.969  0.1788 -0.1423 -0.1041
 5389SOL    HW127626   4.658   0.519   4.894 -0.1207 -0.0043 -0.3262
 5389SOL    HW227627   4.589   0.503   5.028 -1.2535  0.5202 -0.2426
 5390SOL     OW27628   1.308   2.858  14.510 -0.1453 -0.0330 -0.3400
 5390SOL    HW127629   1.333   2.948  14.488 -1.6176 -0.1154 -2.4281
 5390SOL    HW227630   1.392   2.818  14.534  0.9959  2.4385 -0.2477
 5391SOL     OW27631   2.261   2.153  14.945 -0.4228 -0.2312  0.1166
 5391SOL    HW127632   2.264   2.077  15.004 -1.4162  1.3791  2.2187
 5391SOL    HW227633   2.341   2.201  14.967 -0.8255 -0.5987  2.4363
 5392SOL     OW27634   0.252   0.879   6.429 -0.1615 -0.2715  0.5679
 5392SOL    HW127635   0.284   0.964   6.398 -1.0988 -0.9416 -2.2175
 5392SOL    HW227636   0.307   0.818   6.380 -1.3239 -1.9777  1.3949
 5393SOL     OW27637   2.040   2.315   0.002 -0.3954 -0.8175  0.1576
 5393SOL    HW127638   1.994   2.339   0.082  0.7572  0.6651  0.3779
 5393SOL    HW227639   2.101   2.387  17.673 -0.0781 -0.9925  0.5811
 5394SOL     OW27640   0.216   2.144   9.702 -0.6291  0.8075 -0.0706
 5394SOL    HW127641   0.164   2.088   9.760 -0.9992 -0.1493 -1.3308
 5394SOL    HW227642   0.204   2.230   9.742 -2.1546  1.2080 -1.4139
 5395SOL     OW27643   0.638   3.521   8.486  0.2049 -0.5218 -0.3638
 5395SOL    HW127644   0.719   3.550   8.443  0.2844  0.2303  0.3077
 5395SOL    HW227645   0.630   3.584   8.557 -0.8174  0.6206 -1.4998
 5396SOL     OW27646   2.986   1.304  17.619  0.1288 -0.2806 -1.0253
 5396SOL    HW127647   3.048   1.239  17.586  1.7014  0.9510 -0.4383
 5396SOL    HW227648   2.911   1.280  17.564 -1.1069  1.7099 -0.2300
 5397SOL     OW27649   1.293   3.629   0.621 -0.3092 -0.8175  0.3203
 5397SOL    HW127650   1.381   3.654   0.594  0.2010 -1.2186  1.6334
 5397SOL    HW227651   1.247   3.625   0.537 -1.8436 -2.6853  1.2417
 5398SOL     OW27652   4.173   3.442   4.699 -0.4087  0.6155  0.0002
 5398SOL    HW127653   4.104   3.398   4.748  0.3371  0.0575  0.5593
 5398SOL    HW227654   4.184   3.381   4.626  0.7263  0.6198  0.1590
 5399SOL     OW27655   0.734   0.907   3.822  0.0046  0.4541  0.3843
 5399SOL    HW127656   0.662   0.906   3.759 -0.0367 -1.0902  0.4622
 5399SOL    HW227657   0.808   0.857   3.787 -0.4597 -1.1085  1.6501
 5400SOL     OW27658   3.607   3.457   2.056  0.0239 -0.4499  0.1174
 5400SOL    HW127659   3.564   3.482   1.974 -1.3139 -0.0570  0.9388
 5400SOL    HW227660   3.536   3.422   2.111 -2.0831 -0.1316 -2.4142
 5401SOL     OW27661   2.794   2.372   6.051 -0.2975  0.2475 -0.0276
 5401SOL    HW127662   2.740   2.314   6.104  0.4137  1.4493  2.0242
 5401SOL    HW227663   2.824   2.310   5.984  1.1723 -1.1380  1.8752
 5402SOL     OW27664   2.904   2.174  15.239 -0.4610 -0.0045  0.4403
 5402SOL    HW127665   2.879   2.176  15.147  0.4196 -0.1154  0.2024
 5402SOL    HW227666   2.823   2.147  15.283  0.4437  0.5880  2.4583
 5403SOL     OW27667   1.644   0.542   0.486  0.0374 -0.0144  0.0534
 5403SOL    HW127668   1.622   0.502   0.401 -2.0948 -0.3287  0.7612
 5403SOL    HW227669   1.738   0.553   0.473  0.2510 -2.2913 -0.2786
 5404SOL     OW27670   3.245   3.024  13.736  0.5579  0.7668 -0.0754
 5404SOL    HW127671   3.319   3.009  13.795  1.0847  0.5949 -0.7690
 5404SOL    HW227672   3.237   3.119  13.750 -1.3435  0.4231  1.0583
 5405SOL     OW27673   0.422   3.232   8.041  0.3018  0.6743  0.0125
 5405SOL    HW127674   0.482   3.249   8.114  1.0180  0.1064 -0.4459
 5405SOL    HW227675   0.368   3.161   8.075 -1.2156  0.6542 -2.4397
 5406SOL     OW27676   3.909   4.148   7.092 -0.2654 -0.3482 -0.1731
 5406SOL    HW127677   3.858   4.159   7.172  0.5963 -0.5167  0.3894
 5406SOL    HW227678   3.858   4.082   7.043 -3.9241  1.0116  1.7906
 5407SOL     OW27679   1.277   2.585  13.836 -0.5642  0.3937 -0.1391
 5407SOL    HW127680   1.318   2.508  13.874  0.5136  1.4510  0.8129
 5407SOL    HW227681   1.210   2.610  13.900 -0.4159  0.4955 -0.0227
 5408SOL     OW27682   1.605   1.304   3.080 -0.3201 -0.0592  0.1285
 5408SOL    HW127683   1.644   1.336   2.998  1.6727  0.5344  1.3107
 5408SOL    HW227684   1.666   1.231   3.091  0.7894  0.6641 -1.2121
 5409SOL     OW27685   3.098   2.481   5.585 -0.0830 -0.2929  0.2823
 5409SOL    HW127686   3.136   2.411   5.639 -0.0949  0.8721  1.7963
 5409SOL    HW227687   3.109   2.443   5.497  1.1476  2.9092 -0.9423
 5410SOL     OW27688   3.777   0.315  17.002  0.0809 -0.0022  0.5242
 5410SOL    HW127689   3.749   0.284  16.916  2.6314 -1.1140  0.0972
 5410SOL    HW227690   3.720   0.276  17.069  0.0812  0.2918  0.6957
 5411SOL     OW27691   2.925   3.573   6.582 -0.1980  0.7900  0.1574
 5411SOL    HW127692   2.917   3.596   6.489 -2.0784  0.7325  0.3005
 5411SOL    HW227693   2.898   3.653   6.627  2.4858  1.6957  0.1189
 5412SOL     OW27694   0.831   3.302  11.023 -0.6871 -0.2642 -0.2378
 5412SOL    HW127695   0.851   3.385  11.066 -0.8122  0.6196 -1.8879
 5412SOL    HW227696   0.871   3.247  11.090 -2.1716  1.1350  1.8285
 5413SOL     OW27697   4.431   0.680   7.356 -0.7876 -0.0768  0.0401
 5413SOL    HW127698   4.478   0.656   7.436 -0.9354  0.1456  0.1941
 5413SOL    HW227699   4.376   0.602   7.361 -0.2825 -0.3630  1.2541
 5414SOL     OW27700   0.034   0.584   7.999  0.1564  0.4048 -0.2355
 5414SOL    HW127701   0.003   0.674   7.990  1.5797  1.1100  2.0231
 5414SOL    HW227702   0.042   0.561   7.906  0.9553  0.6613 -0.2313
 5415SOL     OW27703   4.001   2.158   7.905  0.6188 -0.5617 -0.0094
 5415SOL    HW127704   3.924   2.155   7.850 -1.2571  1.7880  2.4848
 5415SOL    HW227705   4.065   2.098   7.866  1.5156 -0.8312  1.8394
 5416SOL     OW27706   4.129   4.426   8.669  0.0177 -0.2810  0.0258
 5416SOL    HW127707   4.064   4.496   8.670 -2.2945 -2.4453 -0.8766
 5416SOL    HW227708   4.202   4.457   8.723  1.0736 -0.5593 -1.2286
 5417SOL     OW27709   2.728   3.729   4.556  0.1129  0.3597 -0.2495
 5417SOL    HW127710   2.820   3.738   4.533 -0.1169  1.1385 -0.8670
 5417SOL    HW227711   2.704   3.641   4.526  0.0892 -0.3408  1.8166
 5418SOL     OW27712   3.620   3.774  14.117  0.0260  0.0459  0.1033
 5418SOL    HW127713   3.584   3.856  14.083 -1.1936 -0.8325 -0.7487
 5418SOL    HW227714   3.707   3.811  14.131  0.2952  0.1753 -1.8783
 5419SOL     OW27715   1.265   1.044   9.426 -0.4830  0.4913 -0.1495
 5419SOL    HW127716   1.265   1.050   9.522 -1.8839 -1.7043  0.0077
 5419SOL    HW227717   1.202   0.976   9.404  0.2277 -0.0969 -0.3913
 5420SOL     OW27718   2.370   4.485   3.085 -0.2926  0.3053  0.6533
 5420SOL    HW127719   2.288   4.450   3.048 -0.1075  1.2917 -0.7038
 5420SOL    HW227720   2.399   4.404   3.128  0.6611  0.7941  0.9280
 5421SOL     OW27721   3.497   1.813   7.402  0.0208 -0.0974 -0.2807
 5421SOL    HW127722   3.538   1.747   7.458 -0.7145 -0.9544 -0.7433
 5421SOL    HW227723   3.422   1.846   7.452  0.2668 -0.6527  0.4574
 5422SOL     OW27724   4.410   0.735   6.730  0.0506 -0.2922 -0.2053
 5422SOL    HW127725   4.353   0.659   6.742  2.3306 -1.9105  0.4521
 5422SOL    HW227726   4.480   0.711   6.791 -0.2471 -1.6459 -0.3926
 5423SOL     OW27727   2.024   0.056   7.596 -0.6967 -0.3003  0.2522
 5423SOL    HW127728   1.958   0.118   7.629 -1.4130 -1.0498  0.2370
 5423SOL    HW227729   2.066   0.115   7.534  0.9747  0.7998  2.4075
 5424SOL     OW27730   2.895   1.798   5.215 -0.8220  0.5676 -0.9302
 5424SOL    HW127731   2.814   1.752   5.238  0.3721 -1.5756 -1.0205
 5424SOL    HW227732   2.952   1.721   5.206 -0.2893  0.8505  0.0526
 5425SOL     OW27733   3.614   2.493  16.530  0.0637 -0.5367 -0.2108
 5425SOL    HW127734   3.685   2.486  16.594  0.0796  2.0076  0.0615
 5425SOL    HW227735   3.545   2.462  16.589 -0.8112 -1.9637 -1.9863
 5426SOL     OW27736   1.940   3.437   7.991 -0.2767  0.4494 -0.0412
 5426SOL    HW127737   1.853   3.406   7.968 -0.5268  0.5632  0.7393
 5426SOL    HW227738   1.926   3.468   8.080 -0.8138 -1.8902  0.6808
 5427SOL     OW27739   3.687   1.117   7.826  0.3315 -0.3684 -0.2148
 5427SOL    HW127740   3.681   1.086   7.735  2.4727  1.2371 -0.9081
 5427SOL    HW227741   3.777   1.088   7.843 -0.6891 -2.6358  1.2384
 5428SOL     OW27742   1.620   2.106   7.531 -0.6731  0.1563  0.1567
 5428SOL    HW127743   1.550   2.090   7.467 -0.1749 -4.8731  0.8818
 5428SOL    HW227744   1.575   2.107   7.615  0.0748  1.1629  0.5500
 5429SOL     OW27745   4.652   1.637   0.546  0.0482  0.4449  0.0340
 5429SOL    HW127746   4.685   1.627   0.456 -1.8688  0.3005 -0.6382
 5429SOL    HW227747   4.565   1.597   0.545 -0.0554  0.6887 -2.1104
 5430SOL     OW27748   0.655   0.856   7.353 -0.1737 -0.2352 -0.3259
 5430SOL    HW127749   0.744   0.837   7.322  0.0192  0.2263 -0.0559
 5430SOL    HW227750   0.601   0.806   7.292 -1.8428  1.3048 -0.1134
 5431SOL     OW27751   0.590   3.918   3.936 -0.1198  0.0499  0.0426
 5431SOL    HW127752   0.542   3.837   3.954 -0.5397  1.0056  3.1250
 5431SOL    HW227753   0.676   3.893   3.969  0.8493  0.8143 -1.9285
 5432SOL     OW27754   1.989   2.365   3.054 -0.3098  0.3530  0.5828
 5432SOL    HW127755   2.073   2.398   3.086  0.0178  0.9156 -0.8444
 5432SOL    HW227756   1.940   2.318   3.121  1.1484 -2.3326 -0.2363
 5433SOL     OW27757   0.276   3.244  11.189 -0.6682  0.0819  0.7319
 5433SOL    HW127758   0.253   3.238  11.281  0.1263 -0.4598  0.8887
 5433SOL    HW227759   0.345   3.310  11.197  0.0201 -0.5109 -0.3091
 5434SOL     OW27760   4.242   0.416   2.713  0.0960 -0.2700 -0.6100
 5434SOL    HW127761   4.211   0.391   2.625 -1.3129  3.6786 -1.2221
 5434SOL    HW227762   4.331   0.382   2.705 -1.0050 -3.0662 -1.2264
 5435SOL     OW27763   2.601   4.207   1.104 -0.3159  0.0575  0.0647
 5435SOL    HW127764   2.608   4.298   1.131  0.1505 -0.0755  0.3879
 5435SOL    HW227765   2.606   4.174   1.194  2.0341  0.5031  0.0953
 5436SOL     OW27766   1.829   1.164   3.041  0.0376  0.0976  1.2270
 5436SOL    HW127767   1.776   1.086   3.058  1.9343 -0.6913  3.5612
 5436SOL    HW227768   1.850   1.165   2.948 -3.1348 -1.1493  0.5130
 5437SOL     OW27769   3.568   1.765   7.144  0.1113  0.1066 -0.6690
 5437SOL    HW127770   3.496   1.720   7.100 -0.5711  1.3073 -0.7785
 5437SOL    HW227771   3.532   1.778   7.232 -0.3852 -0.0128 -0.8544
 5438SOL     OW27772   3.813   3.443  17.635  0.1028 -0.1043 -0.3249
 5438SOL    HW127773   3.766   3.476   0.024 -0.1178 -0.3133 -0.3711
 5438SOL    HW227774   3.756   3.488  17.572  0.5453  1.3597  0.3292
 5439SOL     OW27775   1.123   0.651   4.467  0.0908  0.1502 -0.1602
 5439SOL    HW127776   1.081   0.737   4.474  1.3101  0.7573 -0.2623
 5439SOL    HW227777   1.190   0.660   4.535  0.1722  2.8864 -0.5772
 5440SOL     OW27778   4.029   2.567   8.703  0.4644  0.5351 -0.3930
 5440SOL    HW127779   4.023   2.546   8.609 -0.0251 -1.3537  0.0454
 5440SOL    HW227780   3.991   2.497   8.756 -0.0852 -1.5754 -3.5128
 5441SOL     OW27781   1.605   1.501  10.353  0.5509  0.5376 -0.2407
 5441SOL    HW127782   1.515   1.529  10.335  0.6072  2.1912  2.1489
 5441SOL    HW227783   1.608   1.421  10.300 -0.0434  0.2315  0.1879
 5442SOL     OW27784   4.320   3.671   7.496 -0.0310  0.4294 -0.2113
 5442SOL    HW127785   4.395   3.657   7.553  0.1449  1.5418 -0.1780
 5442SOL    HW227786   4.252   3.640   7.557 -1.5702  1.2113 -1.5391
 5443SOL     OW27787   1.537   2.425  14.917 -0.8237  0.4320  0.3599
 5443SOL    HW127788   1.555   2.359  14.851 -0.8857  0.5019  0.2742
 5443SOL    HW227789   1.611   2.485  14.910 -0.4747  0.1290  1.4515
 5444SOL     OW27790   2.029   4.466   3.250  0.7163 -0.0280 -0.3852
 5444SOL    HW127791   2.084   4.534   3.289 -1.4385  1.2809  0.3442
 5444SOL    HW227792   2.004   4.405   3.320 -0.2572 -0.9613 -1.5538
 5445SOL     OW27793   0.140   0.892   3.610 -0.6358  0.0043 -0.6223
 5445SOL    HW127794   0.173   0.802   3.617  2.1752  1.0132 -0.6100
 5445SOL    HW227795   0.049   0.877   3.588 -0.6805 -0.3588 -0.1863
 5446SOL     OW27796   3.509   4.092   4.849 -0.2367 -0.6122  0.1446
 5446SOL    HW127797   3.554   4.148   4.785 -0.1794 -2.3126 -1.3352
 5446SOL    HW227798   3.456   4.049   4.781 -1.5859  2.7634 -0.9201
 5447SOL     OW27799   4.635   2.283   5.263  0.3086  0.0288 -0.7566
 5447SOL    HW127800   0.004   2.266   5.292 -0.0220 -1.2988 -0.5022
 5447SOL    HW227801   4.595   2.198   5.282  1.4606 -0.5174 -0.7888
 5448SOL     OW27802   3.141   2.522   3.079 -0.2145  0.3200 -0.3714
 5448SOL    HW127803   3.146   2.545   2.986  1.0401  1.6848  0.0322
 5448SOL    HW227804   3.050   2.495   3.089  0.3952 -1.7613 -0.3925
 5449SOL     OW27805   4.376   4.551   6.387  0.3164  0.0970  0.3634
 5449SOL    HW127806   4.341   4.495   6.456  0.9244  0.0257  0.6186
 5449SOL    HW227807   4.470   4.547   6.404  0.3443 -1.5622 -0.1571
 5450SOL     OW27808   3.220   3.585  16.558 -0.1025 -0.1179 -0.0494
 5450SOL    HW127809   3.144   3.554  16.510 -0.3371  0.5144 -0.0837
 5450SOL    HW227810   3.209   3.547  16.646 -0.5664 -0.1949 -0.1428
 5451SOL     OW27811   2.398   0.471   4.886  0.8050  0.2240  0.0558
 5451SOL    HW127812   2.383   0.531   4.813 -1.2127  0.8649  0.9896
 5451SOL    HW227813   2.331   0.513   4.940 -0.0987 -0.6571 -0.3895
 5452SOL     OW27814   2.801   2.257   2.828 -0.5587 -0.1771  0.2579
 5452SOL    HW127815   2.733   2.302   2.778 -0.9820 -2.8795 -1.5869
 5452SOL    HW227816   2.795   2.174   2.781  0.7485 -1.1252  1.7567
 5453SOL     OW27817   3.323   1.949   2.605  0.1829  0.0754  0.2262
 5453SOL    HW127818   3.324   1.874   2.546 -1.0324  1.2077 -1.2509
 5453SOL    HW227819   3.242   1.994   2.581  0.2428  0.9259  1.5985
 5454SOL     OW27820   2.429   3.619   3.373 -0.3785 -0.0545 -0.2219
 5454SOL    HW127821   2.490   3.671   3.321 -0.7094  0.2173 -0.3407
 5454SOL    HW227822   2.495   3.550   3.380  0.5140  1.0702  2.4497
 5455SOL     OW27823   4.627   1.563  17.309 -0.1281 -0.4602 -0.0720
 5455SOL    HW127824   0.001   1.550  17.304  0.1106  1.2461 -0.0004
 5455SOL    HW227825   4.602   1.472  17.321  1.6090 -0.8436  0.6548
 5456SOL     OW27826   0.300   1.663  10.040 -0.5086  0.3649  0.4179
 5456SOL    HW127827   0.374   1.721  10.058  0.1895 -0.8441  1.4315
 5456SOL    HW227828   0.312   1.596  10.107 -2.1060  0.6995  1.0279
 5457SOL     OW27829   2.194   3.580  10.165 -0.0964 -0.2631 -0.1165
 5457SOL    HW127830   2.193   3.591  10.260 -0.4413  0.4054 -0.1983
 5457SOL    HW227831   2.212   3.486  10.173  0.8396 -0.0775 -0.0401
 5458SOL     OW27832   3.742   4.603  16.112 -0.8567  0.5017  0.4430
 5458SOL    HW127833   3.675   4.666  16.086 -0.9168  0.9416  1.6975
 5458SOL    HW227834   3.815   4.626  16.054 -0.5202 -1.8985 -0.0907
 5459SOL     OW27835   0.444   4.665   9.719 -0.2505 -0.6060 -0.0113
 5459SOL    HW127836   0.392   4.600   9.672  2.7755 -2.5427 -0.6756
 5459SOL    HW227837   0.527   4.673   9.671  0.3375 -1.2386  0.9047
 5460SOL     OW27838   4.442   3.185   2.256  0.1002 -0.2608 -0.8172
 5460SOL    HW127839   4.490   3.113   2.297 -0.0592  0.0313 -0.1251
 5460SOL    HW227840   4.359   3.173   2.303  0.9808 -2.7858  0.0870
 5461SOL     OW27841   3.756   3.052   6.368  0.3043  0.4693 -0.3181
 5461SOL    HW127842   3.693   2.992   6.327 -0.4467  1.6229 -0.8803
 5461SOL    HW227843   3.694   3.120   6.395 -1.3379 -1.1097 -0.1114
 5462SOL     OW27844   0.728   1.460  15.112  0.1347 -0.0535  0.4873
 5462SOL    HW127845   0.697   1.487  15.025  0.5044 -2.2919 -0.3424
 5462SOL    HW227846   0.673   1.517  15.166  0.8604  0.6217  0.5171
 5463SOL     OW27847   0.516   2.301   2.063 -0.0010 -0.3349  0.2910
 5463SOL    HW127848   0.520   2.215   2.104 -1.4282  0.2040  1.5586
 5463SOL    HW227849   0.576   2.290   1.989 -0.1159 -0.8703  0.2772
 5464SOL     OW27850   4.607   1.042   0.171 -0.3019 -0.3780  0.1944
 5464SOL    HW127851   4.554   0.963   0.182  0.2973 -0.8869 -0.5963
 5464SOL    HW227852   4.570   1.103   0.235 -0.0509  0.8750 -0.8750
 5465SOL     OW27853   0.422   2.417   5.819 -0.3987  0.1695  0.0992
 5465SOL    HW127854   0.377   2.402   5.736  1.0603 -1.0245 -0.4966
 5465SOL    HW227855   0.365   2.487   5.850 -0.4260 -0.4440  1.4479
 5466SOL     OW27856   0.361   4.246   5.441  0.2270 -0.1212  0.1275
 5466SOL    HW127857   0.301   4.223   5.369  0.2120  1.0217 -0.2173
 5466SOL    HW227858   0.397   4.165   5.478  1.0987  0.4306  0.4873
 5467SOL     OW27859   0.920   2.372  15.045 -0.5329 -0.4449  0.3216
 5467SOL    HW127860   1.006   2.338  15.019 -1.2263 -0.8802 -1.3881
 5467SOL    HW227861   0.930   2.453  15.095  1.8632  0.3842 -1.4889
 5468SOL     OW27862   2.411   1.217   8.695  0.2566 -0.0137 -0.4893
 5468SOL    HW127863   2.451   1.131   8.694  0.6591  0.1646  1.6673
 5468SOL    HW227864   2.328   1.196   8.737 -1.4688  0.1983 -3.7631
 5469SOL     OW27865   2.902   2.848   6.657  0.3278 -0.2805  0.3012
 5469SOL    HW127866   2.940   2.842   6.569 -1.3309  1.2805 -0.5106
 5469SOL    HW227867   2.983   2.839   6.707  0.6952 -0.3791 -0.3035
 5470SOL     OW27868   3.468   2.970   9.136  0.1029  0.2291 -0.3874
 5470SOL    HW127869   3.477   3.013   9.221  2.0949 -2.6243  0.8541
 5470SOL    HW227870   3.512   3.040   9.089 -1.4171  2.5323  1.5859
 5471SOL     OW27871   2.831   0.894   8.726  0.2079 -0.2369 -0.1274
 5471SOL    HW127872   2.859   0.859   8.811 -0.3742 -0.2974  0.0414
 5471SOL    HW227873   2.806   0.813   8.682  2.2172 -0.9226  0.0066
 5472SOL     OW27874   4.173   1.803   4.307 -0.5266  0.0342 -0.1966
 5472SOL    HW127875   4.126   1.838   4.383  1.5706  1.3124  0.5151
 5472SOL    HW227876   4.257   1.771   4.341 -0.8672 -3.5140 -2.7671
 5473SOL     OW27877   2.735   2.797   2.435 -0.0707 -0.5974  0.6165
 5473SOL    HW127878   2.664   2.859   2.420  1.1110  0.4022 -0.8267
 5473SOL    HW227879   2.689   2.746   2.501  2.2172 -1.0716  1.8491
 5474SOL     OW27880   4.168   1.000   8.218 -0.0938  0.1985  0.2315
 5474SOL    HW127881   4.145   0.990   8.310 -1.0462  1.2372  0.0974
 5474SOL    HW227882   4.244   1.058   8.232  0.6541 -0.3953 -1.3895
 5475SOL     OW27883   3.026   2.273   6.970 -0.3567 -0.2850  0.2819
 5475SOL    HW127884   2.942   2.299   6.932  0.7415  1.6961 -0.7457
 5475SOL    HW227885   3.033   2.340   7.038  1.5016  0.1185 -0.3235
 5476SOL     OW27886   4.235   1.967   7.480  0.0696 -0.4417 -0.2699
 5476SOL    HW127887   4.159   2.008   7.438 -0.0831  1.3474  1.7416
 5476SOL    HW227888   4.250   1.893   7.421  1.0787  0.7047 -1.4594
 5477SOL     OW27889   1.606   0.341   9.162 -0.0860  0.3355 -0.2730
 5477SOL    HW127890   1.576   0.428   9.136 -0.2879  0.3574  0.0373
 5477SOL    HW227891   1.632   0.299   9.080  0.8899 -1.0625  0.7570
 5478SOL     OW27892   1.953   0.231   2.869  0.4425 -0.4585  0.4740
 5478SOL    HW127893   1.876   0.275   2.905  0.2403 -1.8925  1.7937
 5478SOL    HW227894   1.917   0.187   2.792 -2.3339  0.1181  1.4507
 5479SOL     OW27895   2.455   3.916   2.236 -0.4772  0.3034 -0.1596
 5479SOL    HW127896   2.535   3.961   2.264 -0.1149 -0.0890 -0.5730
 5479SOL    HW227897   2.479   3.824   2.227 -0.9320  0.1919 -0.2633
 5480SOL     OW27898   2.798   4.291   3.272 -0.4500 -0.4362  0.4464
 5480SOL    HW127899   2.881   4.246   3.257 -0.1331  0.1377  0.4963
 5480SOL    HW227900   2.740   4.252   3.206 -1.5402 -0.8722  1.6547
 5481SOL     OW27901   2.535   4.275   9.723 -0.0062 -0.1763  0.6619
 5481SOL    HW127902   2.456   4.222   9.715  0.7543 -0.8271 -2.2410
 5481SOL    HW227903   2.597   4.219   9.678  0.1809  0.6607 -0.1345
 5482SOL     OW27904   2.482   4.121   6.200 -0.1521 -0.3870  0.0329
 5482SOL    HW127905   2.437   4.160   6.125  0.0384 -0.8219 -0.3047
 5482SOL    HW227906   2.559   4.177   6.197  0.5526 -1.3902 -0.5112
 5483SOL     OW27907   4.155   4.255  17.205 -0.0447 -0.2789 -0.1264
 5483SOL    HW127908   4.167   4.213  17.120  0.3985 -1.1768  0.3774
 5483SOL    HW227909   4.060   4.268  17.212 -0.2225 -0.9622 -1.2567
 5484SOL     OW27910   3.158   1.257  11.547 -0.0058 -0.2613  0.3377
 5484SOL    HW127911   3.241   1.291  11.582 -0.4736  0.4117  0.7938
 5484SOL    HW227912   3.182   1.232  11.458  0.5216  1.4756 -0.0243
 5485SOL     OW27913   1.581   1.126  10.417 -0.1512 -0.1056  0.1853
 5485SOL    HW127914   1.665   1.083  10.405  0.7821  2.0973 -1.1686
 5485SOL    HW227915   1.586   1.197  10.353 -0.3757 -1.8459 -1.7841
 5486SOL     OW27916   3.128   4.687  14.562  0.4123 -0.3326 -0.1263
 5486SOL    HW127917   3.189   4.659  14.630 -0.8222 -1.8376  0.3531
 5486SOL    HW227918   3.070   0.022  14.614 -0.2733 -0.6837 -0.5067
 5487SOL     OW27919   4.062   2.588  15.928 -0.4945 -0.3159 -0.0975
 5487SOL    HW127920   4.076   2.621  16.017  0.0584  1.4177 -0.8258
 5487SOL    HW227921   4.117   2.511  15.916 -0.4078  0.0600 -2.0407
 5488SOL     OW27922   1.425   0.115   4.713 -0.5990 -0.0922  0.2184
 5488SOL    HW127923   1.418   0.070   4.797  0.2770  1.0879  0.9175
 5488SOL    HW227924   1.519   0.124   4.703 -0.7097 -0.9668 -1.6482
 5489SOL     OW27925   1.092   2.894   3.173 -0.2122 -0.3066  0.5137
 5489SOL    HW127926   1.066   2.851   3.091  0.7490  1.1551 -0.5667
 5489SOL    HW227927   1.133   2.824   3.223  3.2592  0.5186 -1.1777
 5490SOL     OW27928   1.451   0.857   3.193  0.2527 -0.5271 -0.0348
 5490SOL    HW127929   1.528   0.844   3.247 -0.7574 -0.0626  1.5110
 5490SOL    HW227930   1.412   0.770   3.181 -2.9073  0.8894 -0.1122
 5491SOL     OW27931   4.028   1.241   2.318  0.1701  0.7319 -0.0813
 5491SOL    HW127932   4.028   1.274   2.408  2.4132 -1.5956  0.7568
 5491SOL    HW227933   4.117   1.266   2.294  1.7075 -2.6687  2.2464
 5492SOL     OW27934   3.726   4.441   1.744  0.1044  0.1271 -0.1260
 5492SOL    HW127935   3.731   4.459   1.651 -3.0890 -0.0405 -0.3335
 5492SOL    HW227936   3.805   4.486   1.773 -1.2829  0.3302  3.3993
 5493SOL     OW27937   1.557   3.815   3.997 -0.4407  0.2585 -0.1394
 5493SOL    HW127938   1.565   3.789   3.905 -1.4668  3.0683 -1.0231
 5493SOL    HW227939   1.641   3.858   4.014 -0.4177  0.0918  0.1652
 5494SOL     OW27940   4.014   2.627   4.580 -0.1156  0.7108 -0.6033
 5494SOL    HW127941   3.982   2.549   4.534  1.3753 -0.1671 -0.1264
 5494SOL    HW227942   4.095   2.646   4.532  0.9020 -1.0777  0.4028
 5495SOL     OW27943   2.031   2.092  16.394  0.5704  0.9766  0.2146
 5495SOL    HW127944   2.112   2.065  16.350  0.1065  1.9567 -1.2310
 5495SOL    HW227945   2.040   2.016  16.451 -0.1395  1.6099  1.1708
 5496SOL     OW27946   4.681   4.633   7.636  0.0321  0.3483  0.3671
 5496SOL    HW127947   4.719   4.711   7.676  0.1070  0.3265  0.3391
 5496SOL    HW227948   0.044   4.592   7.615 -0.3194 -0.4138  0.4730
 5497SOL     OW27949   0.247   1.065   2.279 -0.3152  0.1876  0.0275
 5497SOL    HW127950   0.254   0.971   2.261  0.7441  0.6536 -1.9808
 5497SOL    HW227951   0.338   1.093   2.270  0.0123 -0.5964  0.8905
 5498SOL     OW27952   0.775   3.758  16.634  0.3392  0.0663 -0.4909
 5498SOL    HW127953   0.817   3.681  16.596 -0.6326  0.0903 -1.6111
 5498SOL    HW227954   0.845   3.823  16.642  0.6211 -0.2670 -0.2556
 5499SOL     OW27955   2.956   4.711   2.011 -0.4115  0.2022 -0.5999
 5499SOL    HW127956   2.986   4.697   1.921 -0.9530  1.1180 -0.9318
 5499SOL    HW227957   3.014   4.653   2.059  1.4121  2.3393 -0.2500
 5500SOL     OW27958   0.058   2.584   0.827  0.0823  0.2906 -0.2652
 5500SOL    HW127959   0.043   2.645   0.900  3.1129 -0.4260  0.9224
 5500SOL    HW227960   0.151   2.563   0.826 -0.1431 -0.7889  1.1991
 5501SOL     OW27961   4.640   4.107  12.053 -0.0889 -0.8180 -0.3199
 5501SOL    HW127962   4.621   4.098  12.146  1.7718  0.4243  0.1760
 5501SOL    HW227963   4.583   4.042  12.012  2.2423 -3.1246  0.1088
 5502SOL     OW27964   4.282   2.328  15.547  0.0424  0.0060  0.1280
 5502SOL    HW127965   4.319   2.249  15.586 -0.2840  0.8627  2.1700
 5502SOL    HW227966   4.189   2.307  15.551 -0.2594  1.4036  0.6071
 5503SOL     OW27967   2.373   2.215   6.311  0.3269  0.2985  0.3562
 5503SOL    HW127968   2.298   2.264   6.277 -1.0945 -1.1808  1.3131
 5503SOL    HW227969   2.353   2.122   6.297  0.5500  0.2527  0.3544
 5504SOL     OW27970   3.065   4.169   1.189 -0.0816  0.2889  0.0567
 5504SOL    HW127971   3.150   4.162   1.146  0.9145 -0.5264  2.1462
 5504SOL    HW227972   3.026   4.089   1.156 -0.1708  0.9613 -1.4736
 5505SOL     OW27973   2.426   1.193   2.487 -0.3568 -0.6256 -0.5183
 5505SOL    HW127974   2.487   1.230   2.551 -0.3613  0.4146 -1.1133
 5505SOL    HW227975   2.481   1.184   2.409  0.0393  0.0976 -0.3160
 5506SOL     OW27976   4.625   2.377   1.203  0.2781 -0.2188 -0.2988
 5506SOL    HW127977   4.575   2.428   1.266  2.3099 -0.6795  1.6478
 5506SOL    HW227978   4.684   2.328   1.260 -0.0658  1.1977  1.2725
 5507SOL     OW27979   1.029   3.700   3.631 -0.6162  0.8625 -1.0061
 5507SOL    HW127980   1.077   3.698   3.548  0.7542  1.2900 -0.2297
 5507SOL    HW227981   1.097   3.744   3.683 -1.6615  2.3749 -0.9268
 5508SOL     OW27982   3.618   3.636   0.316 -0.3499  0.2817  0.5645
 5508SOL    HW127983   3.570   3.583   0.380 -1.3849  0.5539  0.0216
 5508SOL    HW227984   3.594   3.598   0.232  0.1600 -0.0218  0.5587
 5509SOL     OW27985   3.929   2.244  13.897  0.4138 -0.0218  0.1821
 5509SOL    HW127986   3.880   2.162  13.909 -0.1145 -0.0043 -1.7925
 5509SOL    HW227987   3.921   2.280  13.985 -0.0145 -2.6048  1.2013
 5510SOL     OW27988   4.303   3.324   2.979 -0.1965  0.4126 -0.4577
 5510SOL    HW127989   4.353   3.243   2.994 -1.5782 -0.0250  1.8313
 5510SOL    HW227990   4.340   3.355   2.897  3.8135  1.2623  1.6543
 5511SOL     OW27991   3.491   3.518   3.390 -0.0098 -0.2628 -0.0318
 5511SOL    HW127992   3.522   3.467   3.315 -0.8652 -1.6939  0.5932
 5511SOL    HW227993   3.493   3.607   3.354 -2.0657  0.0252  0.5680
 5512SOL     OW27994   2.897   0.697   4.433  0.3625 -0.6316 -0.0945
 5512SOL    HW127995   2.940   0.619   4.399 -0.5880  0.6262 -4.2489
 5512SOL    HW227996   2.909   0.686   4.527  2.8182  0.2830 -0.3113
 5513SOL     OW27997   3.621   3.998  17.622  0.0517 -0.7051 -0.2256
 5513SOL    HW127998   3.543   4.004  17.676  1.3454 -0.0397  1.5722
 5513SOL    HW227999   3.596   4.062  17.556 -2.7369 -1.1959  0.3901
 5514SOL     OW28000   1.756   1.477   5.506 -0.5581  0.0740 -0.3949
 5514SOL    HW128001   1.782   1.555   5.555 -0.7261 -0.9088  1.2278
 5514SOL    HW228002   1.674   1.496   5.460 -0.8633  1.5776  0.7811
 5515SOL     OW28003   2.263   1.972   2.991  0.2331 -0.3005 -0.1323
 5515SOL    HW128004   2.352   1.937   2.984  0.0554 -1.3725  2.8778
 5515SOL    HW228005   2.258   2.048   2.933 -1.1971  0.8683  1.5417
 5516SOL     OW28006   3.248   2.044   6.620 -0.0789 -0.4416  0.3700
 5516SOL    HW128007   3.267   2.109   6.687  1.1408  0.8233 -1.1929
 5516SOL    HW228008   3.337   2.024   6.591  0.9497 -2.3417  4.8791
 5517SOL     OW28009   4.391   2.107   6.374  0.1390  0.1216 -0.3850
 5517SOL    HW128010   4.470   2.149   6.341  0.0812  0.4513 -0.1016
 5517SOL    HW228011   4.363   2.064   6.293 -0.8626  1.1398 -0.5831
 5518SOL     OW28012   1.332   2.953  14.185 -0.0206  0.3011  0.3910
 5518SOL    HW128013   1.417   2.962  14.229  1.0542  1.5715 -1.9162
 5518SOL    HW228014   1.349   3.006  14.107 -0.8554  2.3706  1.6493
 5519SOL     OW28015   0.034   3.182   8.344 -0.3330 -0.3538 -0.5626
 5519SOL    HW128016   0.031   3.116   8.413 -0.2416  0.1333 -0.0901
 5519SOL    HW228017   4.697   3.249   8.380 -0.1798 -0.2573 -0.4959
 5520SOL     OW28018   3.323   0.967   2.674 -0.6266 -0.5449  0.8346
 5520SOL    HW128019   3.407   0.960   2.630 -0.6496  1.0332  0.5363
 5520SOL    HW228020   3.294   0.883   2.638 -2.4395  1.3805 -2.1669
 5521SOL     OW28021   4.481   1.885   7.259 -0.1225  0.0621  0.0852
 5521SOL    HW128022   4.448   1.943   7.328 -0.8399 -1.5007  1.0521
 5521SOL    HW228023   4.428   1.810   7.283  0.7765 -1.0860 -1.5209
 5522SOL     OW28024   2.860   1.957   6.530  0.4774 -0.0833 -0.1622
 5522SOL    HW128025   2.910   1.892   6.480  4.6828  2.5142  0.6161
 5522SOL    HW228026   2.833   2.008   6.454  3.5410 -1.5590 -2.2482
 5523SOL     OW28027   2.575   4.327   5.921  0.4775 -0.5915 -0.1376
 5523SOL    HW128028   2.659   4.366   5.943  0.0254 -0.0560  0.6661
 5523SOL    HW228029   2.581   4.317   5.826  1.3168  0.2303 -0.1730
 5524SOL     OW28030   3.344   3.522   0.909 -0.4174 -0.0563 -0.0609
 5524SOL    HW128031   3.402   3.463   0.861 -1.9320  0.0689 -2.0696
 5524SOL    HW228032   3.391   3.532   0.991 -2.0191  0.3181  0.8167
 5525SOL     OW28033   1.522   0.922   9.412  0.2069  0.6970  0.1038
 5525SOL    HW128034   1.556   0.966   9.490  1.4118  0.2225 -0.1594
 5525SOL    HW228035   1.436   0.963   9.400  0.5992  1.4816 -0.0589
 5526SOL     OW28036   1.479   2.194   6.589  0.1757  0.0853 -0.2603
 5526SOL    HW128037   1.445   2.280   6.612  0.2709 -0.0512  0.3925
 5526SOL    HW228038   1.399   2.140   6.590  1.1340 -1.3233  0.9892
 5527SOL     OW28039   2.125   2.033  13.371  0.5398  0.0334 -0.6576
 5527SOL    HW128040   2.111   2.127  13.360  1.1444  0.1234 -0.6239
 5527SOL    HW228041   2.057   1.992  13.316  0.1007 -0.0502 -0.0547
 5528SOL     OW28042   0.926   3.542   2.944 -0.3629  0.2879  0.4958
 5528SOL    HW128043   0.895   3.521   3.033 -1.2893 -0.8988 -0.1112
 5528SOL    HW228044   0.841   3.525   2.904  0.9349 -3.8040 -0.5762
 5529SOL     OW28045   3.472   1.494  16.020  0.1367 -0.3397  0.4137
 5529SOL    HW128046   3.552   1.466  16.065  0.9257  1.2270 -0.0001
 5529SOL    HW228047   3.507   1.580  15.994 -1.6886 -0.1877 -1.5008
 5530SOL     OW28048   0.893   0.621   9.756 -0.6129 -0.5200  0.0411
 5530SOL    HW128049   0.970   0.677   9.767 -0.0072 -0.7668 -2.8472
 5530SOL    HW228050   0.940   0.542   9.782 -0.3449 -0.2616  0.3451
 5531SOL     OW28051   3.741   0.189  12.242  0.5406  0.0382 -0.4242
 5531SOL    HW128052   3.676   0.177  12.173  0.9841 -1.9681 -0.4806
 5531SOL    HW228053   3.683   0.162  12.313  1.0796  1.1497  0.4436
 5532SOL     OW28054   4.570   0.990   2.675  0.1599 -0.2423 -0.1559
 5532SOL    HW128055   4.625   1.009   2.598  0.6134 -1.1068 -0.0422
 5532SOL    HW228056   4.531   0.904   2.662 -0.9478  0.1840  0.4307
 5533SOL     OW28057   0.632   3.763   2.933  0.1813  0.1492  0.2831
 5533SOL    HW128058   0.665   3.817   2.861 -1.5373  1.9175  0.7971
 5533SOL    HW228059   0.604   3.685   2.886  1.1134  0.8737 -1.4819
 5534SOL     OW28060   4.457   1.948   4.188 -0.0248  0.4492 -0.2547
 5534SOL    HW128061   4.496   1.888   4.124 -2.7899 -2.7450  1.0093
 5534SOL    HW228062   4.480   1.908   4.271 -1.7357 -0.7970 -0.3840
 5535SOL     OW28063   4.329   4.097   8.060 -0.0162 -0.2874 -0.6961
 5535SOL    HW128064   4.344   4.186   8.092 -0.6634  0.3825 -2.2443
 5535SOL    HW228065   4.368   4.110   7.974  1.7513 -2.3786 -0.2173
 5536SOL     OW28066   0.068   4.659  12.055 -0.2881 -0.5710 -0.2324
 5536SOL    HW128067   0.107   4.672  11.969  2.1703  0.1919  1.0074
 5536SOL    HW228068   0.024   4.575  12.041 -0.6311 -0.2566 -1.0237
 5537SOL     OW28069   3.129   2.419   2.469  0.4503  0.1282  0.4563
 5537SOL    HW128070   3.143   2.346   2.530  4.7907  1.5555  1.0983
 5537SOL    HW228071   3.036   2.436   2.484  0.4526  0.9933 -0.5236
 5538SOL     OW28072   3.447   4.583   8.200 -0.1696 -0.1896  0.1778
 5538SOL    HW128073   3.491   4.609   8.119  0.4530 -0.9573  0.2703
 5538SOL    HW228074   3.514   4.525   8.234  0.2508 -0.9706 -1.9776
 5539SOL     OW28075   2.372   4.596   9.937  0.2539 -0.4280  0.3555
 5539SOL    HW128076   2.325   4.678   9.928  0.9439 -0.2907 -2.0281
 5539SOL    HW228077   2.399   4.589   9.845  0.7914  0.0346  0.4823
 5540SOL     OW28078   0.368   0.929   1.060  0.2568  0.1836 -0.7636
 5540SOL    HW128079   0.288   0.981   1.058  0.0472 -0.1926 -2.2469
 5540SOL    HW228080   0.426   0.996   1.024 -0.7235  0.5509 -1.6498
 5541SOL     OW28081   1.796   3.759   5.893  0.4007  0.0990  0.5499
 5541SOL    HW128082   1.725   3.716   5.940 -0.9998  0.3937 -1.2647
 5541SOL    HW228083   1.791   3.849   5.924 -0.0515  0.5055 -0.6740
 5542SOL     OW28084   4.410   3.292   6.484  0.5902  0.1325  0.3507
 5542SOL    HW128085   4.423   3.199   6.503 -1.4131 -0.3021 -0.4365
 5542SOL    HW228086   4.425   3.282   6.390  1.9513  1.2578  0.4413
 5543SOL     OW28087   3.094   0.374   1.005 -0.3039  0.4883 -0.1693
 5543SOL    HW128088   3.147   0.351   1.081 -0.9326  1.6114  0.6136
 5543SOL    HW228089   3.151   0.396   0.932 -0.5707  0.7098 -0.3127
 5544SOL     OW28090   3.801   0.050   3.412 -0.6833 -0.2633 -0.8230
 5544SOL    HW128091   3.715   0.018   3.387 -1.3873  0.4232  0.7256
 5544SOL    HW228092   3.840   4.687   3.435  1.2090  0.9921  0.5854
 5545SOL     OW28093   3.705   3.628   7.344 -0.5471  0.2700 -0.2244
 5545SOL    HW128094   3.624   3.583   7.365 -1.2037  0.6611 -1.9302
 5545SOL    HW228095   3.692   3.715   7.381  2.1956  0.3823  0.4752
 5546SOL     OW28096   2.700   4.097   7.599  0.5829  0.1224 -0.0135
 5546SOL    HW128097   2.649   4.051   7.532 -0.6431  1.9160 -0.3368
 5546SOL    HW228098   2.641   4.107   7.674  0.6787  1.0207 -0.0641
 5547SOL     OW28099   1.649   3.799   8.534 -0.0499  0.1129 -0.3798
 5547SOL    HW128100   1.568   3.785   8.583  1.6129 -0.4720  2.2108
 5547SOL    HW228101   1.613   3.855   8.466 -1.0080  1.1464  0.9949
 5548SOL     OW28102   2.982   1.250   8.660  0.7723  0.5791  0.4153
 5548SOL    HW128103   3.048   1.311   8.627  2.5494 -1.7480 -0.3530
 5548SOL    HW228104   3.020   1.234   8.746 -2.7517 -0.9506  1.7106
 5549SOL     OW28105   0.921   4.255   6.062  0.3941 -0.2944 -0.2091
 5549SOL    HW128106   0.956   4.312   5.993 -0.1093 -0.7572 -0.8489
 5549SOL    HW228107   0.946   4.308   6.137 -2.1364 -1.1055  1.1972
 5550SOL     OW28108   1.437   1.776   8.715 -0.2075 -0.2766 -0.3317
 5550SOL    HW128109   1.411   1.797   8.804  1.0025  1.2344 -0.3394
 5550SOL    HW228110   1.427   1.858   8.668  1.1119  1.1104  1.8189
 5551SOL     OW28111   0.253   3.203  10.616 -0.4219  0.0454 -0.3345
 5551SOL    HW128112   0.279   3.179  10.527  1.0814 -2.6446  0.8381
 5551SOL    HW228113   0.202   3.125  10.636  0.1002 -0.7732 -2.2018
 5552SOL     OW28114   2.122   1.312   5.832  0.0958  0.3238 -0.1070
 5552SOL    HW128115   2.103   1.296   5.924  2.3151 -1.1305  0.0982
 5552SOL    HW228116   2.079   1.235   5.795 -0.4601 -0.9576  3.2189
 5553SOL     OW28117   0.513   3.183   6.360  0.0000  0.1891 -0.5271
 5553SOL    HW128118   0.608   3.181   6.353  0.0558 -0.5718  0.4048
 5553SOL    HW228119   0.491   3.193   6.267  1.4529 -0.6753 -0.9575
 5554SOL     OW28120   2.595   3.477  10.302  0.3439 -0.1791  0.1256
 5554SOL    HW128121   2.591   3.508  10.392  0.2323  1.1074 -0.3269
 5554SOL    HW228122   2.691   3.473  10.296  0.4665 -0.7884  2.3875
 5555SOL     OW28123   3.074   0.060   4.474 -0.0418  0.3638 -0.0560
 5555SOL    HW128124   3.038   0.054   4.385 -0.2791 -1.2503  0.1370
 5555SOL    HW228125   3.139   0.128   4.461  0.3802 -0.0951 -0.3389
 5556SOL     OW28126   3.128   1.914  13.324 -0.1882  0.2728 -0.6891
 5556SOL    HW128127   3.111   1.871  13.240 -1.5203 -0.3024 -0.1323
 5556SOL    HW228128   3.107   2.006  13.309  0.2586  0.4814 -0.0084
 5557SOL     OW28129   4.566   3.983  12.989  0.2902 -0.3159  0.2387
 5557SOL    HW128130   4.635   3.938  12.941 -0.5304 -1.6770  0.3260
 5557SOL    HW228131   4.612   3.998  13.071 -3.7259 -1.2476  2.6407
 5558SOL     OW28132   1.417   2.974  11.556  0.4622  0.0127  0.3166
 5558SOL    HW128133   1.386   2.884  11.544 -1.2465  0.2513  2.9134
 5558SOL    HW228134   1.401   2.989  11.649  0.7514  0.8970  0.2272
 5559SOL     OW28135   0.897   2.459   4.015  0.2731  0.1994 -0.0194
 5559SOL    HW128136   0.874   2.470   4.107  0.8058 -1.1587  0.2801
 5559SOL    HW228137   0.966   2.392   4.015 -1.0814 -1.1823  2.0066
 5560SOL     OW28138   1.709   0.982   9.208 -0.5888 -0.1538 -0.4271
 5560SOL    HW128139   1.648   1.005   9.278  0.4906 -2.1619  1.1658
 5560SOL    HW228140   1.789   0.958   9.254 -1.9557  2.1076  3.0838
 5561SOL     OW28141   1.145   0.121   4.296 -0.2399 -0.0022 -0.0065
 5561SOL    HW128142   1.154   0.146   4.388  0.9390  0.1043 -0.1604
 5561SOL    HW228143   1.209   0.053   4.279 -0.3313  0.0099 -0.3911
 5562SOL     OW28144   2.997   4.461   4.901  0.1034 -0.1504 -0.1174
 5562SOL    HW128145   3.005   4.532   4.837 -1.1157  0.9779  0.9624
 5562SOL    HW228146   3.088   4.433   4.910 -0.0090 -0.3575  0.4108
 5563SOL     OW28147   2.461   3.419   4.217 -0.6294 -0.5909  0.3598
 5563SOL    HW128148   2.438   3.426   4.124 -0.4860  0.6950  0.4313
 5563SOL    HW228149   2.549   3.380   4.211  0.2973  1.3732  1.1902
 5564SOL     OW28150   0.489   3.273   7.343 -0.6517  0.3721  0.0498
 5564SOL    HW128151   0.495   3.244   7.434  1.3884  1.6672  0.3186
 5564SOL    HW228152   0.572   3.321   7.347 -0.9237  0.8439  0.0290
 5565SOL     OW28153   3.365   1.519  14.880 -0.1077  0.5187  0.8018
 5565SOL    HW128154   3.303   1.475  14.821 -2.4639  2.0113  2.1533
 5565SOL    HW228155   3.448   1.488  14.843 -0.7770 -2.3424  1.6894
 5566SOL     OW28156   4.063   2.243   6.108 -0.0773 -0.3415 -0.0990
 5566SOL    HW128157   3.985   2.296   6.125 -0.7014 -1.6577  1.0873
 5566SOL    HW228158   4.134   2.283   6.158  1.0289  3.6727 -4.8392
 5567SOL     OW28159   4.080   3.572   3.444 -0.3138 -0.0453 -0.0898
 5567SOL    HW128160   4.107   3.481   3.435 -0.8215 -0.3548  1.5395
 5567SOL    HW228161   4.106   3.610   3.360  1.3185 -0.6526  0.1602
 5568SOL     OW28162   2.797   3.313   7.668 -0.2342 -0.1071  0.9528
 5568SOL    HW128163   2.822   3.348   7.754 -1.2901  1.1694  0.7357
 5568SOL    HW228164   2.701   3.318   7.670 -0.1610  2.0814 -0.5895
 5569SOL     OW28165   1.323   1.382   7.415 -0.0521  0.6762 -0.1086
 5569SOL    HW128166   1.228   1.384   7.412 -0.0768  3.1858  1.7981
 5569SOL    HW228167   1.352   1.319   7.348 -2.4730  0.5574 -1.0178
 5570SOL     OW28168   1.791   1.753   6.691 -0.6896 -0.5027 -0.5928
 5570SOL    HW128169   1.866   1.799   6.729 -0.6643 -0.9563 -0.0807
 5570SOL    HW228170   1.803   1.674   6.744 -0.9303 -0.0382  0.1576
 5571SOL     OW28171   2.976   0.179  14.656 -0.2586 -0.0939 -0.2797
 5571SOL    HW128172   3.013   0.259  14.693 -0.8958  0.4238 -0.7622
 5571SOL    HW228173   2.884   0.200  14.669 -0.3401 -1.4152  1.1569
 5572SOL     OW28174   2.491   0.635   2.559 -0.3903  0.1253 -0.3382
 5572SOL    HW128175   2.563   0.573   2.573 -0.3449  0.5537  1.2338
 5572SOL    HW228176   2.545   0.708   2.529 -0.6478  0.4140 -0.1041
 5573SOL     OW28177   2.211   1.207  11.744 -0.5103 -0.3941 -0.0512
 5573SOL    HW128178   2.303   1.223  11.720 -0.3620 -1.1915 -0.0309
 5573SOL    HW228179   2.193   1.166  11.659  1.3784 -0.5522 -0.3841
 5574SOL     OW28180   0.833   3.873   4.075 -0.3248 -0.1661 -0.2018
 5574SOL    HW128181   0.863   3.788   4.043  0.1106 -0.6197  1.4018
 5574SOL    HW228182   0.843   3.869   4.170 -0.4789 -0.0675 -0.1814
 5575SOL     OW28183   0.374   4.523  12.248 -0.1617  0.2743 -0.5324
 5575SOL    HW128184   0.312   4.578  12.199  0.8590  1.8253 -0.0833
 5575SOL    HW228185   0.319   4.445  12.244 -0.7792  0.5083  2.8302
 5576SOL     OW28186   3.820   2.041  17.087 -0.3844  0.2006  0.1143
 5576SOL    HW128187   3.753   1.973  17.078 -1.9577  1.9376 -1.2471
 5576SOL    HW228188   3.851   2.019  17.175  2.1339 -1.4621 -1.2038
 5577SOL     OW28189   0.951   0.981   5.092 -0.0348 -0.7897 -0.0563
 5577SOL    HW128190   0.913   1.063   5.063 -1.0495 -0.9525  0.8426
 5577SOL    HW228191   0.916   0.973   5.180  1.5213 -1.2002  0.5367
 5578SOL     OW28192   3.971   3.760   9.085 -0.4680  0.2544 -0.2701
 5578SOL    HW128193   4.023   3.837   9.061  1.8560 -1.5821 -1.0935
 5578SOL    HW228194   3.970   3.774   9.179  0.0017  3.1400 -0.7036
 5579SOL     OW28195   1.817   4.144   2.752  0.0255  0.2799  0.0395
 5579SOL    HW128196   1.892   4.196   2.780 -1.5061  3.1526 -1.0719
 5579SOL    HW228197   1.867   4.068   2.723  1.4372  0.2006  2.6679
 5580SOL     OW28198   1.672   2.064   1.488  0.9181 -0.3592 -0.0052
 5580SOL    HW128199   1.765   2.056   1.468  0.9078  2.9532 -1.4393
 5580SOL    HW228200   1.692   2.106   1.571 -2.7792  0.2769  0.5932
 5581SOL     OW28201   4.012   2.803   5.729  0.0683 -0.4846  0.5172
 5581SOL    HW128202   4.048   2.884   5.695 -0.7721 -0.3929 -0.1532
 5581SOL    HW228203   3.970   2.829   5.811  0.6764  1.4146  0.2185
 5582SOL     OW28204   2.300   2.113   1.181 -0.1526 -0.1412 -0.0638
 5582SOL    HW128205   2.301   2.027   1.139  0.9679  0.0315 -0.3899
 5582SOL    HW228206   2.393   2.115   1.203 -0.3231  2.6204  0.3918
 5583SOL     OW28207   3.845   3.462  16.492 -0.0552 -0.3830 -0.5104
 5583SOL    HW128208   3.852   3.552  16.461 -1.4384 -0.1355 -0.0917
 5583SOL    HW228209   3.937   3.435  16.499  0.1521  0.5933  0.6245
 5584SOL     OW28210   1.467   3.326   5.602 -0.5445  0.0355 -0.3925
 5584SOL    HW128211   1.483   3.316   5.508  0.7454 -1.3396 -0.0096
 5584SOL    HW228212   1.392   3.385   5.596 -1.3357 -1.1251 -2.1743
 5585SOL     OW28213   0.432   0.840   4.144  0.7415  0.2590  0.4425
 5585SOL    HW128214   0.522   0.866   4.126 -0.3243  2.7963 -1.2993
 5585SOL    HW228215   0.452   0.760   4.191  1.9664  0.9340  1.0489
 5586SOL     OW28216   1.117   0.058   7.358  0.2312 -0.0478 -0.1835
 5586SOL    HW128217   1.038   0.005   7.347  0.9989 -1.4898  1.2256
 5586SOL    HW228218   1.129   0.095   7.270 -3.0986  0.5278 -0.3690
 5587SOL     OW28219   3.222   1.734  15.928  0.0273  0.3992  0.3427
 5587SOL    HW128220   3.197   1.670  15.994  1.7058 -3.0123 -2.3509
 5587SOL    HW228221   3.132   1.759  15.904 -0.1437  0.4814  1.0689
 5588SOL     OW28222   4.341   0.692  13.539 -0.7504 -0.3421  0.0616
 5588SOL    HW128223   4.273   0.728  13.483 -1.1987 -0.9899  0.1835
 5588SOL    HW228224   4.410   0.669  13.477  2.0238 -0.3372  3.1385
 5589SOL     OW28225   0.312   1.021   8.875  0.3382  0.0669  0.6678
 5589SOL    HW128226   0.300   1.055   8.964  0.2605  0.5889  0.4620
 5589SOL    HW228227   0.264   0.939   8.879 -0.0077  0.2679  0.5667
 5590SOL     OW28228   3.603   1.248  10.950 -0.4303  0.4771  0.0820
 5590SOL    HW128229   3.519   1.294  10.944  0.1913  1.6652  0.5534
 5590SOL    HW228230   3.626   1.244  11.042 -3.0591 -1.5302  0.6572
 5591SOL     OW28231   3.250   0.662   9.241 -0.4578  0.0408 -0.7262
 5591SOL    HW128232   3.326   0.718   9.257 -2.4954  2.2674  1.1918
 5591SOL    HW228233   3.288   0.576   9.223  0.0584  0.0071  0.4903
 5592SOL     OW28234   3.167   2.834  11.233 -0.0214  0.0711 -0.3655
 5592SOL    HW128235   3.200   2.921  11.210 -0.5923  0.7210  1.2253
 5592SOL    HW228236   3.248   2.784  11.225  1.3694  1.7497  3.0078
 5593SOL     OW28237   3.185   1.068   3.183 -0.3547  0.5092 -0.4305
 5593SOL    HW128238   3.113   1.035   3.236  0.1863  0.1104  0.0606
 5593SOL    HW228239   3.205   1.001   3.118  1.3863 -0.4671  1.0833
 5594SOL     OW28240   3.834   3.865   9.411 -0.3631  0.9553  0.1674
 5594SOL    HW128241   3.876   3.798   9.465 -0.1540  1.6469  0.8558
 5594SOL    HW228242   3.911   3.921   9.401  0.4897 -0.2570 -0.1376
 5595SOL     OW28243   2.386   3.889   3.078  0.2846  0.2740 -0.0303
 5595SOL    HW128244   2.469   3.858   3.114 -0.8215 -0.3919  1.9116
 5595SOL    HW228245   2.415   3.978   3.058  0.2671  0.1516 -0.6098
 5596SOL     OW28246   0.868   3.587   8.708 -0.5757  0.5779  0.0783
 5596SOL    HW128247   0.923   3.661   8.684  1.0756 -0.6161  0.1727
 5596SOL    HW228248   0.779   3.617   8.689 -1.1197 -0.1625  1.4623
 5597SOL     OW28249   3.312   0.835   3.443 -0.0297  0.2427  0.2469
 5597SOL    HW128250   3.253   0.775   3.489  0.7388  0.4402  1.4701
 5597SOL    HW228251   3.350   0.778   3.376 -0.4590 -0.4226  0.5627
 5598SOL     OW28252   0.894   1.793  11.079  0.3331  0.1924  0.0830
 5598SOL    HW128253   0.899   1.884  11.049 -0.9174  0.8217  1.8565
 5598SOL    HW228254   0.874   1.806  11.171 -0.4672 -1.0512  0.0750
 5599SOL     OW28255   4.595   2.806   2.137  0.3842  0.1507 -0.4012
 5599SOL    HW128256   4.526   2.746   2.111  0.5683 -0.5585  0.7243
 5599SOL    HW228257   4.670   2.795   2.079 -1.1997  3.2948 -3.0221
 5600SOL     OW28258   1.352   3.000   5.279  0.4022  0.2130  0.4197
 5600SOL    HW128259   1.421   2.953   5.325  1.1897 -0.1963 -1.1903
 5600SOL    HW228260   1.397   3.065   5.225 -0.1880  0.7786  0.6150
 5601SOL     OW28261   3.244   3.470   3.468 -0.3920 -0.3808 -0.0772
 5601SOL    HW128262   3.338   3.485   3.456 -0.7036  1.0172 -0.7870
 5601SOL    HW228263   3.220   3.453   3.377 -0.8668 -0.7239  0.1132
 5602SOL     OW28264   1.478   3.967  11.149  0.4632  0.7543  0.3787
 5602SOL    HW128265   1.434   3.962  11.064  1.8906 -2.1648 -0.1903
 5602SOL    HW228266   1.405   3.959  11.210 -0.4949  0.9363 -0.7423
 5603SOL     OW28267   3.295   3.356   9.971 -0.4198  0.0148  0.2019
 5603SOL    HW128268   3.300   3.410   9.892  0.0210  0.3795  0.4849
 5603SOL    HW228269   3.252   3.282   9.927 -0.0808  0.9226 -1.6434
 5604SOL     OW28270   3.499   1.752   6.608  0.2278 -0.1452 -0.7666
 5604SOL    HW128271   3.434   1.704   6.557  0.4829 -1.8413  0.4869
 5604SOL    HW228272   3.554   1.679   6.635 -0.9985 -1.6742 -2.4416
 5605SOL     OW28273   2.215   4.070   8.167  0.0798 -0.1752 -0.0511
 5605SOL    HW128274   2.285   4.104   8.111  1.2320 -0.9846  0.8830
 5605SOL    HW228275   2.219   4.118   8.249  1.9698  0.8310 -0.7403
 5606SOL     OW28276   0.687   4.218   2.560  0.1572  0.0823 -0.7393
 5606SOL    HW128277   0.775   4.199   2.593  1.3541 -2.0967 -5.2572
 5606SOL    HW228278   0.669   4.293   2.617  0.4043  0.4648 -1.1560
 5607SOL     OW28279   3.961   3.761   4.400  0.2255 -0.4148 -0.4733
 5607SOL    HW128280   3.869   3.739   4.413  0.6153  0.5701  4.0168
 5607SOL    HW228281   3.962   3.850   4.436  0.0566 -0.5899 -0.0345
 5608SOL     OW28282   2.550   2.126   4.895 -0.0997  0.3776 -0.0107
 5608SOL    HW128283   2.504   2.210   4.884  1.0942  1.1211  0.6792
 5608SOL    HW228284   2.554   2.114   4.990  2.1327 -0.1710 -0.1890
 5609SOL     OW28285   2.698   3.733  11.906  0.7151 -0.3290  1.0970
 5609SOL    HW128286   2.755   3.664  11.940 -0.3443 -1.7420 -0.0354
 5609SOL    HW228287   2.745   3.734  11.822 -1.0000  0.9804  0.1414
 5610SOL     OW28288   2.520   3.586   8.480  0.2323  0.1046 -0.3094
 5610SOL    HW128289   2.446   3.527   8.467  0.6235 -0.6032  0.6940
 5610SOL    HW228290   2.578   3.574   8.405 -0.6389 -0.0317 -0.9617
 5611SOL     OW28291   3.080   0.302   3.729 -0.2395 -0.4001  0.4182
 5611SOL    HW128292   3.001   0.349   3.751  1.4794  2.6133  0.1538
 5611SOL    HW228293   3.134   0.378   3.707  1.1987 -1.5177  0.0630
 5612SOL     OW28294   4.644   1.419   3.709 -0.4065 -0.1610  0.3702
 5612SOL    HW128295   4.560   1.375   3.696 -0.8870  0.1831  2.4643
 5612SOL    HW228296   4.638   1.496   3.652  0.6853  0.2636  0.8392
 5613SOL     OW28297   4.462   0.686   6.248  0.2313  0.1596 -0.2592
 5613SOL    HW128298   4.498   0.616   6.193  0.5212 -0.3929  0.6415
 5613SOL    HW228299   4.535   0.705   6.308  0.2840  1.5111 -0.7421
 5614SOL     OW28300   0.986   1.153   9.366 -0.3601  0.4514 -0.3513
 5614SOL    HW128301   1.045   1.175   9.438 -1.5923  0.5782  0.6253
 5614SOL    HW228302   0.976   1.061   9.390  0.7156  0.2246 -0.7726
 5615SOL     OW28303   1.854   2.092   7.278 -0.1146 -0.6812  0.0117
 5615SOL    HW128304   1.890   2.020   7.227 -1.9233 -1.0146 -0.8001
 5615SOL    HW228305   1.830   2.041   7.355 -0.5657  0.8209  0.8682
 5616SOL     OW28306   1.760   2.133   1.176 -0.1682 -0.3695  0.0570
 5616SOL    HW128307   1.699   2.195   1.136  0.7069 -0.1535 -0.9160
 5616SOL    HW228308   1.755   2.152   1.270  0.0206 -0.0312 -0.0008
 5617SOL     OW28309   4.252   0.999  16.356  0.3365  0.0157  0.5911
 5617SOL    HW128310   4.168   1.005  16.402  0.6285  0.1517  1.0965
 5617SOL    HW228311   4.319   1.039  16.412 -0.4641  0.5533  1.1623
 5618SOL     OW28312   1.509   2.014   7.298  0.3518 -0.1284  0.0261
 5618SOL    HW128313   1.438   2.053   7.248  0.1073  1.0209  1.2623
 5618SOL    HW228314   1.578   2.042   7.238  0.1892 -0.7285 -0.4437
 5619SOL     OW28315   1.716   2.739   4.901  0.1153  0.2863 -0.1706
 5619SOL    HW128316   1.788   2.680   4.879 -0.1115  1.0964 -3.1059
 5619SOL    HW228317   1.704   2.718   4.993 -1.3182  2.8795  0.2163
 5620SOL     OW28318   4.512   2.890   7.744 -0.2666  0.1885  0.5464
 5620SOL    HW128319   4.495   2.943   7.822 -0.7848  0.8181 -0.0055
 5620SOL    HW228320   4.467   2.945   7.681 -0.9011  0.8607  1.5882
 5621SOL     OW28321   0.821   0.075   9.835  0.2568  0.2397  0.7869
 5621SOL    HW128322   0.913   0.088   9.861  1.3581  1.9031 -3.9605
 5621SOL    HW228323   0.819   4.701   9.837  0.7729  0.2137  0.2089
 5622SOL     OW28324   1.112   0.719   3.044  0.2993 -0.5056 -0.0603
 5622SOL    HW128325   1.183   0.663   3.013 -0.3686 -2.1350  1.3122
 5622SOL    HW228326   1.035   0.662   3.039 -0.0073 -0.0019 -1.0030
 5623SOL     OW28327   2.993   2.053   5.731 -0.1624 -0.1557 -0.1222
 5623SOL    HW128328   2.987   2.009   5.647  1.7528 -0.3756 -0.1363
 5623SOL    HW228329   3.072   2.012   5.764 -1.0661 -2.2028 -0.5291
 5624SOL     OW28330   3.655   0.712   3.617  0.3014  0.0079 -0.3950
 5624SOL    HW128331   3.585   0.646   3.612  0.0910  0.1808  0.2013
 5624SOL    HW228332   3.628   0.773   3.686 -1.8100 -0.6808 -0.5948
 5625SOL     OW28333   1.367   0.589   3.164  0.0005  0.3707  0.5611
 5625SOL    HW128334   1.437   0.534   3.130  1.9535  2.8470  0.5332
 5625SOL    HW228335   1.329   0.545   3.240  0.3076  0.8827  1.0129
 5626SOL     OW28336   1.841   4.355   0.773  0.1654  0.6412  0.4521
 5626SOL    HW128337   1.817   4.447   0.758  0.8559  0.7274 -0.1190
 5626SOL    HW228338   1.899   4.374   0.847  0.8804  2.3121 -0.5446
 5627SOL     OW28339   3.423   1.227   2.382 -0.7392  0.8687 -0.3428
 5627SOL    HW128340   3.345   1.225   2.327 -0.4045 -0.3238 -0.7747
 5627SOL    HW228341   3.486   1.258   2.316  0.7583 -0.0600  0.6357
 5628SOL     OW28342   4.360   3.564   6.568  0.1011  0.4855  0.0983
 5628SOL    HW128343   4.387   3.600   6.484 -1.1675 -0.1419 -0.5804
 5628SOL    HW228344   4.376   3.472   6.549  0.4239  0.1838  1.8529
 5629SOL     OW28345   3.983   3.795   6.151 -0.0416  0.2854  0.2509
 5629SOL    HW128346   3.989   3.722   6.213 -2.3727  0.2568  0.4371
 5629SOL    HW228347   4.063   3.784   6.099  0.4598 -0.5605  1.1966
 5630SOL     OW28348   3.522   4.315   1.535  0.1084 -0.3781  0.1849
 5630SOL    HW128349   3.583   4.386   1.513  0.2273 -0.5493 -0.0377
 5630SOL    HW228350   3.582   4.242   1.549  0.8001  0.5392  1.9986
 5631SOL     OW28351   3.606   2.760   6.448  0.1003  0.3065  0.2079
 5631SOL    HW128352   3.638   2.771   6.358  0.2894  2.1669  0.5067
 5631SOL    HW228353   3.522   2.714   6.440 -1.2966  3.0172 -0.5141
 5632SOL     OW28354   2.917   3.480  11.880 -0.2942 -0.2018 -0.0164
 5632SOL    HW128355   3.000   3.458  11.922 -0.4121 -1.1814 -0.2953
 5632SOL    HW228356   2.941   3.442  11.796 -1.5131 -1.4237  0.1969
 5633SOL     OW28357   3.249   1.529   7.883  0.3285 -0.3185  0.7427
 5633SOL    HW128358   3.194   1.549   7.807  0.0414  0.3171  1.1175
 5633SOL    HW228359   3.192   1.478   7.940 -1.2438 -1.6368 -1.9999
 5634SOL     OW28360   3.518   1.915   9.426  0.2822  1.2108 -0.2694
 5634SOL    HW128361   3.527   1.916   9.521  0.9278  1.7290 -0.3296
 5634SOL    HW228362   3.439   1.969   9.422 -0.8334 -0.4806 -1.1631
 5635SOL     OW28363   3.618   3.207   2.661  0.1189  0.4910  0.4203
 5635SOL    HW128364   3.610   3.179   2.570 -1.1373 -0.9047  0.9461
 5635SOL    HW228365   3.528   3.197   2.692 -0.0648  0.4756 -0.1207
 5636SOL     OW28366   3.909   0.861   3.225  0.5411 -1.1127  0.5957
 5636SOL    HW128367   3.868   0.795   3.281  0.6819  0.3806  2.4889
 5636SOL    HW228368   3.995   0.826   3.202  0.4501 -2.2456  1.9868
 5637SOL     OW28369   2.129   4.207   7.870 -0.4653  0.6858 -0.7026
 5637SOL    HW128370   2.048   4.197   7.919  0.0820 -0.2055  0.0375
 5637SOL    HW228371   2.187   4.248   7.934  0.8535 -3.5982  0.8494
 5638SOL     OW28372   1.394   4.421   7.415 -0.9820 -0.4060  0.1981
 5638SOL    HW128373   1.488   4.411   7.430 -0.8282  0.7812  0.0060
 5638SOL    HW228374   1.390   4.513   7.439  1.5074  0.6517 -3.4294
 5639SOL     OW28375   0.633   2.444   6.634  0.0835 -0.3124  0.4112
 5639SOL    HW128376   0.544   2.413   6.650 -1.2491  3.9575  1.2240
 5639SOL    HW228377   0.662   2.359   6.600 -1.3186 -0.5138 -0.3011
 5640SOL     OW28378   0.770   4.566   9.445  0.0455 -0.3022 -0.3995
 5640SOL    HW128379   0.709   4.625   9.490  0.9495  0.3224 -0.0046
 5640SOL    HW228380   0.780   4.613   9.362  1.1317 -0.5783 -0.4232
 5641SOL     OW28381   2.632   2.647   2.036 -0.1419  0.4572 -0.0328
 5641SOL    HW128382   2.568   2.656   2.106  0.5353 -2.0118  0.9054
 5641SOL    HW228383   2.570   2.669   1.967 -0.7129 -1.4548 -0.1007
 5642SOL     OW28384   0.650   0.226   5.139  0.0102 -0.0995  0.2422
 5642SOL    HW128385   0.725   0.283   5.156 -0.3149  0.5853 -0.6087
 5642SOL    HW228386   0.681   0.152   5.087  0.0154 -0.3685  0.6248
 5643SOL     OW28387   3.374   0.123  14.732 -0.2217 -0.5071 -0.2010
 5643SOL    HW128388   3.445   0.187  14.728 -0.9769  0.4684  2.0832
 5643SOL    HW228389   3.398   0.092  14.645 -2.2071 -1.7228 -0.2972
 5644SOL     OW28390   4.041   4.438   2.899  0.0723  0.2502 -0.1179
 5644SOL    HW128391   4.033   4.370   2.966  0.9333  0.3262  0.0697
 5644SOL    HW228392   4.130   4.468   2.920 -0.3567 -0.1198  2.3146
 5645SOL     OW28393   4.485   2.265   3.819 -0.2764  0.4171 -0.4101
 5645SOL    HW128394   4.452   2.351   3.844 -1.4759  0.5985 -2.5632
 5645SOL    HW228395   4.438   2.215   3.885  1.4661 -0.8401 -0.1366
 5646SOL     OW28396   2.211   2.331  17.110  0.1934  0.0084 -0.1565
 5646SOL    HW128397   2.263   2.408  17.134  0.1066 -0.1759  0.6462
 5646SOL    HW228398   2.159   2.379  17.046  1.9763  2.0184 -0.0883
 5647SOL     OW28399   4.332   2.600  10.047  0.2076 -0.5043 -0.1514
 5647SOL    HW128400   4.281   2.575   9.970 -2.0983 -0.4805  1.3696
 5647SOL    HW228401   4.280   2.674  10.080 -0.5200 -0.5865 -1.0944
 5648SOL     OW28402   2.591   4.358   8.359  0.4455  0.4532  0.3754
 5648SOL    HW128403   2.550   4.336   8.442  0.5787  1.1646  0.6320
 5648SOL    HW228404   2.615   4.270   8.330  0.8660  0.9528 -0.7979
 5649SOL     OW28405   4.699   4.554   8.904 -0.1531  0.9073 -0.7809
 5649SOL    HW128406   0.042   4.537   8.835 -0.4357 -1.3894 -0.4781
 5649SOL    HW228407   4.642   4.614   8.855 -1.0774  0.5598 -0.1244
 5650SOL     OW28408   0.110   3.899   0.062  0.0324  0.0076 -0.0772
 5650SOL    HW128409   0.174   3.868   0.126 -1.5184  1.0970  2.0132
 5650SOL    HW228410   0.161   3.888  17.669 -0.0357  0.6567 -0.2082
 5651SOL     OW28411   1.505   0.883   8.346  0.3408  0.4629 -0.1492
 5651SOL    HW128412   1.597   0.894   8.320  0.6470 -1.6335  0.0615
 5651SOL    HW228413   1.478   0.834   8.268  0.2994 -1.3824  1.0089
 5652SOL     OW28414   3.145   1.471   8.793 -0.1092  0.0583  0.4026
 5652SOL    HW128415   3.075   1.504   8.849 -0.1506  1.2048 -0.3320
 5652SOL    HW228416   3.219   1.514   8.836  1.8971 -1.5643 -1.4315
 5653SOL     OW28417   1.322   3.738  10.732 -0.1307 -0.3096 -0.2757
 5653SOL    HW128418   1.378   3.684  10.676  1.6989  0.5082  0.7482
 5653SOL    HW228419   1.235   3.718  10.698  0.1207 -1.6046 -0.1570
 5654SOL     OW28420   3.682   1.675   3.918  0.7942 -0.0070  0.0508
 5654SOL    HW128421   3.714   1.738   3.853 -2.0048  0.1163 -1.2420
 5654SOL    HW228422   3.771   1.643   3.932 -0.3873 -2.4926  1.8006
 5655SOL     OW28423   4.004   1.964   4.143  0.2243  0.1331  0.2947
 5655SOL    HW128424   4.057   1.907   4.199  2.4994  1.3564 -0.6387
 5655SOL    HW228425   4.055   1.974   4.063  1.6987  2.8480  1.5980
 5656SOL     OW28426   1.653   0.900   5.665 -0.3727  0.2547  0.0830
 5656SOL    HW128427   1.725   0.840   5.643 -0.9482 -1.0886  1.9124
 5656SOL    HW228428   1.576   0.862   5.624  0.9892 -1.3282 -1.0364
 5657SOL     OW28429   1.026   3.303   0.588  0.3963 -0.4695 -0.1518
 5657SOL    HW128430   1.059   3.245   0.519 -1.2534 -1.7106  0.0945
 5657SOL    HW228431   0.990   3.377   0.539 -1.1972 -0.6254  0.7830
 5658SOL     OW28432   0.573   0.396  10.067  0.1071  0.6956 -0.0252
 5658SOL    HW128433   0.478   0.395  10.077  0.5594 -4.5089  3.5736
 5658SOL    HW228434   0.588   0.485  10.100  0.0673  0.9407 -0.6625
 5659SOL     OW28435   0.116   2.180   8.580  0.0800 -0.2008 -0.1050
 5659SOL    HW128436   0.050   2.168   8.648 -0.0843  0.4041 -0.1564
 5659SOL    HW228437   0.137   2.270   8.604  0.2013  0.0036 -0.9810
 5660SOL     OW28438   1.845   2.169   1.676  0.1337  0.3084 -0.1321
 5660SOL    HW128439   1.902   2.244   1.662 -2.1322  2.2525  0.9845
 5660SOL    HW228440   1.804   2.218   1.747 -0.3223 -1.2550  0.7054
 5661SOL     OW28441   2.910   1.381   7.550  0.0285 -0.8758 -0.5235
 5661SOL    HW128442   2.975   1.420   7.491  0.9607 -0.2663  0.8981
 5661SOL    HW228443   2.827   1.422   7.527  0.9305 -0.2337 -2.6542
 5662SOL     OW28444   1.505   3.423  17.015  0.2329  0.4272 -0.3365
 5662SOL    HW128445   1.580   3.389  16.967 -0.4189 -0.3000 -0.8342
 5662SOL    HW228446   1.544   3.468  17.091 -2.2108 -1.0823  1.8294
 5663SOL     OW28447   2.485   3.737   0.888 -0.1489 -0.7381 -0.0924
 5663SOL    HW128448   2.565   3.756   0.936  0.6488 -1.7097 -1.0353
 5663SOL    HW228449   2.476   3.817   0.835 -0.8578 -1.9150 -1.7633
 5664SOL     OW28450   2.722   1.165   8.685  0.1942 -0.1984 -0.3462
 5664SOL    HW128451   2.797   1.214   8.654  0.5620 -1.2577 -1.1242
 5664SOL    HW228452   2.760   1.084   8.720  0.1683  0.2742  0.7607
 5665SOL     OW28453   1.242   1.079   7.700 -0.2591  0.0081 -0.0476
 5665SOL    HW128454   1.305   1.113   7.764 -1.0170  1.2955  0.0310
 5665SOL    HW228455   1.249   0.986   7.720  0.4898 -0.1744 -1.1211
 5666SOL     OW28456   4.007   2.150   3.441  0.1816 -0.1710  0.9275
 5666SOL    HW128457   3.998   2.202   3.520  1.3720 -1.0796  1.6664
 5666SOL    HW228458   3.962   2.208   3.380  1.8879 -1.3810 -1.5068
 5667SOL     OW28459   1.920   3.475   7.419  0.3830 -0.1491 -0.1007
 5667SOL    HW128460   1.917   3.421   7.340  0.1523 -0.8407  0.3904
 5667SOL    HW228461   1.841   3.528   7.416  1.4615  1.3953 -1.3552
 5668SOL     OW28462   4.259   1.053  13.234  0.1153 -0.5232  0.1005
 5668SOL    HW128463   4.200   1.116  13.276  0.4026  0.9848 -1.7430
 5668SOL    HW228464   4.298   1.105  13.163 -0.3270 -0.2907  0.0268
 5669SOL     OW28465   3.304   2.051   7.903  0.1464  0.0960  0.3621
 5669SOL    HW128466   3.297   1.956   7.893  0.7690  0.3967 -2.6691
 5669SOL    HW228467   3.256   2.076   7.824 -0.0870 -1.4693  0.0009
 5670SOL     OW28468   1.431   0.659  14.330 -0.1375 -0.5677  0.2001
 5670SOL    HW128469   1.381   0.715  14.389  0.0626 -1.2046  0.9678
 5670SOL    HW228470   1.480   0.606  14.392 -0.2881 -0.0153  0.7870
 5671SOL     OW28471   0.681   2.246  14.493  0.0946 -0.1055  0.6716
 5671SOL    HW128472   0.681   2.230  14.399 -0.3100 -5.5172  1.5632
 5671SOL    HW228473   0.620   2.187  14.538  1.9002 -3.0264 -0.7088
 5672SOL     OW28474   2.947   1.075  16.160  0.7070  0.1275 -0.3260
 5672SOL    HW128475   2.947   1.149  16.099  2.0796 -0.4873 -1.0777
 5672SOL    HW228476   2.988   1.004  16.111  2.2248  1.3404 -0.8077
 5673SOL     OW28477   3.817   3.943  16.838 -0.4497  0.7746  0.1599
 5673SOL    HW128478   3.855   3.857  16.855  2.3351  1.6700 -1.6227
 5673SOL    HW228479   3.879   4.006  16.874  0.8055  0.6921 -1.8309
 5674SOL     OW28480   2.365   1.469   2.721 -0.0482  0.1681  0.6471
 5674SOL    HW128481   2.288   1.428   2.680 -0.6899  0.9099  1.1046
 5674SOL    HW228482   2.373   1.414   2.799  1.0508  1.8089  1.6897
 5675SOL     OW28483   1.624   2.838   9.305  0.4130 -0.1959 -0.7467
 5675SOL    HW128484   1.680   2.829   9.382  0.0713 -1.2883 -0.6235
 5675SOL    HW228485   1.570   2.759   9.307 -1.0988  0.9092  1.1196
 5676SOL     OW28486   1.691   2.895   3.724 -0.1192  0.0712  0.4174
 5676SOL    HW128487   1.657   2.899   3.813  0.1728 -0.2838  0.5455
 5676SOL    HW228488   1.616   2.919   3.669  0.5151 -0.2611 -0.5990
 5677SOL     OW28489   0.351   2.331   0.147 -0.1731  0.0589  0.5477
 5677SOL    HW128490   0.274   2.386   0.130 -0.8166 -0.7168  0.9457
 5677SOL    HW228491   0.297   2.260   0.182 -0.6464  0.3508  0.4121
 5678SOL     OW28492   0.994   3.194  12.163  0.3599 -0.4020  0.0983
 5678SOL    HW128493   1.065   3.167  12.104  0.1257  2.1026 -1.3744
 5678SOL    HW228494   1.009   3.288  12.147  0.3303 -0.9874 -3.4384
 5679SOL     OW28495   0.031   3.375   1.590  0.6362 -0.4923  0.2314
 5679SOL    HW128496   0.109   3.410   1.546 -0.4670 -2.0840 -3.0072
 5679SOL    HW228497   0.058   3.314   1.658  1.7769  0.7696  0.9106
 5680SOL     OW28498   2.701   2.310   5.150  0.3090  0.2423 -0.0217
 5680SOL    HW128499   2.710   2.216   5.162 -0.1903  0.0541 -1.1505
 5680SOL    HW228500   2.785   2.332   5.111  1.3243 -0.9271  1.4882
 5681SOL     OW28501   0.188   0.223   5.977 -0.0344  0.0642  0.5052
 5681SOL    HW128502   0.256   0.289   5.961 -0.7104  0.5222 -0.5026
 5681SOL    HW228503   0.162   0.240   6.068 -1.5712  0.4629 -0.0208
 5682SOL     OW28504   0.643   3.084   6.805 -0.1175 -0.0577 -0.6879
 5682SOL    HW128505   0.564   3.044   6.769 -0.8526 -1.0507  2.0313
 5682SOL    HW228506   0.702   3.029   6.754  0.9275  0.8345 -0.4469
 5683SOL     OW28507   3.338   4.492   3.320  0.5574  0.3591  0.0764
 5683SOL    HW128508   3.369   4.557   3.256 -0.7921  0.0939 -0.8515
 5683SOL    HW228509   3.418   4.500   3.372  0.0338  3.1354  0.4859
 5684SOL     OW28510   0.182   2.311   3.282 -0.4305 -0.0738  0.5108
 5684SOL    HW128511   0.206   2.313   3.375 -3.4440 -0.5215  1.2979
 5684SOL    HW228512   0.137   2.395   3.284 -0.9239 -0.2890 -1.6787
 5685SOL     OW28513   4.153   3.148  14.372 -0.3870 -0.3502 -0.1869
 5685SOL    HW128514   4.191   3.183  14.291 -1.7683  1.1946 -0.1616
 5685SOL    HW228515   4.229   3.097  14.401 -0.9339 -0.6684  0.6948
 5686SOL     OW28516   1.897   2.372   3.471 -0.1660 -0.2096  0.0322
 5686SOL    HW128517   1.878   2.303   3.535 -1.6478 -0.2612 -0.4806
 5686SOL    HW228518   1.940   2.319   3.403 -2.1230  0.4143 -1.7007
 5687SOL     OW28519   0.785   4.422   5.017  0.3152 -0.0650 -0.8796
 5687SOL    HW128520   0.791   4.341   5.066  3.1283  1.6372  1.5708
 5687SOL    HW228521   0.693   4.428   5.044  0.2519  3.1571 -1.7650
 5688SOL     OW28522   3.407   3.190   3.564 -0.4398 -0.0349  0.9683
 5688SOL    HW128523   3.365   3.243   3.632 -1.3437  0.1973  0.2244
 5688SOL    HW228524   3.483   3.245   3.542 -1.0033  1.4247  2.7069
 5689SOL     OW28525   0.723   0.670   3.097  0.4423 -0.5505 -0.1368
 5689SOL    HW128526   0.775   0.708   3.025  0.9776 -2.1176 -0.5922
 5689SOL    HW228527   0.768   0.586   3.106  0.6975 -0.4479 -0.4303
 5690SOL     OW28528   4.386   2.990   4.995 -0.0305 -0.0378  1.0320
 5690SOL    HW128529   4.421   2.951   5.075 -0.2775  0.1887  1.2530
 5690SOL    HW228530   4.467   3.028   4.962 -0.5346 -1.2703 -1.5774
 5691SOL     OW28531   3.415   2.520   4.452  0.3286 -0.0648 -0.1302
 5691SOL    HW128532   3.407   2.456   4.381  3.1497 -1.8098  1.1403
 5691SOL    HW228533   3.427   2.607   4.414  0.1895  0.3753  0.8291
 5692SOL     OW28534   0.168   1.272   5.600 -0.0014  0.6349  0.0162
 5692SOL    HW128535   0.089   1.253   5.651  0.5250 -1.9274 -0.1336
 5692SOL    HW228536   0.231   1.261   5.672  0.8844  1.1216 -0.6918
 5693SOL     OW28537   3.506   0.814  17.435  0.0961 -0.2205 -0.3933
 5693SOL    HW128538   3.486   0.725  17.405  0.7058  0.1618 -1.9186
 5693SOL    HW228539   3.588   0.833  17.390  0.5005 -0.1093  0.3904
 5694SOL     OW28540   3.346   2.631   6.438 -0.3570  0.1868  0.4538
 5694SOL    HW128541   3.327   2.631   6.532 -2.3798 -3.2125  0.0610
 5694SOL    HW228542   3.327   2.540   6.413 -0.0970  0.8309 -2.0456
 5695SOL     OW28543   2.801   0.630   8.318 -0.3420 -0.5100 -0.2983
 5695SOL    HW128544   2.837   0.564   8.258  0.8709  0.5718 -0.7647
 5695SOL    HW228545   2.873   0.692   8.313 -0.6800 -0.0969 -0.0452
 5696SOL     OW28546   3.454   1.366  10.250  0.3741 -0.2605  0.0751
 5696SOL    HW128547   3.416   1.407  10.173 -0.2513  1.4559  1.3110
 5696SOL    HW228548   3.387   1.297  10.258 -0.3098  0.5314  1.1684
 5697SOL     OW28549   1.883   0.463   5.919  0.0169  0.1982  0.6315
 5697SOL    HW128550   1.808   0.519   5.901  1.0315  0.8637 -1.4807
 5697SOL    HW228551   1.850   0.373   5.910  2.1635 -0.4030 -1.4227
 5698SOL     OW28552   1.339   0.943   5.856 -0.2212 -0.3418 -0.2034
 5698SOL    HW128553   1.362   0.894   5.777  2.3507  0.7083 -0.1129
 5698SOL    HW228554   1.416   0.999   5.850 -0.3071  0.2873  4.6748
 5699SOL     OW28555   1.994   3.663   2.684  0.1421 -0.5817  0.0429
 5699SOL    HW128556   2.008   3.637   2.593 -0.6462 -3.4737  0.7465
 5699SOL    HW228557   2.002   3.758   2.673 -1.2725 -0.3573  0.9046
 5700SOL     OW28558   1.571   0.456   1.217  0.4044 -0.8777 -0.3011
 5700SOL    HW128559   1.556   0.390   1.285  0.1489 -0.5835 -0.0729
 5700SOL    HW228560   1.632   0.521   1.252 -2.3463  1.2162  0.5695
 5701SOL     OW28561   1.533   1.593   4.955  0.1316 -0.5094  0.2892
 5701SOL    HW128562   1.624   1.603   4.928 -0.2473 -0.7760 -1.0865
 5701SOL    HW228563   1.530   1.506   4.917  0.7768 -1.2886  2.0041
 5702SOL     OW28564   3.876   4.530   3.520  0.2357  0.1443  0.3671
 5702SOL    HW128565   3.900   4.576   3.601  0.6233 -1.0333  0.9211
 5702SOL    HW228566   3.947   4.466   3.524 -1.6480 -1.9450  0.2330
 5703SOL     OW28567   2.836   0.034   3.025  0.1645 -0.2375  0.3190
 5703SOL    HW128568   2.743   0.032   3.002  0.1287 -1.6992  0.6116
 5703SOL    HW228569   2.851   4.665   3.053 -0.1609 -0.3443  0.1490
 5704SOL     OW28570   4.208   2.783   2.369  0.0092 -0.3214  0.0414
 5704SOL    HW128571   4.115   2.775   2.348  0.3448 -0.6533 -1.3004
 5704SOL    HW228572   4.248   2.775   2.283  2.3602  0.9325  1.0118
 5705SOL     OW28573   2.807   1.367  16.234  0.0945  0.3251 -0.4005
 5705SOL    HW128574   2.773   1.340  16.149 -0.0401  0.8338 -0.5110
 5705SOL    HW228575   2.731   1.356  16.291  2.5117 -1.9694  2.3659
 5706SOL     OW28576   0.864   3.224   3.246 -0.1920 -0.2321  0.2511
 5706SOL    HW128577   0.843   3.232   3.153  0.9331  1.3571  0.1388
 5706SOL    HW228578   0.781   3.252   3.284 -0.8507 -1.2008 -0.4828
 5707SOL     OW28579   3.745   4.409   4.345 -0.1274 -0.3225  0.5876
 5707SOL    HW128580   3.689   4.472   4.390  0.2088 -0.4562  1.1988
 5707SOL    HW228581   3.808   4.468   4.304 -0.1996 -0.8048 -0.2161
 5708SOL     OW28582   1.007   0.452   1.865 -0.8210 -0.1261  0.2326
 5708SOL    HW128583   1.068   0.520   1.835  0.6050 -1.0956  0.9289
 5708SOL    HW228584   1.064   0.407   1.927 -0.1510 -0.8661 -0.9344
 5709SOL     OW28585   0.152   1.456   4.831  0.0234  0.0905 -0.0053
 5709SOL    HW128586   0.153   1.458   4.735 -0.5901 -0.1717 -0.0190
 5709SOL    HW228587   0.229   1.511   4.847  0.7367 -0.6958 -0.7359
 5710SOL     OW28588   0.965   2.226   7.830 -0.0537  0.2190 -0.2898
 5710SOL    HW128589   0.983   2.319   7.843 -2.2149  0.4944  0.8384
 5710SOL    HW228590   0.883   2.213   7.877 -1.6050  0.1583 -3.0313
 5711SOL     OW28591   4.238   1.031   5.330 -0.1126 -0.6750  0.8248
 5711SOL    HW128592   4.164   0.976   5.358 -1.6584  1.6869  1.3644
 5711SOL    HW228593   4.216   1.057   5.241 -2.4350 -2.6840  0.8112
 5712SOL     OW28594   4.179   1.959   3.555  0.5369  0.7898  0.2235
 5712SOL    HW128595   4.109   2.006   3.509 -0.5664 -0.4425  0.6528
 5712SOL    HW228596   4.246   2.027   3.547 -1.8532  3.4745  3.0307
 5713SOL     OW28597   4.188   0.420   4.099 -0.2067 -0.3850  0.3351
 5713SOL    HW128598   4.199   0.347   4.159 -0.0094 -1.0625 -0.5309
 5713SOL    HW228599   4.268   0.472   4.113  0.0913 -0.6911 -0.2629
 5714SOL     OW28600   0.642   0.630   5.111  0.1365  0.2048 -0.1942
 5714SOL    HW128601   0.713   0.660   5.054  0.9084 -1.1104  0.0600
 5714SOL    HW228602   0.688   0.615   5.193 -2.3952 -2.1409  0.8105
 5715SOL     OW28603   3.300   3.948   8.360  0.4500  0.7643 -0.3248
 5715SOL    HW128604   3.363   3.884   8.326  0.4442  0.4903  0.1835
 5715SOL    HW228605   3.217   3.904   8.344 -0.1915  2.1238 -0.7707
 5716SOL     OW28606   3.062   1.805  13.067  0.3138 -0.0690  0.3236
 5716SOL    HW128607   3.059   1.724  13.017 -1.6628 -0.4151  0.9835
 5716SOL    HW228608   3.124   1.854  13.013  1.0049 -0.3821  0.8305
 5717SOL     OW28609   2.810   1.245  17.433 -0.2338  0.0735 -0.3781
 5717SOL    HW128610   2.759   1.166  17.415 -1.8969  0.8875  0.7468
 5717SOL    HW228611   2.847   1.274  17.350 -0.6312 -1.5320 -1.1123
 5718SOL     OW28612   0.626   3.033   4.973  0.4298  0.0506 -0.6258
 5718SOL    HW128613   0.629   2.993   5.059 -1.4462  1.5829  0.1640
 5718SOL    HW228614   0.708   2.999   4.938  0.1217 -1.0235 -0.2888
 5719SOL     OW28615   3.316   0.397   3.152  0.1112  0.5245 -0.0622
 5719SOL    HW128616   3.304   0.336   3.080  1.7207 -0.5147  0.5438
 5719SOL    HW228617   3.403   0.363   3.173  0.5506  1.3879 -0.4678
 5720SOL     OW28618   4.457   2.825   6.238  0.1357  0.2097  0.2396
 5720SOL    HW128619   4.399   2.881   6.289  1.4145  1.7815  0.0016
 5720SOL    HW228620   4.413   2.840   6.154 -2.2098 -0.7582  1.2992
 5721SOL     OW28621   1.079   0.274   6.348 -0.0835  0.1647  0.3808
 5721SOL    HW128622   0.996   0.227   6.340 -0.0571  0.3430 -0.9937
 5721SOL    HW228623   1.118   0.260   6.262 -0.0768  0.9186  0.2670
 5722SOL     OW28624   4.104   3.229   9.498 -0.5054  0.3574 -0.6892
 5722SOL    HW128625   4.130   3.269   9.415  1.6663  0.8240  0.2069
 5722SOL    HW228626   4.036   3.166   9.474  0.2806 -1.0282  0.6611
 5723SOL     OW28627   1.836   2.189   3.674  0.0628  0.1345 -0.7596
 5723SOL    HW128628   1.790   2.219   3.753 -1.8101 -3.0877 -0.5914
 5723SOL    HW228629   1.804   2.103   3.647 -1.2085 -0.1248  1.5419
 5724SOL     OW28630   1.395   3.067   5.660 -0.0153 -0.7197 -0.1605
 5724SOL    HW128631   1.329   3.045   5.595 -0.8376  0.0725  0.4108
 5724SOL    HW228632   1.402   3.162   5.658  0.7323 -0.7213  2.0254
 5725SOL     OW28633   1.882   1.596   8.046  0.4947 -0.4497 -0.1120
 5725SOL    HW128634   1.966   1.626   8.012 -0.3891  1.9532 -0.1498
 5725SOL    HW228635   1.910   1.565   8.132  0.5278  0.4919  0.2127
 5726SOL     OW28636   2.938   2.214  16.555  0.2241 -0.1459 -0.1918
 5726SOL    HW128637   2.855   2.181  16.591 -0.6312  1.7952 -0.3505
 5726SOL    HW228638   2.956   2.171  16.472  0.1432 -0.5266 -0.0135
 5727SOL     OW28639   4.542   3.364  16.152 -0.6460 -0.0741  0.4382
 5727SOL    HW128640   4.563   3.434  16.091  0.9633 -2.6262 -1.9529
 5727SOL    HW228641   4.486   3.412  16.213  1.1831 -0.6794  2.5836
 5728SOL     OW28642   0.716   1.137   3.955  0.2294  0.1759  0.5905
 5728SOL    HW128643   0.803   1.148   3.916  0.0870  0.7950  0.4441
 5728SOL    HW228644   0.703   1.051   3.915 -1.1700  0.9170 -0.5172
 5729SOL     OW28645   4.545   4.492   6.900 -0.1260  0.1600 -0.2252
 5729SOL    HW128646   4.600   4.502   6.977  0.6272 -1.6187 -0.5342
 5729SOL    HW228647   4.609   4.527   6.839 -2.2252  2.2456 -1.2330
 5730SOL     OW28648   3.648   2.825   1.435  0.5984 -0.0889  0.7069
 5730SOL    HW128649   3.590   2.762   1.390 -1.1348  1.9397  0.1023
 5730SOL    HW228650   3.672   2.778   1.515 -0.6908 -1.5602  0.2255
 5731SOL     OW28651   2.094   2.736  16.052  0.2328 -0.0106 -0.2219
 5731SOL    HW128652   2.049   2.752  16.135 -0.2913  1.6874 -0.8306
 5731SOL    HW228653   2.180   2.704  16.080 -0.5654 -1.7392  0.2128
 5732SOL     OW28654   1.086   2.539   3.594 -0.6299 -0.3915 -0.5700
 5732SOL    HW128655   1.008   2.523   3.539  0.5598 -0.7745 -2.1572
 5732SOL    HW228656   1.045   2.572   3.673  0.4883  1.2278 -0.6875
 5733SOL     OW28657   2.995   4.324  15.904 -0.0520 -0.0348  0.4168
 5733SOL    HW128658   2.977   4.274  15.825 -1.9165 -0.1306  0.8888
 5733SOL    HW228659   2.912   4.372  15.909  0.6355  1.2233 -0.2339
 5734SOL     OW28660   3.425   3.450   1.229 -0.3618 -0.0234  0.0723
 5734SOL    HW128661   3.398   3.392   1.300  0.2814 -0.8324 -0.3554
 5734SOL    HW228662   3.388   3.534   1.258  2.4304  2.0420 -2.4393
 5735SOL     OW28663   2.026   0.437   0.206 -0.5355  0.3619  0.2051
 5735SOL    HW128664   2.030   0.528   0.176 -1.1550  0.5696  0.7540
 5735SOL    HW228665   2.055   0.388   0.129  0.7835  0.7151  0.4769
 5736SOL     OW28666   3.054   2.169  16.255 -0.2589  0.2226  0.6087
 5736SOL    HW128667   3.101   2.086  16.251 -2.6166 -1.1344  1.0122
 5736SOL    HW228668   3.130   2.219  16.287  0.4996 -0.6351  0.1538
 5737SOL     OW28669   0.987   1.898  16.778  0.0870 -0.5643  0.0260
 5737SOL    HW128670   0.916   1.835  16.794 -2.9890  2.8090 -0.4339
 5737SOL    HW228671   0.951   1.971  16.828  1.2348  0.1290 -0.1520
 5738SOL     OW28672   4.709   2.792  13.253  0.0795 -0.1214 -0.6559
 5738SOL    HW128673   0.076   2.828  13.254 -0.5113  1.3101  0.5385
 5738SOL    HW228674   4.705   2.722  13.318  0.2939 -0.5692 -1.1296
 5739SOL     OW28675   1.077   0.268   9.299  0.0101  0.2635  0.5934
 5739SOL    HW128676   1.014   0.336   9.276  1.7538  0.5948 -3.1696
 5739SOL    HW228677   1.158   0.318   9.302  0.5356 -0.5270 -0.4441
 5740SOL     OW28678   4.586   0.463  11.679  0.1803 -0.5807 -1.1014
 5740SOL    HW128679   4.629   0.469  11.764 -0.7205 -3.5493 -0.4280
 5740SOL    HW228680   4.643   0.526  11.634  0.5596  0.5015  0.9070
 5741SOL     OW28681   1.316   4.101   5.333 -0.0821  0.2006 -0.1562
 5741SOL    HW128682   1.337   4.130   5.422  2.5222 -3.3416  0.3985
 5741SOL    HW228683   1.306   4.182   5.284 -0.9490  0.5925  0.6640
 5742SOL     OW28684   1.399   0.447   7.498 -0.1416 -0.2426  0.3362
 5742SOL    HW128685   1.326   0.500   7.531 -0.2402 -1.3921  1.9881
 5742SOL    HW228686   1.367   0.428   7.410 -2.4217 -2.4897  1.6177
 5743SOL     OW28687   4.559   3.515   0.996 -0.1298  0.2547  0.1328
 5743SOL    HW128688   4.554   3.534   1.090 -1.6713  1.9441 -0.2823
 5743SOL    HW228689   4.623   3.444   0.994  1.4765  1.6561  1.9286
 5744SOL     OW28690   1.796   1.617   4.875 -0.2162  0.1756  0.1096
 5744SOL    HW128691   1.868   1.650   4.929 -1.2722  1.5566  0.6798
 5744SOL    HW228692   1.842   1.579   4.801 -1.3767  1.2721 -1.1652
 5745SOL     OW28693   3.289   2.447  13.777  0.0041 -0.5075  0.3870
 5745SOL    HW128694   3.264   2.395  13.853 -0.4923 -3.1795 -1.5945
 5745SOL    HW228695   3.299   2.382  13.708  0.4866 -0.2433  0.2039
 5746SOL     OW28696   0.614   3.122  11.305 -0.7561  0.3628  0.2988
 5746SOL    HW128697   0.611   3.193  11.241  1.8251  0.9765  0.8295
 5746SOL    HW228698   0.590   3.048  11.250  0.8827 -0.9100  1.2896
 5747SOL     OW28699   3.043   4.246   8.422  0.2996 -0.0342 -0.4112
 5747SOL    HW128700   3.137   4.235   8.438  0.3200 -0.6608 -0.9581
 5747SOL    HW228701   3.018   4.326   8.469  2.4560  0.8896 -0.8290
 5748SOL     OW28702   4.671   0.277   4.687  0.4209  0.0337 -0.4043
 5748SOL    HW128703   0.004   0.259   4.611  0.7327  2.5506 -0.7661
 5748SOL    HW228704   4.717   0.344   4.737 -0.8799 -1.3571  2.6634
 5749SOL     OW28705   1.258   4.416  15.341 -0.5694 -0.1784 -0.4044
 5749SOL    HW128706   1.348   4.430  15.311 -1.1809 -0.6974 -2.4637
 5749SOL    HW228707   1.265   4.430  15.436  1.3135 -0.6202 -0.4866
 5750SOL     OW28708   2.926   0.093   3.477 -0.1502  0.2408  0.7271
 5750SOL    HW128709   2.927   0.129   3.566 -1.3981 -0.0901  0.8731
 5750SOL    HW228710   2.955   0.003   3.491  1.5441  0.9045  1.5854
 5751SOL     OW28711   3.636   3.509   7.753  0.3390  0.1170  0.7012
 5751SOL    HW128712   3.695   3.580   7.729 -0.7703  0.5591 -0.7555
 5751SOL    HW228713   3.554   3.547   7.721  0.8533  1.4024  0.9066
 5752SOL     OW28714   1.957   2.977  11.211  0.1409  0.2139  0.9822
 5752SOL    HW128715   1.988   2.901  11.259 -1.1193 -1.5198 -0.9212
 5752SOL    HW228716   1.862   2.964  11.221 -0.0335  0.8282  0.1972
 5753SOL     OW28717   4.542   0.684  10.953 -0.3820 -0.0070  0.5390
 5753SOL    HW128718   4.447   0.677  10.950 -0.4237  1.2767 -0.6702
 5753SOL    HW228719   4.555   0.651  11.042  1.1877  1.4311  0.8487
 5754SOL     OW28720   2.420   1.880   0.299 -0.9546  0.3025 -0.0808
 5754SOL    HW128721   2.332   1.847   0.314 -0.4784 -1.0777 -0.3616
 5754SOL    HW228722   2.463   1.806   0.257 -0.0099  0.7359  0.1067
 5755SOL     OW28723   2.774   1.112   6.766 -0.1778 -0.3653  0.2112
 5755SOL    HW128724   2.708   1.180   6.781  0.0148 -0.1548  0.1090
 5755SOL    HW228725   2.811   1.151   6.687 -1.6827 -1.4534 -1.0530
 5756SOL     OW28726   2.950   2.113   5.330  0.8129 -0.3805 -0.0020
 5756SOL    HW128727   2.901   2.188   5.363  3.0780  1.6831 -1.2516
 5756SOL    HW228728   2.893   2.039   5.351  0.9776 -0.3020  0.7091
 5757SOL     OW28729   0.304   3.800   4.487 -0.3557  0.0993 -0.4055
 5757SOL    HW128730   0.272   3.715   4.517 -1.6291  0.4805 -0.6871
 5757SOL    HW228731   0.244   3.861   4.531 -0.1275  0.7335 -0.9913
 5758SOL     OW28732   3.217   3.325   2.435  0.0906 -0.1087  0.9040
 5758SOL    HW128733   3.124   3.300   2.427  0.8249 -2.9298  1.1535
 5758SOL    HW228734   3.257   3.254   2.486  2.1312  0.6655  0.3680
 5759SOL     OW28735   0.031   1.929   3.004  0.4738  0.1839  0.3976
 5759SOL    HW128736   0.071   1.963   3.084 -0.8146  0.5433  0.8895
 5759SOL    HW228737   4.682   1.994   2.993  0.7792  0.5106  0.3841
 5760SOL     OW28738   0.168   2.647   6.364  0.2264  0.3766  0.3440
 5760SOL    HW128739   0.110   2.595   6.419 -2.0290  0.5499 -1.8179
 5760SOL    HW228740   0.145   2.630   6.272 -1.6829  1.1013  0.6765
 5761SOL     OW28741   3.536   1.180   3.691  0.1506  0.3262  0.2000
 5761SOL    HW128742   3.602   1.249   3.681 -0.2833  0.2948 -2.9732
 5761SOL    HW228743   3.499   1.180   3.603  0.0049 -2.1859  0.2679
 5762SOL     OW28744   3.814   0.072   0.541  0.4112 -0.0084 -0.3136
 5762SOL    HW128745   3.736   0.045   0.492  0.6721 -0.9674 -0.1953
 5762SOL    HW228746   3.846   0.128   0.470 -0.7066 -0.7618 -1.4250
 5763SOL     OW28747   2.145   4.277   5.436  0.8667  0.4911  0.1836
 5763SOL    HW128748   2.216   4.260   5.498  2.5919 -0.1835 -1.9882
 5763SOL    HW228749   2.111   4.194   5.402 -0.9297  1.2463  0.1804
 5764SOL     OW28750   3.112   2.142   5.100 -0.0603  0.4967 -0.0725
 5764SOL    HW128751   3.052   2.114   5.031 -1.3621  1.6565  0.5950
 5764SOL    HW228752   3.071   2.118   5.183  1.3595 -0.2227  0.4232
 5765SOL     OW28753   2.277   0.716   2.400 -0.5449  0.5379 -0.9448
 5765SOL    HW128754   2.285   0.811   2.395 -2.1746  0.7180 -0.1621
 5765SOL    HW228755   2.333   0.702   2.476 -3.3920  0.6274  1.1578
 5766SOL     OW28756   3.068   3.155  10.975 -0.2634 -0.4768  0.0336
 5766SOL    HW128757   3.011   3.127  11.047 -0.7452 -0.4148 -0.3245
 5766SOL    HW228758   3.019   3.229  10.940 -2.1090 -2.6152 -1.8674
 5767SOL     OW28759   1.346   3.788   5.719  1.0752  0.3312 -0.1031
 5767SOL    HW128760   1.423   3.831   5.682  2.1272  0.0705  1.7892
 5767SOL    HW228761   1.392   3.738   5.787  3.8352 -0.6099 -2.6567
 5768SOL     OW28762   3.550   0.142  14.311 -0.6574  0.0668  0.1202
 5768SOL    HW128763   3.638   0.116  14.284  0.0007  1.2562  1.1569
 5768SOL    HW228764   3.499   0.124  14.231 -1.4026  1.7537  0.2198
 5769SOL     OW28765   3.506   3.172   6.383  0.2646 -0.0254 -0.0966
 5769SOL    HW128766   3.525   3.234   6.313  0.4438 -0.1389 -0.1485
 5769SOL    HW228767   3.413   3.190   6.402  0.1998 -2.2230  1.6427
 5770SOL     OW28768   2.395   3.040   1.116  0.1799  0.6405  0.2784
 5770SOL    HW128769   2.310   3.031   1.159 -0.0393 -0.7359 -0.4794
 5770SOL    HW228770   2.410   2.953   1.081 -1.0753 -0.2161  1.8736
 5771SOL     OW28771   4.665   3.495   3.537 -0.4399 -0.2865 -0.4584
 5771SOL    HW128772   4.617   3.481   3.618 -1.8481  1.8272 -0.9274
 5771SOL    HW228773   4.655   3.590   3.534 -0.8931 -0.3467 -0.8484
 5772SOL     OW28774   0.232   0.943   3.227 -0.3933 -0.2763  0.0035
 5772SOL    HW128775   0.177   0.869   3.254  0.1492 -0.3004  1.0559
 5772SOL    HW228776   0.203   0.952   3.136 -1.6029  2.1917  0.6309
 5773SOL     OW28777   0.375   2.357   9.009  0.3421 -0.5210  0.1453
 5773SOL    HW128778   0.413   2.397   9.087 -1.3301  0.0700  0.6607
 5773SOL    HW228779   0.456   2.322   8.972  0.9460  0.9644  0.0648
 5774SOL     OW28780   0.821   1.951   6.561 -0.1603 -0.5570  0.2325
 5774SOL    HW128781   0.836   1.905   6.479  1.9761 -0.1698  0.4201
 5774SOL    HW228782   0.832   1.880   6.624 -0.6031 -0.4733  0.4082
 5775SOL     OW28783   2.345   3.423   1.210  0.3210 -0.3137  0.5794
 5775SOL    HW128784   2.388   3.502   1.243  2.6735 -1.0317 -0.7856
 5775SOL    HW228785   2.266   3.462   1.173  1.3137  1.0356 -0.0956
 5776SOL     OW28786   4.282   0.618  10.858  0.5064 -0.2607  0.1569
 5776SOL    HW128787   4.229   0.694  10.835  0.0454 -0.7589 -0.4196
 5776SOL    HW228788   4.311   0.591  10.771 -1.8108 -2.0214 -0.0777
 5777SOL     OW28789   2.482   2.566  14.486 -0.3580  0.3181 -0.9211
 5777SOL    HW128790   2.472   2.486  14.434  1.9336 -0.9141  0.5925
 5777SOL    HW228791   2.457   2.535  14.573  0.4752  0.0474 -0.7829
 5778SOL     OW28792   0.930   4.552   5.295  0.1152  0.4720 -0.1630
 5778SOL    HW128793   1.007   4.568   5.241 -0.0513  1.6267 -0.0513
 5778SOL    HW228794   0.918   4.457   5.289  0.6502  0.4787 -1.3838
 5779SOL     OW28795   2.127   1.950   5.269  0.2357 -0.2398 -0.2183
 5779SOL    HW128796   2.171   1.987   5.193 -1.0056  0.9316 -0.3604
 5779SOL    HW228797   2.123   2.020   5.334 -0.4524 -0.5877  0.1212
 5780SOL     OW28798   1.395   2.015   4.063  0.0141 -0.4733  0.2938
 5780SOL    HW128799   1.416   1.933   4.019  0.6835 -0.9508  1.4816
 5780SOL    HW228800   1.440   2.078   4.006 -0.0950 -0.1758  0.5343
 5781SOL     OW28801   3.868   3.280  15.542  0.5623  0.0546 -0.1907
 5781SOL    HW128802   3.874   3.320  15.455 -0.5301 -2.1763 -1.3066
 5781SOL    HW228803   3.949   3.303  15.586 -0.9130  1.0896  1.9454
 5782SOL     OW28804   1.841   1.020   5.271 -0.0188 -0.8292 -0.2762
 5782SOL    HW128805   1.847   0.925   5.268  0.4648 -0.8529  1.9478
 5782SOL    HW228806   1.759   1.039   5.318  1.0043 -0.0753  1.1871
 5783SOL     OW28807   0.255   3.126   2.510 -0.1243  0.0844 -0.3987
 5783SOL    HW128808   0.256   3.039   2.471 -1.4343 -0.1686  0.1578
 5783SOL    HW228809   0.307   3.174   2.445  1.3816 -0.9143  0.0574
 5784SOL     OW28810   2.898   0.360   5.586  0.4581  0.0580 -0.5116
 5784SOL    HW128811   2.803   0.348   5.574  1.0493 -2.8769 -2.3571
 5784SOL    HW228812   2.887   0.445   5.627 -2.1739 -1.8969  2.8755
 5785SOL     OW28813   1.711   2.884   8.704 -0.5064  0.8022 -0.6156
 5785SOL    HW128814   1.657   2.811   8.672  2.0177 -0.7111 -1.4950
 5785SOL    HW228815   1.647   2.953   8.688 -1.2954 -0.1059 -1.3999
 5786SOL     OW28816   1.473   3.150  10.875  0.6765  0.3368  0.0012
 5786SOL    HW128817   1.538   3.182  10.812 -0.5221  0.1479 -1.3450
 5786SOL    HW228818   1.519   3.072  10.904 -0.2734 -0.6001 -1.0177
 5787SOL     OW28819   0.200   2.810   5.662  0.2380 -0.4353 -0.0532
 5787SOL    HW128820   0.219   2.852   5.578 -1.9452 -1.4571 -1.0430
 5787SOL    HW228821   0.105   2.798   5.666  0.1555 -0.2063 -1.2586
 5788SOL     OW28822   4.654   2.204  17.300 -0.1228  0.3336  0.3974
 5788SOL    HW128823   0.027   2.219  17.297 -0.0609 -0.3098 -0.6590
 5788SOL    HW228824   4.642   2.220  17.394  1.7354 -2.5633  1.1502
 5789SOL     OW28825   2.566   2.868  16.143 -0.6911  0.4070  0.5828
 5789SOL    HW128826   2.603   2.956  16.134  0.3060  0.0754  1.4046
 5789SOL    HW228827   2.478   2.879  16.108 -0.3076  1.1912 -0.1215
 5790SOL     OW28828   0.526   2.747   4.841  0.0308  0.0249  0.5751
 5790SOL    HW128829   0.607   2.717   4.883  0.4344  0.8290  0.3772
 5790SOL    HW228830   0.524   2.840   4.865  0.2368  0.0136  0.6349
 5791SOL     OW28831   3.299   3.311   8.958  0.3418  0.3892 -0.0879
 5791SOL    HW128832   3.221   3.279   8.914  1.4285  0.7673 -2.3175
 5791SOL    HW228833   3.319   3.385   8.900 -1.2752 -1.0883 -2.4660
 5792SOL     OW28834   2.471   0.269   8.871 -0.2535  0.0942 -0.1990
 5792SOL    HW128835   2.515   0.354   8.864 -1.3116  0.6035 -0.6564
 5792SOL    HW228836   2.548   0.212   8.867 -0.5524 -0.1891 -1.9786
 5793SOL     OW28837   1.474   2.755   9.583  0.2559  0.0327  0.0684
 5793SOL    HW128838   1.391   2.786   9.547 -1.6677 -3.6294  1.4037
 5793SOL    HW228839   1.494   2.671   9.543  0.2973  0.1936 -0.2490
 5794SOL     OW28840   0.123   3.829   9.098 -0.3389 -0.1057  0.1966
 5794SOL    HW128841   0.203   3.776   9.110  0.4388  1.5645  2.3062
 5794SOL    HW228842   0.118   3.810   9.004 -0.4892  2.2459 -0.2703
 5795SOL     OW28843   3.531   4.238   5.113 -0.1341 -0.3014  0.0757
 5795SOL    HW128844   3.526   4.203   5.024  3.5348  2.2063 -1.1344
 5795SOL    HW228845   3.441   4.246   5.144 -0.7698 -3.0612 -1.0940
 5796SOL     OW28846   3.512   3.994   6.609 -0.3888  0.2801  0.0292
 5796SOL    HW128847   3.585   4.047   6.640 -1.2663  0.7778  1.2341
 5796SOL    HW228848   3.489   3.934   6.681 -2.0956  0.6762 -0.1793
 5797SOL     OW28849   0.954   0.069   6.070 -0.7718 -0.1819 -0.4820
 5797SOL    HW128850   0.869   0.112   6.060 -0.6155  0.5112  1.1060
 5797SOL    HW228851   0.958   0.051   6.164 -2.5523 -0.8078 -0.5259
 5798SOL     OW28852   0.898   3.178   3.660  0.3252 -0.1038 -0.1097
 5798SOL    HW128853   0.984   3.193   3.622  0.6630 -0.7493  0.4103
 5798SOL    HW228854   0.840   3.243   3.619 -1.0622 -2.4304 -1.8189
 5799SOL     OW28855   1.469   2.649   5.279 -0.2522  0.3592  0.1479
 5799SOL    HW128856   1.522   2.668   5.356  1.0038  0.3421 -0.7228
 5799SOL    HW228857   1.536   2.629   5.214  1.1744  0.8908  1.4781
 5800SOL     OW28858   1.327   0.095   9.017 -0.1196  0.2238  0.0061
 5800SOL    HW128859   1.360   0.077   9.105  2.9965  0.8587 -1.0627
 5800SOL    HW228860   1.233   0.081   9.033 -0.6952  1.4024 -2.3097
 5801SOL     OW28861   0.512   4.242   6.018  0.4596 -0.3084  0.3049
 5801SOL    HW128862   0.479   4.155   6.037 -1.4936  0.0757 -1.3638
 5801SOL    HW228863   0.433   4.295   6.028 -1.3092 -2.5581 -1.9646
 5802SOL     OW28864   3.620   0.738   2.795  0.0367  1.0010 -0.3385
 5802SOL    HW128865   3.613   0.824   2.837 -0.8081  0.7720 -0.0051
 5802SOL    HW228866   3.693   0.745   2.734 -0.9355  0.1685 -1.6008
 5803SOL     OW28867   4.185   3.193   3.905  0.3053  0.0471  0.4857
 5803SOL    HW128868   4.243   3.269   3.913 -1.6817  1.6325 -0.1188
 5803SOL    HW228869   4.218   3.153   3.824 -1.9521  0.3278 -0.5594
 5804SOL     OW28870   3.396   2.806  13.553 -0.0015 -0.4441 -0.6083
 5804SOL    HW128871   3.410   2.718  13.517 -0.4045 -0.6356 -0.2926
 5804SOL    HW228872   3.481   2.838  13.584 -0.7266  0.5784  0.2814
 5805SOL     OW28873   1.971   2.186   1.335  0.1826  0.3320 -0.4610
 5805SOL    HW128874   1.932   2.127   1.271  0.3283 -0.8140  0.5072
 5805SOL    HW228875   2.016   2.111   1.373  1.8391  1.3815 -0.3734
 5806SOL     OW28876   2.016   0.421   7.909 -0.0180 -0.3735  0.0830
 5806SOL    HW128877   1.930   0.421   7.951  0.1747 -0.4382  0.4835
 5806SOL    HW228878   2.071   0.466   7.973  1.4644 -1.2226 -0.5801
 5807SOL     OW28879   4.140   1.121   5.786  0.2701  0.6143 -0.7803
 5807SOL    HW128880   4.141   1.025   5.782  1.3356  0.7447 -3.4558
 5807SOL    HW228881   4.140   1.142   5.879  0.6851  1.0272 -0.8735
 5808SOL     OW28882   4.238   1.139   7.460  0.5465  0.6843  0.6286
 5808SOL    HW128883   4.334   1.139   7.462  0.5469 -0.7408  0.6443
 5808SOL    HW228884   4.209   1.147   7.551 -1.1372 -1.7349  0.3069
 5809SOL     OW28885   0.752   0.351   2.495 -0.2680 -0.2399 -0.5774
 5809SOL    HW128886   0.785   0.324   2.581  0.4777 -3.7554 -2.0045
 5809SOL    HW228887   0.690   0.282   2.473 -1.4802 -0.0927  2.2605
 5810SOL     OW28888   2.580   1.762   8.242  0.1647  0.3606  0.0363
 5810SOL    HW128889   2.546   1.730   8.159 -0.2055  1.6842 -0.3285
 5810SOL    HW228890   2.501   1.743   8.293  0.3308 -3.4917 -1.1557
 5811SOL     OW28891   3.339   1.975   6.054 -0.2849  0.2335 -0.0504
 5811SOL    HW128892   3.371   1.964   6.144 -0.4965  1.3663  0.1628
 5811SOL    HW228893   3.346   2.070   6.063 -2.8581  0.4612 -0.4595
 5812SOL     OW28894   1.670   1.071   9.634 -0.3844 -0.3862  0.4289
 5812SOL    HW128895   1.632   1.159   9.645  2.5180  0.5540  2.8901
 5812SOL    HW228896   1.764   1.078   9.648 -0.2206 -0.1979 -0.7803
 5813SOL     OW28897   2.757   2.408   8.647  0.5098 -0.6837 -0.4031
 5813SOL    HW128898   2.848   2.378   8.643 -0.0150 -2.6233  2.2566
 5813SOL    HW228899   2.711   2.324   8.648  1.4187 -1.1583  0.6528
 5814SOL     OW28900   2.102   2.749   7.775  0.1506 -0.3879 -0.3779
 5814SOL    HW128901   2.195   2.769   7.776 -0.2628  1.5204 -1.1935
 5814SOL    HW228902   2.085   2.735   7.869  1.3617 -0.3545 -0.1562
 5815SOL     OW28903   0.405   2.800   6.654 -1.3503 -0.5681 -0.4839
 5815SOL    HW128904   0.407   2.776   6.562  0.7273 -0.6724 -0.4157
 5815SOL    HW228905   0.408   2.896   6.646 -0.0831 -0.6483 -0.8918
 5816SOL     OW28906   2.898   3.607   8.647  0.0222 -0.2808 -0.4078
 5816SOL    HW128907   2.839   3.669   8.606 -2.0839  0.0106  3.0625
 5816SOL    HW228908   2.853   3.526   8.623 -0.2858 -1.0241  2.5789
 5817SOL     OW28909   3.408   3.364   8.131  0.3811 -0.7348  0.0097
 5817SOL    HW128910   3.493   3.370   8.087 -0.1465  0.1278 -0.8970
 5817SOL    HW228911   3.361   3.299   8.078 -0.8167 -0.9081  1.2970
 5818SOL     OW28912   2.158   2.971   1.276  0.0114 -0.3278  0.5696
 5818SOL    HW128913   2.086   2.913   1.297  1.2742 -2.4060 -0.8476
 5818SOL    HW228914   2.202   2.978   1.361  0.2920 -0.2560  0.4210
 5819SOL     OW28915   1.697   1.640  14.662 -0.1874 -0.2897  0.4784
 5819SOL    HW128916   1.623   1.702  14.660 -0.5819 -0.7952 -0.5863
 5819SOL    HW228917   1.760   1.677  14.600 -0.0653 -0.4716  0.4941
 5820SOL     OW28918   0.548   0.031   6.409 -0.2276  0.3548  0.2885
 5820SOL    HW128919   0.464   0.074   6.427 -1.4531 -0.9596 -2.2056
 5820SOL    HW228920   0.531   4.696   6.333  0.3107 -0.6643  0.9265
 5821SOL     OW28921   1.062   3.688   6.903  0.2101 -0.4581  0.1809
 5821SOL    HW128922   1.017   3.631   6.841 -1.3292  0.6956  0.2416
 5821SOL    HW228923   1.137   3.700   6.845 -0.6586  1.1201 -0.6180
 5822SOL     OW28924   2.816   4.673   9.009  0.0010 -0.1711  0.5319
 5822SOL    HW128925   2.789   4.621   9.085 -1.8021  0.8008  0.5779
 5822SOL    HW228926   2.742   0.013   9.006  1.3781  1.3393 -2.0814
 5823SOL     OW28927   0.110   1.200   6.224  0.0406 -0.6597 -0.5029
 5823SOL    HW128928   0.200   1.179   6.248 -0.0060 -0.5056 -0.1927
 5823SOL    HW228929   0.087   1.115   6.186  0.5903 -0.6834 -0.7716
 5824SOL     OW28930   2.994   2.524  14.235  0.1080 -0.6461 -0.0949
 5824SOL    HW128931   2.909   2.509  14.277  0.8076 -2.4299  0.6740
 5824SOL    HW228932   3.046   2.455  14.277  1.1009 -0.1314 -0.4912
 5825SOL     OW28933   3.702   3.199   3.569  0.2341 -0.0444 -0.5495
 5825SOL    HW128934   3.691   3.292   3.587 -2.1068 -0.0284 -2.1434
 5825SOL    HW228935   3.787   3.199   3.525  1.7840  1.7020  2.4234
 5826SOL     OW28936   1.311   2.836  15.136  0.3670  0.2335 -0.8693
 5826SOL    HW128937   1.358   2.792  15.065 -0.2964 -0.9661 -0.5714
 5826SOL    HW228938   1.267   2.760  15.175  2.2064  0.3934  1.5355
 5827SOL     OW28939   1.277   0.560   2.465 -0.5968  0.2712  0.5459
 5827SOL    HW128940   1.202   0.539   2.408 -0.6905 -2.0151  1.5185
 5827SOL    HW228941   1.298   0.653   2.456 -2.2752  0.4961 -1.1106
 5828SOL     OW28942   0.125   0.717   5.853  0.2271 -0.1473 -0.2546
 5828SOL    HW128943   0.171   0.783   5.904 -0.3760  0.3192 -0.3144
 5828SOL    HW228944   0.035   0.722   5.885 -0.0865  0.4306 -1.2237
 5829SOL     OW28945   1.662   0.965   2.979 -0.4675 -0.2708 -0.2180
 5829SOL    HW128946   1.596   0.917   3.028 -1.6789  0.3972 -1.1912
 5829SOL    HW228947   1.677   0.911   2.902 -0.5872 -1.5354  0.6462
 5830SOL     OW28948   2.383   4.191   0.572 -0.1994 -0.6184 -0.2302
 5830SOL    HW128949   2.432   4.216   0.651 -1.4305  0.7742  0.0927
 5830SOL    HW228950   2.295   4.174   0.607  0.4236 -1.5628  0.8625
 5831SOL     OW28951   1.768   0.551   1.920  0.6079  0.0184 -0.1987
 5831SOL    HW128952   1.855   0.522   1.890  0.7788 -0.6527  0.9464
 5831SOL    HW228953   1.735   0.531   1.833  2.5177 -0.9452 -0.6920
 5832SOL     OW28954   2.222   3.528  15.293  0.4388  0.2455  0.2974
 5832SOL    HW128955   2.317   3.529  15.280  0.3338  1.9874 -0.3354
 5832SOL    HW228956   2.193   3.439  15.273  0.3286 -0.0450  1.7528
 5833SOL     OW28957   3.265   3.755   5.192  0.2304 -0.2807  0.3116
 5833SOL    HW128958   3.209   3.739   5.268  0.1388  1.6028  0.6497
 5833SOL    HW228959   3.333   3.688   5.190 -0.6956 -1.2332  0.4007
 5834SOL     OW28960   1.098   2.342   2.751 -0.2755 -0.2377 -0.2710
 5834SOL    HW128961   1.083   2.315   2.660  0.2329 -1.8399  0.1193
 5834SOL    HW228962   1.143   2.264   2.784 -2.4592 -0.7560  1.4625
 5835SOL     OW28963   0.424   3.103   5.625 -0.2196  0.4704 -0.2588
 5835SOL    HW128964   0.466   3.169   5.570  1.7500  0.4804  1.2430
 5835SOL    HW228965   0.362   3.160   5.672  0.4811 -1.0035  2.4531
 5836SOL     OW28966   2.449   2.953   9.213  0.3888  0.1194 -0.1859
 5836SOL    HW128967   2.433   2.978   9.122  4.2484 -1.0766 -1.1644
 5836SOL    HW228968   2.387   2.880   9.221 -0.8858  1.2492  0.2778
 5837SOL     OW28969   2.431   2.731   5.252  0.3411  0.1581 -0.0371
 5837SOL    HW128970   2.441   2.637   5.262  3.1517  0.5272  0.5365
 5837SOL    HW228971   2.473   2.750   5.169 -2.2303 -0.0321 -1.3864
 5838SOL     OW28972   0.419   1.391   5.208  0.4559  0.1039  0.4331
 5838SOL    HW128973   0.429   1.477   5.167  0.8784  0.6830  1.7539
 5838SOL    HW228974   0.367   1.410   5.285  1.7479  1.2010  1.0354
 5839SOL     OW28975   3.461   0.853   4.050 -0.4631  0.0241 -0.0416
 5839SOL    HW128976   3.386   0.907   4.072  0.1517  0.3458  1.3179
 5839SOL    HW228977   3.453   0.852   3.955  0.8892  1.1390 -0.1691
 5840SOL     OW28978   0.627   1.756  16.614  0.0696 -0.0770 -0.4908
 5840SOL    HW128979   0.546   1.757  16.665  1.4857  1.2940  1.7215
 5840SOL    HW228980   0.695   1.730  16.676  0.9994 -0.7860 -1.7947
 5841SOL     OW28981   3.598   4.467   7.266 -0.3709  0.2672 -0.6738
 5841SOL    HW128982   3.532   4.536   7.273 -1.2135 -0.6851  1.0191
 5841SOL    HW228983   3.675   4.522   7.276  0.9563 -1.5008 -1.3286
 5842SOL     OW28984   2.202   1.134   8.863  0.5451 -0.3445  0.1371
 5842SOL    HW128985   2.116   1.163   8.894  0.7347 -0.4908  0.7830
 5842SOL    HW228986   2.259   1.132   8.939  0.5086  1.0763  0.1976
 5843SOL     OW28987   4.699   0.665   8.626 -0.3075 -0.2228 -0.1937
 5843SOL    HW128988   4.673   0.725   8.696  0.4530 -0.9744  0.7282
 5843SOL    HW228989   0.066   0.648   8.661  1.5111  1.8582 -3.7417
 5844SOL     OW28990   3.497   4.167  17.161 -0.4614  0.5099 -0.4201
 5844SOL    HW128991   3.537   4.110  17.096  0.7001  1.9281 -0.9414
 5844SOL    HW228992   3.422   4.115  17.190  0.6296  0.6473  2.6473
 5845SOL     OW28993   2.848   2.722   8.917  0.5282 -0.3078  0.5256
 5845SOL    HW128994   2.771   2.709   8.861  0.6279 -0.5984  0.4534
 5845SOL    HW228995   2.832   2.657   8.985 -0.7788  0.4754  0.9653
 5846SOL     OW28996   0.939   4.486  15.878  0.0697  0.0397  0.2390
 5846SOL    HW128997   1.010   4.423  15.870 -2.5883 -2.9202  0.1762
 5846SOL    HW228998   0.856   4.439  15.870  0.8753 -1.2326 -0.6551
 5847SOL     OW28999   3.455   2.459   7.621  0.0847  0.0730 -0.1635
 5847SOL    HW129000   3.378   2.454   7.564 -0.1444 -1.6768  0.2913
 5847SOL    HW229001   3.520   2.405   7.577  0.2276 -0.0480  0.1996
 5848SOL     OW29002   0.288   1.786  10.826  0.1582  0.2234  0.0081
 5848SOL    HW129003   0.336   1.760  10.747 -0.1833 -1.5009  0.3717
 5848SOL    HW229004   0.230   1.851  10.788 -1.0678 -0.2516  1.0491
 5849SOL     OW29005   2.620   2.900   2.996  0.2353  0.0002 -0.5127
 5849SOL    HW129006   2.575   2.936   3.073  1.3209 -0.8446  0.5132
 5849SOL    HW229007   2.542   2.886   2.941  0.2549  0.0933 -0.5642
 5850SOL     OW29008   1.135   3.999   2.555  0.1854 -0.2680 -0.1983
 5850SOL    HW129009   1.212   4.051   2.578 -0.2627  0.4106 -0.2425
 5850SOL    HW229010   1.179   3.931   2.504 -0.2737  0.4626 -1.5701
 5851SOL     OW29011   1.983   4.577   0.402  0.6640 -0.4834  0.5100
 5851SOL    HW129012   1.972   4.649   0.464 -0.4182  0.8314 -1.2079
 5851SOL    HW229013   2.037   4.517   0.453  1.0761  1.6998  2.5884
 5852SOL     OW29014   3.611   2.860   7.277  0.2782  0.0499 -0.1215
 5852SOL    HW129015   3.643   2.919   7.209 -0.7730  1.2387  0.4097
 5852SOL    HW229016   3.526   2.897   7.300  0.6877  1.8568 -1.5575
 5853SOL     OW29017   0.708   3.023  17.562  0.2963 -0.1234 -0.3352
 5853SOL    HW129018   0.630   3.077  17.574 -0.6995 -1.6003 -0.1842
 5853SOL    HW229019   0.672   2.938  17.539 -0.5230  0.1062  0.0889
 5854SOL     OW29020   4.691   3.428   3.282 -0.5018 -0.1267 -0.3032
 5854SOL    HW129021   4.674   3.455   3.372  0.4697 -1.2571  0.1995
 5854SOL    HW229022   4.630   3.354   3.281  0.9873 -1.3383 -0.6308
 5855SOL     OW29023   1.560   4.173   5.804  0.0938  0.2433  0.5484
 5855SOL    HW129024   1.641   4.152   5.851 -0.5882 -1.1778  1.0838
 5855SOL    HW229025   1.502   4.188   5.878  0.0734  0.7018  0.4412
 5856SOL     OW29026   2.445   1.034   5.317  0.4003  0.6044 -0.3810
 5856SOL    HW129027   2.358   0.994   5.314 -0.1270  1.6890  0.4153
 5856SOL    HW229028   2.425   1.126   5.299  1.0035  0.7220 -0.4374
 5857SOL     OW29029   3.775   1.245   5.821  0.2291 -0.2841  0.7137
 5857SOL    HW129030   3.835   1.313   5.851  0.2795 -0.6063  1.3352
 5857SOL    HW229031   3.794   1.241   5.727  3.3002  0.2501  1.2973
 5858SOL     OW29032   3.841   1.636   5.757  0.3228  0.4496  0.4630
 5858SOL    HW129033   3.885   1.689   5.691  0.8598  0.9192  1.1874
 5858SOL    HW229034   3.893   1.556   5.752  0.5490  0.5933  0.5020
 5859SOL     OW29035   2.141   1.032   7.354 -0.3352 -0.0866  0.0705
 5859SOL    HW129036   2.146   1.043   7.259 -0.6129 -1.1987 -0.0734
 5859SOL    HW229037   2.234   1.017   7.368 -0.3863 -1.4572 -1.0875
 5860SOL     OW29038   2.877   0.244   2.079  0.5170  0.7069 -0.3985
 5860SOL    HW129039   2.784   0.226   2.067 -0.0381  2.3880  1.3703
 5860SOL    HW229040   2.913   0.156   2.082 -2.7546 -0.6276 -0.9123
 5861SOL     OW29041   3.209   2.943  10.908  0.3695  0.7506  0.1121
 5861SOL    HW129042   3.274   2.944  10.978  0.3952 -0.7820  0.0952
 5861SOL    HW229043   3.151   3.013  10.937 -0.1903 -1.0606  3.2880
 5862SOL     OW29044   4.055   0.489   5.998 -0.5005 -0.7910 -0.7427
 5862SOL    HW129045   4.037   0.566   6.053  1.5821  0.7975 -2.2446
 5862SOL    HW229046   3.990   0.504   5.930  1.4819  1.8414 -2.0834
 5863SOL     OW29047   4.458   3.126  16.075 -0.5888 -0.2362  0.6606
 5863SOL    HW129048   4.494   3.199  16.124 -0.1147 -0.6389  0.9041
 5863SOL    HW229049   4.416   3.165  15.998 -0.4240  0.7266  1.0567
 5864SOL     OW29050   2.276   0.354   7.616 -0.3510 -0.5455 -0.6120
 5864SOL    HW129051   2.363   0.387   7.592  0.6854 -0.7061  2.9345
 5864SOL    HW229052   2.285   0.329   7.708  1.8981 -1.4257 -1.0822
 5865SOL     OW29053   0.381   1.000  14.567 -0.1045 -0.3904  0.1915
 5865SOL    HW129054   0.472   0.974  14.554  0.4233  0.3371  2.4447
 5865SOL    HW229055   0.328   0.939  14.516  0.2579 -0.7963  0.2999
 5866SOL     OW29056   0.795   1.643   4.506 -0.6653  0.5132  0.1202
 5866SOL    HW129057   0.797   1.642   4.411  1.3311  0.2727  0.1719
 5866SOL    HW229058   0.777   1.735   4.524  1.0510  0.8086  0.3099
 5867SOL     OW29059   0.690   0.301   6.422  0.1638 -0.5697 -0.1339
 5867SOL    HW129060   0.631   0.361   6.378  0.5771  0.3422  0.5702
 5867SOL    HW229061   0.662   0.215   6.389 -3.7551  1.9156 -3.3087
 5868SOL     OW29062   0.985   1.786   3.931  0.0465 -0.0310 -0.0318
 5868SOL    HW129063   1.078   1.761   3.937  0.1155  0.3634  0.5381
 5868SOL    HW229064   0.966   1.764   3.839  1.2820 -0.1455 -0.2630
 5869SOL     OW29065   3.333   2.840   7.553  0.2234 -0.1031 -0.1262
 5869SOL    HW129066   3.262   2.893   7.591  1.3863  0.6460  0.9962
 5869SOL    HW229067   3.338   2.883   7.468  0.8725 -0.3202 -0.1964
 5870SOL     OW29068   4.659   4.219   7.391 -0.1578  0.1495 -0.3475
 5870SOL    HW129069   4.582   4.274   7.376 -0.8004 -0.1545  1.8972
 5870SOL    HW229070   0.004   4.285   7.409  1.5801 -2.9805  4.4773
 5871SOL     OW29071   1.659   0.975  17.067 -0.3200 -0.2702 -0.3228
 5871SOL    HW129072   1.676   0.925  16.988  1.3791 -0.5930  0.2539
 5871SOL    HW229073   1.707   0.929  17.136  0.0523  1.3422  0.5138
 5872SOL     OW29074   1.118   3.712  10.252 -0.0956 -0.0687  0.7575
 5872SOL    HW129075   1.170   3.746  10.325 -0.5036 -1.3301  1.6323
 5872SOL    HW229076   1.153   3.623  10.254  4.1545  1.5561 -2.0750
 5873SOL     OW29077   1.119   4.524  15.115 -0.1673 -0.2863  0.0445
 5873SOL    HW129078   1.153   4.598  15.064 -0.5845 -0.5040 -0.5440
 5873SOL    HW229079   1.161   4.548  15.198  0.3977 -0.3925 -0.2083
 5874SOL     OW29080   0.750   0.022  13.275 -0.2228  0.0080  0.6702
 5874SOL    HW129081   0.840   0.022  13.308 -0.2489  1.2012  0.7371
 5874SOL    HW229082   0.697   0.040  13.352 -0.3517  2.1355  0.0901
 5875SOL     OW29083   3.902   2.595   7.620 -0.1070 -0.8728 -0.6199
 5875SOL    HW129084   3.992   2.606   7.591  0.4674  2.0459  2.3182
 5875SOL    HW229085   3.858   2.651   7.557  1.0503  0.4604 -0.2508
 5876SOL     OW29086   1.474   3.810   7.963  0.2549  0.1127 -1.0970
 5876SOL    HW129087   1.570   3.809   7.962  0.2682 -0.3518  0.9112
 5876SOL    HW229088   1.460   3.879   7.898 -0.7788  1.0256  0.0966
 5877SOL     OW29089   4.599   0.012   2.841  0.2565  0.2445  0.2331
 5877SOL    HW129090   4.545   0.026   2.763  1.0099  2.0472  0.0334
 5877SOL    HW229091   4.647   0.094   2.835 -0.5933  0.6993 -0.2632
 5878SOL     OW29092   2.947   4.096   5.473 -0.2650 -0.2679  0.9086
 5878SOL    HW129093   2.975   4.008   5.448  0.2767 -0.3616  1.8692
 5878SOL    HW229094   3.018   4.111   5.535 -0.0948 -0.6343  0.8010
 5879SOL     OW29095   1.208   4.035  13.055  0.3329  0.6074  0.0404
 5879SOL    HW129096   1.193   3.983  13.134  3.0635  1.1232  0.9046
 5879SOL    HW229097   1.143   3.992  12.999  0.7309  2.8151 -2.0822
 5880SOL     OW29098   1.687   4.621   2.224  0.0125  0.3176  1.0505
 5880SOL    HW129099   1.595   4.603   2.206 -0.1102  1.8886  0.0901
 5880SOL    HW229100   1.715   4.661   2.142  2.4483 -0.1943  1.6257
 5881SOL     OW29101   2.050   0.928   6.880 -0.0019 -0.3487  0.1034
 5881SOL    HW129102   2.042   0.833   6.867 -0.4002 -0.0035 -2.2108
 5881SOL    HW229103   2.138   0.939   6.844  0.0149  1.1401  0.6081
 5882SOL     OW29104   0.318   3.618   8.478 -0.0490  0.1741  0.6665
 5882SOL    HW129105   0.400   3.570   8.466 -2.1152 -3.0535 -0.4659
 5882SOL    HW229106   0.330   3.712   8.467  2.3477 -0.0301  1.5134
 5883SOL     OW29107   3.071   4.437   2.071  0.0415  0.1441 -0.1988
 5883SOL    HW129108   3.061   4.381   2.148 -1.3776 -0.3220 -0.7114
 5883SOL    HW229109   3.064   4.374   1.999 -0.9120  0.9050 -0.7700
 5884SOL     OW29110   4.385   0.219  12.950 -0.5974  0.1707  0.0434
 5884SOL    HW129111   4.394   0.134  12.992  0.7920  0.5119  0.4594
 5884SOL    HW229112   4.325   0.194  12.880  0.0486 -0.6073 -0.2299
 5885SOL     OW29113   4.129   4.329   5.396 -0.5659 -0.6033  0.2422
 5885SOL    HW129114   4.195   4.283   5.447 -1.7971 -0.7402  1.7458
 5885SOL    HW229115   4.052   4.273   5.409 -1.0670  0.1958  0.7212
 5886SOL     OW29116   4.156   3.726   3.213  0.0846 -0.1046  0.2617
 5886SOL    HW129117   4.154   3.821   3.222 -0.3596 -0.0401 -0.5553
 5886SOL    HW229118   4.229   3.725   3.151 -1.2916 -0.8305 -1.3492
 5887SOL     OW29119   2.986   3.151   0.613 -0.3449 -0.0737  0.2554
 5887SOL    HW129120   3.001   3.101   0.533 -2.0214 -1.3067  0.7153
 5887SOL    HW229121   3.073   3.191   0.623  0.1743 -1.8561  2.7906
 5888SOL     OW29122   2.633   1.746   4.293  0.2185  0.3407 -0.4108
 5888SOL    HW129123   2.682   1.756   4.211  2.7204  1.5870  1.2393
 5888SOL    HW229124   2.648   1.834   4.329  0.7424 -0.0282  0.2672
 5889SOL     OW29125   0.373   0.504   7.305  0.2251 -0.1779 -0.3202
 5889SOL    HW129126   0.329   0.553   7.235 -1.6819  0.9526  1.6622
 5889SOL    HW229127   0.302   0.443   7.326  0.1594 -0.2202 -0.6650
 5890SOL     OW29128   3.193   0.788  13.148  0.5092  0.1127  0.5947
 5890SOL    HW129129   3.243   0.821  13.223 -0.6923  0.8397  1.0880
 5890SOL    HW229130   3.178   0.698  13.176 -0.6588 -0.1362 -0.8752
 5891SOL     OW29131   1.135   0.200   2.987 -0.0802  1.0885 -0.8114
 5891SOL    HW129132   1.079   0.138   2.940  0.6462  1.1704 -1.7955
 5891SOL    HW229133   1.082   0.209   3.066  0.3582 -1.6268 -0.2134
 5892SOL     OW29134   3.325   4.277   8.376  0.2086 -0.3323  0.1504
 5892SOL    HW129135   3.375   4.199   8.351 -1.2914 -1.4436  0.6482
 5892SOL    HW229136   3.384   4.317   8.440  0.6181  0.8337 -0.9609
 5893SOL     OW29137   1.027   1.748   7.087  0.2502 -0.0626 -0.5075
 5893SOL    HW129138   0.964   1.696   7.137  0.4760  1.3081  1.2122
 5893SOL    HW229139   1.109   1.740   7.136  0.7910 -1.5344 -1.6677
 5894SOL     OW29140   3.256   4.407   1.691 -0.1429 -0.0635 -0.6876
 5894SOL    HW129141   3.336   4.401   1.744 -0.5013  1.0758 -0.0227
 5894SOL    HW229142   3.272   4.350   1.616  0.8235 -0.3215 -0.2834
 5895SOL     OW29143   0.278   0.498  10.392  0.1230  0.2109  0.4607
 5895SOL    HW129144   0.360   0.545  10.406 -0.8807  1.8320  0.9515
 5895SOL    HW229145   0.311   0.416  10.355 -0.9364 -0.0753  0.1599
 5896SOL     OW29146   0.905   1.233   4.557  0.2600 -0.0705  0.2131
 5896SOL    HW129147   0.924   1.298   4.624 -3.0458  1.5881 -0.4695
 5896SOL    HW229148   0.928   1.278   4.476  4.1069 -2.4328  0.0274
 5897SOL     OW29149   2.402   4.663   8.577 -0.1356  0.0383  0.1010
 5897SOL    HW129150   2.324   4.718   8.586  0.6015  1.4608 -2.1683
 5897SOL    HW229151   2.376   4.606   8.505  1.2617 -0.7664  0.2443
 5898SOL     OW29152   2.329   3.839   5.081 -0.3387  0.0831  0.1124
 5898SOL    HW129153   2.358   3.926   5.109 -0.1061 -0.0549  0.2937
 5898SOL    HW229154   2.271   3.812   5.152 -2.2730  0.5697 -1.2630
 5899SOL     OW29155   3.906   0.472   9.025  0.3602  0.9014 -0.2725
 5899SOL    HW129156   3.996   0.439   9.030  0.5541  1.8125  2.7177
 5899SOL    HW229157   3.868   0.392   8.989  0.9773  0.6690 -0.4068
 5900SOL     OW29158   3.050   0.989   0.092  0.7708 -0.4204 -0.2051
 5900SOL    HW129159   3.131   0.955   0.130  1.6099 -1.5660 -2.9828
 5900SOL    HW229160   3.069   1.034   0.010  0.7040  1.6913  0.9352
 5901SOL     OW29161   3.213   1.318   5.667 -0.3141 -0.0240 -0.0454
 5901SOL    HW129162   3.140   1.289   5.612  0.1597  2.6683 -2.0525
 5901SOL    HW229163   3.197   1.280   5.753  0.9866 -0.8825 -0.1819
 5902SOL     OW29164   4.512   0.849  10.181 -0.0071 -0.2841 -0.0393
 5902SOL    HW129165   4.483   0.759  10.192  0.9458 -0.4888  0.7424
 5902SOL    HW229166   4.460   0.892  10.248  1.7350  1.7404  0.0199
 5903SOL     OW29167   4.381   1.979   2.672 -0.3081  0.1964  0.0859
 5903SOL    HW129168   4.470   2.013   2.682 -0.7572  2.0186 -2.1621
 5903SOL    HW229169   4.375   1.986   2.577  2.4270  0.8175 -0.0547
 5904SOL     OW29170   2.578   3.463   3.000  0.5779 -0.0855  0.6697
 5904SOL    HW129171   2.616   3.509   2.925 -1.2671  0.7376  0.2627
 5904SOL    HW229172   2.488   3.455   2.969  0.5156  1.6605  0.4026
 5905SOL     OW29173   4.534   2.572   7.288  0.1087 -0.4284  0.1705
 5905SOL    HW129174   4.577   2.630   7.350  0.5237 -1.1215  0.5262
 5905SOL    HW229175   4.448   2.609   7.268  0.6212  0.6966  0.0508
 5906SOL     OW29176   2.461   1.387   3.891  0.5693  0.0956 -0.5776
 5906SOL    HW129177   2.436   1.295   3.900 -1.2290  0.7537  1.1999
 5906SOL    HW229178   2.548   1.389   3.932  0.7205  0.1695 -0.9038
 5907SOL     OW29179   3.142   2.459   7.146 -0.0658 -0.1191  0.3894
 5907SOL    HW129180   3.225   2.422   7.116 -1.5074 -1.7715 -1.6123
 5907SOL    HW229181   3.175   2.546   7.125  1.3919 -0.6530  0.4514
 5908SOL     OW29182   3.025   2.488   6.429 -0.3719  0.3403 -0.3649
 5908SOL    HW129183   3.026   2.584   6.439  0.3926  0.5534 -2.4034
 5908SOL    HW229184   2.965   2.488   6.355 -1.0169  0.4793  0.1554
 5909SOL     OW29185   2.961   2.726   7.528  0.2493 -0.0460 -0.1034
 5909SOL    HW129186   2.962   2.728   7.624 -0.7989 -1.7178 -0.0618
 5909SOL    HW229187   2.878   2.767   7.506  0.7268  0.6974 -0.4900
 5910SOL     OW29188   3.640   4.516  17.594  0.6913 -0.7443 -0.9330
 5910SOL    HW129189   3.626   4.591  17.536  0.5713 -1.6656 -2.0958
 5910SOL    HW229190   3.733   4.518  17.616 -0.0561 -0.3669  2.1986
 5911SOL     OW29191   3.971   3.085   9.112 -0.9181  0.1922 -0.3884
 5911SOL    HW129192   3.948   3.130   9.031  0.1618 -0.2253 -0.9284
 5911SOL    HW229193   4.063   3.067   9.094 -0.8866 -0.2702  0.2627
 5912SOL     OW29194   3.906   2.589   2.428 -0.6858  0.6453  0.0574
 5912SOL    HW129195   3.834   2.535   2.395 -1.0811  1.9411 -1.2100
 5912SOL    HW229196   3.861   2.672   2.445 -0.0314  0.6849  1.6538
 5913SOL     OW29197   2.917   1.637   5.848 -0.6629  0.4353  0.7033
 5913SOL    HW129198   2.912   1.551   5.889  0.4065 -0.5525 -1.2241
 5913SOL    HW229199   2.874   1.628   5.763  2.6856 -1.2707 -0.8052
 5914SOL     OW29200   0.598   0.136   2.390  1.2441  0.6827 -0.4671
 5914SOL    HW129201   0.559   0.069   2.447  1.9929 -0.7327 -1.6209
 5914SOL    HW229202   0.529   0.203   2.398  0.2934 -0.0918 -2.1133
 5915SOL     OW29203   2.259   4.454  16.408 -1.0506  0.1278  0.3260
 5915SOL    HW129204   2.330   4.515  16.387 -0.8362 -0.2089  0.0795
 5915SOL    HW229205   2.280   4.380  16.353  3.2387  2.4890 -1.1698
 5916SOL     OW29206   0.742   3.501   7.685 -0.5743  0.4869  0.1131
 5916SOL    HW129207   0.728   3.421   7.736 -0.6278  0.5492  0.1964
 5916SOL    HW229208   0.660   3.541   7.712 -0.9097 -1.4049  1.8466
 5917SOL     OW29209   4.650   1.225   2.909  0.1516  0.3002 -0.1864
 5917SOL    HW129210   0.011   1.233   2.860  0.4602  1.5185  0.5314
 5917SOL    HW229211   4.694   1.230   2.994 -0.5007  0.4981  0.1326
 5918SOL     OW29212   2.880   4.129   3.528 -0.1617 -0.4249  0.3637
 5918SOL    HW129213   2.801   4.136   3.582 -0.1605 -1.5043  0.5094
 5918SOL    HW229214   2.852   4.050   3.480  0.4176  0.0333 -0.7265
 5919SOL     OW29215   1.059   1.805   4.730  0.3538 -0.3151  0.2035
 5919SOL    HW129216   1.120   1.816   4.803 -0.1730 -0.0520  0.6017
 5919SOL    HW229217   1.130   1.772   4.674  1.4683  0.0620  1.3829
 5920SOL     OW29218   1.758   2.442   8.523  0.4043  0.0630 -0.0447
 5920SOL    HW129219   1.808   2.520   8.546  1.0903 -0.4462  0.2134
 5920SOL    HW229220   1.833   2.384   8.513  0.9944  0.9223 -0.5565
 5921SOL     OW29221   3.033   2.780   6.425 -0.4078  0.1249 -0.0532
 5921SOL    HW129222   2.964   2.791   6.360 -1.1661  3.3532  1.2999
 5921SOL    HW229223   3.109   2.818   6.382  0.0348 -2.1609 -1.2694
 5922SOL     OW29224   1.992   0.160   4.727  0.3884 -0.0690  0.2020
 5922SOL    HW129225   1.951   0.168   4.641 -0.8016  0.1118  0.7746
 5922SOL    HW229226   2.084   0.178   4.711  0.1146 -0.4024 -1.7397
 5923SOL     OW29227   2.459   4.064  16.103  0.1713 -0.0720  0.3428
 5923SOL    HW129228   2.513   4.114  16.041 -0.9854  0.4492 -0.2530
 5923SOL    HW229229   2.398   4.019  16.044 -1.6293  1.5582  0.9419
 5924SOL     OW29230   3.455   3.755   2.770  0.0237 -0.2775  0.4413
 5924SOL    HW129231   3.376   3.809   2.766  1.6439  2.1561  1.2779
 5924SOL    HW229232   3.514   3.822   2.804 -1.1354  0.5850  0.7321
 5925SOL     OW29233   2.799   2.367   0.428 -0.3179  0.6780  0.7148
 5925SOL    HW129234   2.759   2.380   0.343 -0.7469 -2.2629  0.4678
 5925SOL    HW229235   2.834   2.279   0.414 -1.5416  0.3319 -0.1232
 5926SOL     OW29236   0.936   3.428  16.902  0.3907  0.4262  0.6622
 5926SOL    HW129237   0.978   3.506  16.866 -2.0701  0.0316 -3.1170
 5926SOL    HW229238   0.846   3.461  16.907  0.1155 -0.5737  2.2648
 5927SOL     OW29239   2.059   4.390   5.922 -0.8997 -0.3220  0.3400
 5927SOL    HW129240   2.126   4.322   5.920 -1.2807 -0.5718 -3.1251
 5927SOL    HW229241   2.111   4.470   5.913  0.3617 -1.0750  0.9178
 5928SOL     OW29242   2.612   2.528   8.173 -0.0850 -0.7725 -0.2831
 5928SOL    HW129243   2.553   2.463   8.212 -1.5224 -0.4462 -1.9562
 5928SOL    HW229244   2.579   2.607   8.215  1.2239  0.2224 -1.1378
 5929SOL     OW29245   1.064   4.132   3.050 -0.2761 -0.0390  0.4323
 5929SOL    HW129246   1.069   4.038   3.067  1.0286 -0.1002 -0.3097
 5929SOL    HW229247   1.143   4.162   3.094 -1.1078  0.8706  1.3025
 5930SOL     OW29248   3.239   2.703  13.830 -0.0941  0.6030  0.3905
 5930SOL    HW129249   3.270   2.613  13.826  0.7306  0.8652  0.7614
 5930SOL    HW229250   3.169   2.690  13.893 -0.4684 -1.7084 -0.5155
 5931SOL     OW29251   0.085   0.838   6.639  0.2772  0.6810 -0.3615
 5931SOL    HW129252   0.128   0.866   6.558 -0.4401  1.2298 -0.5565
 5931SOL    HW229253   0.074   0.915   6.694 -0.8777 -1.5861  2.6152
 5932SOL     OW29254   1.831   0.831   8.631  0.2318 -0.2859 -0.1424
 5932SOL    HW129255   1.821   0.913   8.679  1.6087 -0.9249  1.2474
 5932SOL    HW229256   1.924   0.810   8.640  0.2009 -0.8246 -1.0710
 5933SOL     OW29257   1.980   3.662   7.843  0.4897 -0.6429 -0.0685
 5933SOL    HW129258   1.963   3.582   7.893 -1.3405 -1.2411 -1.6757
 5933SOL    HW229259   1.977   3.627   7.754 -0.2226 -3.3886  1.0472
 5934SOL     OW29260   3.361   1.718  12.397  0.1399 -0.0948  1.0192
 5934SOL    HW129261   3.422   1.747  12.465 -0.5375 -0.0586  1.6138
 5934SOL    HW229262   3.311   1.645  12.433  1.0672 -0.2777  1.9118
 5935SOL     OW29263   3.657   2.943   5.222 -0.1875  0.6169  0.5535
 5935SOL    HW129264   3.665   2.918   5.314  0.7263  1.7324  0.7811
 5935SOL    HW229265   3.731   3.002   5.205 -0.1362  0.3740 -0.0546
 5936SOL     OW29266   1.771   3.545  10.654  1.1858 -0.1676  0.2208
 5936SOL    HW129267   1.824   3.594  10.716  2.2497 -0.5237 -0.3999
 5936SOL    HW229268   1.819   3.552  10.571 -1.2847  0.9471 -1.1134
 5937SOL     OW29269   3.110   1.802  12.705  0.2091 -0.0940  0.2851
 5937SOL    HW129270   3.066   1.734  12.655  0.1486  0.3289 -0.2422
 5937SOL    HW229271   3.143   1.854  12.632  1.0114 -1.3848 -0.2681
 5938SOL     OW29272   1.723   1.504   6.306 -0.3537  0.1353 -0.4107
 5938SOL    HW129273   1.729   1.443   6.380  1.7130  2.0792  1.0368
 5938SOL    HW229274   1.782   1.576   6.330  1.9289 -0.6338 -3.7870
 5939SOL     OW29275   3.694   4.227   5.528 -0.1478 -0.2086  0.4087
 5939SOL    HW129276   3.614   4.183   5.558 -1.6711  1.6667 -0.9201
 5939SOL    HW229277   3.668   4.319   5.525  1.6035  0.2813 -0.0200
 5940SOL     OW29278   0.686   2.383   8.472 -0.1684 -0.2595  0.5799
 5940SOL    HW129279   0.592   2.399   8.485  0.1777  1.8780  0.4284
 5940SOL    HW229280   0.678   2.301   8.520  0.2025  0.9658  2.7175
 5941SOL     OW29281   1.038   0.415   7.784 -0.8631 -0.4354 -0.1516
 5941SOL    HW129282   1.031   0.509   7.768  0.5039 -0.0359  1.7071
 5941SOL    HW229283   1.037   0.386   7.693  1.0679 -2.2899  0.4331
 5942SOL     OW29284   2.856   1.101   3.742 -0.6434  0.1216 -0.3841
 5942SOL    HW129285   2.847   1.116   3.836 -1.5532  0.2506 -0.4922
 5942SOL    HW229286   2.772   1.121   3.701 -1.2031 -0.7823  0.3052
 5943SOL     OW29287   0.717   1.027   7.600 -0.1976  0.3385  0.0196
 5943SOL    HW129288   0.807   1.058   7.602  0.2720 -1.1369  0.9331
 5943SOL    HW229289   0.724   0.949   7.544 -0.3731  0.0197  0.4398
 5944SOL     OW29290   2.114   0.127   3.830  0.0107  0.1550  0.3319
 5944SOL    HW129291   2.145   0.177   3.906  1.5993  2.5842 -1.9074
 5944SOL    HW229292   2.046   0.068   3.862  0.7475 -1.2268 -0.6781
 5945SOL     OW29293   2.007   0.069   3.171 -0.2830  0.4167  0.5205
 5945SOL    HW129294   2.098   0.042   3.186 -1.1354 -3.9932 -2.3574
 5945SOL    HW229295   2.014   0.165   3.167 -2.0640  0.4613 -1.5572
 5946SOL     OW29296   1.462   1.745   5.459  0.3113  0.3688 -0.3771
 5946SOL    HW129297   1.405   1.811   5.499  0.3192  0.8527 -1.1464
 5946SOL    HW229298   1.433   1.757   5.368 -0.3933  1.4259 -0.0091
 5947SOL     OW29299   4.692   2.339   7.361  0.1351  0.6675 -0.6209
 5947SOL    HW129300   4.668   2.410   7.301 -1.5588 -0.5721 -1.4478
 5947SOL    HW229301   4.604   2.311   7.387  0.3603  0.0577 -0.5118
 5948SOL     OW29302   2.142   0.323  11.042 -0.3670 -0.4496 -0.5169
 5948SOL    HW129303   2.172   0.284  11.124  1.7584  0.7594 -0.7094
 5948SOL    HW229304   2.196   0.402  11.050 -2.7956  1.6892 -4.9829
 5949SOL     OW29305   4.187   0.230   6.939  0.1596  0.2027 -0.2694
 5949SOL    HW129306   4.231   0.228   7.024 -0.0619  2.6196 -0.0863
 5949SOL    HW229307   4.264   0.243   6.884 -0.5511  0.7351 -1.1507
 5950SOL     OW29308   2.503   3.602   5.453 -0.4827 -0.2683  0.4457
 5950SOL    HW129309   2.510   3.697   5.464 -0.2882 -0.3081  0.6511
 5950SOL    HW229310   2.593   3.581   5.428  0.2603  1.8794  1.2717
 5951SOL     OW29311   0.950   2.551  16.610  0.0222 -0.4076 -0.3446
 5951SOL    HW129312   0.965   2.613  16.538  0.9037 -1.3086 -0.9336
 5951SOL    HW229313   1.035   2.558  16.654  0.0611 -0.2762 -0.4386
 5952SOL     OW29314   0.875   4.168  16.092 -0.0424 -0.2671 -0.6840
 5952SOL    HW129315   0.855   4.077  16.109 -0.0335  0.1248  1.4595
 5952SOL    HW229316   0.964   4.186  16.124  0.1928 -1.3242 -0.7706
 5953SOL     OW29317   1.276   1.410   7.863 -0.5558  0.3849 -0.1618
 5953SOL    HW129318   1.272   1.412   7.768 -2.0004 -0.9353 -0.1268
 5953SOL    HW229319   1.355   1.359   7.880 -0.6139  0.2390 -0.3297
 5954SOL     OW29320   2.786   1.254   4.442  0.0404  0.5610  0.0382
 5954SOL    HW129321   2.717   1.188   4.436 -0.5489  1.1829  0.0725
 5954SOL    HW229322   2.741   1.325   4.487  0.3230  1.3148 -0.8974
 5955SOL     OW29323   0.782   1.480   5.893  0.1035  0.3535 -0.2211
 5955SOL    HW129324   0.797   1.475   5.988  2.1124  0.4399 -0.5228
 5955SOL    HW229325   0.750   1.570   5.883 -1.0575  0.0538  0.8220
 5956SOL     OW29326   3.605   1.941  16.022  0.4203  0.2129 -0.7357
 5956SOL    HW129327   3.698   1.947  16.040  0.4246  1.5071 -1.1715
 5956SOL    HW229328   3.575   1.947  16.113  1.1612  0.2083 -0.4923
 5957SOL     OW29329   0.220   3.811  13.417 -0.2396  0.2572 -0.6503
 5957SOL    HW129330   0.131   3.793  13.447  0.5066 -3.4242 -0.6985
 5957SOL    HW229331   0.236   3.895  13.461  0.2316  0.1619 -0.6313
 5958SOL     OW29332   2.137   3.824   4.463 -0.7010 -0.1104  0.7320
 5958SOL    HW129333   2.202   3.767   4.422 -0.9485 -1.0608  1.6501
 5958SOL    HW229334   2.193   3.899   4.485  0.7136 -0.2813 -2.2650
 5959SOL     OW29335   1.124   0.306   3.811  0.6712 -0.0484  0.5315
 5959SOL    HW129336   1.190   0.279   3.748 -0.5358  3.0463 -2.0638
 5959SOL    HW229337   1.151   0.258   3.889 -1.7424  0.4974  1.7092
 5960SOL     OW29338   4.620   0.999   6.402 -0.5138 -0.6573 -0.6529
 5960SOL    HW129339   4.539   1.046   6.383 -0.8941 -1.4064 -0.9143
 5960SOL    HW229340   4.609   0.978   6.494 -3.2523 -1.0779 -1.0627
 5961SOL     OW29341   4.384   0.585  11.225  0.3752 -0.1799 -0.8007
 5961SOL    HW129342   4.355   0.649  11.289  2.3919 -0.9002  0.8010
 5961SOL    HW229343   4.477   0.606  11.227  0.1751  0.1509  5.4537
 5962SOL     OW29344   2.606   1.535  16.041 -0.3976  0.1157 -0.4910
 5962SOL    HW129345   2.687   1.518  15.993  0.2067 -0.5982  0.7607
 5962SOL    HW229346   2.566   1.608  15.993  1.0085  0.6291 -0.9001
 5963SOL     OW29347   2.961   1.839   7.585  0.5583 -0.0406  0.0110
 5963SOL    HW129348   2.916   1.847   7.669  1.0147  1.0444  0.1585
 5963SOL    HW229349   2.901   1.795   7.525 -0.1853 -1.0274  1.4777
 5964SOL     OW29350   4.485   2.902  15.166  0.3924  0.8048 -0.3063
 5964SOL    HW129351   4.472   2.869  15.255  0.1053  0.8301 -0.3409
 5964SOL    HW229352   4.566   2.952  15.179  1.0045 -0.3404  0.3402
 5965SOL     OW29353   4.708   2.602   1.876 -0.0206  0.0356 -0.0894
 5965SOL    HW129354   4.683   2.532   1.936 -1.4608  1.0457  0.4995
 5965SOL    HW229355   0.036   2.640   1.948  1.1782 -2.3560  0.3593
 5966SOL     OW29356   0.422   0.375   6.976  0.0323  0.7031  0.8353
 5966SOL    HW129357   0.363   0.312   6.935 -0.8124  3.5374 -2.3024
 5966SOL    HW229358   0.500   0.322   6.994  0.4360  0.1801 -2.3333
 5967SOL     OW29359   3.244   2.631  10.493  0.1738 -0.3823  0.0220
 5967SOL    HW129360   3.248   2.631  10.588 -0.2608 -0.3555  0.0426
 5967SOL    HW229361   3.208   2.546  10.467  2.1505 -1.7771  1.8970
 5968SOL     OW29362   1.057   1.157  10.870  0.4570  0.1140  0.2053
 5968SOL    HW129363   1.086   1.246  10.849 -1.0829  0.8299  1.1047
 5968SOL    HW229364   1.140   1.117  10.893  0.2518 -1.1786 -1.2820
 5969SOL     OW29365   2.288   1.342  17.629  0.2071  0.1139 -0.2207
 5969SOL    HW129366   2.257   1.426  17.595 -0.4594  0.5351  1.3982
 5969SOL    HW229367   2.206   1.294  17.639 -0.1785  0.8954  0.3335
 5970SOL     OW29368   3.431   4.379   4.268  0.1246 -0.0717  0.3400
 5970SOL    HW129369   3.425   4.424   4.183  0.7600 -1.8709 -0.6777
 5970SOL    HW229370   3.524   4.368   4.286  0.3373 -2.1656 -2.0008
 5971SOL     OW29371   0.175   2.967   4.696  0.0797  0.1357 -0.3378
 5971SOL    HW129372   0.152   2.897   4.757  0.0287  1.6137  1.3157
 5971SOL    HW229373   0.268   2.985   4.713  0.4869  0.3071 -2.6884
 5972SOL     OW29374   2.327   1.169   6.056 -0.3320 -0.1721  0.1392
 5972SOL    HW129375   2.379   1.142   6.132  2.2491  2.2609 -0.7266
 5972SOL    HW229376   2.265   1.233   6.089 -1.1352 -1.3017  0.7825
 5973SOL     OW29377   4.660   1.707   6.664 -0.7611 -0.3548 -0.3902
 5973SOL    HW129378   4.640   1.649   6.590 -1.7432  0.3627 -0.6911
 5973SOL    HW229379   4.597   1.779   6.653  1.3369  1.3349 -1.2819
 5974SOL     OW29380   3.274   1.437   3.763 -0.0609  0.0524 -0.6195
 5974SOL    HW129381   3.291   1.401   3.676  1.8917 -0.8052  0.1302
 5974SOL    HW229382   3.364   1.446   3.793 -0.2938  0.0863  0.0759
 5975SOL     OW29383   0.376   1.983   6.997 -0.0782 -0.1022 -0.3579
 5975SOL    HW129384   0.300   1.925   6.995 -0.7685  0.8233 -1.0430
 5975SOL    HW229385   0.334   2.054   7.046  1.1348 -0.4533  1.1799
 5976SOL     OW29386   3.874   0.993   2.991 -0.2151 -0.6051  0.1860
 5976SOL    HW129387   3.905   0.954   3.072  3.6679  1.5929 -0.2728
 5976SOL    HW229388   3.781   0.970   2.982 -0.3370 -1.0547  2.5717
 5977SOL     OW29389   3.311   0.606   2.146  0.2232 -0.8092 -0.2815
 5977SOL    HW129390   3.218   0.628   2.135  0.7706  0.2504 -2.8925
 5977SOL    HW229391   3.341   0.666   2.214  1.1857 -1.8267  0.1966
 5978SOL     OW29392   0.674   4.175  10.947  0.1138 -0.5916  0.1672
 5978SOL    HW129393   0.623   4.117  11.002  0.9048 -2.2300 -0.8107
 5978SOL    HW229394   0.691   4.116  10.873  0.9149  0.3494 -0.4116
 5979SOL     OW29395   2.996   4.381   6.599  0.1919  0.2516  0.6889
 5979SOL    HW129396   2.947   4.445   6.547 -2.0049  0.7832  3.3813
 5979SOL    HW229397   2.983   4.303   6.544  0.1505  0.0818  0.9401
 5980SOL     OW29398   0.073   4.542   4.261 -0.2979 -0.1272 -0.8957
 5980SOL    HW129399   0.115   4.457   4.248 -1.7133 -0.5991 -2.3093
 5980SOL    HW229400   4.708   4.530   4.222 -0.3695 -1.7610 -0.2183
 5981SOL     OW29401   2.885   2.443   3.363  0.1235  0.0848  0.7680
 5981SOL    HW129402   2.950   2.490   3.416 -0.5761  0.5227  1.2220
 5981SOL    HW229403   2.928   2.358   3.350 -0.0523  0.1474 -0.2444
 5982SOL     OW29404   1.562   1.771  13.636  0.1382 -0.5973  0.1186
 5982SOL    HW129405   1.584   1.730  13.719  0.7300 -1.1779 -0.3259
 5982SOL    HW229406   1.648   1.765  13.596  0.2010  0.2553  0.1183
 5983SOL     OW29407   0.196   0.252   7.775 -0.3671 -0.2887 -0.3581
 5983SOL    HW129408   0.263   0.271   7.841 -1.0683 -0.2161  0.3325
 5983SOL    HW229409   0.141   0.186   7.817  1.9375 -1.4011  0.8763
 5984SOL     OW29410   1.608   3.504  10.897 -0.2776 -0.2145 -0.1828
 5984SOL    HW129411   1.692   3.466  10.922 -0.3839  1.1415  2.1752
 5984SOL    HW229412   1.636   3.539  10.813  1.2746 -0.6594  0.1625
 5985SOL     OW29413   0.967   1.733  12.226  0.5146 -0.0164  0.1952
 5985SOL    HW129414   1.033   1.786  12.271  1.6905 -0.9048 -0.4800
 5985SOL    HW229415   0.905   1.804  12.211  0.9345  0.5612  1.2086
 5986SOL     OW29416   4.566   0.645  13.347  0.0966  0.4266 -0.1086
 5986SOL    HW129417   4.557   0.740  13.339  2.0774  0.7964  2.0198
 5986SOL    HW229418   4.636   0.638  13.412  0.1277  0.5227 -0.1309
 5987SOL     OW29419   0.765   3.969   7.421 -0.3462  0.3175 -0.3544
 5987SOL    HW129420   0.816   3.890   7.439  1.4644  1.4630 -0.5082
 5987SOL    HW229421   0.703   3.979   7.494  0.3543 -0.8102  0.3930
 5988SOL     OW29422   4.119   0.336   2.478 -0.2157 -0.1259 -0.0807
 5988SOL    HW129423   4.066   0.257   2.475 -0.1986 -0.1681  0.6435
 5988SOL    HW229424   4.054   0.403   2.499  1.4139  1.5897 -0.4808
 5989SOL     OW29425   1.973   2.527   8.859  0.1041  0.5153 -0.0755
 5989SOL    HW129426   1.939   2.616   8.845 -0.2619 -0.0485 -2.7660
 5989SOL    HW229427   1.962   2.524   8.954  0.7425 -0.8917 -0.0497
 5990SOL     OW29428   0.268   3.519   5.926  0.2220  0.4549  0.0001
 5990SOL    HW129429   0.188   3.562   5.956  0.8373  0.3936  1.7513
 5990SOL    HW229430   0.310   3.513   6.012 -0.9694 -0.8403  0.4843
 5991SOL     OW29431   0.047   2.799  15.315  0.6733  0.3170  0.2414
 5991SOL    HW129432   4.679   2.770  15.297  0.0301  0.9383  2.4751
 5991SOL    HW229433   0.039   2.880  15.266  2.7488 -0.6394 -1.6693
 5992SOL     OW29434   2.080   1.555   6.682 -0.2752  0.6702  0.9817
 5992SOL    HW129435   2.096   1.648   6.665 -2.0038  0.5641 -1.1821
 5992SOL    HW229436   2.105   1.550   6.775 -1.1447  1.3066  1.2552
 5993SOL     OW29437   1.971   0.103   7.982 -0.5880  0.4158 -0.0050
 5993SOL    HW129438   1.918   0.124   8.058  0.2765  1.4644  0.3013
 5993SOL    HW229439   1.964   0.182   7.928  1.3054  0.2479 -0.5183
 5994SOL     OW29440   3.369   4.635   1.494  0.3575  0.3655 -0.0826
 5994SOL    HW129441   3.430   4.563   1.505  1.6103  1.5651  0.9147
 5994SOL    HW229442   3.354   4.660   1.586  2.7158 -0.8496  0.6235
 5995SOL     OW29443   0.681   1.755   8.031 -0.6982 -0.2282  0.3950
 5995SOL    HW129444   0.636   1.783   7.951 -1.0575 -1.3334  0.2111
 5995SOL    HW229445   0.771   1.771   8.003 -1.2567  1.8668 -0.2273
 5996SOL     OW29446   1.705   3.139   3.317 -0.3343 -0.2520 -0.1659
 5996SOL    HW129447   1.625   3.098   3.284 -0.8124  1.1379 -0.7244
 5996SOL    HW229448   1.780   3.083   3.299 -0.3351 -1.1343  2.5202
 5997SOL     OW29449   0.263   0.351   3.976  0.4970 -0.2756  0.3002
 5997SOL    HW129450   0.329   0.379   3.912 -0.1622 -0.3316 -0.4078
 5997SOL    HW229451   0.275   0.402   4.056  0.2672 -3.2383  2.2219
 5998SOL     OW29452   3.175   3.685   8.590 -0.2391 -0.5963 -0.2725
 5998SOL    HW129453   3.102   3.693   8.651  1.4252  0.7477  1.5236
 5998SOL    HW229454   3.127   3.677   8.508  1.8216 -1.1885 -1.4184
 5999SOL     OW29455   1.654   2.458   3.526  0.1188 -0.0178 -0.4216
 5999SOL    HW129456   1.595   2.390   3.493 -0.2580 -0.0316  0.2598
 5999SOL    HW229457   1.735   2.435   3.481 -0.4200  0.1309 -1.4654
 6000SOL     OW29458   4.068   3.514   8.256 -0.2502 -0.0062 -0.2258
 6000SOL    HW129459   4.149   3.475   8.290 -1.5180 -2.1585  0.3309
 6000SOL    HW229460   4.010   3.502   8.331 -0.7490  1.7036 -0.3409
 6001SOL     OW29461   4.412   2.682  17.189  0.2262 -0.0642 -0.4507
 6001SOL    HW129462   4.453   2.698  17.274  0.4221 -0.7385 -0.4193
 6001SOL    HW229463   4.350   2.617  17.223  1.1742 -0.8826 -0.2777
 6002SOL     OW29464   4.239   1.653   8.454 -0.4753 -0.3160  0.2246
 6002SOL    HW129465   4.209   1.633   8.543  1.0439  1.4914  1.1372
 6002SOL    HW229466   4.162   1.686   8.407  1.6015  1.6480 -1.7886
 6003SOL     OW29467   4.196   1.885   4.577 -0.6826  0.1468 -0.1257
 6003SOL    HW129468   4.238   1.818   4.631 -0.9574 -1.8404 -2.3724
 6003SOL    HW229469   4.236   1.970   4.590 -0.4473 -0.0982  0.7413
 6004SOL     OW29470   1.828   4.707   5.931  0.1774  0.2903 -0.1200
 6004SOL    HW129471   1.782   4.642   5.878 -0.0704 -0.0949  0.5669
 6004SOL    HW229472   1.894   4.653   5.974  0.1128  1.6984  1.7653
 6005SOL     OW29473   0.100   2.011   3.984  0.2294 -0.9192  0.1671
 6005SOL    HW129474   0.057   1.946   4.040 -1.3468 -0.0608 -0.0518
 6005SOL    HW229475   0.167   1.953   3.946  0.9222 -0.1878  0.2594
 6006SOL     OW29476   4.109   1.857   8.977 -0.0717  0.0544 -0.1398
 6006SOL    HW129477   4.058   1.937   8.988  1.2315  0.6874  1.2977
 6006SOL    HW229478   4.160   1.863   9.058 -2.4800  5.5329  0.9764
 6007SOL     OW29479   4.153   1.562   3.715 -0.2969  0.5080  0.1334
 6007SOL    HW129480   4.172   1.469   3.704 -0.7230  0.6183 -1.5939
 6007SOL    HW229481   4.221   1.591   3.654 -0.6405  0.8795 -0.0754
 6008SOL     OW29482   0.372   0.967   4.391 -0.0261  0.8545 -0.7641
 6008SOL    HW129483   0.394   0.921   4.310  1.1329  0.7370 -0.3817
 6008SOL    HW229484   0.456   1.008   4.412  1.0972 -1.3879 -0.9028
 6009SOL     OW29485   4.071   2.779   1.087 -0.3968  0.1209 -0.0078
 6009SOL    HW129486   4.087   2.691   1.051  1.1929  1.2894 -2.1811
 6009SOL    HW229487   4.096   2.758   1.177 -2.2445  0.8100  0.6687
 6010SOL     OW29488   0.003   0.045  11.625 -0.0286  0.0902 -0.4747
 6010SOL    HW129489   0.034   4.692  11.678 -3.8355 -1.1607  0.0035
 6010SOL    HW229490   4.636   0.059  11.660 -0.1611 -0.5017 -0.5576
 6011SOL     OW29491   3.818   0.449  12.273 -0.3809 -0.6913  0.6886
 6011SOL    HW129492   3.776   0.364  12.258 -2.3557  0.1624  1.3807
 6011SOL    HW229493   3.877   0.447  12.197 -1.2323  1.6132 -0.0437
 6012SOL     OW29494   2.451   4.337   8.604 -0.6213  0.5616 -0.3705
 6012SOL    HW129495   2.377   4.391   8.577 -0.7689  0.3204 -0.4534
 6012SOL    HW229496   2.411   4.254   8.630  0.1786  0.3949  0.3279
 6013SOL     OW29497   4.695   2.934   6.222 -0.2652 -0.6145 -0.1290
 6013SOL    HW129498   4.613   2.887   6.235 -0.7201  0.0414 -0.6328
 6013SOL    HW229499   4.716   2.931   6.315 -1.9576 -0.6377  0.2437
 6014SOL     OW29500   0.082   1.475   9.644 -0.0020  0.6385  0.1770
 6014SOL    HW129501   0.004   1.526   9.666 -0.5742 -0.8253  1.4916
 6014SOL    HW229502   0.121   1.452   9.728 -1.1130 -3.1159 -0.3525
 6015SOL     OW29503   1.070   1.030  12.084  0.1765  0.6509  0.6255
 6015SOL    HW129504   1.044   1.114  12.122  0.8981  0.3357  1.8059
 6015SOL    HW229505   1.159   1.051  12.055  0.7700 -1.2246  1.0904
 6016SOL     OW29506   3.246   4.192   4.336 -0.0843 -0.2102  0.1741
 6016SOL    HW129507   3.190   4.250   4.387 -0.7693  0.8505 -1.7827
 6016SOL    HW229508   3.309   4.261   4.313 -0.3088 -0.1691 -0.3123
 6017SOL     OW29509   3.110   2.613  12.726 -0.0305  0.0603  0.4734
 6017SOL    HW129510   3.196   2.622  12.683 -0.2316 -0.6851 -0.0760
 6017SOL    HW229511   3.079   2.543  12.670 -1.7095  0.9550  0.2893
 6018SOL     OW29512   1.751   1.943  10.458  0.1480  0.1383 -0.7322
 6018SOL    HW129513   1.784   1.975  10.542  0.0854  2.3005 -1.5312
 6018SOL    HW229514   1.686   2.011  10.441 -1.3649 -0.6180  1.9955
 6019SOL     OW29515   2.105   0.169   0.013  0.3479  0.7104 -0.6446
 6019SOL    HW129516   2.184   0.156  17.649  0.8663  0.4530  0.2124
 6019SOL    HW229517   2.115   0.109   0.087  0.2422  0.0819 -1.1403
 6020SOL     OW29518   3.654   4.164  11.688 -0.2979 -0.0762 -0.7428
 6020SOL    HW129519   3.729   4.168  11.747  0.1076 -1.1344 -1.1744
 6020SOL    HW229520   3.601   4.100  11.736 -0.6420  0.2705 -0.6667
 6021SOL     OW29521   3.094   1.729   6.492 -0.4817  0.1719 -0.1363
 6021SOL    HW129522   3.087   1.660   6.426  1.0631 -0.6577  0.5730
 6021SOL    HW229523   3.188   1.744   6.490 -0.7478  1.9540  0.5768
 6022SOL     OW29524   0.302   0.832  14.373  0.0013 -0.0409 -0.1273
 6022SOL    HW129525   0.226   0.776  14.389  0.0551  0.3459  1.4969
 6022SOL    HW229526   0.321   0.794  14.288  2.7790  1.5129 -0.1691
 6023SOL     OW29527   3.152   0.460   5.509 -0.2206 -0.6629 -0.1788
 6023SOL    HW129528   3.126   0.418   5.427 -1.5573 -0.4039  0.1270
 6023SOL    HW229529   3.083   0.432   5.569  0.9621 -2.0112  0.5636
 6024SOL     OW29530   0.454   0.424   5.024  0.3467  0.4524  0.1333
 6024SOL    HW129531   0.461   0.424   4.929  0.9480 -4.7253  0.1790
 6024SOL    HW229532   0.529   0.472   5.060  1.9614 -1.7644 -0.3231
 6025SOL     OW29533   0.268   3.334   5.099 -0.3656 -0.1297  0.1809
 6025SOL    HW129534   0.234   3.289   5.022 -0.9819 -2.4146  1.8051
 6025SOL    HW229535   0.317   3.404   5.056  0.3369  0.1626  1.4376
 6026SOL     OW29536   3.162   4.654   5.860 -0.4991 -0.4116  0.7123
 6026SOL    HW129537   3.153   4.673   5.953  1.1800 -0.3440  0.8509
 6026SOL    HW229538   3.104   4.720   5.821  0.1254  0.1118  0.6850
 6027SOL     OW29539   4.335   2.811   2.890  0.5599 -0.3212 -0.2626
 6027SOL    HW129540   4.243   2.812   2.913  0.0291  2.0938 -2.4742
 6027SOL    HW229541   4.327   2.757   2.812  0.8572 -0.1663 -0.4014
 6028SOL     OW29542   0.183   3.780   8.185 -0.3794  0.2719  0.0839
 6028SOL    HW129543   0.142   3.702   8.224  0.7063 -0.4175 -0.1562
 6028SOL    HW229544   0.147   3.752   8.101  0.7659 -0.1339 -0.2698
 6029SOL     OW29545   3.501   1.709  16.823  0.2622 -0.0217  0.4290
 6029SOL    HW129546   3.436   1.752  16.878 -0.8877 -2.0161  0.6462
 6029SOL    HW229547   3.449   1.643  16.778  1.6286 -0.9895  0.2688
 6030SOL     OW29548   0.891   2.018   8.407 -0.2045  0.5261  0.0371
 6030SOL    HW129549   0.893   2.075   8.330  0.3720  0.9655  0.3837
 6030SOL    HW229550   0.840   1.947   8.367 -1.4281 -0.0224  2.5610
 6031SOL     OW29551   2.336   2.864   6.674 -0.0592  0.0251  0.5460
 6031SOL    HW129552   2.425   2.895   6.653  0.8727 -3.0570 -0.0411
 6031SOL    HW229553   2.351   2.779   6.715 -1.1817  1.2251  3.4533
 6032SOL     OW29554   4.497   0.725  14.252 -0.5733  0.0825 -0.6782
 6032SOL    HW129555   4.425   0.703  14.311  0.1803 -0.5511 -0.0001
 6032SOL    HW229556   4.544   0.795  14.298 -0.4735 -1.3611  1.4014
 6033SOL     OW29557   3.470   0.787   0.016  0.0574 -0.0718 -0.0939
 6033SOL    HW129558   3.439   0.742  17.624  2.2972 -0.2972 -0.8366
 6033SOL    HW229559   3.564   0.782  17.685  0.0874 -0.5565  0.2071
 6034SOL     OW29560   0.128   4.331  12.520 -0.8408 -0.3715  0.1383
 6034SOL    HW129561   0.055   4.294  12.470 -1.9852  2.1884 -0.0602
 6034SOL    HW229562   0.205   4.302  12.472  0.2040  0.1855  1.4813
 6035SOL     OW29563   3.359   1.426  11.742  0.2918  0.1040 -0.3357
 6035SOL    HW129564   3.275   1.456  11.776  1.6464  2.8682  0.5301
 6035SOL    HW229565   3.367   1.337  11.778 -3.1236 -0.1018 -0.1053
 6036SOL     OW29566   0.789   2.574   7.981  0.3255  0.7531  0.0347
 6036SOL    HW129567   0.714   2.543   7.930  0.7426 -1.5538  0.8397
 6036SOL    HW229568   0.765   2.535   8.065 -1.0149 -0.6553 -1.0074
 6037SOL     OW29569   3.786   2.302  16.959 -0.4842  0.3561  0.6539
 6037SOL    HW129570   3.836   2.363  17.012  0.1126  0.7042 -0.2953
 6037SOL    HW229571   3.777   2.226  17.016 -0.2054 -0.9842 -1.0849
 6038SOL     OW29572   4.156   4.532   6.768  0.6176 -0.8881 -0.3945
 6038SOL    HW129573   4.088   4.518   6.702  1.8194  1.3047 -2.1051
 6038SOL    HW229574   4.200   4.448   6.774  2.7181  0.3080  0.8001
 6039SOL     OW29575   4.707   3.683  12.381 -0.0688  0.3699 -0.3024
 6039SOL    HW129576   4.651   3.745  12.427  0.4462 -1.0768  2.2786
 6039SOL    HW229577   4.669   3.599  12.407  1.0881  0.5033  1.8289
 6040SOL     OW29578   2.898   3.872   1.430  0.1959 -0.0954  0.8981
 6040SOL    HW129579   2.932   3.789   1.395 -3.0721 -1.7059  1.5716
 6040SOL    HW229580   2.969   3.899   1.488 -1.3055  2.1990  1.6666
 6041SOL     OW29581   4.395   1.725   4.758 -0.0201  1.0175 -0.7612
 6041SOL    HW129582   4.343   1.783   4.814  0.7814  1.8486 -0.8583
 6041SOL    HW229583   4.342   1.650   4.784  1.0232  0.9558  1.1969
 6042SOL     OW29584   3.011   3.840   2.545 -0.0647 -0.6708 -0.7460
 6042SOL    HW129585   2.982   3.780   2.475 -0.2927 -0.4112 -0.8758
 6042SOL    HW229586   2.927   3.860   2.586 -0.2059  2.2734 -2.4627
 6043SOL     OW29587   2.530   0.307   3.417 -0.2362 -0.1604 -0.3222
 6043SOL    HW129588   2.589   0.249   3.466  0.6154  0.7049 -0.3370
 6043SOL    HW229589   2.548   0.267   3.331  0.1902 -0.0166 -0.2992
 6044SOL     OW29590   1.463   4.475   7.834  0.4337 -0.9746 -0.0255
 6044SOL    HW129591   1.373   4.448   7.815 -0.9640  2.2345  2.0644
 6044SOL    HW229592   1.476   4.547   7.773 -1.6958 -2.3899 -2.1582
 6045SOL     OW29593   1.224   3.535   1.776  0.4470  0.0191  0.3445
 6045SOL    HW129594   1.292   3.504   1.717  0.8053 -1.4647  1.5396
 6045SOL    HW229595   1.240   3.480   1.852  1.4145 -0.1558  0.0082
 6046SOL     OW29596   1.323   2.111  13.968  0.1051 -0.1018  0.2167
 6046SOL    HW129597   1.408   2.079  13.936 -0.9002 -0.8689 -1.7214
 6046SOL    HW229598   1.333   2.204  13.948 -1.3191 -0.0729 -0.3964
 6047SOL     OW29599   2.528   0.385  10.884  0.0164 -0.3041  0.0567
 6047SOL    HW129600   2.554   0.347  10.800  0.5738  1.1183 -0.3991
 6047SOL    HW229601   2.584   0.462  10.884 -0.7319  0.2399  4.3067
 6048SOL     OW29602   4.125   3.399   2.626 -0.0037 -0.5004  0.4144
 6048SOL    HW129603   4.034   3.416   2.603  0.3588 -1.0882 -1.4968
 6048SOL    HW229604   4.110   3.335   2.696  2.1392 -0.2938  1.0761
 6049SOL     OW29605   4.387   2.317   8.986  0.2652 -0.2030  0.9427
 6049SOL    HW129606   4.344   2.294   9.069  0.7005  1.0251  1.5021
 6049SOL    HW229607   4.478   2.297   9.010  1.6741  1.7653 -2.8420
 6050SOL     OW29608   3.214   1.461   6.022  0.0228 -0.0393  1.1729
 6050SOL    HW129609   3.236   1.389   6.081 -1.5607 -1.4699  0.0039
 6050SOL    HW229610   3.270   1.438   5.948  0.0382  0.4861  1.0226
 6051SOL     OW29611   2.956   2.522  11.818  0.2104 -0.1322  0.2104
 6051SOL    HW129612   2.961   2.446  11.876 -2.7063 -0.7104 -0.2701
 6051SOL    HW229613   3.028   2.576  11.849  0.1770 -0.8289  1.4921
 6052SOL     OW29614   2.758   1.498   2.573  0.2684  0.1318 -0.3193
 6052SOL    HW129615   2.826   1.434   2.593 -0.4059 -0.1983  0.8655
 6052SOL    HW229616   2.686   1.442   2.602 -0.6657  0.7654 -1.3776
 6053SOL     OW29617   4.489   4.655  12.844 -0.2952  0.0863  0.1633
 6053SOL    HW129618   4.561   4.719  12.838  0.2772 -0.7847 -2.4981
 6053SOL    HW229619   4.532   4.575  12.815  2.0255  1.2819  0.2897
 6054SOL     OW29620   2.757   3.721   5.981  0.5490 -0.4471  0.2413
 6054SOL    HW129621   2.773   3.813   5.962  0.2636 -0.6914 -1.1796
 6054SOL    HW229622   2.667   3.712   6.010  1.3164 -2.7946  1.8929
 6055SOL     OW29623   4.459   3.366   4.859  0.5074 -0.2776  0.8573
 6055SOL    HW129624   4.370   3.386   4.887 -0.5290  0.2168 -2.7370
 6055SOL    HW229625   4.517   3.428   4.903  0.4584 -0.9558  1.8842
 6056SOL     OW29626   1.214   3.453   9.052  0.2887 -0.2879 -0.2422
 6056SOL    HW129627   1.188   3.434   9.142  2.4865 -0.4401  0.3727
 6056SOL    HW229628   1.128   3.459   9.012 -0.2163 -0.7802  0.7877
 6057SOL     OW29629   4.116   0.703   8.386 -0.2585  0.0722 -0.4175
 6057SOL    HW129630   4.194   0.700   8.330 -0.1888  0.8699 -0.3712
 6057SOL    HW229631   4.130   0.792   8.419  0.3067  0.4319 -1.6198
 6058SOL     OW29632   2.171   0.097   4.343  0.1795  0.6735  0.1760
 6058SOL    HW129633   2.247   0.078   4.289  0.6142  2.2424  0.2394
 6058SOL    HW229634   2.157   0.009   4.379  1.1369 -0.3196 -1.8563
 6059SOL     OW29635   0.292   3.219   7.174  0.0002  0.0500  0.0454
 6059SOL    HW129636   0.365   3.232   7.234 -1.3970 -0.1050  1.7896
 6059SOL    HW229637   0.246   3.302   7.184 -0.4094 -0.3991  1.9381
 6060SOL     OW29638   2.355   3.019   0.128  0.1351 -0.1289  0.2853
 6060SOL    HW129639   2.315   2.934   0.109 -1.5530  0.1491  2.5783
 6060SOL    HW229640   2.432   2.975   0.164  1.1942  1.0963 -0.4836
 6061SOL     OW29641   2.425   3.965   8.944  0.4835  0.2852  0.4657
 6061SOL    HW129642   2.413   4.060   8.935  0.0926  0.3857  1.9798
 6061SOL    HW229643   2.350   3.957   9.004  1.1688 -0.2468  1.2566
 6062SOL     OW29644   1.580   0.681   7.307  0.0381 -0.5256 -0.8441
 6062SOL    HW129645   1.670   0.665   7.336 -1.1425  2.2103  4.3286
 6062SOL    HW229646   1.539   0.614   7.362  0.8688  0.4781  1.0191
 6063SOL     OW29647   2.388   2.527   0.423 -0.2679 -0.0607 -0.2687
 6063SOL    HW129648   2.374   2.589   0.494 -1.9374 -0.9582  0.2025
 6063SOL    HW229649   2.436   2.461   0.473  0.9983  0.5975 -0.6399
 6064SOL     OW29650   0.846   0.234   7.893  0.4572  0.1915  0.5790
 6064SOL    HW129651   0.805   0.295   7.954 -0.5071 -1.4035  1.5480
 6064SOL    HW229652   0.915   0.295   7.869  0.6568 -0.2955 -0.1018
 6065SOL     OW29653   0.030   1.955   5.042  0.7075 -0.0154 -0.5221
 6065SOL    HW129654   0.110   1.938   5.091  0.8071 -1.8402 -1.3337
 6065SOL    HW229655   0.004   1.865   5.025  0.8918 -0.4636  1.6430
 6066SOL     OW29656   1.861   0.234   9.552  0.5990 -0.5365 -0.1169
 6066SOL    HW129657   1.905   0.314   9.521 -0.2059  0.1631  0.5554
 6066SOL    HW229658   1.820   0.218   9.468 -1.3722  3.1421  0.1580
 6067SOL     OW29659   1.491   1.329   7.627  0.9605  0.3357 -0.0444
 6067SOL    HW129660   1.431   1.353   7.557  0.3891  0.5987  0.5354
 6067SOL    HW229661   1.561   1.394   7.618  0.7632  0.1821 -2.5556
 6068SOL     OW29662   3.095   4.707   8.375 -0.0811  0.1609  0.3064
 6068SOL    HW129663   3.037   0.054   8.409 -0.9589 -0.4156 -0.0227
 6068SOL    HW229664   3.052   4.622   8.392  1.8367 -0.8699 -0.0444
 6069SOL     OW29665   1.018   3.766   5.066 -0.1106  0.6154  0.1231
 6069SOL    HW129666   1.047   3.713   5.140 -1.6142 -0.0619  0.2224
 6069SOL    HW229667   1.100   3.763   5.017 -0.2043  1.5969 -0.0828
 6070SOL     OW29668   2.839   0.412   3.785 -0.2507 -0.0153  0.8135
 6070SOL    HW129669   2.794   0.370   3.859 -0.7081 -2.3050 -0.7762
 6070SOL    HW229670   2.798   0.366   3.712  0.7384  0.6665 -0.1706
 6071SOL     OW29671   3.739   1.966   8.244  0.3095  0.9507  0.3483
 6071SOL    HW129672   3.809   1.909   8.276  0.3789  1.4722  1.1165
 6071SOL    HW229673   3.779   2.048   8.217  1.1056  1.2583  2.4565
 6072SOL     OW29674   2.430   2.511   3.963 -0.0289  0.0822 -0.0795
 6072SOL    HW129675   2.524   2.491   3.954 -0.1294  0.1761 -1.3252
 6072SOL    HW229676   2.399   2.530   3.875  2.9853 -0.4905 -1.2853
 6073SOL     OW29677   3.781   1.526   1.702  0.3445  0.2718  0.0560
 6073SOL    HW129678   3.809   1.519   1.793  1.2486 -1.3163 -0.3373
 6073SOL    HW229679   3.857   1.499   1.651 -0.6330 -2.4450  0.0324
 6074SOL     OW29680   4.001   3.156   1.442  0.5075  0.4796  0.2504
 6074SOL    HW129681   3.927   3.111   1.399  0.1114  0.1087  1.3294
 6074SOL    HW229682   4.043   3.189   1.363  2.2959 -1.9517  0.2008
 6075SOL     OW29683   3.478   4.028  14.143 -0.4291  0.2817 -0.0368
 6075SOL    HW129684   3.518   4.108  14.179 -0.6967 -0.1056  1.0878
 6075SOL    HW229685   3.402   4.019  14.199 -0.0644 -2.0434  0.0812
 6076SOL     OW29686   1.596   1.760  10.199 -0.0343  0.2890  0.1328
 6076SOL    HW129687   1.584   1.701  10.124 -1.3488 -0.9486  1.3325
 6076SOL    HW229688   1.536   1.834  10.184  1.0426  1.0447 -0.4378
 6077SOL     OW29689   3.012   2.631   1.753  0.8218  0.0078 -0.1983
 6077SOL    HW129690   3.032   2.722   1.731 -0.0759  0.0277 -0.9170
 6077SOL    HW229691   3.082   2.614   1.816  1.3930  1.2191 -0.5060
 6078SOL     OW29692   0.106   0.992  15.427 -0.2330  0.7106 -0.0856
 6078SOL    HW129693   0.163   0.998  15.504 -0.8887  1.2675  0.3602
 6078SOL    HW229694   0.165   0.965  15.357 -2.5781 -1.0470 -1.4073
 6079SOL     OW29695   0.893   0.192  14.274  0.2885  0.0841  0.4246
 6079SOL    HW129696   0.926   0.113  14.230 -0.3517 -0.3258  0.6783
 6079SOL    HW229697   0.885   0.256  14.204 -3.1528  0.3748  1.0866
 6080SOL     OW29698   1.381   3.262  17.206  0.0786 -0.2617 -0.2807
 6080SOL    HW129699   1.410   3.318  17.134  0.3199  0.5286  0.4369
 6080SOL    HW229700   1.310   3.217  17.161  1.9592 -1.9267 -1.5594
 6081SOL     OW29701   3.723   1.810   9.861  0.3885 -0.2825 -0.0729
 6081SOL    HW129702   3.713   1.891   9.811  1.1653  0.1629  0.4845
 6081SOL    HW229703   3.672   1.836   9.937  2.1687 -0.6319  1.2398
 6082SOL     OW29704   3.571   1.822  10.304 -0.6306  0.1428  0.4598
 6082SOL    HW129705   3.544   1.831  10.395 -1.3371  1.0946  0.1561
 6082SOL    HW229706   3.623   1.742  10.302  0.4095  0.8920 -2.2207
 6083SOL     OW29707   1.062   0.066   0.769  0.0291 -0.2936 -0.4194
 6083SOL    HW129708   1.021   0.031   0.690  0.8669 -1.2375 -0.4377
 6083SOL    HW229709   0.991   0.099   0.824  1.5546  3.0385 -0.4735
 6084SOL     OW29710   2.654   4.382   1.947 -0.3351  0.0400 -0.6689
 6084SOL    HW129711   2.645   4.472   1.918  1.6068  0.9841  1.6420
 6084SOL    HW229712   2.683   4.351   1.861 -2.3751 -1.7031 -0.7167
 6085SOL     OW29713   1.430   3.798   9.880  0.1669  0.3387  0.8458
 6085SOL    HW129714   1.510   3.786   9.932 -1.0350 -2.8050  1.9586
 6085SOL    HW229715   1.388   3.866   9.931 -1.2703 -0.5387  0.8426
 6086SOL     OW29716   0.924   1.889   3.151  0.3739 -0.0014 -0.0412
 6086SOL    HW129717   0.901   1.980   3.168  3.0043  0.4777  0.8920
 6086SOL    HW229718   0.931   1.889   3.055 -0.6404  1.2059 -0.1094
 6087SOL     OW29719   0.519   0.855   8.749 -0.0159  0.4076 -0.7431
 6087SOL    HW129720   0.519   0.791   8.821  1.0047 -1.6488 -2.5954
 6087SOL    HW229721   0.469   0.930   8.781 -0.5577 -0.8857  1.5025
 6088SOL     OW29722   1.400   4.073   7.877  0.8198  0.3178 -0.5775
 6088SOL    HW129723   1.333   4.118   7.827 -0.4938 -0.5583  0.3913
 6088SOL    HW229724   1.370   4.089   7.967  1.7700  1.1588 -0.4015
 6089SOL     OW29725   1.789   1.698   3.397  0.4548  0.1009  0.1276
 6089SOL    HW129726   1.839   1.679   3.317  1.4980  0.0133  0.8047
 6089SOL    HW229727   1.703   1.683   3.358  0.6029  0.1502 -0.2192
 6090SOL     OW29728   0.350   4.453   3.324  0.3849 -0.4659  0.4154
 6090SOL    HW129729   0.354   4.546   3.346  0.3413 -0.5943  0.9769
 6090SOL    HW229730   0.342   4.440   3.229 -0.4383 -0.2576  0.4555
 6091SOL     OW29731   1.515   0.235   1.411 -0.2185  0.4119  0.2178
 6091SOL    HW129732   1.510   0.187   1.494  0.1409  1.2247  0.7221
 6091SOL    HW229733   1.477   0.177   1.346  2.4276 -1.2323  0.1377
 6092SOL     OW29734   1.336   0.362   4.648 -0.3862 -0.1124 -0.2813
 6092SOL    HW129735   1.249   0.339   4.680 -1.3058  1.8027 -1.4668
 6092SOL    HW229736   1.376   0.275   4.646 -2.1330 -0.8945 -1.4760
 6093SOL     OW29737   4.651   1.790   2.078  0.0175 -0.6390 -0.5972
 6093SOL    HW129738   4.623   1.790   1.987  0.6207 -3.9413 -0.8012
 6093SOL    HW229739   4.604   1.716   2.117 -1.0906 -0.4777 -1.6316
 6094SOL     OW29740   3.922   3.040   9.378 -0.3596 -0.2494 -0.1882
 6094SOL    HW129741   3.928   3.043   9.282  2.4030  1.3452  0.0272
 6094SOL    HW229742   3.905   2.946   9.378 -0.2889 -0.2631 -0.5483
 6095SOL     OW29743   1.986   4.021   8.257 -0.4802 -0.1147  0.4684
 6095SOL    HW129744   2.018   4.059   8.339  0.2130 -0.4836  0.3646
 6095SOL    HW229745   2.064   4.024   8.203  0.9708 -2.6861  2.4375
 6096SOL     OW29746   2.107   1.202   8.104  0.1282  0.1146 -0.2933
 6096SOL    HW129747   2.169   1.207   8.177 -0.9357  1.4081  0.5464
 6096SOL    HW229748   2.149   1.141   8.044  0.0800 -0.9424  0.7433
 6097SOL     OW29749   1.770   1.211  16.933  0.3509 -0.9659  0.1657
 6097SOL    HW129750   1.698   1.152  16.957 -0.2996  0.9185  2.9252
 6097SOL    HW229751   1.735   1.298  16.951  2.5754 -0.2473  1.0559
 6098SOL     OW29752   1.569   2.969   4.278  0.1464 -0.0519 -0.0332
 6098SOL    HW129753   1.497   3.005   4.226  1.1214  1.7028 -0.1586
 6098SOL    HW229754   1.608   3.053   4.299  1.0816 -0.3683 -0.5128
 6099SOL     OW29755   3.157   2.573  15.765 -0.0991 -0.2848 -0.1073
 6099SOL    HW129756   3.165   2.638  15.836 -1.5111 -1.4744  1.1451
 6099SOL    HW229757   3.222   2.610  15.706 -1.2278  0.8552 -0.6470
 6100SOL     OW29758   3.417   0.763   7.167  0.1296 -0.2316 -0.2546
 6100SOL    HW129759   3.430   0.700   7.096 -3.0373 -1.7487  0.5360
 6100SOL    HW229760   3.487   0.740   7.228 -1.3561 -0.8763  1.1967
 6101SOL     OW29761   0.168   4.451   3.716  0.8302 -0.4660 -0.0144
 6101SOL    HW129762   0.146   4.416   3.630  0.2914 -1.3020  0.4633
 6101SOL    HW229763   0.133   4.540   3.715 -0.9336 -1.1403  1.8298
 6102SOL     OW29764   3.859   0.961   5.189 -0.4290 -0.2431 -0.3432
 6102SOL    HW129765   3.895   0.953   5.101 -0.0829 -0.2961 -0.1977
 6102SOL    HW229766   3.837   0.871   5.211 -1.1056 -0.3518 -1.5093
 6103SOL     OW29767   3.883   0.895   9.201  0.1177 -0.4490 -0.1458
 6103SOL    HW129768   3.931   0.813   9.191  2.5226  0.8983  0.2521
 6103SOL    HW229769   3.948   0.963   9.184  0.4863 -1.0207 -0.9964
 6104SOL     OW29770   2.456   0.165   3.772 -0.3867  0.4774  0.3738
 6104SOL    HW129771   2.474   0.111   3.849  1.0788  0.1049 -0.2253
 6104SOL    HW229772   2.363   0.149   3.759  0.2035 -1.7260 -1.2016
 6105SOL     OW29773   1.901   2.489  10.634  0.4184 -0.3254 -0.2538
 6105SOL    HW129774   1.819   2.463  10.677  1.1991  1.2881  2.2180
 6105SOL    HW229775   1.875   2.494  10.542  0.4171  0.3438 -0.2188
 6106SOL     OW29776   3.373   0.789   2.357 -0.0978  0.2992 -0.0340
 6106SOL    HW129777   3.293   0.829   2.391 -1.3650 -1.4589 -0.9104
 6106SOL    HW229778   3.420   0.867   2.328 -1.1667  1.3496  1.0638
 6107SOL     OW29779   4.431   3.192  16.869 -0.1970  0.3086  0.1793
 6107SOL    HW129780   4.471   3.275  16.898 -1.4370  1.6221 -1.9118
 6107SOL    HW229781   4.492   3.141  16.922  0.1541 -1.3231 -1.8119
 6108SOL     OW29782   3.085   2.420  14.987 -0.2600  0.1806 -0.2022
 6108SOL    HW129783   3.099   2.382  14.900 -1.0690  0.4509 -0.4554
 6108SOL    HW229784   3.121   2.508  14.978 -0.8800  0.9195  4.5982
 6109SOL     OW29785   1.024   3.070   6.965 -0.1465 -0.3427 -0.0282
 6109SOL    HW129786   1.089   3.129   6.926 -1.3145  1.1122  0.2136
 6109SOL    HW229787   1.078   3.038   7.038 -1.3016  0.0911  1.0240
 6110SOL     OW29788   1.889   4.625   8.744  0.0999  0.1064  0.0728
 6110SOL    HW129789   1.883   4.577   8.662 -0.7236 -0.3562  0.3972
 6110SOL    HW229790   1.912   4.712   8.712 -1.6898 -0.2788 -2.2442
 6111SOL     OW29791   1.909   4.047  15.262  0.3319 -0.1792 -0.0642
 6111SOL    HW129792   1.979   4.037  15.198  1.5126 -3.5416  1.7307
 6111SOL    HW229793   1.866   4.127  15.232  1.0177  0.9428  1.9134
 6112SOL     OW29794   2.969   0.261   6.484  0.3890 -0.3513  0.5457
 6112SOL    HW129795   3.022   0.258   6.403  0.2337  0.5321  0.4038
 6112SOL    HW229796   3.015   0.194   6.534 -0.1779 -0.8466  0.3975
 6113SOL     OW29797   1.683   4.149  16.865  0.2348  0.6926 -0.3988
 6113SOL    HW129798   1.619   4.132  16.796  0.0522 -1.8363  0.3823
 6113SOL    HW229799   1.749   4.088  16.833 -2.4840 -0.6550 -3.4188
 6114SOL     OW29800   1.018   1.551  15.547  0.0537 -0.5186  0.0947
 6114SOL    HW129801   0.948   1.485  15.552  0.0790 -0.6728 -1.5950
 6114SOL    HW229802   1.052   1.540  15.458 -1.3281  0.6598 -0.5942
 6115SOL     OW29803   2.657   3.871   5.393 -1.0480  0.2295  0.4984
 6115SOL    HW129804   2.723   3.895   5.458  1.8813  0.7779 -2.6807
 6115SOL    HW229805   2.609   3.954   5.389 -0.9846  0.2840  0.8722
 6116SOL     OW29806   2.758   0.875   4.021 -0.0380  0.1905  0.3696
 6116SOL    HW129807   2.775   0.969   4.023 -1.2304  0.3983  0.5256
 6116SOL    HW229808   2.848   0.848   4.041 -0.4811 -1.1736  0.5279
 6117SOL     OW29809   3.763   0.938   8.341  0.2354  0.0059 -0.1216
 6117SOL    HW129810   3.756   0.864   8.402  1.9047  2.1436  2.6083
 6117SOL    HW229811   3.761   0.884   8.262  0.1166  3.0069 -2.1401
 6118SOL     OW29812   0.907   0.611   2.728 -0.2309  0.0202  0.3140
 6118SOL    HW129813   1.001   0.594   2.739 -0.3128 -1.5897 -1.3373
 6118SOL    HW229814   0.891   0.622   2.634 -2.0500 -0.7805  0.5186
 6119SOL     OW29815   3.169   4.412   7.048  0.4194  0.1378 -0.1234
 6119SOL    HW129816   3.200   4.488   7.097 -0.8261  0.3071  0.4071
 6119SOL    HW229817   3.164   4.450   6.960  0.7020 -0.3958 -0.3697
 6120SOL     OW29818   1.440   1.410  11.512  0.1419 -0.0073 -0.2522
 6120SOL    HW129819   1.345   1.409  11.503 -0.0888 -0.0708  2.3180
 6120SOL    HW229820   1.461   1.362  11.431  0.4037 -1.5361  0.7309
 6121SOL     OW29821   0.949   4.503   5.920  0.6270 -0.5193  0.3614
 6121SOL    HW129822   0.947   4.569   5.989 -2.3325 -0.9184  0.6368
 6121SOL    HW229823   0.875   4.520   5.862  0.4687 -1.1666  0.3694
 6122SOL     OW29824   2.288   1.182  16.310  0.5687  0.6210  0.3857
 6122SOL    HW129825   2.227   1.255  16.310 -0.6410 -0.3948  2.3551
 6122SOL    HW229826   2.330   1.190  16.396 -0.5370 -2.2178  1.1743
 6123SOL     OW29827   1.653   1.975   3.734 -0.3292 -0.0696  0.2821
 6123SOL    HW129828   1.558   1.986   3.729 -0.3271  0.5433  1.6193
 6123SOL    HW229829   1.653   1.888   3.774 -1.6422 -1.1162 -1.9932
 6124SOL     OW29830   3.754   0.217   8.977  0.4387  0.1216 -0.3171
 6124SOL    HW129831   3.699   0.142   8.999  0.3117  0.0591 -0.8354
 6124SOL    HW229832   3.729   0.241   8.888  1.2608  0.6089 -0.4144
 6125SOL     OW29833   3.284   4.401  16.268 -0.1911  0.5445  0.4691
 6125SOL    HW129834   3.311   4.492  16.262 -0.8950  0.7091 -0.3881
 6125SOL    HW229835   3.198   4.404  16.226  1.7732  0.1990 -3.6025
 6126SOL     OW29836   2.007   2.491   4.064  0.0077 -0.0079 -0.4244
 6126SOL    HW129837   2.064   2.496   3.987 -0.4106  0.7931 -0.6867
 6126SOL    HW229838   1.928   2.530   4.028  0.2560 -0.0331 -0.9947
 6127SOL     OW29839   0.512   0.390   6.599 -0.6036 -0.3535  0.0205
 6127SOL    HW129840   0.577   0.416   6.665 -1.7920  1.5485  0.4419
 6127SOL    HW229841   0.575   0.356   6.535  0.9790  2.7834 -0.1011
 6128SOL     OW29842   3.061   1.559   3.241  0.4754 -0.4173 -0.0517
 6128SOL    HW129843   3.093   1.469   3.233  1.4075 -0.1011  0.0692
 6128SOL    HW229844   2.967   1.547   3.247  0.7904 -1.0733  3.4014
 6129SOL     OW29845   3.217   2.730  17.684  0.5421 -0.0612  0.0588
 6129SOL    HW129846   3.218   2.635   0.011  2.5174  0.1348  1.2356
 6129SOL    HW229847   3.301   2.760   0.033 -1.0467  1.9263  2.0895
 6130SOL     OW29848   2.492   4.611   8.960 -0.0259  0.3580  0.0232
 6130SOL    HW129849   2.528   4.528   8.930 -1.7683 -0.1345 -0.6840
 6130SOL    HW229850   2.483   4.614   9.056  1.5060 -2.0998  0.2277
 6131SOL     OW29851   3.152   2.324   2.208  0.0507 -0.5393  0.3031
 6131SOL    HW129852   3.223   2.262   2.190 -0.2533 -1.2057  1.3711
 6131SOL    HW229853   3.154   2.334   2.304  0.7370 -0.5203  0.2916
 6132SOL     OW29854   3.439   0.643   0.287  0.1341 -0.1928 -0.0448
 6132SOL    HW129855   3.473   0.593   0.213  3.0659 -3.4536  3.4907
 6132SOL    HW229856   3.516   0.696   0.303 -0.0389 -0.0670  0.3747
 6133SOL     OW29857   0.643   1.033   4.381 -1.0726 -0.1707 -0.2853
 6133SOL    HW129858   0.679   0.979   4.451 -3.3671  2.2264  2.7452
 6133SOL    HW229859   0.708   1.039   4.311  0.4391  1.9389  1.2884
 6134SOL     OW29860   0.738   3.909   0.943 -0.4717  0.6530 -0.5288
 6134SOL    HW129861   0.736   3.915   1.039  1.0044  1.6000 -0.5542
 6134SOL    HW229862   0.828   3.877   0.942 -1.0143 -0.7380 -3.3638
 6135SOL     OW29863   2.504   2.198  11.706 -0.3106 -0.0441  0.0518
 6135SOL    HW129864   2.476   2.107  11.705  2.0634 -0.7709 -1.3277
 6135SOL    HW229865   2.502   2.221  11.799  1.7520  0.7499 -0.0971
 6136SOL     OW29866   1.551   1.995   2.320 -0.4340 -0.7156  0.2352
 6136SOL    HW129867   1.544   1.943   2.240 -2.3212 -0.6485  0.3729
 6136SOL    HW229868   1.504   1.934   2.376  0.5870 -0.8229  0.9782
 6137SOL     OW29869   3.473   4.465  15.259  0.6545 -0.2899  0.9123
 6137SOL    HW129870   3.410   4.502  15.321  1.8421  1.7699  0.8898
 6137SOL    HW229871   3.498   4.537  15.202 -2.1504  1.1876  1.5380
 6138SOL     OW29872   4.267   4.685  16.260 -0.0248  0.0556  0.2235
 6138SOL    HW129873   4.199   4.647  16.315  0.6341  0.0599  1.0534
 6138SOL    HW229874   4.230   0.048  16.233 -0.0857 -0.1395 -0.2926
 6139SOL     OW29875   2.503   1.407   3.046  0.2715 -0.1290  0.1087
 6139SOL    HW129876   2.518   1.342   3.115  2.2550 -0.1498 -0.3281
 6139SOL    HW229877   2.465   1.357   2.974 -2.1259  2.5321 -0.5006
 6140SOL     OW29878   4.035   3.725  16.452  0.4395  0.6485  0.1238
 6140SOL    HW129879   4.011   3.725  16.360 -0.8304 -0.5031  0.4611
 6140SOL    HW229880   3.985   3.799  16.486  2.2672  1.7375  0.4514
 6141SOL     OW29881   1.222   2.117   3.417  0.1501  0.1186  0.5812
 6141SOL    HW129882   1.262   2.055   3.357 -0.2090 -1.2847  1.8099
 6141SOL    HW229883   1.150   2.067   3.455  0.1207  0.0933  0.4931
 6142SOL     OW29884   3.286   0.873   0.202 -0.4821 -0.0159 -0.1228
 6142SOL    HW129885   3.353   0.902   0.264 -1.4155  0.3597  0.7059
 6142SOL    HW229886   3.348   0.844   0.135 -0.1719 -0.3453  0.3130
 6143SOL     OW29887   2.649   0.586   4.671 -0.4807 -0.5691  0.0826
 6143SOL    HW129888   2.572   0.638   4.695 -0.5650 -0.4123 -0.5085
 6143SOL    HW229889   2.707   0.601   4.745 -0.8366 -0.5760  0.3589
 6144SOL     OW29890   3.048   4.559   3.766 -0.1044  0.1016 -0.3183
 6144SOL    HW129891   3.116   4.494   3.754 -0.5654 -0.5525  0.6485
 6144SOL    HW229892   3.092   4.636   3.730 -1.3148  1.1273  0.3454
 6145SOL     OW29893   0.466   1.640   8.161 -0.1272 -0.0486 -0.0368
 6145SOL    HW129894   0.539   1.694   8.129 -0.6519  1.2480  0.9439
 6145SOL    HW229895   0.413   1.636   8.082 -3.7453  1.0096  2.3479
 6146SOL     OW29896   2.308   1.731   5.298 -0.6839 -0.2722  0.7944
 6146SOL    HW129897   2.250   1.807   5.283 -0.2397  0.0570  0.7393
 6146SOL    HW229898   2.344   1.713   5.211  1.1060  2.2763  1.0075
 6147SOL     OW29899   0.435   1.064   5.602  0.0667 -0.6240  0.2345
 6147SOL    HW129900   0.524   1.092   5.626 -0.0262 -0.4446  0.3695
 6147SOL    HW229901   0.388   1.069   5.685  0.8726 -1.9587  0.7823
 6148SOL     OW29902   4.592   2.529   6.268 -0.0168  0.2818  0.1793
 6148SOL    HW129903   4.572   2.619   6.242 -2.4112 -0.7621 -1.5898
 6148SOL    HW229904   4.536   2.531   6.346 -0.2257  0.3522  0.0296
 6149SOL     OW29905   3.861   1.263   6.721 -0.5448  0.3147 -0.2647
 6149SOL    HW129906   3.899   1.292   6.638  2.6949 -0.4154  0.9644
 6149SOL    HW229907   3.888   1.171   6.728  1.2163  0.6646 -2.2643
 6150SOL     OW29908   3.450   4.328  11.620  0.0919  0.5684  0.7400
 6150SOL    HW129909   3.393   4.298  11.691 -1.1560 -0.2899 -0.5966
 6150SOL    HW229910   3.528   4.280  11.647 -0.0892  0.5995  1.3159
 6151SOL     OW29911   1.338   3.878   1.684 -0.0529 -0.2266  0.3060
 6151SOL    HW129912   1.343   3.846   1.774  0.6637  0.5673  0.5497
 6151SOL    HW229913   1.277   3.953   1.688  0.3023  0.0549  0.4643
 6152SOL     OW29914   3.142   0.277  16.082  0.4226 -0.3665  0.2655
 6152SOL    HW129915   3.176   0.301  15.996  2.8793 -1.6890  0.8426
 6152SOL    HW229916   3.205   0.206  16.099  0.0789 -0.5993  0.5782
 6153SOL     OW29917   3.171   0.065   3.645 -0.6487 -0.4267  0.8426
 6153SOL    HW129918   3.243   0.071   3.581 -0.0589  0.2933  1.5670
 6153SOL    HW229919   3.166   0.156   3.676  3.5159 -0.3901  1.4153
 6154SOL     OW29920   2.630   1.852   0.635 -0.0869 -0.8115 -0.0409
 6154SOL    HW129921   2.621   1.767   0.592  1.4665 -0.7377 -0.4824
 6154SOL    HW229922   2.686   1.824   0.707 -0.4031  2.0672  1.3437
 6155SOL     OW29923   3.614   4.011   3.953 -0.3199  0.3894  0.3102
 6155SOL    HW129924   3.545   3.953   3.922 -1.0314  0.3644  1.9489
 6155SOL    HW229925   3.637   4.064   3.876  0.4738  0.1688  0.3910
 6156SOL     OW29926   2.718   2.583   5.494 -0.2538  0.1520 -0.2000
 6156SOL    HW129927   2.763   2.649   5.440 -1.4566 -0.0096 -1.4065
 6156SOL    HW229928   2.641   2.571   5.438 -0.2173  1.9825 -0.6473
 6157SOL     OW29929   0.346   0.912   8.003 -0.0658  0.2626 -0.1661
 6157SOL    HW129930   0.289   0.907   8.081  0.4563  2.3404  0.3529
 6157SOL    HW229931   0.411   0.974   8.037 -1.1116 -0.5859  3.4604
 6158SOL     OW29932   3.028   3.403   2.061  0.4488 -0.2088 -0.8260
 6158SOL    HW129933   3.002   3.413   2.152 -2.7138 -2.6528 -1.4368
 6158SOL    HW229934   2.955   3.448   2.018 -0.2492 -0.0775  0.4984
 6159SOL     OW29935   4.364   1.418   8.370 -0.3795  0.4436 -0.6474
 6159SOL    HW129936   4.336   1.494   8.422 -2.2640 -0.6387 -0.0850
 6159SOL    HW229937   4.437   1.404   8.429 -0.6237  0.6524 -0.2958
 6160SOL     OW29938   2.279   0.040   3.192  0.3828  0.0640  0.3274
 6160SOL    HW129939   2.325   0.078   3.267 -0.3672 -0.2499  0.9443
 6160SOL    HW229940   2.295   4.668   3.208 -0.8856 -0.0480  0.8769
 6161SOL     OW29941   0.338   0.195   6.389  0.7763  0.0455  0.1416
 6161SOL    HW129942   0.246   0.169   6.392  0.8153 -0.3562 -2.1024
 6161SOL    HW229943   0.335   0.253   6.314  2.9924 -0.7576 -0.5829
 6162SOL     OW29944   3.580   1.669   1.902  0.3886 -0.2929 -0.4406
 6162SOL    HW129945   3.628   1.684   1.820  0.0566  0.3918 -0.5056
 6162SOL    HW229946   3.557   1.576   1.896  0.8199 -0.4224 -0.0097
 6163SOL     OW29947   1.759   2.396   7.163  0.4891 -0.5731  0.5361
 6163SOL    HW129948   1.759   2.460   7.233  0.8531  0.4605 -0.4098
 6163SOL    HW229949   1.677   2.412   7.116  2.0640  1.0303 -1.6596
 6164SOL     OW29950   4.468   1.186   0.347  0.2161 -0.7234 -0.0565
 6164SOL    HW129951   4.404   1.254   0.368 -1.7841 -1.9245 -2.2419
 6164SOL    HW229952   4.461   1.140   0.431 -1.3008 -0.5554 -0.1023
 6165SOL     OW29953   1.964   3.058  12.045  0.0706 -0.3740  0.4096
 6165SOL    HW129954   2.005   3.135  12.004 -0.0926 -1.1974 -1.3027
 6165SOL    HW229955   1.942   3.089  12.132  1.2328  1.9224 -0.1139
 6166SOL     OW29956   3.088   0.765   6.561 -0.6054  0.1276 -0.1766
 6166SOL    HW129957   3.155   0.750   6.495 -0.3769  1.3183 -0.2128
 6166SOL    HW229958   3.128   0.733   6.642  2.1001 -0.6227 -1.7967
 6167SOL     OW29959   1.804   1.517   6.814 -0.1085 -0.3045  0.9267
 6167SOL    HW129960   1.741   1.445   6.813 -0.1364 -0.2894  1.3683
 6167SOL    HW229961   1.876   1.484   6.868  1.3518  1.8075  0.2614
 6168SOL     OW29962   1.853   3.391   7.144 -0.6178  0.1958  0.2122
 6168SOL    HW129963   1.816   3.373   7.058  1.5684 -5.2365  0.3850
 6168SOL    HW229964   1.874   3.484   7.149 -0.9553  0.2430  0.7612
 6169SOL     OW29965   3.937   1.838   7.239  0.4852  0.1547 -0.2277
 6169SOL    HW129966   3.959   1.926   7.271  0.3493 -0.0067  0.3073
 6169SOL    HW229967   3.902   1.803   7.321  1.7267 -1.4602 -0.3803
 6170SOL     OW29968   0.841   2.475   4.291  0.3188  0.0684  0.7837
 6170SOL    HW129969   0.747   2.473   4.305  0.0909  3.4585 -0.2132
 6170SOL    HW229970   0.870   2.385   4.306 -1.1811 -0.1273  2.3740
 6171SOL     OW29971   0.318   0.288   8.468 -0.2936  0.0437  0.1236
 6171SOL    HW129972   0.372   0.354   8.425  0.0916 -1.0087 -0.9980
 6171SOL    HW229973   0.379   0.266   8.539  0.4384  1.7834  0.0528
 6172SOL     OW29974   1.302   1.778   7.137 -0.0335 -0.7730  0.0928
 6172SOL    HW129975   1.315   1.865   7.098  1.7719 -0.9691  0.2700
 6172SOL    HW229976   1.371   1.720   7.105 -1.6683 -1.2150 -2.5824
 6173SOL     OW29977   3.812   3.689   7.664  0.0970  0.2198  0.4039
 6173SOL    HW129978   3.749   3.753   7.631  0.2938  0.9500  1.4427
 6173SOL    HW229979   3.893   3.731   7.634  0.0566  1.4401  1.9647
 6174SOL     OW29980   3.707   2.902   7.732  0.5306  0.3672 -0.5145
 6174SOL    HW129981   3.775   2.889   7.665 -0.9119  0.5206 -2.0051
 6174SOL    HW229982   3.646   2.834   7.704 -1.0187  0.7040  2.1300
 6175SOL     OW29983   1.612   3.182   2.902  0.8014 -0.3723 -0.5327
 6175SOL    HW129984   1.562   3.215   2.977  0.5378 -0.6228 -0.5961
 6175SOL    HW229985   1.547   3.124   2.862 -0.3018 -0.3045  1.1317
 6176SOL     OW29986   0.631   4.198   6.298 -0.1765 -0.2056  0.0889
 6176SOL    HW129987   0.553   4.143   6.309 -1.5487  1.0096 -3.5748
 6176SOL    HW229988   0.605   4.218   6.208  2.1013  0.6857 -0.3663
 6177SOL     OW29989   2.531   3.231   2.637 -0.2690 -0.1783 -0.5437
 6177SOL    HW129990   2.506   3.324   2.630 -0.9239 -0.3926 -1.1213
 6177SOL    HW229991   2.457   3.200   2.688  0.5709 -5.9320 -2.8941
 6178SOL     OW29992   2.749   3.196   4.732  0.2969 -0.5612  0.0170
 6178SOL    HW129993   2.657   3.216   4.747 -0.2316 -1.6028 -1.8536
 6178SOL    HW229994   2.776   3.224   4.644  0.0927  0.1259  0.1737
 6179SOL     OW29995   2.859   3.658   4.256  0.4593  0.0163  0.0808
 6179SOL    HW129996   2.923   3.730   4.265  2.5276 -1.5087 -2.4651
 6179SOL    HW229997   2.840   3.656   4.162 -3.9308  0.6599  0.9712
 6180SOL     OW29998   2.708   2.739   1.472  0.3998 -0.5887 -0.5104
 6180SOL    HW129999   2.637   2.724   1.410 -0.6810 -0.9899  0.8452
 6180SOL    HW230000   2.674   2.817   1.516 -1.9461 -1.8893 -0.0193
 6181SOL     OW30001   2.803   4.470   5.951 -0.5620 -0.3817  0.1261
 6181SOL    HW130002   2.795   4.565   5.946  3.4010  0.0256  1.5743
 6181SOL    HW230003   2.859   4.452   5.876  2.1851  0.2376  2.0284
 6182SOL     OW30004   4.206   2.777   4.218  0.1258  0.1180 -0.6870
 6182SOL    HW130005   4.164   2.744   4.138  1.6595  2.7944 -2.6366
 6182SOL    HW230006   4.230   2.865   4.187  1.0629  1.0326  2.6224
 6183SOL     OW30007   1.046   1.742   9.897 -0.3245 -0.0897  0.3282
 6183SOL    HW130008   0.987   1.813   9.923  0.8081  1.1251 -0.4122
 6183SOL    HW230009   0.991   1.678   9.851 -1.4255  1.4298 -0.4910
 6184SOL     OW30010   4.086   1.481   5.575 -0.5325  0.5630  0.0044
 6184SOL    HW130011   4.182   1.472   5.578 -0.7399 -2.0205 -0.6891
 6184SOL    HW230012   4.060   1.438   5.494 -1.2853  0.7830  0.1342
 6185SOL     OW30013   3.389   1.821   0.713 -0.1150  0.5269 -0.3407
 6185SOL    HW130014   3.310   1.875   0.717 -2.0524 -2.3288  0.4625
 6185SOL    HW230015   3.361   1.765   0.640 -0.7385  0.6038 -0.1555
 6186SOL     OW30016   0.848   2.804   9.825  0.0791 -0.2686 -0.3857
 6186SOL    HW130017   0.930   2.833   9.785  0.7834 -2.4075 -0.5022
 6186SOL    HW230018   0.830   2.713   9.803 -0.4488 -0.4714  0.9148
 6187SOL     OW30019   1.566   1.295   9.727  0.3063 -0.2236  0.0749
 6187SOL    HW130020   1.582   1.309   9.820 -0.0729  1.0982 -0.0557
 6187SOL    HW230021   1.520   1.374   9.697  1.9811  0.4502 -0.7615
 6188SOL     OW30022   1.319   3.772   6.818 -0.5547 -0.1502 -0.3823
 6188SOL    HW130023   1.410   3.757   6.845 -0.6494 -0.3269 -0.1684
 6188SOL    HW230024   1.326   3.854   6.768  1.7294 -0.0019  0.1819
 6189SOL     OW30025   2.222   0.420   6.418  0.2493 -0.8849 -0.5714
 6189SOL    HW130026   2.227   0.436   6.324  2.9512 -1.6654 -0.5530
 6189SOL    HW230027   2.127   0.410   6.427  0.5231 -1.5490  1.6275
 6190SOL     OW30028   3.630   4.702   9.044 -0.9299 -1.3174  0.8408
 6190SOL    HW130029   3.697   4.635   9.028  0.9585  0.2778  2.1644
 6190SOL    HW230030   3.551   4.662   9.008 -1.1603  1.5033 -1.8405
 6191SOL     OW30031   3.282   3.270   5.381 -0.2481  0.0060 -0.1276
 6191SOL    HW130032   3.250   3.276   5.291 -2.6948  1.1091  0.8147
 6191SOL    HW230033   3.200   3.275   5.430 -0.8021 -1.8988 -0.8897
 6192SOL     OW30034   1.193   2.333   8.136 -0.9675  0.4013 -0.6322
 6192SOL    HW130035   1.148   2.249   8.144 -1.3911  0.7736  0.8550
 6192SOL    HW230036   1.132   2.394   8.178 -2.1035 -2.0488  1.2946
 6193SOL     OW30037   2.444   2.159  17.109 -0.5477  0.6242 -0.1138
 6193SOL    HW130038   2.481   2.239  17.145  3.8040 -0.1549 -2.7872
 6193SOL    HW230039   2.355   2.191  17.099 -1.4273 -1.7055  0.2630
 6194SOL     OW30040   2.025   4.477   9.376  0.2986  0.2818 -0.4139
 6194SOL    HW130041   1.961   4.547   9.384  1.6335  1.4843 -0.2964
 6194SOL    HW230042   1.970   4.399   9.368  0.4515  0.1636 -0.3229
 6195SOL     OW30043   3.351   3.090   8.756 -0.0917  0.0007  0.0357
 6195SOL    HW130044   3.301   3.138   8.690 -0.4140 -0.5984 -0.1564
 6195SOL    HW230045   3.389   3.157   8.811 -3.9150  0.5554  2.0278
 6196SOL     OW30046   3.596   1.521   6.689  0.1095 -0.2987  0.1338
 6196SOL    HW130047   3.583   1.430   6.662  3.7323 -1.0223  0.8797
 6196SOL    HW230048   3.664   1.505   6.755  1.6301  0.4745 -1.2525
 6197SOL     OW30049   0.932   1.241  15.752  0.0040  0.7309 -0.6300
 6197SOL    HW130050   0.909   1.148  15.757  1.4592  0.1890 -3.5120
 6197SOL    HW230051   0.909   1.257  15.660 -1.2864  2.4299 -0.0158
 6198SOL     OW30052   0.410   0.316   2.726  0.8801  0.1046  0.0455
 6198SOL    HW130053   0.483   0.253   2.724  1.8118  1.1286  1.3871
 6198SOL    HW230054   0.456   0.400   2.733 -0.2762  0.7345 -0.0751
 6199SOL     OW30055   1.832   2.018   2.272 -0.0859  0.1577  0.2252
 6199SOL    HW130056   1.739   1.999   2.283  0.2219 -1.5337 -0.2171
 6199SOL    HW230057   1.872   1.931   2.276  0.5902  0.5144  1.2647
 6200SOL     OW30058   1.849   3.501   3.217  0.1309 -0.1267 -0.6978
 6200SOL    HW130059   1.853   3.408   3.241  0.7717 -0.2600 -1.3318
 6200SOL    HW230060   1.858   3.504   3.122  0.2809 -1.1238 -0.7113
 6201SOL     OW30061   1.512   1.477   3.773 -0.3784  0.0631 -0.1780
 6201SOL    HW130062   1.522   1.517   3.687  0.5696 -3.8682 -1.9166
 6201SOL    HW230063   1.441   1.417   3.751 -1.4988  1.3368  0.0213
 6202SOL     OW30064   2.389   2.398   2.637  0.1380  0.1118 -0.7313
 6202SOL    HW130065   2.352   2.386   2.549 -0.2818 -0.1599 -0.5200
 6202SOL    HW230066   2.311   2.428   2.683  0.6723 -1.9524  1.4925
 6203SOL     OW30067   0.045   0.406   6.163  0.5054  0.3692 -0.6358
 6203SOL    HW130068   0.050   0.497   6.195  0.1732 -1.4693  4.6061
 6203SOL    HW230069   4.678   0.412   6.128  0.0995 -1.6841  0.0413
 6204SOL     OW30070   0.279   3.385  12.660 -0.1015 -0.3925 -0.2958
 6204SOL    HW130071   0.196   3.353  12.625 -0.5149  0.2277  0.1157
 6204SOL    HW230072   0.251   3.389  12.751  0.3371  1.6500 -0.2495
 6205SOL     OW30073   1.742   1.772   8.648 -0.6468  0.0186  0.3157
 6205SOL    HW130074   1.721   1.856   8.687  0.6610  0.0459  0.9597
 6205SOL    HW230075   1.772   1.715   8.719  2.1811  0.5985 -0.4314
 6206SOL     OW30076   3.895   2.339   8.062 -0.0301 -0.2334 -0.5173
 6206SOL    HW130077   3.963   2.383   8.113  0.2419 -0.8649 -0.3376
 6206SOL    HW230078   3.931   2.275   8.001  0.1468  0.4361 -1.1196
 6207SOL     OW30079   1.132   3.269   3.557 -0.0328  0.2985  0.0207
 6207SOL    HW130080   1.213   3.268   3.609 -1.5093 -2.3115  2.2476
 6207SOL    HW230081   1.099   3.356   3.580 -2.4333 -0.6355  0.0280
 6208SOL     OW30082   2.393   2.313   7.150  0.0471 -0.3327  0.1724
 6208SOL    HW130083   2.402   2.319   7.055 -1.3239 -0.7843  0.0144
 6208SOL    HW230084   2.463   2.363   7.191  1.3256 -1.2292 -0.9273
 6209SOL     OW30085   1.402   3.476  10.371 -0.0548  0.3642  0.1644
 6209SOL    HW130086   1.438   3.552  10.325  0.1335 -0.3307 -0.8460
 6209SOL    HW230087   1.322   3.469  10.318  0.6990  1.0310 -1.0592
 6210SOL     OW30088   1.934   2.305  13.022  0.5772 -0.2153 -0.5452
 6210SOL    HW130089   1.842   2.286  13.040  0.1236  1.4530 -1.0354
 6210SOL    HW230090   1.946   2.306  12.927 -2.9487 -0.3717 -0.9958
 6211SOL     OW30091   3.268   0.760   8.088 -0.0759  0.1580 -0.2962
 6211SOL    HW130092   3.272   0.855   8.087  1.9094  0.0819  0.5511
 6211SOL    HW230093   3.356   0.742   8.056 -0.1153  0.3676 -0.5155
 6212SOL     OW30094   2.557   2.688  10.967  0.0171  0.2667  0.0255
 6212SOL    HW130095   2.582   2.753  11.033 -0.2719 -0.8487  1.2160
 6212SOL    HW230096   2.478   2.727  10.929 -1.7067 -0.8734  2.4739
 6213SOL     OW30097   1.291   1.908   8.200  0.0107 -0.4720  0.1587
 6213SOL    HW130098   1.276   1.834   8.141  1.6834 -0.8103  0.1705
 6213SOL    HW230099   1.365   1.950   8.156 -0.5051  1.0990  0.7875
 6214SOL     OW30100   3.389   1.067  13.113 -0.2897  0.0843 -0.0762
 6214SOL    HW130101   3.297   1.089  13.125  0.4356  2.4571  1.1635
 6214SOL    HW230102   3.431   1.066  13.199 -1.9833  1.7169  0.7665
 6215SOL     OW30103   3.900   0.306  17.355 -0.1606 -0.3714 -0.0622
 6215SOL    HW130104   3.933   0.375  17.299  0.6527 -0.3783  0.4131
 6215SOL    HW230105   3.807   0.329  17.354  0.4694  1.9770 -2.5632
 6216SOL     OW30106   3.573   3.087   2.438  0.1343 -0.4216  0.0084
 6216SOL    HW130107   3.546   2.996   2.454 -1.7117 -0.3666 -2.8544
 6216SOL    HW230108   3.599   3.094   2.346  0.5334 -2.0570 -0.0089
 6217SOL     OW30109   3.875   3.118   5.809 -0.3771 -0.7061  0.3077
 6217SOL    HW130110   3.858   3.140   5.901 -2.3303  1.7702 -0.6569
 6217SOL    HW230111   3.789   3.109   5.768 -0.1261  2.0383 -0.7755
 6218SOL     OW30112   3.524   1.557   1.038 -0.3584  0.9007  0.4678
 6218SOL    HW130113   3.538   1.545   0.944  0.3575 -0.0629  0.6991
 6218SOL    HW230114   3.533   1.469   1.074 -2.4380  1.5458  2.5442
 6219SOL     OW30115   1.065   1.375   5.410  0.5051  0.4015  0.6847
 6219SOL    HW130116   1.096   1.396   5.322  1.4283  1.2703  1.2078
 6219SOL    HW230117   0.989   1.322   5.387  1.9105 -1.3872  0.1834
 6220SOL     OW30118   1.797   0.972   7.073 -0.0188  0.2624  0.0122
 6220SOL    HW130119   1.855   0.969   6.997 -0.5572 -1.1432 -0.3508
 6220SOL    HW230120   1.760   0.884   7.063  1.1890 -0.1564 -0.8387
 6221SOL     OW30121   3.773   1.083  16.692 -0.5613  0.1303  0.4624
 6221SOL    HW130122   3.823   1.023  16.747  0.1640  0.4774  0.1801
 6221SOL    HW230123   3.701   1.024  16.669  2.2054 -2.6550 -1.1307
 6222SOL     OW30124   3.173   4.458   6.779 -0.2288 -0.0940 -0.4476
 6222SOL    HW130125   3.243   4.455   6.714  2.0534  1.3744  1.9427
 6222SOL    HW230126   3.099   4.436   6.722  1.4759  0.6550 -2.9276
 6223SOL     OW30127   4.604   4.264  12.424  0.4995 -0.7913  0.5387
 6223SOL    HW130128   4.559   4.193  12.378  0.4280 -0.0039 -0.5833
 6223SOL    HW230129   4.545   4.338  12.429  0.7117 -0.8630  4.0705
 6224SOL     OW30130   4.104   1.558   7.587  0.4685  0.7088 -0.1230
 6224SOL    HW130131   4.124   1.520   7.501  0.4127  4.4093 -1.7374
 6224SOL    HW230132   4.034   1.494   7.602 -1.5573  2.7786 -0.8322
 6225SOL     OW30133   3.301   0.749   5.827  0.5937 -0.2546 -0.2391
 6225SOL    HW130134   3.231   0.686   5.843  1.9901 -1.2339  1.9986
 6225SOL    HW230135   3.247   0.812   5.780  1.1613 -1.8000 -2.9576
 6226SOL     OW30136   1.577   4.168   3.312 -0.6173  0.2669  0.0383
 6226SOL    HW130137   1.606   4.105   3.247 -0.1660  0.4801  0.0296
 6226SOL    HW230138   1.626   4.247   3.289 -0.7654  0.0924 -0.8514
 6227SOL     OW30139   1.041   2.137   5.396 -0.0074  0.2134  0.1603
 6227SOL    HW130140   1.018   2.115   5.306  2.1332 -0.5481 -0.1980
 6227SOL    HW230141   1.087   2.056   5.419 -0.8705 -0.1285  0.7067
 6228SOL     OW30142   0.144   1.773   6.238  0.1355 -0.4508  0.2856
 6228SOL    HW130143   0.135   1.692   6.288  0.7752  0.6572  2.2115
 6228SOL    HW230144   0.141   1.846   6.300  0.7257 -0.7659  0.6772
 6229SOL     OW30145   1.314   1.697   5.721 -0.1205  0.4743 -0.1436
 6229SOL    HW130146   1.286   1.606   5.709  2.7249 -0.1609 -2.1184
 6229SOL    HW230147   1.266   1.734   5.647 -1.7568  1.8290  1.6054
 6230SOL     OW30148   3.537   4.707   5.205 -0.4923 -0.4654 -0.1747
 6230SOL    HW130149   3.573   0.073   5.189 -1.4985 -0.1463 -0.6948
 6230SOL    HW230150   3.494   4.712   5.290 -0.4216  0.3777 -0.1932
 6231SOL     OW30151   4.090   2.755  10.008 -0.1420 -0.1295  0.5542
 6231SOL    HW130152   4.054   2.669   9.987 -1.3602  0.1420  1.5271
 6231SOL    HW230153   4.018   2.816   9.995 -0.5080 -0.1341  2.4961
 6232SOL     OW30154   2.338   4.716   7.458 -0.2406  0.4555  0.5394
 6232SOL    HW130155   2.345   0.083   7.423  2.7958  0.0216 -0.0262
 6232SOL    HW230156   2.252   4.683   7.432 -0.1170  2.2034 -2.0930
 6233SOL     OW30157   0.704   1.199  11.157 -0.0460 -0.2917 -0.0417
 6233SOL    HW130158   0.742   1.286  11.165 -1.8012  0.5949 -1.3438
 6233SOL    HW230159   0.733   1.165  11.242 -0.8601 -0.1442  0.3001
 6234SOL     OW30160   3.708   2.113  11.561 -0.4984  0.3093 -0.1012
 6234SOL    HW130161   3.626   2.161  11.553 -0.0417  1.1334  0.2216
 6234SOL    HW230162   3.699   2.049  11.632 -1.4912  0.2323 -0.2852
 6235SOL     OW30163   3.349   1.550  16.661 -0.3405  0.3261  0.0436
 6235SOL    HW130164   3.414   1.491  16.624  2.1977  1.7002  2.3462
 6235SOL    HW230165   3.276   1.489  16.676  0.4327 -0.6420 -0.2059
 6236SOL     OW30166   4.608   3.948   2.369 -0.5199  0.3169  0.0071
 6236SOL    HW130167   4.682   3.913   2.418  1.0976  1.4929 -1.6082
 6236SOL    HW230168   4.555   3.980   2.442  1.7696 -0.7635  2.1554
 6237SOL     OW30169   4.519   0.221   9.723 -0.4439 -0.2114 -0.3772
 6237SOL    HW130170   4.541   0.222   9.629  2.1758 -2.0504  0.2134
 6237SOL    HW230171   4.601   0.181   9.753 -1.2033  0.8696  3.0907
 6238SOL     OW30172   3.735   0.842   0.004 -0.1105 -0.5143 -0.0582
 6238SOL    HW130173   3.785   0.800  17.621  0.2273 -1.9464  1.0188
 6238SOL    HW230174   3.740   0.935  17.669  1.3957 -0.8774 -1.1881
 6239SOL     OW30175   1.632   2.282  10.704  0.3760  0.0644  0.2509
 6239SOL    HW130176   1.563   2.247  10.760 -0.0931 -2.5891 -1.9804
 6239SOL    HW230177   1.618   2.376  10.713  1.6173  0.4054 -1.3176
 6240SOL     OW30178   1.866   3.196  13.055 -0.5162  0.2857 -0.6201
 6240SOL    HW130179   1.937   3.138  13.026  3.0623  2.6284  3.4720
 6240SOL    HW230180   1.799   3.127  13.056 -0.0210 -0.2330 -2.0322
 6241SOL     OW30181   3.021   1.003   3.567 -0.5811  0.1083  0.2721
 6241SOL    HW130182   3.047   1.094   3.550  1.4183 -0.3975  0.6175
 6241SOL    HW230183   2.955   1.019   3.634  0.5185 -0.9321  1.6016
 6242SOL     OW30184   3.284   3.822   1.769  0.7050  0.3272 -0.0326
 6242SOL    HW130185   3.193   3.829   1.741  0.4405 -0.3593  0.6504
 6242SOL    HW230186   3.325   3.898   1.727 -1.2791  1.4196  0.0323
 6243SOL     OW30187   1.788   3.494   9.316  0.1204  0.0162  0.2954
 6243SOL    HW130188   1.819   3.509   9.226  0.2035  0.9258  0.4785
 6243SOL    HW230189   1.711   3.551   9.317  1.3032  1.6273 -0.2765
 6244SOL     OW30190   1.373   3.372   3.705 -0.1555 -0.5181 -0.4736
 6244SOL    HW130191   1.435   3.299   3.715  0.5485  0.1819  0.2266
 6244SOL    HW230192   1.423   3.418   3.638  1.8604  1.3526  2.3033
 6245SOL     OW30193   4.096   3.559  13.399 -0.1916  0.1439  1.0184
 6245SOL    HW130194   4.096   3.648  13.363  2.8934 -0.7223 -1.1803
 6245SOL    HW230195   4.014   3.525  13.363  0.0039  1.0634 -0.2862
 6246SOL     OW30196   1.995   0.473   5.230  0.0762  0.1933 -0.1061
 6246SOL    HW130197   1.942   0.399   5.202 -1.4334  1.0811  0.4208
 6246SOL    HW230198   2.007   0.461   5.324 -2.8811  0.3978  0.2880
 6247SOL     OW30199   1.830   3.962   5.190  0.1918  0.0567  0.1714
 6247SOL    HW130200   1.777   3.890   5.156  0.7879  0.1737 -1.0088
 6247SOL    HW230201   1.787   3.971   5.275  1.2785  0.7476  0.6437
 6248SOL     OW30202   1.251   1.502  17.498 -0.7300  0.1174 -0.5122
 6248SOL    HW130203   1.168   1.539  17.468 -1.0864 -0.6057 -0.4133
 6248SOL    HW230204   1.293   1.569  17.553  0.6727 -0.7673 -0.4908
 6249SOL     OW30205   3.670   3.802   8.755  0.7755  0.6422  0.1464
 6249SOL    HW130206   3.586   3.775   8.719  1.0710  0.9557 -0.7695
 6249SOL    HW230207   3.645   3.889   8.787 -1.9028 -0.2269  0.4468
 6250SOL     OW30208   0.429   4.265   8.256  0.0296  0.0960  0.0840
 6250SOL    HW130209   0.381   4.346   8.238 -0.3071 -0.0874  0.1610
 6250SOL    HW230210   0.416   4.211   8.178  0.8809 -0.2888  0.2112
 6251SOL     OW30211   1.274   2.292   6.801 -0.4710  0.2093 -0.1704
 6251SOL    HW130212   1.233   2.259   6.721  0.1506 -2.1786  0.4997
 6251SOL    HW230213   1.218   2.258   6.871 -0.6453 -1.3968 -1.0795
 6252SOL     OW30214   2.582   2.115   1.228 -0.0011  0.3230 -0.3442
 6252SOL    HW130215   2.657   2.141   1.175  1.0383 -0.8337  0.5694
 6252SOL    HW230216   2.589   2.020   1.232 -0.8165  0.2703 -0.1818
 6253SOL     OW30217   3.753   3.975   6.914  0.1289  0.2596 -0.0833
 6253SOL    HW130218   3.759   3.903   6.852  0.0885 -0.0548  0.2785
 6253SOL    HW230219   3.658   3.973   6.924  0.1034  0.4936 -0.2782
 6254SOL     OW30220   1.487   4.299  16.631  0.0661  0.0706 -0.1530
 6254SOL    HW130221   1.552   4.323  16.564 -0.4610 -0.1579 -0.7466
 6254SOL    HW230222   1.508   4.206  16.632 -1.5098 -0.2577  1.6046
 6255SOL     OW30223   0.617   4.435  17.667  0.1138  0.8166 -0.2593
 6255SOL    HW130224   0.666   4.465  17.590  1.1592  0.0772  0.1181
 6255SOL    HW230225   0.530   4.406  17.639  0.4923 -1.3301  0.8658
 6256SOL     OW30226   3.985   3.886  14.446 -0.2265 -0.0756 -0.0328
 6256SOL    HW130227   3.934   3.904  14.525  0.7284  0.9394  0.3473
 6256SOL    HW230228   4.012   3.796  14.467 -2.2461 -0.9191 -1.0791
 6257SOL     OW30229   1.157   1.157   3.478  0.4582  0.0364  0.2398
 6257SOL    HW130230   1.209   1.106   3.416  0.0392  0.8316 -0.7510
 6257SOL    HW230231   1.202   1.241   3.474 -0.6381  0.6104  0.1053
 6258SOL     OW30232   1.492   0.372  17.567 -0.2045 -0.4757  0.6091
 6258SOL    HW130233   1.532   0.302  17.515 -1.6190 -2.0794  1.6788
 6258SOL    HW230234   1.401   0.344  17.577 -0.7201  0.7279 -0.6685
 6259SOL     OW30235   1.106   2.066   3.810  0.0186  0.3017 -0.3104
 6259SOL    HW130236   1.079   2.153   3.841 -0.7951 -0.4612  1.1290
 6259SOL    HW230237   1.200   2.070   3.829 -0.8452  0.8201  3.8369
 6260SOL     OW30238   2.776   1.979   2.373  0.2594  0.2963 -0.6290
 6260SOL    HW130239   2.681   1.973   2.375  0.3398 -1.1879 -0.7481
 6260SOL    HW230240   2.789   2.070   2.400  0.5942 -0.0396  0.3413
 6261SOL     OW30241   4.126   4.630   1.625 -0.7346 -0.3196  0.1044
 6261SOL    HW130242   4.220   4.612   1.630 -0.2523  2.2740  0.2400
 6261SOL    HW230243   4.088   4.543   1.636 -0.6712 -0.5276 -1.2211
 6262SOL     OW30244   2.518   2.005  11.921 -0.2026  0.2631 -0.2030
 6262SOL    HW130245   2.586   1.938  11.920 -1.7458 -1.2573 -1.1809
 6262SOL    HW230246   2.437   1.955  11.931 -0.8691  1.4395  0.3230
 6263SOL     OW30247   0.734   4.294  15.888  0.0930 -0.2571  0.5349
 6263SOL    HW130248   0.655   4.296  15.942  0.0130  0.2759  0.3964
 6263SOL    HW230249   0.781   4.234  15.946  1.2425 -2.5363 -2.7222
 6264SOL     OW30250   3.947   2.116  12.009  0.2494  0.4174 -0.3206
 6264SOL    HW130251   4.012   2.148  11.947  3.1537 -0.9906  1.9649
 6264SOL    HW230252   3.936   2.186  12.074  0.9698  0.4611 -0.2432
 6265SOL     OW30253   1.476   2.681  11.611 -0.0862 -0.3838 -0.3839
 6265SOL    HW130254   1.432   2.692  11.696 -0.3240  1.3347 -0.7157
 6265SOL    HW230255   1.471   2.586  11.604  0.9608 -0.5260  0.6733
 6266SOL     OW30256   3.296   0.826   6.366 -0.1832  0.1719 -0.1961
 6266SOL    HW130257   3.377   0.825   6.315 -0.8272  1.8068 -1.2698
 6266SOL    HW230258   3.312   0.758   6.431 -0.1749 -0.0486 -0.4316
 6267SOL     OW30259   1.376   2.970   8.786 -0.3375  0.8299  0.2439
 6267SOL    HW130260   1.349   3.045   8.733 -1.2826 -1.5711 -2.6601
 6267SOL    HW230261   1.295   2.922   8.798 -0.0732  0.4307  0.4441
 6268SOL     OW30262   1.378   2.133   3.775  0.4960 -0.2001 -0.3934
 6268SOL    HW130263   1.339   2.209   3.732  0.1791 -1.0687 -1.6355
 6268SOL    HW230264   1.446   2.178   3.824  2.6812 -1.9982 -1.7872
 6269SOL     OW30265   2.245   2.414   7.510 -0.0057 -0.0990  0.1988
 6269SOL    HW130266   2.184   2.449   7.574 -0.9451 -0.3794 -0.5349
 6269SOL    HW230267   2.190   2.359   7.454  0.4266 -2.3935  2.0100
 6270SOL     OW30268   0.360   3.724   5.049  0.6934 -0.0100 -0.2996
 6270SOL    HW130269   0.348   3.713   5.143 -0.2516 -2.8264 -0.7421
 6270SOL    HW230270   0.390   3.636   5.026 -0.8098  0.1541 -2.9545
 6271SOL     OW30271   3.914   3.957  15.918  0.1269 -0.1466  0.3651
 6271SOL    HW130272   3.988   3.897  15.926 -2.1769 -2.9162  1.2530
 6271SOL    HW230273   3.930   4.033  15.972  0.1973  1.6995 -2.2576
 6272SOL     OW30274   1.912   1.173   3.728  0.0718 -0.1652 -0.0908
 6272SOL    HW130275   1.847   1.153   3.795 -1.4477 -0.6870 -1.7393
 6272SOL    HW230276   1.862   1.231   3.671  0.6773  0.7871  0.3413
 6273SOL     OW30277   3.118   3.630   8.330  0.3183  0.6181 -0.1432
 6273SOL    HW130278   3.077   3.544   8.331 -1.1609  1.3246  0.8238
 6273SOL    HW230279   3.208   3.617   8.299  0.8156  0.0535  1.5411
 6274SOL     OW30280   4.051   0.692  12.123 -0.3166  0.3384  0.6158
 6274SOL    HW130281   3.973   0.716  12.073 -0.2305 -0.6584  0.0160
 6274SOL    HW230282   4.104   0.652  12.054  0.4643 -1.7470  2.4408
 6275SOL     OW30283   3.689   4.450  12.488  0.5579 -0.5669  0.3342
 6275SOL    HW130284   3.688   4.355  12.480  1.0573 -0.5167 -0.2681
 6275SOL    HW230285   3.594   4.462  12.477  0.2549 -1.8790  1.4222
 6276SOL     OW30286   3.716   3.643   4.024 -0.0459 -0.2573 -0.5033
 6276SOL    HW130287   3.766   3.568   3.993  1.9725  0.8657  0.0691
 6276SOL    HW230288   3.797   3.690   4.040  0.2316 -0.9888  0.2410
 6277SOL     OW30289   3.166   0.958   5.679  0.3121 -0.0801  0.2859
 6277SOL    HW130290   3.134   0.901   5.609 -0.7355  0.0309  0.6735
 6277SOL    HW230291   3.084   0.996   5.711 -0.1583 -0.4075 -0.5361
 6278SOL     OW30292   3.617   3.364   7.981  0.2453 -0.1754 -0.4392
 6278SOL    HW130293   3.633   3.396   7.893 -0.1805 -0.1987 -0.5204
 6278SOL    HW230294   3.695   3.403   8.020 -1.8032  2.0112  1.4496
 6279SOL     OW30295   1.275   3.174   8.668 -0.2318 -0.3940  0.1175
 6279SOL    HW130296   1.280   3.264   8.702 -2.9076  0.2238 -1.0806
 6279SOL    HW230297   1.331   3.182   8.591  0.4233  0.1265  0.6442
 6280SOL     OW30298   4.049   2.576   4.831  0.0722 -0.4921 -0.1489
 6280SOL    HW130299   4.051   2.609   4.741  2.6444 -0.0754  0.0555
 6280SOL    HW230300   4.088   2.649   4.879 -1.9687  0.4661  0.0931
 6281SOL     OW30301   1.023   1.380   8.442  0.5802 -0.0846 -0.2468
 6281SOL    HW130302   0.986   1.318   8.505 -0.1548  0.8025  0.1924
 6281SOL    HW230303   0.945   1.416   8.400  2.2942  1.6111 -1.9678
 6282SOL     OW30304   0.446   0.629   6.857 -0.3917  0.2017  0.0541
 6282SOL    HW130305   0.357   0.644   6.827 -0.1483  2.9947  0.7307
 6282SOL    HW230306   0.437   0.552   6.913  2.7308  0.9421  1.6270
 6283SOL     OW30307   0.945   1.580   8.211  0.0491  0.2357 -0.3511
 6283SOL    HW130308   1.036   1.559   8.232 -0.3792 -2.8873 -1.6131
 6283SOL    HW230309   0.919   1.496   8.173 -1.8715  1.5590 -1.8881
 6284SOL     OW30310   2.965   1.424   8.280  0.4891 -0.5218 -0.0394
 6284SOL    HW130311   2.997   1.449   8.367 -1.2800 -0.2754  0.5493
 6284SOL    HW230312   2.943   1.333   8.303  0.1237  0.0191  1.7579
 6285SOL     OW30313   0.501   4.480   7.922 -0.3376 -0.1806  0.2478
 6285SOL    HW130314   0.579   4.473   7.868  1.6521 -1.6923  3.3030
 6285SOL    HW230315   0.526   4.454   8.011 -0.6359 -0.5116  0.2393
 6286SOL     OW30316   4.680   4.174   3.898  0.0370 -0.2548 -0.8875
 6286SOL    HW130317   0.030   4.233   3.922 -1.0147  1.0917 -1.0337
 6286SOL    HW230318   0.020   4.112   3.858  1.7887  1.0473 -0.2144
 6287SOL     OW30319   3.611   0.703   7.690 -0.0135 -0.4054 -0.7173
 6287SOL    HW130320   3.628   0.764   7.617  1.7540 -2.4929 -2.0518
 6287SOL    HW230321   3.574   0.759   7.758  0.0062  0.6611 -1.5808
 6288SOL     OW30322   3.157   3.627  17.018 -0.0240 -0.3745 -0.2595
 6288SOL    HW130323   3.233   3.681  17.040  0.7056 -1.5354  0.0267
 6288SOL    HW230324   3.191   3.585  16.938 -0.4907 -1.4501  0.1196
 6289SOL     OW30325   1.203   2.885   5.993  0.5091  0.1494 -0.6012
 6289SOL    HW130326   1.283   2.833   5.996  1.1677  1.3391  2.5634
 6289SOL    HW230327   1.146   2.836   6.052  0.2344 -2.0485 -2.7346
 6290SOL     OW30328   1.487   4.380   8.830  0.5946  0.5668  0.3155
 6290SOL    HW130329   1.486   4.475   8.844  1.0387  0.5139  0.7174
 6290SOL    HW230330   1.429   4.378   8.754 -0.1374  1.3064  0.8479
 6291SOL     OW30331   3.850   2.139  15.198  0.3318 -0.0150  0.1730
 6291SOL    HW130332   3.919   2.095  15.148 -1.3313  0.0329 -2.1243
 6291SOL    HW230333   3.863   2.221  15.151  2.0845 -0.4218 -0.0638
 6292SOL     OW30334   4.698   1.280   9.512  0.2953  0.4237 -0.4513
 6292SOL    HW130335   0.004   1.365   9.548  0.7877 -0.3044  0.8660
 6292SOL    HW230336   0.059   1.231   9.513 -0.4644 -0.8839 -1.4977
 6293SOL     OW30337   1.295   1.342  13.520  0.0795 -0.2313  0.5974
 6293SOL    HW130338   1.204   1.358  13.543  0.4066 -0.6343  2.1664
 6293SOL    HW230339   1.311   1.254  13.556  0.7399 -0.4340 -0.1876
 6294SOL     OW30340   1.202   1.526   8.592  0.7270 -0.1414  0.6050
 6294SOL    HW130341   1.188   1.608   8.544  1.7192 -0.0982  0.4048
 6294SOL    HW230342   1.129   1.480   8.550  0.3716  1.9850 -1.1493
 6295SOL     OW30343   2.865   2.424   8.237 -0.5407  0.0170 -0.0982
 6295SOL    HW130344   2.788   2.469   8.203  0.3107  1.9139  0.4862
 6295SOL    HW230345   2.825   2.393   8.318 -0.7638 -3.1501 -1.4328
 6296SOL     OW30346   4.173   0.335   8.972  0.0245  0.1282  0.1675
 6296SOL    HW130347   4.256   0.336   8.923  0.3532 -0.4777  0.6997
 6296SOL    HW230348   4.120   0.275   8.920  0.6057  0.6529 -1.0446
 6297SOL     OW30349   0.784   4.690   5.492 -0.0987 -0.0630 -0.2341
 6297SOL    HW130350   0.854   4.648   5.443 -0.0012 -0.4820  0.2669
 6297SOL    HW230351   0.715   4.680   5.426 -0.0449 -0.6833 -0.1917
 6298SOL     OW30352   4.105   2.242   3.895 -0.3017 -0.1893 -0.4893
 6298SOL    HW130353   4.036   2.178   3.874  0.1594 -1.5414  2.0667
 6298SOL    HW230354   4.177   2.182   3.911  0.1921  0.6188  0.3340
 6299SOL     OW30355   1.794   2.910   5.257  0.4631  0.1182 -0.5742
 6299SOL    HW130356   1.790   2.991   5.207 -0.9387  0.7582  0.5929
 6299SOL    HW230357   1.842   2.928   5.338  0.4837 -0.7128 -0.3949
 6300SOL     OW30358   3.223   0.012   6.133  0.0642 -0.2721 -0.0695
 6300SOL    HW130359   3.217   4.692   6.219 -2.8598  0.9202  0.3123
 6300SOL    HW230360   3.313   4.713   6.109  0.3146 -1.2327  1.6910
 6301SOL     OW30361   2.442   4.671   7.700 -0.3070 -0.4332 -0.3491
 6301SOL    HW130362   2.421   4.673   7.607  0.2598  1.6804 -0.4287
 6301SOL    HW230363   2.509   0.018   7.706 -1.8606  1.1771 -1.4726
 6302SOL     OW30364   0.481   2.017  10.962 -0.2318 -0.6573 -0.2413
 6302SOL    HW130365   0.451   1.936  11.003 -1.4257 -0.2603 -0.3220
 6302SOL    HW230366   0.550   1.989  10.902  1.3245 -1.2128  1.8076
 6303SOL     OW30367   1.157   3.201   1.820  0.1863 -0.2562 -0.6985
 6303SOL    HW130368   1.248   3.174   1.824 -0.3393 -2.0147 -0.4391
 6303SOL    HW230369   1.170   3.275   1.879 -1.5733 -0.5205  0.0355
 6304SOL     OW30370   1.275   1.873  12.919 -0.4813 -0.2288 -0.2386
 6304SOL    HW130371   1.320   1.879  13.004  1.2064 -2.3466 -0.9851
 6304SOL    HW230372   1.189   1.892  12.957 -0.5846 -1.0983 -0.0396
 6305SOL     OW30373   1.578   2.430   9.548 -0.0053  0.0335 -0.1191
 6305SOL    HW130374   1.530   2.369   9.604 -0.7061  1.6322  1.0077
 6305SOL    HW230375   1.590   2.366   9.477  1.9774  1.6986 -1.2681
 6306SOL     OW30376   4.185   1.245   6.750  0.0679  0.5265  0.0788
 6306SOL    HW130377   4.242   1.183   6.704  0.8260 -0.5380  2.4861
 6306SOL    HW230378   4.140   1.287   6.676 -3.1719 -3.9485 -0.4472
 6307SOL     OW30379   3.089   0.211   7.461 -0.3109  0.0641 -0.1236
 6307SOL    HW130380   3.119   0.134   7.412 -1.0545  0.1328 -0.6818
 6307SOL    HW230381   3.163   0.269   7.438  0.4203 -0.4456  0.9527
 6308SOL     OW30382   2.937   1.964  11.914 -0.0244  0.3912 -0.7398
 6308SOL    HW130383   2.875   2.009  11.856 -0.3260  1.5882  0.5231
 6308SOL    HW230384   2.875   1.901  11.952  2.8157 -2.4673 -0.8293
 6309SOL     OW30385   0.464   0.786   7.783  0.1811  0.0364  0.7795
 6309SOL    HW130386   0.548   0.757   7.819  0.4641  0.2001  0.2470
 6309SOL    HW230387   0.429   0.835   7.858  1.8596  1.1406  0.8352
 6310SOL     OW30388   0.214   0.033   4.165  0.0325  0.4697 -0.4527
 6310SOL    HW130389   0.160   4.689   4.210  0.3964 -0.1104 -0.8422
 6310SOL    HW230390   0.283   4.700   4.125  0.0579  0.0168  0.2108
 6311SOL     OW30391   1.115   2.960   1.672 -0.3731 -0.1571 -0.3423
 6311SOL    HW130392   1.166   2.992   1.598 -1.2886  0.2574 -0.7935
 6311SOL    HW230393   1.142   3.014   1.746  0.9252  1.8835 -2.3270
 6312SOL     OW30394   3.541   1.464  15.078  0.4590 -0.6483  0.4281
 6312SOL    HW130395   3.516   1.471  15.170 -2.0205  1.3228 -0.3914
 6312SOL    HW230396   3.459   1.487  15.035  1.0690  1.3768  0.3460
 6313SOL     OW30397   3.679   0.678   7.290  0.0594  0.2726 -0.8910
 6313SOL    HW130398   3.724   0.741   7.234 -0.0088 -0.2085 -1.4907
 6313SOL    HW230399   3.747   0.661   7.355 -1.3410 -1.0394  0.2255
 6314SOL     OW30400   4.344   4.279  14.130 -0.1149 -0.4258 -0.2382
 6314SOL    HW130401   4.379   4.276  14.041 -0.5263  0.8296 -0.4339
 6314SOL    HW230402   4.318   4.189  14.148  0.3861 -0.1135  2.0508
 6315SOL     OW30403   0.611   1.496   3.065  0.0387  0.1576 -0.1357
 6315SOL    HW130404   0.540   1.480   3.003 -0.3443  1.0392  0.0710
 6315SOL    HW230405   0.556   1.477   3.141  2.0601  2.0735  1.7887
 6316SOL     OW30406   1.855   4.561  11.701  0.3100 -0.3803 -0.1495
 6316SOL    HW130407   1.788   4.522  11.756  1.8761 -2.3077  0.4030
 6316SOL    HW230408   1.787   4.616  11.661  2.4569  0.9708 -1.9688
 6317SOL     OW30409   1.467   1.037   9.073  0.2267 -0.0259 -0.2481
 6317SOL    HW130410   1.562   1.048   9.081  0.2646 -1.4544  1.2211
 6317SOL    HW230411   1.467   0.945   9.099  1.7378  0.5992  1.9538
 6318SOL     OW30412   0.704   4.504   7.661  0.5711 -0.4476 -0.1355
 6318SOL    HW130413   0.706   4.597   7.637  0.2186 -1.0460 -2.4428
 6318SOL    HW230414   0.645   4.468   7.596  1.3569 -1.5411 -0.2325
 6319SOL     OW30415   1.785   3.497   4.085  0.1607 -0.1181  1.1016
 6319SOL    HW130416   1.780   3.567   4.150 -0.5434  2.0675 -1.2901
 6319SOL    HW230417   1.850   3.438   4.123  1.0216  1.2930  1.8054
 6320SOL     OW30418   3.552   1.340   0.613  0.3112  0.0411  0.4818
 6320SOL    HW130419   3.593   1.284   0.548  0.1915 -1.2000  1.4663
 6320SOL    HW230420   3.626   1.338   0.674 -0.0222 -0.6483  0.8652
 6321SOL     OW30421   2.811   4.513   6.788  0.3624 -0.0008 -0.4342
 6321SOL    HW130422   2.861   4.446   6.742  1.3871  1.0749 -0.8942
 6321SOL    HW230423   2.744   4.459   6.831  1.1690 -1.6113 -1.2175
 6322SOL     OW30424   0.062   0.252  11.095 -0.2850  0.4199  0.1282
 6322SOL    HW130425   4.716   0.297  11.043  0.4690  2.5107  0.9705
 6322SOL    HW230426   0.103   0.313  11.156 -0.2103  0.6361 -0.1364
 6323SOL     OW30427   2.147   0.969   2.933 -0.4244 -0.3000  0.0413
 6323SOL    HW130428   2.185   0.951   2.847 -0.8971  1.6851 -0.5862
 6323SOL    HW230429   2.222   0.936   2.982 -0.3010 -0.7288 -0.4402
 6324SOL     OW30430   3.844   3.146   1.778  0.0356  0.4802 -0.3882
 6324SOL    HW130431   3.822   3.062   1.737  1.5570  0.5392 -1.2984
 6324SOL    HW230432   3.882   3.176   1.696  2.9322 -1.1073  0.3830
 6325SOL     OW30433   2.554   2.330  11.467 -0.3456  0.0435  0.1966
 6325SOL    HW130434   2.566   2.421  11.494  1.6875  0.6938 -2.8328
 6325SOL    HW230435   2.549   2.287  11.552  0.3318 -0.0651  0.1840
 6326SOL     OW30436   2.546   1.261   3.270 -0.2074 -0.1402 -0.7938
 6326SOL    HW130437   2.637   1.230   3.277 -0.7413 -1.7324 -0.9176
 6326SOL    HW230438   2.500   1.177   3.279  0.6630 -0.5111  0.3090
 6327SOL     OW30439   3.217   1.011   5.325  0.1031 -0.3880 -0.1041
 6327SOL    HW130440   3.132   1.046   5.352  0.5770  1.3330 -0.8360
 6327SOL    HW230441   3.227   1.033   5.232 -0.0927  1.8941  0.4142
 6328SOL     OW30442   3.524   0.900   7.917  0.1511 -0.0825 -0.0581
 6328SOL    HW130443   3.577   0.980   7.912 -0.6818  0.2081 -4.1188
 6328SOL    HW230444   3.435   0.935   7.907 -0.4477 -1.8339 -0.7606
 6329SOL     OW30445   1.522   0.069   1.641  0.2872 -0.0785 -0.2583
 6329SOL    HW130446   1.455   0.003   1.624 -0.5415  0.8048 -0.3436
 6329SOL    HW230447   1.485   0.111   1.718  0.8614  1.1321 -0.6512
 6330SOL     OW30448   1.684   2.009  12.699  0.4568  0.2964 -0.0032
 6330SOL    HW130449   1.695   2.104  12.687 -1.2723  0.8779  3.2324
 6330SOL    HW230450   1.594   1.977  12.694  1.1523 -1.4706 -1.4920
 6331SOL     OW30451   1.530   2.304   7.756 -0.4335 -0.2368  0.3048
 6331SOL    HW130452   1.557   2.212   7.763  0.4349  0.1637  2.3482
 6331SOL    HW230453   1.511   2.321   7.848 -0.3017  2.2254 -0.1379
 6332SOL     OW30454   3.485   3.388   9.140 -0.3709  0.4166  0.4269
 6332SOL    HW130455   3.407   3.340   9.113 -1.3994  0.4957  3.2757
 6332SOL    HW230456   3.464   3.481   9.131 -1.7175  0.1769  1.0065
 6333SOL     OW30457   4.564   3.070   7.352  0.1174 -0.3250  0.3577
 6333SOL    HW130458   4.647   3.117   7.349  0.3570 -0.8169 -0.6029
 6333SOL    HW230459   4.555   3.046   7.259 -0.0031 -0.9394  0.5307
 6334SOL     OW30460   4.013   0.197   4.454  0.1740  0.4117  0.1491
 6334SOL    HW130461   3.971   0.269   4.407 -2.0669 -0.4571  0.8188
 6334SOL    HW230462   3.975   0.225   4.538 -1.3166  0.6872 -0.6226
 6335SOL     OW30463   2.332   0.520  11.012  0.5162  0.0483 -0.0152
 6335SOL    HW130464   2.355   0.610  10.991  0.3422  0.0658 -0.1389
 6335SOL    HW230465   2.382   0.461  10.955  0.4335 -0.0325 -0.0051
 6336SOL     OW30466   2.228   0.557   2.202  0.1762  0.8469  0.6898
 6336SOL    HW130467   2.207   0.489   2.266  0.2243  1.2951  1.1852
 6336SOL    HW230468   2.249   0.634   2.255  0.8342  0.3362  1.1886
 6337SOL     OW30469   1.647   2.013   5.502 -0.0150  0.0179 -0.7135
 6337SOL    HW130470   1.645   1.951   5.430 -2.6175 -0.7421  0.0027
 6337SOL    HW230471   1.560   2.051   5.490  0.0015  0.1353 -0.4783
 6338SOL     OW30472   2.238   2.742   4.604 -0.1421  0.2949  0.0874
 6338SOL    HW130473   2.256   2.740   4.699  0.1446 -0.6405  0.0193
 6338SOL    HW230474   2.275   2.659   4.575  0.2251  0.6983 -0.5937
 6339SOL     OW30475   0.191   3.560   4.551 -0.2444  0.0129  0.0560
 6339SOL    HW130476   0.096   3.556   4.540 -0.2756 -0.0049  0.3316
 6339SOL    HW230477   0.219   3.490   4.491 -2.5394  0.6212 -1.7099
 6340SOL     OW30478   0.576   2.170   8.983 -0.2725 -0.0566 -0.3771
 6340SOL    HW130479   0.663   2.184   9.020 -0.3304  1.2618 -0.7404
 6340SOL    HW230480   0.586   2.078   8.960  0.8003  0.1026 -0.5510
 6341SOL     OW30481   2.167   0.203   6.887 -0.0023 -0.1715  0.7548
 6341SOL    HW130482   2.079   0.169   6.902 -0.9911  0.2413 -4.1784
 6341SOL    HW230483   2.154   0.269   6.819 -0.3296 -1.1662 -0.1537
 6342SOL     OW30484   3.133   2.445   7.811 -0.0140 -0.0657  0.0444
 6342SOL    HW130485   3.040   2.448   7.787 -0.0637 -0.5897  0.1781
 6342SOL    HW230486   3.167   2.372   7.759 -0.0102  0.3049 -0.4720
 6343SOL     OW30487   4.590   2.831   8.338 -0.9244  0.0644 -0.0485
 6343SOL    HW130488   4.615   2.846   8.246  0.1356 -1.0632  0.0504
 6343SOL    HW230489   4.500   2.863   8.336  0.1993  3.2094  0.7910
 6344SOL     OW30490   2.060   3.141   3.003  0.4408 -0.0235  0.5035
 6344SOL    HW130491   2.113   3.221   3.008 -0.8012  0.7116  1.8687
 6344SOL    HW230492   1.980   3.191   3.017  0.5475  0.5446 -0.8807
 6345SOL     OW30493   0.175   0.794   8.951  0.4315  0.2320 -0.2357
 6345SOL    HW130494   0.087   0.814   8.920  0.9311  1.7881 -0.6484
 6345SOL    HW230495   0.140   0.744   9.025 -0.0543  0.4900 -0.2854
 6346SOL     OW30496   3.898   4.642   3.765  0.1380 -0.5152  0.1635
 6346SOL    HW130497   3.927   0.010   3.782 -2.4522  0.2067  0.8403
 6346SOL    HW230498   3.947   4.598   3.834 -1.2108 -0.7271  0.9981
 6347SOL     OW30499   2.479   4.256   2.429  0.4153  0.4804 -0.2139
 6347SOL    HW130500   2.400   4.237   2.379 -1.5658 -0.3001  3.2155
 6347SOL    HW230501   2.538   4.182   2.413  0.4767  0.0769  1.8587
 6348SOL     OW30502   4.390   3.783   2.623  0.5668 -0.1304  0.0387
 6348SOL    HW130503   4.429   3.864   2.655  0.0435 -0.0148  0.3927
 6348SOL    HW230504   4.447   3.710   2.646  0.5198  0.0904  0.8479
 6349SOL     OW30505   3.753   0.391  14.192 -0.3051  0.2575 -0.2469
 6349SOL    HW130506   3.684   0.406  14.127 -0.1947  1.0164 -0.1898
 6349SOL    HW230507   3.778   0.302  14.166  0.1947  0.4044 -0.2539
 6350SOL     OW30508   2.866   3.103   6.055 -0.2299 -0.0346  0.0229
 6350SOL    HW130509   2.828   3.184   6.089  1.6932  1.2067 -0.7599
 6350SOL    HW230510   2.833   3.112   5.966  1.4224  0.8569 -0.5034
 6351SOL     OW30511   1.190   2.965   7.191  0.0857  0.2840  0.6181
 6351SOL    HW130512   1.203   2.895   7.256  0.2650 -1.8077 -1.6375
 6351SOL    HW230513   1.231   3.041   7.231  0.3573 -0.0011  0.8888
 6352SOL     OW30514   0.871   2.718   3.268 -0.3359  0.2417 -0.0376
 6352SOL    HW130515   0.840   2.661   3.339  1.8053 -3.2506 -1.9406
 6352SOL    HW230516   0.872   2.806   3.306 -1.1339  0.1163  0.2714
 6353SOL     OW30517   0.455   0.722  12.549 -0.0362  0.4931  0.6238
 6353SOL    HW130518   0.394   0.793  12.531  0.2369  0.9440  1.4841
 6353SOL    HW230519   0.396   0.651  12.573 -1.0743  0.1904 -2.8940
 6354SOL     OW30520   1.140   2.917  13.292 -0.4778  0.5003 -0.3236
 6354SOL    HW130521   1.090   2.881  13.365 -0.5520  3.1517  0.9296
 6354SOL    HW230522   1.230   2.906  13.322 -1.1683  0.2832  1.6619
 6355SOL     OW30523   2.479   1.893  11.018  0.7649 -0.3750 -0.1388
 6355SOL    HW130524   2.393   1.853  11.028  0.8198 -0.5052 -0.1744
 6355SOL    HW230525   2.464   1.987  11.019 -1.1068 -0.7209  2.6047
 6356SOL     OW30526   3.066   4.173   6.216  0.2983  0.4067 -0.4653
 6356SOL    HW130527   3.062   4.115   6.140 -1.4318  0.2980 -0.2883
 6356SOL    HW230528   3.156   4.169   6.249  0.7207 -0.7997 -1.7869
 6357SOL     OW30529   4.005   3.632   6.376 -0.5529 -0.5812 -0.3249
 6357SOL    HW130530   4.032   3.563   6.436 -0.8102  1.3068  1.9474
 6357SOL    HW230531   4.054   3.708   6.407 -1.3923  1.1825 -3.2437
 6358SOL     OW30532   1.531   2.354   4.856 -0.3016  0.2456 -0.5168
 6358SOL    HW130533   1.542   2.260   4.872  1.5252  1.1134  3.3746
 6358SOL    HW230534   1.446   2.364   4.898  0.6276 -0.5689  1.5298
 6359SOL     OW30535   0.738   0.134   3.368 -0.2833 -0.9507  0.1893
 6359SOL    HW130536   0.680   0.184   3.425  0.2426  0.3698 -0.4504
 6359SOL    HW230537   0.811   0.105   3.423  0.2575  0.7985  0.3754
 6360SOL     OW30538   4.073   3.778   8.147  0.0381  0.1710 -0.1653
 6360SOL    HW130539   4.087   3.695   8.193 -1.2246  0.2099  0.2836
 6360SOL    HW230540   4.159   3.785   8.106  0.6588  0.2066  1.1426
 6361SOL     OW30541   4.612   2.346   6.679 -0.1799 -0.2227 -0.2683
 6361SOL    HW130542   4.570   2.426   6.712 -1.6533 -0.7359 -0.8997
 6361SOL    HW230543   4.535   2.309   6.637  0.6767 -3.1991  0.7798
 6362SOL     OW30544   0.323   0.154   1.327  0.5473  0.5004  0.2056
 6362SOL    HW130545   0.334   0.097   1.250 -1.6295  1.7828 -1.0285
 6362SOL    HW230546   0.236   0.189   1.310  1.3697  2.4421  0.0047
 6363SOL     OW30547   3.404   0.085   7.090 -0.1541  0.4606 -0.0869
 6363SOL    HW130548   3.349   0.071   7.013  1.9961 -0.0445 -1.5418
 6363SOL    HW230549   3.478   0.038   7.050  0.9110  2.0603  0.0195
 6364SOL     OW30550   3.933   3.429   1.456  0.5814  0.0232 -0.4334
 6364SOL    HW130551   3.973   3.346   1.479 -0.3215  0.2119  1.8032
 6364SOL    HW230552   3.846   3.414   1.492  0.6646 -1.2117 -0.7467
 6365SOL     OW30553   2.051   2.387   1.647  0.1958 -0.2025  0.4293
 6365SOL    HW130554   2.085   2.348   1.566  0.0736 -0.7654  0.6500
 6365SOL    HW230555   2.131   2.425   1.682  1.7810 -1.2051 -2.0739
 6366SOL     OW30556   0.282   0.843   1.855  0.3746  0.4276  0.4677
 6366SOL    HW130557   0.240   0.757   1.855  2.6152 -0.6755 -1.0601
 6366SOL    HW230558   0.358   0.819   1.909 -0.6541 -2.0639  0.7867
 6367SOL     OW30559   1.787   2.212   6.131 -0.0960 -0.1678  0.3890
 6367SOL    HW130560   1.712   2.152   6.138 -1.5341  1.7490  1.3155
 6367SOL    HW230561   1.851   2.181   6.195 -0.2241 -0.7604  0.2307
 6368SOL     OW30562   0.158   3.426   7.267 -0.0768 -0.0315  0.1434
 6368SOL    HW130563   0.074   3.383   7.251 -0.8475  1.7822 -0.5784
 6368SOL    HW230564   0.133   3.482   7.340  0.2708  2.4379 -1.6261
 6369SOL     OW30565   3.779   0.858  17.403 -0.0667  0.2953  0.3213
 6369SOL    HW130566   3.785   0.951  17.422  1.3972  0.3378 -0.3273
 6369SOL    HW230567   3.865   0.828  17.372  0.4351  0.5369  1.5030
 6370SOL     OW30568   2.845   2.706   4.176 -0.8595  0.6818  0.0564
 6370SOL    HW130569   2.863   2.789   4.220 -0.2774 -0.4004  1.8513
 6370SOL    HW230570   2.877   2.636   4.233 -3.3793  0.1542  0.8303
 6371SOL     OW30571   1.401   2.543   3.137  0.4241 -0.3895  0.5925
 6371SOL    HW130572   1.312   2.579   3.133 -0.2043 -1.5188  3.7251
 6371SOL    HW230573   1.382   2.451   3.120  2.5670 -1.0209  1.5767
 6372SOL     OW30574   3.531   0.401   6.495  0.3959  0.2789 -0.3021
 6372SOL    HW130575   3.510   0.311   6.520  1.6226  0.0043 -0.2579
 6372SOL    HW230576   3.612   0.395   6.443 -0.3791 -1.5166 -1.2859
 6373SOL     OW30577   3.505   1.451   7.841 -0.1948 -0.7838  0.1632
 6373SOL    HW130578   3.574   1.485   7.897 -1.4382  0.4383  0.9503
 6373SOL    HW230579   3.423   1.488   7.874 -0.7622 -0.3189 -1.7626
 6374SOL     OW30580   3.867   3.322  14.215  0.2284 -0.1266  0.3185
 6374SOL    HW130581   3.841   3.394  14.157 -0.8155 -0.3896  0.4554
 6374SOL    HW230582   3.776   3.293  14.222 -0.4231  1.6265 -0.6656
 6375SOL     OW30583   1.011   1.021   8.802 -0.2309  0.0151  0.2135
 6375SOL    HW130584   0.946   0.980   8.860 -0.4113 -2.5893 -1.8531
 6375SOL    HW230585   1.058   0.945   8.769 -0.0637  0.5674 -0.8006
 6376SOL     OW30586   0.684   2.264   1.846  0.4295 -0.0732  0.0757
 6376SOL    HW130587   0.780   2.264   1.845  0.4250 -0.5849 -0.3936
 6376SOL    HW230588   0.660   2.313   1.768 -1.2497  1.5291  1.6060
 6377SOL     OW30589   0.103   3.794   8.826  0.1263  0.4226 -0.0787
 6377SOL    HW130590   0.114   3.824   8.735  0.4362  3.4355  0.9309
 6377SOL    HW230591   0.008   3.807   8.834  0.3785  2.1100  0.2137
 6378SOL     OW30592   1.171   0.314  16.809 -0.7980  0.1293  0.0543
 6378SOL    HW130593   1.185   0.375  16.882  0.3521 -0.4272  0.2987
 6378SOL    HW230594   1.117   0.249  16.854  1.2441  0.3166  2.7813
 6379SOL     OW30595   4.389   2.714   5.511 -0.1733 -0.5571  0.3086
 6379SOL    HW130596   4.372   2.640   5.454 -0.5577 -0.6406  0.5318
 6379SOL    HW230597   4.320   2.702   5.576 -0.1393 -0.6014  0.3363
 6380SOL     OW30598   3.296   4.061   5.443  0.2798  0.3212 -0.3372
 6380SOL    HW130599   3.355   4.071   5.519  1.8484 -0.0897 -1.5030
 6380SOL    HW230600   3.291   4.146   5.399  0.0254  0.7738  0.5633
 6381SOL     OW30601   0.816   1.733   2.770  0.1044 -0.2296  0.4233
 6381SOL    HW130602   0.726   1.725   2.802 -0.0871  0.6243  0.1033
 6381SOL    HW230603   0.804   1.700   2.681 -1.3688  1.9250 -0.1955
 6382SOL     OW30604   4.669   0.510   3.612 -0.5484 -0.0551 -0.1939
 6382SOL    HW130605   4.705   0.446   3.672 -0.2445 -1.6662 -2.1045
 6382SOL    HW230606   0.013   0.579   3.623 -1.8539  0.9991  1.0329
 6383SOL     OW30607   1.148   4.684   5.045 -0.0711 -0.4358 -0.7092
 6383SOL    HW130608   1.119   4.617   4.982 -0.9058 -0.4200 -0.3383
 6383SOL    HW230609   1.239   4.706   5.024  0.0821 -0.2055  0.2282
 6384SOL     OW30610   1.063   3.613   5.270 -0.2997 -0.0988 -0.7532
 6384SOL    HW130611   1.083   3.691   5.323  0.8122 -1.5535  0.9824
 6384SOL    HW230612   1.057   3.539   5.330  1.5472  0.0085 -0.4336
 6385SOL     OW30613   3.539   3.325  17.399  0.4589 -0.3075  0.2792
 6385SOL    HW130614   3.473   3.257  17.388  0.9429 -0.4616 -1.7739
 6385SOL    HW230615   3.603   3.283  17.457 -0.0302  0.0676  1.0762
 6386SOL     OW30616   3.310   3.322   9.386 -0.0847 -0.1426 -0.0562
 6386SOL    HW130617   3.309   3.417   9.394  2.3932 -0.0276 -0.9674
 6386SOL    HW230618   3.225   3.309   9.344 -0.7897  3.2608  0.3550
 6387SOL     OW30619   1.465   3.547   3.042  0.4716 -0.4290 -0.2570
 6387SOL    HW130620   1.463   3.619   2.980  1.0256 -0.7142 -0.6103
 6387SOL    HW230621   1.556   3.520   3.059 -0.1827 -0.1283  3.6834
 6388SOL     OW30622   1.506   3.057   2.196 -0.0864 -0.1931 -0.3585
 6388SOL    HW130623   1.437   3.109   2.154 -1.1963 -1.0761  0.3803
 6388SOL    HW230624   1.564   3.056   2.121 -3.5906  0.1152 -3.0942
 6389SOL     OW30625   3.031   4.555   5.414  0.1000 -0.5746  0.5480
 6389SOL    HW130626   3.063   4.572   5.325  0.3237 -0.1992  0.6987
 6389SOL    HW230627   2.957   4.616   5.417  0.1853 -0.5108  1.1906
 6390SOL     OW30628   1.237   1.203  12.918  0.4906  0.4127  0.3707
 6390SOL    HW130629   1.251   1.234  13.007  2.0777 -2.2942  1.0505
 6390SOL    HW230630   1.141   1.207  12.921  0.4390 -0.8982  0.5669
 6391SOL     OW30631   4.559   0.037   4.844  0.4426  0.0303  0.2259
 6391SOL    HW130632   4.600   4.676   4.817 -0.7054 -0.0150 -1.3631
 6391SOL    HW230633   4.611   0.099   4.792  1.4351 -2.1503 -1.3769
 6392SOL     OW30634   3.399   1.843  11.767 -0.3870 -0.2803 -0.5612
 6392SOL    HW130635   3.453   1.764  11.756  1.0134  0.5409  0.5108
 6392SOL    HW230636   3.318   1.793  11.757 -2.1289  2.1885  1.2588
 6393SOL     OW30637   4.098   0.122   8.038 -0.5559 -0.1868 -0.7058
 6393SOL    HW130638   4.049   0.176   7.975  0.6405  1.9831  0.2127
 6393SOL    HW230639   4.169   0.181   8.062 -0.0392 -1.3696  0.6422
 6394SOL     OW30640   0.445   1.180   5.046  0.0192  0.8898 -0.4574
 6394SOL    HW130641   0.427   1.266   5.085  1.4942  1.4220 -0.9776
 6394SOL    HW230642   0.401   1.123   5.110  1.3932  2.2499  1.7006
 6395SOL     OW30643   4.306   2.138   4.621 -0.6114  0.0105  0.0830
 6395SOL    HW130644   4.386   2.151   4.570 -2.1579 -0.0726 -2.3701
 6395SOL    HW230645   4.324   2.194   4.696  0.4059  2.1116 -1.7291
 6396SOL     OW30646   1.569   4.353   3.802  0.1050  0.1713  0.2062
 6396SOL    HW130647   1.590   4.346   3.895  0.6604 -0.0817  0.0614
 6396SOL    HW230648   1.476   4.376   3.808  0.2316  0.9348 -0.8523
 6397SOL     OW30649   4.647   3.290   4.643  0.5045  0.3409 -0.2051
 6397SOL    HW130650   4.565   3.322   4.679  0.5876  0.1214  0.1752
 6397SOL    HW230651   4.650   3.346   4.565  1.4710  0.2547 -0.2312
 6398SOL     OW30652   4.117   0.613  17.009  0.5377  0.4568  0.3142
 6398SOL    HW130653   4.072   0.572  16.936 -1.0008  0.8367  1.0367
 6398SOL    HW230654   4.099   0.703  16.981 -0.9897 -0.0769 -0.3865
 6399SOL     OW30655   0.813   3.301   7.896  0.3385  0.2859  0.1707
 6399SOL    HW130656   0.733   3.250   7.878 -0.0271  1.1827 -0.7571
 6399SOL    HW230657   0.867   3.227   7.923  2.4063  0.9251 -2.3099
 6400SOL     OW30658   2.545   0.013   5.360 -0.0910 -0.4465 -0.5983
 6400SOL    HW130659   2.498   4.682   5.424 -0.9795  0.3301 -0.6150
 6400SOL    HW230660   2.502   4.692   5.285 -1.2635 -2.5937  1.3037
 6401SOL     OW30661   1.924   1.916  13.552  0.3188 -0.3069 -0.1016
 6401SOL    HW130662   1.962   1.833  13.579 -2.4168 -0.8122  2.1393
 6401SOL    HW230663   2.008   1.960  13.534  1.0849 -1.1315  1.5337
 6402SOL     OW30664   1.868   3.602  12.396  0.4645 -0.1508 -0.1945
 6402SOL    HW130665   1.954   3.614  12.357  0.9048 -0.6959  0.5824
 6402SOL    HW230666   1.816   3.646  12.330 -1.2394  0.1757  1.3645
 6403SOL     OW30667   3.499   1.284  12.953  0.6091  0.6533 -0.4738
 6403SOL    HW130668   3.443   1.216  12.990  0.6805  0.5389 -0.5772
 6403SOL    HW230669   3.574   1.230  12.927  0.0139  0.5606 -1.9620
 6404SOL     OW30670   3.608   3.313  16.365  0.0550  0.1216 -0.1256
 6404SOL    HW130671   3.699   3.341  16.381 -0.1685  0.1964  0.9686
 6404SOL    HW230672   3.563   3.356  16.438  1.9770  2.2585 -0.1747
 6405SOL     OW30673   1.380   3.066   0.254 -0.3469  0.2570  0.3082
 6405SOL    HW130674   1.296   3.052   0.209  0.1875 -1.6713 -0.0706
 6405SOL    HW230675   1.356   3.067   0.347 -4.1244 -0.0162 -0.6668
 6406SOL     OW30676   1.370   3.080   5.947 -0.1348  0.5666 -0.3934
 6406SOL    HW130677   1.302   3.020   5.978  1.2053 -1.1666 -0.7695
 6406SOL    HW230678   1.371   3.040   5.860 -1.3152 -0.4025  0.0505
 6407SOL     OW30679   2.658   1.821   4.760 -0.0597 -0.1072 -0.0646
 6407SOL    HW130680   2.668   1.865   4.844  2.6994 -0.8712 -0.0071
 6407SOL    HW230681   2.732   1.761   4.769  0.6787  0.8859  0.4830
 6408SOL     OW30682   0.081   0.204   8.606 -0.8929  0.0948 -0.3794
 6408SOL    HW130683   0.034   0.270   8.554 -2.3927  0.1780  1.0676
 6408SOL    HW230684   0.168   0.233   8.580 -1.1639  2.0423  0.9027
 6409SOL     OW30685   4.657   4.718  12.449  0.1947 -0.0756 -0.9071
 6409SOL    HW130686   4.606   4.694  12.527  0.9573 -1.3575 -0.7911
 6409SOL    HW230687   4.585   0.037  12.402  1.9832  3.5500 -0.5445
 6410SOL     OW30688   2.616   3.602  10.563  0.0795 -0.0581 -0.3179
 6410SOL    HW130689   2.711   3.600  10.549 -0.3679 -1.1656 -3.2354
 6410SOL    HW230690   2.614   3.692  10.594 -0.5677  0.3956 -1.7087
 6411SOL     OW30691   2.456   2.686   6.330 -0.0104  0.2304 -0.9255
 6411SOL    HW130692   2.380   2.674   6.272 -0.7386 -0.1613  0.0946
 6411SOL    HW230693   2.438   2.624   6.401 -0.8035  2.9572  1.2633
 6412SOL     OW30694   3.405   2.621   8.989  0.1847 -0.2410 -0.1430
 6412SOL    HW130695   3.318   2.606   8.953 -0.1810 -1.3386  1.1800
 6412SOL    HW230696   3.450   2.546   8.949  1.2532  1.2914 -1.7671
 6413SOL     OW30697   0.529   0.376  13.672  0.2549 -0.2113  0.1614
 6413SOL    HW130698   0.469   0.351  13.602 -1.1424  2.1006  0.5326
 6413SOL    HW230699   0.467   0.374  13.744  0.4096  1.7061  0.3651
 6414SOL     OW30700   0.865   1.587  13.384 -0.1761 -0.0847  0.2688
 6414SOL    HW130701   0.783   1.604  13.338  1.1905  2.5062 -1.2653
 6414SOL    HW230702   0.833   1.591  13.474 -0.5756 -2.6339  0.2334
 6415SOL     OW30703   3.721   2.102  11.207 -0.3008  0.2161 -0.4876
 6415SOL    HW130704   3.790   2.050  11.247 -2.3007 -1.2628  1.0320
 6415SOL    HW230705   3.663   2.102  11.283  2.0412 -0.8476  1.3057
 6416SOL     OW30706   0.357   3.964   4.836  0.3527  0.0716  0.1582
 6416SOL    HW130707   0.340   3.916   4.917 -0.6133  0.1897  0.0321
 6416SOL    HW230708   0.370   4.049   4.878 -2.0405  1.2598 -1.5073
 6417SOL     OW30709   4.603   2.039  10.490 -0.0386 -0.2334 -0.1268
 6417SOL    HW130710   4.675   2.059  10.550  2.0960  0.3028 -2.8562
 6417SOL    HW230711   4.545   1.980  10.537  0.0876 -1.1792 -1.1723
 6418SOL     OW30712   2.170   2.892   6.445 -0.2348 -0.6549 -0.4960
 6418SOL    HW130713   2.222   2.848   6.512 -0.4040 -2.1481 -1.3607
 6418SOL    HW230714   2.162   2.819   6.384 -1.6585 -0.1442 -0.9234
 6419SOL     OW30715   2.971   4.130   0.097  0.2324 -0.6321  0.4670
 6419SOL    HW130716   3.041   4.067   0.111  1.9194  0.5321 -2.7748
 6419SOL    HW230717   2.946   4.117   0.006 -0.3725 -0.4525  0.6046
 6420SOL     OW30718   3.906   3.934   8.002  0.2211  0.3804  0.9789
 6420SOL    HW130719   3.860   3.857   7.968 -0.1765 -0.1998  2.8140
 6420SOL    HW230720   3.974   3.893   8.056 -0.0913 -0.7888  0.4691
 6421SOL     OW30721   1.771   4.031  15.989 -0.3765 -0.1872  0.1500
 6421SOL    HW130722   1.725   4.071  15.916  1.9054 -1.0693 -1.7990
 6421SOL    HW230723   1.742   4.094  16.053  0.2292  0.7286 -0.4753
 6422SOL     OW30724   4.302   2.056   3.977 -0.3919 -0.6102  0.5082
 6422SOL    HW130725   4.326   2.023   4.064 -2.0280 -1.5910  0.6029
 6422SOL    HW230726   4.335   1.979   3.932  0.4679  0.1890 -0.2223
 6423SOL     OW30727   1.622   4.660   5.178 -0.6158 -0.2696 -0.2660
 6423SOL    HW130728   1.656   4.693   5.261  1.7100 -1.5755 -0.7223
 6423SOL    HW230729   1.704   4.655   5.129 -1.0261 -0.8601 -0.8888
 6424SOL     OW30730   4.088   1.620   2.927 -0.2967 -0.1563 -0.2494
 6424SOL    HW130731   4.115   1.703   2.888 -3.7595  1.5317  0.8835
 6424SOL    HW230732   4.085   1.642   3.021  2.6107  0.0187 -0.2137
 6425SOL     OW30733   2.952   1.712   2.483 -0.1266 -0.5901 -0.1100
 6425SOL    HW130734   2.909   1.642   2.434 -0.0737 -0.1963 -0.7150
 6425SOL    HW230735   2.881   1.746   2.539  1.5820  1.1264  1.0166
 6426SOL     OW30736   3.791   3.112   2.273  0.1444  0.7050 -0.6764
 6426SOL    HW130737   3.841   3.053   2.216  0.2018 -1.1581  1.3154
 6426SOL    HW230738   3.783   3.062   2.354 -1.1921  1.2615 -0.4654
 6427SOL     OW30739   2.533   1.765  13.339 -0.3123 -0.3615  0.0749
 6427SOL    HW130740   2.478   1.839  13.367 -0.3568 -1.7312  3.6299
 6427SOL    HW230741   2.494   1.692  13.387 -0.7051 -0.3912 -0.2916
 6428SOL     OW30742   2.580   2.059   4.579 -0.2921 -0.4907  0.1412
 6428SOL    HW130743   2.488   2.085   4.591  0.5421  1.9474  1.2942
 6428SOL    HW230744   2.593   2.007   4.657  0.3111 -1.0569 -0.3348
 6429SOL     OW30745   2.037   0.708   2.954  0.1078  0.1457  0.2672
 6429SOL    HW130746   2.081   0.792   2.940  0.9494 -0.6333 -1.7803
 6429SOL    HW230747   1.965   0.695   2.893  0.1093 -0.3108  0.3675
 6430SOL     OW30748   1.415   0.008   4.991 -0.1878 -0.2776 -0.0099
 6430SOL    HW130749   1.440   0.098   4.970 -1.1121  0.3458  1.5563
 6430SOL    HW230750   1.473   0.009   5.068  2.4641  0.3428 -1.9954
 6431SOL     OW30751   4.426   4.060  10.643 -0.2542 -0.1538 -0.6575
 6431SOL    HW130752   4.503   4.020  10.682  0.0412  1.6867  0.6766
 6431SOL    HW230753   4.396   3.978  10.603  1.1984 -1.4381  0.8910
 6432SOL     OW30754   0.142   2.925   6.466  0.0569 -0.1087 -0.1800
 6432SOL    HW130755   0.215   2.971   6.507 -0.0157  0.2623 -0.4806
 6432SOL    HW230756   0.189   2.845   6.441  0.0156  0.1825 -1.1595
 6433SOL     OW30757   0.399   3.837   2.374 -0.0546  0.1957  0.5790
 6433SOL    HW130758   0.385   3.922   2.332  0.5427 -2.3979 -4.8221
 6433SOL    HW230759   0.494   3.833   2.363 -0.3320  0.8287 -2.0920
 6434SOL     OW30760   4.047   3.762   1.183  0.2377 -0.9643  0.0049
 6434SOL    HW130761   4.042   3.812   1.102 -2.3001  0.1682  0.8529
 6434SOL    HW230762   4.121   3.805   1.227 -0.7427  0.4028  0.3123
 6435SOL     OW30763   3.233   3.155   0.359 -0.2131 -0.5241 -0.0962
 6435SOL    HW130764   3.142   3.179   0.346  0.1733  0.9002 -0.2458
 6435SOL    HW230765   3.262   3.128   0.272  2.4158  0.3082  0.5097
 6436SOL     OW30766   4.580   3.604   0.721  0.0733  0.4193  0.4978
 6436SOL    HW130767   4.664   3.646   0.738 -0.1053  2.2368 -2.9919
 6436SOL    HW230768   4.563   3.567   0.807  0.0351 -1.4747 -0.3047
 6437SOL     OW30769   1.788   1.712   5.625  0.5418  0.0619  0.0963
 6437SOL    HW130770   1.817   1.789   5.576  1.5545 -2.0556 -2.6061
 6437SOL    HW230771   1.732   1.752   5.692  0.9313  0.3775  0.2333
 6438SOL     OW30772   1.606   0.481   1.687 -0.3520 -0.3862 -0.3883
 6438SOL    HW130773   1.625   0.547   1.620  1.8989  0.2682  0.8867
 6438SOL    HW230774   1.649   0.404   1.649  1.3181  0.6186 -0.5562
 6439SOL     OW30775   2.408   0.804   7.206  0.1375 -0.0223  0.4536
 6439SOL    HW130776   2.391   0.881   7.259  1.9958 -0.3214  1.5170
 6439SOL    HW230777   2.482   0.849   7.164  0.5948  0.4958  1.8177
 6440SOL     OW30778   3.237   1.207   2.779 -0.1265 -0.1699  0.3535
 6440SOL    HW130779   3.264   1.251   2.699 -0.1361 -0.8172 -0.0065
 6440SOL    HW230780   3.266   1.118   2.759 -0.7701 -1.0700  3.4692
 6441SOL     OW30781   4.261   3.074   3.686  0.1436 -0.0750 -0.2855
 6441SOL    HW130782   4.310   2.997   3.658  0.2675  0.1282 -0.6299
 6441SOL    HW230783   4.178   3.050   3.645 -0.5395 -0.8919  1.5740
 6442SOL     OW30784   0.827   3.341  11.316  0.1276 -0.0679  0.3677
 6442SOL    HW130785   0.872   3.392  11.249 -1.1746  0.4085 -0.1575
 6442SOL    HW230786   0.865   3.386  11.392  0.9534  4.5192 -2.7526
 6443SOL     OW30787   0.648   1.774   3.025 -0.2724  0.2096  0.3814
 6443SOL    HW130788   0.601   1.693   3.007 -1.0580  0.6774  0.3447
 6443SOL    HW230789   0.693   1.748   3.105  1.0948 -0.0756 -0.4638
 6444SOL     OW30790   1.029   2.989   2.403  0.1098  0.4410 -0.3508
 6444SOL    HW130791   0.949   2.961   2.358 -1.2981  0.9367  1.7980
 6444SOL    HW230792   1.076   3.046   2.342 -1.6470 -0.0955 -2.2157
 6445SOL     OW30793   4.094   4.721   1.269 -1.1124  0.2459  0.6121
 6445SOL    HW130794   4.069   0.092   1.268 -1.8582  0.0460  0.9731
 6445SOL    HW230795   4.096   4.696   1.177 -1.9714  0.4599  0.5365
 6446SOL     OW30796   2.521   2.828   4.316  0.2185  0.1561 -0.2562
 6446SOL    HW130797   2.519   2.861   4.406 -0.2081 -0.9272  0.1197
 6446SOL    HW230798   2.428   2.818   4.296  0.4068 -1.3405 -0.3723
 6447SOL     OW30799   2.497   3.404  16.376 -0.0461  0.2040  0.1234
 6447SOL    HW130800   2.509   3.497  16.355  1.8629  0.0949  0.7426
 6447SOL    HW230801   2.581   3.387  16.419 -0.7779 -3.4340  0.0804
 6448SOL     OW30802   0.005   4.258   8.535  0.7370 -0.2521 -0.3519
 6448SOL    HW130803   4.675   4.181   8.556  0.5033 -0.2823 -1.0357
 6448SOL    HW230804   0.096   4.228   8.529  0.8496  0.1981 -0.8989
 6449SOL     OW30805   3.695   3.469   3.604  0.0888 -0.4389  0.0746
 6449SOL    HW130806   3.730   3.547   3.647 -1.1855  1.5150 -2.4224
 6449SOL    HW230807   3.644   3.515   3.537  0.5210  0.2991  0.2496
 6450SOL     OW30808   4.369   3.458  12.767  0.0090 -0.3687  0.3198
 6450SOL    HW130809   4.446   3.446  12.822 -0.9749 -3.0202  1.1018
 6450SOL    HW230810   4.356   3.553  12.763  1.2641 -0.2318 -0.2895
 6451SOL     OW30811   3.021   4.708  16.106  0.0028  0.2336 -0.0844
 6451SOL    HW130812   3.110   0.019  16.120  0.4174 -0.4391 -1.1406
 6451SOL    HW230813   3.032   4.623  16.149  2.5016 -0.5644 -2.3431
 6452SOL     OW30814   3.170   1.857   4.315  0.5611 -0.1380  0.3646
 6452SOL    HW130815   3.139   1.826   4.230  0.6857 -1.4507  0.8070
 6452SOL    HW230816   3.093   1.904   4.348  0.9685  0.4003  0.5501
 6453SOL     OW30817   2.686   0.336   4.579 -0.1898 -0.0455 -0.1357
 6453SOL    HW130818   2.667   0.415   4.630  1.8623 -0.3337  1.0500
 6453SOL    HW230819   2.619   0.279   4.618 -1.1290  2.9348  2.6448
 6454SOL     OW30820   0.898   1.839   6.309 -0.4722  0.1453  0.3234
 6454SOL    HW130821   0.957   1.768   6.335 -4.1658 -2.2734  2.1756
 6454SOL    HW230822   0.880   1.812   6.219  0.0706  0.1396  0.2169
 6455SOL     OW30823   4.195   2.945   6.278 -0.0251 -0.1843 -0.8294
 6455SOL    HW130824   4.154   2.976   6.359 -1.0697  1.3942 -1.9662
 6455SOL    HW230825   4.201   3.027   6.230  1.8431 -0.0209 -0.3302
 6456SOL     OW30826   2.833   0.538   7.798  0.0847 -0.3924 -0.0341
 6456SOL    HW130827   2.820   0.521   7.891  1.7950  1.9642  0.6387
 6456SOL    HW230828   2.745   0.515   7.769  0.4348  0.0523 -1.4522
 6457SOL     OW30829   4.403   1.658   4.378 -0.0863 -0.2685  0.3208
 6457SOL    HW130830   4.409   1.587   4.314 -1.6004  0.1618 -0.3007
 6457SOL    HW230831   4.370   1.607   4.451 -1.0927 -0.2967 -0.1551
 6458SOL     OW30832   1.118   2.609   3.217  0.1495  0.9650  0.3153
 6458SOL    HW130833   1.094   2.554   3.142  0.0293 -0.2389  1.2298
 6458SOL    HW230834   1.031   2.639   3.243 -0.7112  0.6985 -2.2867
 6459SOL     OW30835   3.022   0.390  16.736 -0.1171 -0.2266  0.3146
 6459SOL    HW130836   3.095   0.330  16.752 -0.5026 -1.3822 -2.2803
 6459SOL    HW230837   3.060   0.467  16.694  0.7488 -0.4309  0.7337
 6460SOL     OW30838   1.406   4.721   9.717  0.0151 -0.5137  0.1003
 6460SOL    HW130839   1.457   0.072   9.682 -1.3248  0.3482 -0.0676
 6460SOL    HW230840   1.388   0.019   9.808 -0.4874  0.2314 -0.1589
 6461SOL     OW30841   4.033   2.197   5.155  0.1243 -0.0193  0.2446
 6461SOL    HW130842   3.945   2.233   5.162 -0.3832 -1.2871  0.3159
 6461SOL    HW230843   4.084   2.272   5.126 -1.5104  0.7167 -0.7299
 6462SOL     OW30844   1.157   2.689   1.403 -0.2830  0.5067 -0.0820
 6462SOL    HW130845   1.093   2.739   1.453 -1.3213 -1.2780  0.3668
 6462SOL    HW230846   1.124   2.693   1.313  2.2025  1.0540 -0.9762
 6463SOL     OW30847   3.075   1.708   1.131  0.8115  0.1245  0.0799
 6463SOL    HW130848   3.066   1.666   1.216  4.0555 -1.8004 -0.4974
 6463SOL    HW230849   3.072   1.628   1.078  0.9192  0.0673  0.1591
 6464SOL     OW30850   2.292   0.868  11.398  0.3754  0.5836  0.4244
 6464SOL    HW130851   2.320   0.881  11.307  1.6991 -0.4758  0.6725
 6464SOL    HW230852   2.335   0.943  11.439 -3.4500  2.1321  1.5315
 6465SOL     OW30853   1.106   0.108  12.627 -0.2658 -0.0638 -0.3727
 6465SOL    HW130854   1.057   0.096  12.708 -1.2054  0.4425 -0.8748
 6465SOL    HW230855   1.119   0.016  12.603  0.8408  0.5670 -2.1980
 6466SOL     OW30856   1.036   2.535   5.795 -0.2938 -0.3568  1.1687
 6466SOL    HW130857   0.973   2.512   5.727  0.2151 -0.2104  0.6438
 6466SOL    HW230858   0.980   2.596   5.843 -1.2040  0.2964 -0.7427
 6467SOL     OW30859   0.911   1.426  17.495 -0.7036 -0.4454  0.0920
 6467SOL    HW130860   0.865   1.406  17.414  1.7478 -1.4443 -1.0766
 6467SOL    HW230861   0.968   1.500  17.474  0.8264 -1.1838  1.6309
 6468SOL     OW30862   1.541   2.315  17.221  0.1795 -0.0039  0.6940
 6468SOL    HW130863   1.580   2.240  17.176 -0.8881  0.1076 -0.4149
 6468SOL    HW230864   1.615   2.359  17.261 -0.0618  3.4878 -2.6554
 6469SOL     OW30865   1.463   1.486   5.480  0.2545  0.0143  0.0632
 6469SOL    HW130866   1.483   1.579   5.475  1.0130 -0.0729  1.7233
 6469SOL    HW230867   1.429   1.473   5.391  0.1165 -0.0982  0.1312
 6470SOL     OW30868   3.978   1.976  10.673  0.0109  0.1952  0.8935
 6470SOL    HW130869   4.073   1.984  10.671  0.0277 -0.0994  0.5590
 6470SOL    HW230870   3.958   2.003  10.763 -2.0073 -0.4598  0.6608
 6471SOL     OW30871   2.411   0.830   8.192 -0.0473  0.0222  0.0590
 6471SOL    HW130872   2.378   0.862   8.276  1.1297  1.7218 -0.1352
 6471SOL    HW230873   2.459   0.755   8.227  0.7628  0.4123 -0.2122
 6472SOL     OW30874   1.454   1.208  12.767  0.0387  0.0619 -0.5273
 6472SOL    HW130875   1.386   1.188  12.832  1.0644  2.1836  1.2010
 6472SOL    HW230876   1.470   1.301  12.784  1.3295 -0.2529 -0.0387
 6473SOL     OW30877   0.015   3.556   7.494 -0.3146 -0.5593  0.0622
 6473SOL    HW130878   4.661   3.579   7.548  0.5300  0.5017  0.7724
 6473SOL    HW230879   0.001   3.596   7.408 -1.2725 -1.5984 -0.2732
 6474SOL     OW30880   4.589   1.271  15.059  0.7871  0.8264 -0.0795
 6474SOL    HW130881   4.583   1.352  15.009 -0.3630 -0.1416 -1.5125
 6474SOL    HW230882   4.666   1.225  15.026  0.1313  1.7681 -2.9323
 6475SOL     OW30883   2.035   2.713   5.695 -0.2151  0.3803 -0.2209
 6475SOL    HW130884   2.015   2.701   5.788  0.2038  3.6546  0.3116
 6475SOL    HW230885   1.949   2.687   5.662 -0.0943  1.7519 -1.6249
 6476SOL     OW30886   2.121   0.431  15.514  0.1956 -0.1639  0.1117
 6476SOL    HW130887   2.148   0.511  15.558 -0.8418 -2.2184  4.5063
 6476SOL    HW230888   2.184   0.365  15.543 -0.5789  0.4604  3.1476
 6477SOL     OW30889   4.088   4.182   3.673 -0.1011 -0.9152 -0.0017
 6477SOL    HW130890   3.998   4.207   3.697  0.6963  0.0393  1.9491
 6477SOL    HW230891   4.095   4.253   3.609 -0.7459  1.0104  2.0856
 6478SOL     OW30892   1.567   1.021   6.822  0.1966 -0.7147 -0.2093
 6478SOL    HW130893   1.488   1.048   6.868 -0.3218  0.7342 -1.9438
 6478SOL    HW230894   1.565   0.926   6.834  1.1744 -0.9369 -1.7697
 6479SOL     OW30895   0.581   1.336   6.961  0.3777  0.3877 -0.2754
 6479SOL    HW130896   0.486   1.327   6.959  0.3575  0.1708  2.0593
 6479SOL    HW230897   0.587   1.427   6.988 -0.3209 -0.1569  1.6599
 6480SOL     OW30898   2.588   3.816   3.982 -0.0869 -0.2258  0.1098
 6480SOL    HW130899   2.624   3.741   3.936  0.0175 -0.5010  0.6453
 6480SOL    HW230900   2.650   3.880   3.946 -0.6417  0.6092  0.6225
 6481SOL     OW30901   3.859   1.249   2.858 -0.3184 -0.3934 -0.5648
 6481SOL    HW130902   3.840   1.165   2.901  0.1233  0.3184  1.0373
 6481SOL    HW230903   3.949   1.226   2.834 -0.3390  0.2657 -1.2653
 6482SOL     OW30904   0.566   4.636  16.394 -0.0336  0.0349 -0.0300
 6482SOL    HW130905   0.554   4.707  16.332  2.3774  1.1062  0.7641
 6482SOL    HW230906   0.646   4.595  16.361  0.7424  2.1327 -0.7440
 6483SOL     OW30907   2.678   1.342  10.986  0.9374 -0.0747  0.9999
 6483SOL    HW130908   2.633   1.412  11.034  1.4337  1.6629 -1.0483
 6483SOL    HW230909   2.728   1.299  11.056 -1.9396 -3.0626  1.2101
 6484SOL     OW30910   1.273   0.673  16.907  0.0126 -0.0302  0.0373
 6484SOL    HW130911   1.225   0.637  16.982 -0.5937 -0.0642 -0.3649
 6484SOL    HW230912   1.213   0.735  16.866  0.3037 -0.4633 -1.0659
 6485SOL     OW30913   2.053   4.509  13.074 -0.1039  0.3658 -0.1958
 6485SOL    HW130914   2.076   4.469  12.990 -0.4435  2.2080 -1.1642
 6485SOL    HW230915   2.063   4.436  13.135  0.0298  1.9927  1.6894
 6486SOL     OW30916   1.650   0.887  15.206 -0.0429 -0.8205  0.2001
 6486SOL    HW130917   1.643   0.966  15.259 -1.3996 -0.4678 -0.4792
 6486SOL    HW230918   1.644   0.919  15.116  0.3853  3.2338  1.6277
 6487SOL     OW30919   0.727   4.039   6.060 -0.1385 -0.0596  0.2257
 6487SOL    HW130920   0.750   4.132   6.062  1.0879 -0.3046 -2.4838
 6487SOL    HW230921   0.780   4.007   5.987 -2.2408 -2.5793 -0.1969
 6488SOL     OW30922   4.253   1.946   5.546 -0.1207  0.2708 -0.2620
 6488SOL    HW130923   4.201   2.025   5.531 -1.5872 -0.4240  1.2976
 6488SOL    HW230924   4.332   1.981   5.588 -0.0593  0.8280 -0.8320
 6489SOL     OW30925   4.170   0.132   5.238  0.4287  0.3040 -0.0510
 6489SOL    HW130926   4.241   0.197   5.242  0.2653  0.5262 -0.8524
 6489SOL    HW230927   4.225   0.054   5.245 -0.3841 -0.3017 -0.5651
 6490SOL     OW30928   3.943   1.466   3.332 -0.4608  0.2878 -0.3392
 6490SOL    HW130929   3.935   1.467   3.237 -1.0224 -0.8785 -0.3078
 6490SOL    HW230930   3.949   1.371   3.342 -1.2772  0.2705  0.0710
 6491SOL     OW30931   0.472   1.695   8.516  0.2703 -0.3302 -0.2746
 6491SOL    HW130932   0.516   1.641   8.449  2.2887  1.4276 -0.3776
 6491SOL    HW230933   0.417   1.629   8.557 -0.6481 -0.1738 -1.2322
 6492SOL     OW30934   1.709   2.928   9.054  0.6210 -0.1462 -0.0529
 6492SOL    HW130935   1.685   2.954   9.143 -0.1333 -0.8945 -0.0298
 6492SOL    HW230936   1.619   2.911   9.025  0.5204 -1.1324  0.8295
 6493SOL     OW30937   3.568   0.533  10.768  0.2757 -0.0074 -0.2213
 6493SOL    HW130938   3.612   0.616  10.784  3.1140 -1.2415 -1.5458
 6493SOL    HW230939   3.495   0.576  10.724 -0.8797 -0.8192  0.8867
 6494SOL     OW30940   2.863   2.367   7.275  0.3398 -0.6416 -0.5535
 6494SOL    HW130941   2.929   2.431   7.248  0.9599 -0.2655  1.8584
 6494SOL    HW230942   2.927   2.308   7.316  1.1832  0.7128  0.0813
 6495SOL     OW30943   3.919   3.020  15.598 -0.3347 -0.0094  0.0365
 6495SOL    HW130944   3.899   3.112  15.581 -1.7403 -0.2448  0.4130
 6495SOL    HW230945   3.891   2.988  15.512 -2.5054  2.1884 -0.0964
 6496SOL     OW30946   0.052   1.629   5.509 -0.9130 -0.1579 -0.0601
 6496SOL    HW130947   0.080   1.700   5.567 -1.0780 -0.1475  0.0067
 6496SOL    HW230948   4.680   1.630   5.528 -1.2025 -0.8151 -1.4199
 6497SOL     OW30949   0.360   2.141   3.026 -0.0765  0.0848  0.3838
 6497SOL    HW130950   0.336   2.130   2.934 -1.6524  2.8123  0.4580
 6497SOL    HW230951   0.377   2.051   3.053 -0.1366  0.0559  0.3235
 6498SOL     OW30952   2.639   2.588  17.467 -0.1849 -0.1261  0.6290
 6498SOL    HW130953   2.645   2.577  17.562 -0.0789  1.2373  0.7733
 6498SOL    HW230954   2.546   2.605  17.456  0.8917  3.8437 -1.8843
 6499SOL     OW30955   1.914   4.501  10.838 -0.1587 -0.0181  0.2443
 6499SOL    HW130956   1.868   4.424  10.873 -0.0642  0.0894  0.5991
 6499SOL    HW230957   1.877   4.571  10.892  0.9481  1.6769 -1.1943
 6500SOL     OW30958   0.388   0.127  12.792 -1.0413 -0.0110  0.1514
 6500SOL    HW130959   0.346   0.079  12.720 -0.1358 -1.1039  0.3362
 6500SOL    HW230960   0.318   0.189  12.808 -0.6098  1.0280 -2.0396
 6501SOL     OW30961   0.207   0.988  11.975  0.0256 -0.2677  0.1309
 6501SOL    HW130962   0.169   1.006  11.889  0.3160 -1.2785 -0.2080
 6501SOL    HW230963   0.127   0.945  12.006  0.8463 -0.9113  1.3994
 6502SOL     OW30964   3.032   2.075   7.208 -0.4634 -0.1635  0.3906
 6502SOL    HW130965   2.988   2.109   7.130 -2.8226 -1.8280  0.9765
 6502SOL    HW230966   2.970   2.005   7.229  0.6345 -1.1656  0.2461
 6503SOL     OW30967   0.012   0.290   3.397  0.7739  0.3912  0.3838
 6503SOL    HW130968   4.640   0.295   3.377  0.8721  0.1892 -0.1231
 6503SOL    HW230969   0.054   0.374   3.378  0.6712  0.2686 -0.3756
 6504SOL     OW30970   1.371   1.692  17.664 -0.6030 -0.2686 -0.5948
 6504SOL    HW130971   1.312   1.659   0.045  0.9375  0.1545  0.9584
 6504SOL    HW230972   1.420   1.755   0.030 -1.9469  0.0517  0.2891
 6505SOL     OW30973   2.960   2.466   0.627  0.3578 -0.5192 -0.6600
 6505SOL    HW130974   2.901   2.421   0.566  0.1365 -0.2039 -0.6808
 6505SOL    HW230975   3.042   2.419   0.611 -0.2159 -2.1640  1.3074
 6506SOL     OW30976   2.357   4.541   9.220 -0.4195  0.7848 -0.1555
 6506SOL    HW130977   2.378   4.631   9.245  0.5938  0.9380 -1.5249
 6506SOL    HW230978   2.367   4.492   9.302  1.8432 -0.1997 -1.0262
 6507SOL     OW30979   4.203   0.761   3.785  0.6519 -0.8970  0.1312
 6507SOL    HW130980   4.122   0.778   3.833  0.3636  0.2717 -0.7757
 6507SOL    HW230981   4.260   0.804   3.850 -1.9714  1.5376  0.8096
 6508SOL     OW30982   1.876   3.172   5.136  0.4174  0.6166  0.9435
 6508SOL    HW130983   1.916   3.234   5.075  2.3486 -0.5341  1.0520
 6508SOL    HW230984   1.919   3.196   5.218 -1.5137  0.9116  1.8769
 6509SOL     OW30985   0.286   0.606  10.718 -0.1242 -0.1143 -0.5644
 6509SOL    HW130986   0.214   0.548  10.741 -0.3211  0.0195 -0.8461
 6509SOL    HW230987   0.359   0.546  10.734  1.0512  1.3477 -0.4493
 6510SOL     OW30988   2.440   4.045  12.228 -0.4626  0.3679  0.6825
 6510SOL    HW130989   2.456   3.961  12.184  0.7447  0.6839  0.5019
 6510SOL    HW230990   2.380   4.074  12.159  1.2199  1.6546 -0.2354
 6511SOL     OW30991   3.541   2.229  17.572 -0.0216  0.2123  0.3016
 6511SOL    HW130992   3.563   2.309  17.619  1.0726  0.4906 -0.6603
 6511SOL    HW230993   3.446   2.230  17.582 -0.0038  2.7469  0.3700
 6512SOL     OW30994   2.274   2.399   1.402  0.2319 -0.8425  0.2222
 6512SOL    HW130995   2.365   2.383   1.429  0.6028  0.9393  0.0395
 6512SOL    HW230996   2.259   2.488   1.434  1.1774 -1.8060  3.4514
 6513SOL     OW30997   1.239   0.023   3.426  0.1547 -0.1531 -0.1122
 6513SOL    HW130998   1.170   4.716   3.365  1.6723 -1.3092 -1.3173
 6513SOL    HW230999   1.220   0.117   3.427  0.9981  0.0243 -0.8775
 6514SOL     OW31000   1.531   3.228  10.436  0.4129 -0.5524 -0.7816
 6514SOL    HW131001   1.478   3.305  10.415  0.6322 -0.2211 -0.0897
 6514SOL    HW231002   1.487   3.154  10.393 -0.8187  0.6067 -1.4923
 6515SOL     OW31003   0.017   1.974   5.495 -0.2070 -0.0679  0.0898
 6515SOL    HW131004   0.073   2.050   5.480 -0.5610 -0.2956 -2.3199
 6515SOL    HW231005   4.673   1.985   5.426 -0.9751 -1.6854  0.5537
 6516SOL     OW31006   4.641   2.235  16.514  0.3552  0.0942 -0.9256
 6516SOL    HW131007   4.687   2.203  16.592 -1.1475  0.8859  0.2810
 6516SOL    HW231008   4.552   2.253  16.545  0.4754 -0.7975 -0.0282
 6517SOL     OW31009   0.425   3.089  10.952 -0.0926  0.1992 -0.0395
 6517SOL    HW131010   0.337   3.063  10.926 -1.1024  0.1575  3.4703
 6517SOL    HW231011   0.402   3.137  11.031 -1.4739  1.1054 -0.9989
 6518SOL     OW31012   2.900   3.025  11.160 -0.8768  0.3182  0.5210
 6518SOL    HW131013   2.811   2.994  11.177 -1.1501 -0.4106 -2.2589
 6518SOL    HW231014   2.956   2.983  11.226 -2.1628 -0.5836  1.0459
 6519SOL     OW31015   3.481   1.799  12.090 -0.1875 -0.4522  0.0498
 6519SOL    HW131016   3.550   1.864  12.100 -0.7784  0.0885  0.6383
 6519SOL    HW231017   3.429   1.810  12.170 -0.0205  1.2852 -0.0851
 6520SOL     OW31018   0.630   3.011   1.611 -0.2068 -0.1464  0.0702
 6520SOL    HW131019   0.627   3.064   1.531 -0.6814 -0.8531 -0.3797
 6520SOL    HW231020   0.652   2.923   1.582 -1.1980 -0.3959  0.0829
 6521SOL     OW31021   2.214   3.284   7.261  0.0758 -0.4296  0.3405
 6521SOL    HW131022   2.271   3.225   7.309  0.3573 -0.6819 -0.3010
 6521SOL    HW231023   2.167   3.323   7.335 -0.0259 -1.4445  0.8073
 6522SOL     OW31024   4.513   4.236  11.549  0.2919  0.0669 -0.2693
 6522SOL    HW131025   4.440   4.260  11.490 -0.6575  0.7298  1.1724
 6522SOL    HW231026   4.561   4.180  11.489 -0.0700 -0.9929  0.4452
 6523SOL     OW31027   4.595   3.147  12.361  0.2937 -0.5426  0.1829
 6523SOL    HW131028   4.504   3.118  12.360  0.0909  0.0992 -0.0028
 6523SOL    HW231029   4.636   3.073  12.406  0.3150  0.5304  1.9352
 6524SOL     OW31030   4.384   3.672  12.444 -0.1423  0.3711  0.5711
 6524SOL    HW131031   4.321   3.602  12.430  0.7315 -0.2308 -0.3825
 6524SOL    HW231032   4.407   3.701  12.355 -0.4575 -0.3919  0.2380
 6525SOL     OW31033   1.891   2.792  13.458  0.3392  0.7720  0.5779
 6525SOL    HW131034   1.885   2.744  13.375  1.4640 -1.1919  1.6287
 6525SOL    HW231035   1.985   2.813  13.448  0.0765  1.6666 -0.0942
 6526SOL     OW31036   3.910   4.257   0.890 -0.3163 -0.1015  0.2404
 6526SOL    HW131037   3.839   4.290   0.835  0.7660  0.9651 -0.5006
 6526SOL    HW231038   3.928   4.328   0.950  0.2888  0.3124 -0.4310
 6527SOL     OW31039   1.281   0.828   7.804  0.5048  0.3236 -0.3664
 6527SOL    HW131040   1.286   0.733   7.801 -2.0114  0.1451  0.9616
 6527SOL    HW231041   1.354   0.838   7.865 -1.2838 -1.7370  2.0881
 6528SOL     OW31042   4.119   1.245  13.396  0.1915 -0.7118 -0.0946
 6528SOL    HW131043   4.105   1.334  13.427 -0.4161  0.0806 -2.5724
 6528SOL    HW231044   4.125   1.208  13.484 -0.3815  0.6305  0.5028
 6529SOL     OW31045   0.726   1.708   1.287 -0.0054  0.0482 -0.4016
 6529SOL    HW131046   0.710   1.616   1.307 -0.7693  0.7862  2.3193
 6529SOL    HW231047   0.639   1.729   1.252  0.3926 -2.2179 -2.7373
 6530SOL     OW31048   2.340   4.482   4.190 -0.2075  0.1594  0.4539
 6530SOL    HW131049   2.379   4.468   4.276 -1.1190  0.0807  0.8569
 6530SOL    HW231050   2.378   4.414   4.136 -0.1127 -0.2488  1.0292
 6531SOL     OW31051   4.305   3.539  12.131  0.3839  0.2375  0.9110
 6531SOL    HW131052   4.373   3.477  12.157 -0.3049 -1.0759 -0.4073
 6531SOL    HW231053   4.255   3.543  12.212  0.7319 -1.8535  1.2237
 6532SOL     OW31054   0.840   2.382   4.841 -0.2908  0.2077 -0.1038
 6532SOL    HW131055   0.834   2.350   4.931  0.4316 -1.7694 -0.7610
 6532SOL    HW231056   0.925   2.351   4.810  0.3293  0.9466  0.8530
 6533SOL     OW31057   2.443   2.978  10.845 -0.0976 -0.6963  0.2748
 6533SOL    HW131058   2.536   2.994  10.829 -0.3951 -0.8189 -1.5049
 6533SOL    HW231059   2.418   2.926  10.768  1.3868  0.2811 -0.8502
 6534SOL     OW31060   0.729   2.419  16.769 -0.4306  0.2790  0.0271
 6534SOL    HW131061   0.795   2.473  16.726  0.7425 -0.4912  0.8630
 6534SOL    HW231062   0.642   2.458  16.757 -0.8980 -0.4128  1.1575
 6535SOL     OW31063   1.893   0.162   6.125  0.6031 -0.5306  0.5606
 6535SOL    HW131064   1.852   0.093   6.073 -0.8315  1.4764 -0.9362
 6535SOL    HW231065   1.981   0.163   6.089  0.8335  1.9393  1.2145
 6536SOL     OW31066   0.880   2.100   2.917  0.4080  0.2931  0.0479
 6536SOL    HW131067   0.865   2.122   3.009  1.3725 -2.1880  0.7836
 6536SOL    HW231068   0.974   2.087   2.909  0.5739  0.0209  2.3233
 6537SOL     OW31069   0.671   3.286   5.128 -0.2867  0.0713  0.5036
 6537SOL    HW131070   0.766   3.297   5.125 -0.4908  1.1948 -1.6569
 6537SOL    HW231071   0.650   3.214   5.069 -1.6182 -0.3584  1.4856
 6538SOL     OW31072   4.011   1.275   4.842 -0.2748 -0.1249 -0.6464
 6538SOL    HW131073   3.928   1.319   4.822 -0.5064  0.6171  1.9996
 6538SOL    HW231074   3.999   1.277   4.937  0.3105 -0.7954 -0.5561
 6539SOL     OW31075   4.513   0.258   3.158 -0.4605  0.2873 -0.0911
 6539SOL    HW131076   4.579   0.289   3.097 -0.6019  0.8702  0.0481
 6539SOL    HW231077   4.456   0.335   3.163  0.8081  1.1856  0.4165
 6540SOL     OW31078   0.290   4.379   4.807 -0.2077 -0.2884  0.4258
 6540SOL    HW131079   0.299   4.317   4.735  0.7350 -0.7878  0.9700
 6540SOL    HW231080   0.360   4.354   4.867  0.0810  0.8101  0.5621
 6541SOL     OW31081   1.294   3.367  16.521 -0.3053 -0.2846  0.2503
 6541SOL    HW131082   1.311   3.460  16.508 -0.2323  0.1716  3.5393
 6541SOL    HW231083   1.358   3.332  16.459 -0.4030  1.3374 -0.7473
 6542SOL     OW31084   3.159   1.606  16.150  0.5654  0.2624  0.0344
 6542SOL    HW131085   3.180   1.675  16.214 -0.8622  0.3856  0.3853
 6542SOL    HW231086   3.114   1.548  16.212 -0.7013 -3.6823 -4.5984
 6543SOL     OW31087   1.909   0.124   1.036  0.5228 -0.4956  0.2558
 6543SOL    HW131088   1.863   0.041   1.040 -0.5870  0.1144 -0.0263
 6543SOL    HW231089   1.998   0.090   1.021  1.4168  1.7226  0.5583
 6544SOL     OW31090   0.089   3.131   4.486 -0.3040  0.2071 -0.2678
 6544SOL    HW131091   0.043   3.177   4.555 -2.1650  2.6719 -3.1759
 6544SOL    HW231092   0.129   3.054   4.526  1.3501  0.7993 -0.7789
 6545SOL     OW31093   1.300   0.696   3.660 -0.4015  0.1438  0.2709
 6545SOL    HW131094   1.345   0.776   3.688  0.4708 -0.3556  0.2872
 6545SOL    HW231095   1.373   0.636   3.674 -1.2694 -0.8394  0.5634
 6546SOL     OW31096   2.032   1.867   5.816 -0.4738 -0.3420 -0.5987
 6546SOL    HW131097   1.976   1.929   5.769  0.5801  1.2386  0.2270
 6546SOL    HW231098   1.973   1.843   5.887 -0.4764  0.4167 -0.3404
 6547SOL     OW31099   4.338   4.632   1.348  0.1403 -0.4665  0.1783
 6547SOL    HW131100   4.349   4.551   1.298  0.6514 -0.0704 -0.3574
 6547SOL    HW231101   4.262   4.680   1.316  1.6340  0.3340 -2.1818
 6548SOL     OW31102   1.875   0.555   8.311  0.4513 -0.0223  0.1909
 6548SOL    HW131103   1.827   0.637   8.328 -1.1703 -1.1893  1.2948
 6548SOL    HW231104   1.965   0.586   8.320  0.0813  0.0889  3.3515
 6549SOL     OW31105   2.531   3.713   3.647  0.0853 -0.2695 -0.0664
 6549SOL    HW131106   2.616   3.690   3.611  0.6428  0.3923  0.8151
 6549SOL    HW231107   2.530   3.665   3.731 -2.1501  0.4866  0.3310
 6550SOL     OW31108   3.496   3.613   3.784 -0.1650  0.2462 -0.4953
 6550SOL    HW131109   3.562   3.582   3.847  0.6210  1.3631 -0.7696
 6550SOL    HW231110   3.540   3.695   3.764  0.3017  0.1001 -0.0711
 6551SOL     OW31111   3.873   2.375  15.068  0.0602  0.0798 -0.4847
 6551SOL    HW131112   3.802   2.436  15.049  1.9480  2.3612 -0.2074
 6551SOL    HW231113   3.914   2.412  15.145  1.5097  0.7359 -1.5710
 6552SOL     OW31114   0.090   3.522   8.280  0.4642 -0.4590 -0.0261
 6552SOL    HW131115   0.142   3.473   8.344  1.3754  0.1892 -0.2782
 6552SOL    HW231116   0.014   3.545   8.333  0.9889  0.7408  0.1917
 6553SOL     OW31117   4.247   2.058  10.642 -0.4750  0.4624 -0.0796
 6553SOL    HW131118   4.282   2.104  10.566 -0.2479 -1.7376 -1.3151
 6553SOL    HW231119   4.282   2.118  10.707 -1.7444 -0.6716  1.6558
 6554SOL     OW31120   1.753   4.661   9.217 -0.3097  0.7532  0.1629
 6554SOL    HW131121   1.700   4.585   9.240  1.1366  0.4655  2.5669
 6554SOL    HW231122   1.728   4.679   9.127 -1.3145 -0.1992  0.2588
 6555SOL     OW31123   2.454   0.574   3.097  0.1516 -0.0837 -0.2300
 6555SOL    HW131124   2.482   0.495   3.142  0.2988 -0.6556 -1.3073
 6555SOL    HW231125   2.370   0.543   3.064  0.0339 -0.2515  0.2365
 6556SOL     OW31126   0.625   1.585   7.031  0.3991  0.3065  0.4600
 6556SOL    HW131127   0.622   1.662   6.975  1.2093 -0.2694 -0.3613
 6556SOL    HW231128   0.713   1.573   7.067  0.2967 -2.8567 -0.2839
 6557SOL     OW31129   0.153   3.539   1.154 -0.9731  0.1071 -0.0620
 6557SOL    HW131130   0.150   3.607   1.221  2.4449 -1.7724  2.0434
 6557SOL    HW231131   0.245   3.518   1.170 -0.3750  1.0273 -2.2795
 6558SOL     OW31132   2.689   0.626   3.884  0.1276 -0.5806  0.3156
 6558SOL    HW131133   2.732   0.711   3.882 -4.0685  1.5032 -0.0055
 6558SOL    HW231134   2.741   0.568   3.827  0.6181 -0.2618  0.4398
 6559SOL     OW31135   1.098   3.808   2.809 -0.2450  0.2820 -0.2189
 6559SOL    HW131136   1.031   3.752   2.849 -0.2743 -0.6301 -1.5534
 6559SOL    HW231137   1.037   3.853   2.750  0.1379  1.4029  0.2267
 6560SOL     OW31138   2.507   1.455   8.641  0.1204 -0.2415 -0.1029
 6560SOL    HW131139   2.420   1.473   8.607 -0.0618  0.5626  0.7935
 6560SOL    HW231140   2.484   1.374   8.687  2.7786 -1.0373 -0.1290
 6561SOL     OW31141   2.154   0.334   9.912  0.6979 -0.0768  0.5544
 6561SOL    HW131142   2.193   0.252   9.942  0.6390 -0.6734 -0.9903
 6561SOL    HW231143   2.110   0.297   9.836  0.4332  0.5111  0.4204
 6562SOL     OW31144   4.681   3.752   2.938 -0.4355 -0.5140  0.4218
 6562SOL    HW131145   4.714   3.684   2.998 -1.0061  0.1868  1.5351
 6562SOL    HW231146   0.045   3.790   2.918 -1.1648  0.4885 -0.7627
 6563SOL     OW31147   2.594   2.902   6.261 -0.1789 -0.1264  0.2007
 6563SOL    HW131148   2.577   2.970   6.326 -0.9523  0.0999 -0.2405
 6563SOL    HW231149   2.533   2.835   6.291  1.9699 -0.4880  3.8271
 6564SOL     OW31150   3.587   2.677   8.532  0.2064 -0.4638  0.1370
 6564SOL    HW131151   3.612   2.607   8.592 -1.6014 -0.3741  0.9773
 6564SOL    HW231152   3.562   2.754   8.583  0.5129 -0.3070  0.0529
 6565SOL     OW31153   2.776   0.513  14.584 -0.0851 -0.3449  0.5595
 6565SOL    HW131154   2.803   0.446  14.647 -2.0094 -0.9477  0.7441
 6565SOL    HW231155   2.697   0.556  14.618 -0.4665 -0.2986 -0.3537
 6566SOL     OW31156   3.533   3.418   0.473  0.3005  0.1666  0.1587
 6566SOL    HW131157   3.439   3.421   0.455  0.2058 -2.2013  0.2327
 6566SOL    HW231158   3.550   3.338   0.425 -0.2944 -0.0536  0.3121
 6567SOL     OW31159   1.121   1.437   2.091  0.1109 -0.2144 -0.3084
 6567SOL    HW131160   1.070   1.475   2.021  0.0466 -1.7022 -1.0783
 6567SOL    HW231161   1.066   1.364   2.120 -0.0361 -0.1159 -0.3434
 6568SOL     OW31162   3.996   2.393  10.456 -0.3949  0.3689  0.0282
 6568SOL    HW131163   3.994   2.342  10.538 -2.3172 -0.9985 -0.8784
 6568SOL    HW231164   4.088   2.421  10.458  0.6064 -2.8997 -0.0261
 6569SOL     OW31165   3.566   2.604   2.547  0.5579  0.2534 -0.1960
 6569SOL    HW131166   3.486   2.593   2.597  0.5500  0.6446 -0.1223
 6569SOL    HW231167   3.588   2.695   2.566  3.0108 -0.9948  2.7959
 6570SOL     OW31168   3.974   2.786  16.636 -0.0779  0.4192 -0.0229
 6570SOL    HW131169   4.064   2.816  16.625 -0.1881  0.5970 -0.4552
 6570SOL    HW231170   3.991   2.697  16.666 -0.1829  0.0355 -1.0797
 6571SOL     OW31171   0.937   2.907   3.807  0.0106 -0.1568  0.0519
 6571SOL    HW131172   0.996   2.935   3.877 -0.0363  0.7761 -0.2854
 6571SOL    HW231173   0.897   2.991   3.783  1.4809  0.6584  0.4193
 6572SOL     OW31174   4.504   0.922   8.291  0.0026  0.2965  0.0628
 6572SOL    HW131175   4.490   0.939   8.384 -0.2335 -2.0044  0.4448
 6572SOL    HW231176   4.469   1.001   8.250 -2.0257  1.1431  3.5225
 6573SOL     OW31177   2.158   0.119   1.772  0.0329  0.8976  0.2256
 6573SOL    HW131178   2.218   0.153   1.839  0.4149 -0.1902  0.4287
 6573SOL    HW231179   2.181   0.177   1.699  2.3654  0.7493  0.8140
 6574SOL     OW31180   3.235   3.275   5.125  0.3713 -0.0472 -0.4457
 6574SOL    HW131181   3.153   3.311   5.090 -0.1628 -0.5614  0.2830
 6574SOL    HW231182   3.298   3.333   5.082  0.0985  1.7950  1.6133
 6575SOL     OW31183   0.781   1.593  13.630  0.3825 -0.0136  0.2904
 6575SOL    HW131184   0.820   1.675  13.660  1.9848 -0.6218 -0.1304
 6575SOL    HW231185   0.773   1.550  13.715 -1.1496  2.3138  1.3127
 6576SOL     OW31186   3.646   3.429   3.169 -0.4069 -0.2323 -0.1990
 6576SOL    HW131187   3.725   3.416   3.222  1.5181  2.6472 -2.3288
 6576SOL    HW231188   3.682   3.497   3.112  2.4122 -2.3029 -0.8820
 6577SOL     OW31189   4.682   3.854   7.589 -0.1558 -0.1891  0.2318
 6577SOL    HW131190   4.642   3.771   7.616  0.1094 -0.6798 -0.8701
 6577SOL    HW231191   4.615   3.914   7.623  0.4150  0.4569  0.2108
 6578SOL     OW31192   3.150   0.980   7.665 -0.2294 -0.4068 -0.0724
 6578SOL    HW131193   3.088   1.047   7.692 -0.8544 -0.8397 -0.4220
 6578SOL    HW231194   3.230   1.030   7.647  0.5521 -1.4303  0.4771
 6579SOL     OW31195   2.481   0.214  14.616  0.5173 -0.0110 -0.1697
 6579SOL    HW131196   2.489   0.169  14.531  0.5423 -3.9299  1.9208
 6579SOL    HW231197   2.424   0.149  14.657  1.0304  0.9326  1.9998
 6580SOL     OW31198   4.578   3.684   1.739 -0.2145  0.3082 -0.7272
 6580SOL    HW131199   4.587   3.779   1.740  1.2758  0.1797 -2.0337
 6580SOL    HW231200   4.494   3.673   1.784  1.5874  1.3307  2.8572
 6581SOL     OW31201   4.532   3.157   7.040  0.0159 -0.3349 -0.9784
 6581SOL    HW131202   4.581   3.077   7.022 -0.5628 -0.3382 -2.4620
 6581SOL    HW231203   4.508   3.185   6.952 -0.2041 -1.4624 -1.2722
 6582SOL     OW31204   0.999   0.273   3.198  0.0140 -0.4578  0.6981
 6582SOL    HW131205   1.052   0.296   3.274  0.1647 -0.3803  0.5706
 6582SOL    HW231206   0.968   0.187   3.228 -1.8165  0.8533  2.4950
 6583SOL     OW31207   4.447   1.331  13.284 -0.3566 -0.4714  0.0573
 6583SOL    HW131208   4.530   1.379  13.281 -0.7015  0.1979  1.0242
 6583SOL    HW231209   4.391   1.408  13.271  1.1851  0.5361 -0.7064
 6584SOL     OW31210   1.549   2.574  12.529  0.2308  0.1560  0.4526
 6584SOL    HW131211   1.519   2.581  12.619 -1.7032  1.8574 -0.3098
 6584SOL    HW231212   1.495   2.497  12.511  1.2514 -0.3355 -0.5690
 6585SOL     OW31213   1.974   2.141  10.501  0.0778  0.1279  0.0968
 6585SOL    HW131214   1.942   2.099  10.581  0.2399 -0.1670  0.0044
 6585SOL    HW231215   1.901   2.196  10.472 -1.6471 -2.1456  0.1666
 6586SOL     OW31216   2.944   2.806   7.788 -0.2559 -0.4680 -0.2111
 6586SOL    HW131217   2.973   2.733   7.844 -4.0112 -1.0932  0.9343
 6586SOL    HW231218   2.934   2.885   7.841 -0.6725  0.3340 -1.4841
 6587SOL     OW31219   1.124   2.723   4.643 -0.2028 -0.2281  0.0934
 6587SOL    HW131220   1.213   2.690   4.638 -0.3259 -0.3049 -1.3772
 6587SOL    HW231221   1.098   2.746   4.733 -1.2647  0.3067 -0.3535
 6588SOL     OW31222   2.473   1.795   2.541 -0.0219  0.0783 -0.1158
 6588SOL    HW131223   2.398   1.767   2.594  1.0243  0.7856  1.7271
 6588SOL    HW231224   2.463   1.887   2.565 -1.0203  0.2098 -1.0223
 6589SOL     OW31225   1.838   2.459  17.537 -0.3855  0.2403 -0.5478
 6589SOL    HW131226   1.883   2.391  17.588 -0.8812  0.7078  0.5102
 6589SOL    HW231227   1.808   2.408  17.461 -2.1299  1.2966 -0.5730
 6590SOL     OW31228   1.313   1.224   9.238 -0.1670 -0.6581  0.7755
 6590SOL    HW131229   1.281   1.185   9.319 -0.9240 -0.4953  0.5494
 6590SOL    HW231230   1.368   1.157   9.198 -0.3195 -0.8047  0.8110
 6591SOL     OW31231   2.714   0.574  10.878 -0.1889  0.6616  0.5788
 6591SOL    HW131232   2.795   0.609  10.840  2.0706 -3.6503  1.4912
 6591SOL    HW231233   2.644   0.621  10.833 -0.4789 -0.0074  0.3445
 6592SOL     OW31234   4.090   2.371   5.824 -0.4789 -0.4216  0.2946
 6592SOL    HW131235   4.181   2.352   5.846 -0.3398 -0.3507 -0.2333
 6592SOL    HW231236   4.054   2.392   5.910 -1.7154 -0.4310 -0.2281
 6593SOL     OW31237   4.380   0.492   7.956  0.6030  0.3799  0.1957
 6593SOL    HW131238   4.424   0.495   8.041 -1.4129  2.1851  1.2119
 6593SOL    HW231239   4.358   0.401   7.939  0.9557  0.3318  0.0048
 6594SOL     OW31240   1.117   1.615   4.506 -0.3632 -0.1106  0.5554
 6594SOL    HW131241   1.042   1.563   4.477  1.0421 -1.3037 -0.9626
 6594SOL    HW231242   1.130   1.671   4.429 -1.6037 -1.1050 -0.3840
 6595SOL     OW31243   1.527   4.157  12.543  0.5263 -0.3198 -0.0732
 6595SOL    HW131244   1.607   4.114  12.513  1.5107  0.2195  1.7345
 6595SOL    HW231245   1.504   4.092  12.610 -2.3317 -1.1635 -1.8859
 6596SOL     OW31246   4.509   0.834   4.997 -0.1110 -0.1680 -0.5289
 6596SOL    HW131247   4.458   0.817   4.918 -1.5569 -0.1731  0.4075
 6596SOL    HW231248   4.541   0.747   5.019  1.8126  0.7301  0.1998
 6597SOL     OW31249   0.820   1.527   8.591 -0.1956 -0.0436 -0.8751
 6597SOL    HW131250   0.737   1.513   8.546 -1.6640  2.6153  1.0433
 6597SOL    HW231251   0.858   1.603   8.548  0.0954  0.5912  0.4881
 6598SOL     OW31252   1.433   0.533   4.904 -0.0480  0.0326 -0.2421
 6598SOL    HW131253   1.422   0.626   4.921 -0.7077 -0.3713  1.5015
 6598SOL    HW231254   1.367   0.510   4.838 -0.0077 -2.8939  0.7301
 6599SOL     OW31255   4.610   3.715  17.542 -0.1093  0.0920  0.2859
 6599SOL    HW131256   4.580   3.805  17.526 -1.6597 -0.6676 -0.9687
 6599SOL    HW231257   4.643   3.711  17.632  0.5887  2.1572  0.1233
 6600SOL     OW31258   0.999   2.914  14.374 -0.4614  0.0602  0.1557
 6600SOL    HW131259   1.012   2.824  14.402 -0.6796 -0.3584 -1.1048
 6600SOL    HW231260   1.021   2.964  14.453  0.5311 -2.0257  1.2004
 6601SOL     OW31261   1.170   4.495   2.158 -0.3685  0.3944 -0.2303
 6601SOL    HW131262   1.096   4.553   2.176 -0.0879  1.3580 -2.1575
 6601SOL    HW231263   1.129   4.420   2.116 -0.5824  0.4909 -0.1928
 6602SOL     OW31264   3.914   3.657   3.661 -0.6254  0.2227  0.1848
 6602SOL    HW131265   3.958   3.612   3.733  0.5272  1.0453 -0.0078
 6602SOL    HW231266   3.977   3.643   3.591 -3.6366 -2.4931 -2.0019
 6603SOL     OW31267   3.920   2.329   7.456 -0.0348  0.4605  0.0720
 6603SOL    HW131268   3.969   2.396   7.409 -0.4218  1.7009  1.4198
 6603SOL    HW231269   3.899   2.364   7.543 -1.4345  0.2200 -0.1771
 6604SOL     OW31270   2.037   2.845  15.579  0.8076 -0.0674 -0.0306
 6604SOL    HW131271   2.086   2.787  15.521  0.4866 -1.5221  1.1658
 6604SOL    HW231272   1.955   2.877  15.541 -0.1308 -0.1385  1.9203
 6605SOL     OW31273   2.199   3.941  11.413  0.5888  0.2593 -0.1163
 6605SOL    HW131274   2.227   3.850  11.400 -1.3015 -0.3804  0.3353
 6605SOL    HW231275   2.189   3.939  11.508  2.4219  0.5202  0.0853
 6606SOL     OW31276   0.784   0.958   6.959  0.2216 -0.1667 -0.1506
 6606SOL    HW131277   0.741   0.888   7.007 -0.7866  0.0706 -0.7147
 6606SOL    HW231278   0.752   0.942   6.871  0.3366  0.4445 -0.3072
 6607SOL     OW31279   0.163   4.046   6.285 -0.3234  0.3467 -0.6284
 6607SOL    HW131280   0.144   4.135   6.256  0.9477  0.7181 -0.2868
 6607SOL    HW231281   0.103   4.024   6.356  0.1929 -1.9709 -0.9081
 6608SOL     OW31282   0.373   2.067   2.750  0.0876 -0.4719 -0.3387
 6608SOL    HW131283   0.392   2.131   2.681  1.6078  0.3386  0.8337
 6608SOL    HW231284   0.457   2.064   2.795 -0.5982 -1.4219  0.8677
 6609SOL     OW31285   0.022   2.120   1.341  0.6641  0.0331  0.4137
 6609SOL    HW131286   0.114   2.123   1.367  0.7433 -0.2484  0.1620
 6609SOL    HW231287   0.036   2.088   1.252 -1.4159 -1.7314  0.7320
 6610SOL     OW31288   2.681   3.533  17.475 -0.6342 -0.5455 -0.1789
 6610SOL    HW131289   2.670   3.609  17.418  1.8829  1.8827  2.6019
 6610SOL    HW231290   2.769   3.551  17.509 -0.1877  0.4751 -1.8918
 6611SOL     OW31291   0.944   0.767  10.225  0.2659 -0.2266  0.5390
 6611SOL    HW131292   0.957   0.788  10.318 -0.7643  1.6211  0.2838
 6611SOL    HW231293   1.034   0.773  10.193  0.1058  0.1665  0.1500
 6612SOL     OW31294   1.132   0.377   6.899 -0.0671 -0.1436 -0.3499
 6612SOL    HW131295   1.180   0.315   6.953 -0.7174  0.8111  1.3459
 6612SOL    HW231296   1.119   0.338   6.813 -1.2629  2.3508 -1.3049
 6613SOL     OW31297   4.535   1.535   9.692  0.1282  0.0735 -0.8564
 6613SOL    HW131298   4.481   1.464   9.727  1.9179 -0.0312  1.6580
 6613SOL    HW231299   4.519   1.603   9.757  2.0935  1.1276 -1.4732
 6614SOL     OW31300   4.223   3.762   7.261  0.5349 -0.2611  0.0595
 6614SOL    HW131301   4.203   3.693   7.197 -2.1330  1.6733 -1.1817
 6614SOL    HW231302   4.249   3.714   7.339 -2.1665  2.1877  2.4373
 6615SOL     OW31303   1.285   4.291   7.060 -0.4280 -0.2618  0.0779
 6615SOL    HW131304   1.285   4.307   6.965  0.5042  0.7358  0.2474
 6615SOL    HW231305   1.258   4.199   7.055 -1.5149  0.0773 -0.5147
 6616SOL     OW31306   1.749   4.285   8.796 -0.2844  0.7637  0.2833
 6616SOL    HW131307   1.690   4.348   8.837 -0.0761 -1.1302  3.4427
 6616SOL    HW231308   1.700   4.204   8.778  0.1301  0.3427  1.0435
 6617SOL     OW31309   1.424   0.826   7.153 -0.3773 -0.2051  0.2056
 6617SOL    HW131310   1.409   0.745   7.106  1.2032  0.5455 -1.5649
 6617SOL    HW231311   1.476   0.784   7.221  0.7418  0.2933 -0.3434
 6618SOL     OW31312   3.427   1.461   9.125 -0.0014  0.0133  0.4861
 6618SOL    HW131313   3.444   1.541   9.175 -1.5286  0.5147  0.1858
 6618SOL    HW231314   3.412   1.497   9.038  0.8528 -0.0748  0.3014
 6619SOL     OW31315   0.996   3.114   5.318  0.1265  0.2304  0.4842
 6619SOL    HW131316   0.987   3.199   5.275 -1.1111 -0.6990 -1.0835
 6619SOL    HW231317   1.091   3.104   5.311  0.7120  4.7268  1.8327
 6620SOL     OW31318   2.951   0.112   4.194 -0.5216 -0.6388 -0.0059
 6620SOL    HW131319   2.865   0.082   4.165 -0.5150 -0.2616 -0.4256
 6620SOL    HW231320   2.978   0.166   4.119 -1.2829  0.7554  0.7342
 6621SOL     OW31321   2.286   0.985   2.323  0.3387  0.2521 -0.0726
 6621SOL    HW131322   2.300   1.058   2.384 -1.5322  1.8580 -1.5626
 6621SOL    HW231323   2.193   0.998   2.305  0.5245  0.9676 -0.5353
 6622SOL     OW31324   0.911   4.449   4.291 -0.0893 -0.1084 -0.2674
 6622SOL    HW131325   0.906   4.448   4.386  2.4037 -0.7250 -0.1334
 6622SOL    HW231326   0.860   4.373   4.262 -1.2268  0.2164  0.8593
 6623SOL     OW31327   4.656   1.169   3.278 -0.5329 -0.9265  0.2099
 6623SOL    HW131328   4.593   1.231   3.314  0.3171 -0.1198  0.2947
 6623SOL    HW231329   4.612   1.085   3.290 -3.4210  0.2830 -1.9479
 6624SOL     OW31330   0.306   0.589  15.024 -0.1001 -0.1688  0.1063
 6624SOL    HW131331   0.300   0.507  15.074 -1.4590  0.3410  0.7997
 6624SOL    HW231332   0.312   0.557  14.933  2.8326  1.1765 -0.1604
 6625SOL     OW31333   2.924   3.055   2.131 -1.0732  0.4337  0.1273
 6625SOL    HW131334   2.952   3.080   2.043 -1.7153 -1.1414 -0.5135
 6625SOL    HW231335   2.921   2.959   2.122 -0.7006  0.4671 -0.3866
 6626SOL     OW31336   3.272   2.169   3.694 -0.6679 -0.2780  0.3954
 6626SOL    HW131337   3.270   2.161   3.598 -0.2323 -2.5501  0.5814
 6626SOL    HW231338   3.245   2.080   3.713 -1.1800  0.0956  1.3725
 6627SOL     OW31339   4.678   1.850   6.080 -0.2277  0.2384  0.3367
 6627SOL    HW131340   4.705   1.780   6.021 -2.0922  0.1895 -0.4592
 6627SOL    HW231341   0.011   1.824   6.155 -0.4547  0.4782  0.5830
 6628SOL     OW31342   4.711   3.092  16.747 -0.4662  0.2901 -0.0043
 6628SOL    HW131343   4.653   3.066  16.820 -4.5084 -3.0560 -4.4183
 6628SOL    HW231344   4.683   3.182  16.734  0.1811  0.6738  1.2355
 6629SOL     OW31345   1.381   3.386   8.865 -0.1520  0.6629 -0.6243
 6629SOL    HW131346   1.380   3.310   8.923  0.8132  0.3715 -0.9978
 6629SOL    HW231347   1.304   3.431   8.899  0.2327 -0.0138  1.1373
 6630SOL     OW31348   1.524   4.216   0.015  0.0346 -0.2816 -0.4009
 6630SOL    HW131349   1.498   4.304   0.042 -0.1558  0.1036 -1.8188
 6630SOL    HW231350   1.597   4.241  17.645  0.8307  0.3940  0.9313
 6631SOL     OW31351   1.008   1.204   6.418 -0.2133  0.1523 -0.2941
 6631SOL    HW131352   0.977   1.291   6.445 -1.5963 -0.6658  0.7755
 6631SOL    HW231353   1.084   1.191   6.474 -0.8079  1.3554  0.8102
 6632SOL     OW31354   3.971   0.145   1.698 -0.6610  0.1775  0.7497
 6632SOL    HW131355   3.911   0.168   1.627 -1.9979 -0.1329  1.7783
 6632SOL    HW231356   4.031   0.079   1.663  0.0386 -0.7336  3.6390
 6633SOL     OW31357   1.101   1.064  15.194 -0.0426  0.3756  0.1966
 6633SOL    HW131358   1.123   1.124  15.266 -0.5016  0.8931 -0.0964
 6633SOL    HW231359   1.043   1.117  15.140  0.8876  2.9795  1.7559
 6634SOL     OW31360   2.020   2.798   3.872 -0.7365  0.0756  0.4993
 6634SOL    HW131361   2.009   2.852   3.793 -0.7666  1.1492  1.2356
 6634SOL    HW231362   2.078   2.858   3.917 -0.5743  0.2113  0.1135
 6635SOL     OW31363   3.383   2.715  14.668 -0.7674  0.4351 -0.0307
 6635SOL    HW131364   3.326   2.767  14.611 -0.2209  1.6408  0.5359
 6635SOL    HW231365   3.438   2.789  14.693 -1.1531  0.3418  1.0618
 6636SOL     OW31366   2.558   0.802   4.182  0.3721  0.4252  0.2862
 6636SOL    HW131367   2.501   0.875   4.158 -0.6058  0.0689  1.4937
 6636SOL    HW231368   2.627   0.819   4.118 -0.4088  2.4433 -0.0197
 6637SOL     OW31369   1.705   1.194   7.964 -0.1727  0.6890 -0.5490
 6637SOL    HW131370   1.721   1.223   8.054 -1.3687  0.9616 -0.4330
 6637SOL    HW231371   1.793   1.165   7.940 -0.0760  0.8487 -0.3844
 6638SOL     OW31372   3.180   4.713   1.275  0.2573 -0.9640 -0.0447
 6638SOL    HW131373   3.247   0.019   1.338 -0.1304 -0.4270  0.1309
 6638SOL    HW231374   3.226   4.637   1.238  1.4557 -0.5700  0.6237
 6639SOL     OW31375   4.159   1.635   5.070  0.3672  0.1544  1.0863
 6639SOL    HW131376   4.127   1.705   5.127 -0.1459  1.7705 -1.2075
 6639SOL    HW231377   4.130   1.560   5.123  3.0612 -2.9060 -1.8083
 6640SOL     OW31378   4.290   1.858   6.820  0.0233 -0.4159 -0.0517
 6640SOL    HW131379   4.274   1.773   6.861  0.7899 -0.1827  0.7331
 6640SOL    HW231380   4.382   1.873   6.842  0.0694  0.1722 -0.6520
 6641SOL     OW31381   2.098   1.534   0.924  0.5326 -0.5593 -0.5496
 6641SOL    HW131382   2.022   1.477   0.921 -0.3490  0.4202  2.8700
 6641SOL    HW231383   2.137   1.508   1.008 -3.5538 -0.4688  1.3573
 6642SOL     OW31384   0.074   0.975   8.592 -0.9960 -0.6959  0.2849
 6642SOL    HW131385   0.153   0.940   8.632 -1.6209  0.5121  2.6259
 6642SOL    HW231386   0.053   0.920   8.517 -0.5760  1.0253 -1.0925
 6643SOL     OW31387   0.169   4.162   8.796 -0.0615  0.9323 -0.4544
 6643SOL    HW131388   0.163   4.075   8.754 -0.5603  0.9544 -0.4323
 6643SOL    HW231389   0.263   4.171   8.787 -0.3760  2.0845 -2.5610
 6644SOL     OW31390   4.379   0.730   4.773 -0.0505 -0.5881 -0.6856
 6644SOL    HW131391   4.362   0.815   4.733  0.9801 -1.9049 -3.8944
 6644SOL    HW231392   4.419   0.676   4.705  1.1900  1.7278 -1.8225
 6645SOL     OW31393   4.453   2.102  13.151  0.3510  0.7458  0.0644
 6645SOL    HW131394   4.373   2.051  13.139  0.4422  0.4273  0.7893
 6645SOL    HW231395   4.497   2.032  13.199 -0.0439  0.2677 -0.2731
 6646SOL     OW31396   2.980   4.346   9.714  0.5634  0.4647 -0.6032
 6646SOL    HW131397   2.906   4.337   9.774 -1.2171 -2.0783 -3.1416
 6646SOL    HW231398   3.005   4.254   9.704  0.1249  0.1548  1.1053
 6647SOL     OW31399   1.863   1.646   9.957  0.1755 -0.5733  0.0834
 6647SOL    HW131400   1.797   1.688   9.902 -0.3589  0.6491  1.6603
 6647SOL    HW231401   1.853   1.554   9.932 -1.2485 -0.8541  1.6950
 6648SOL     OW31402   3.627   3.725   2.299  0.4676  0.1521 -0.0394
 6648SOL    HW131403   3.628   3.700   2.206  0.2142 -0.6209  0.1702
 6648SOL    HW231404   3.598   3.646   2.343  1.4946  0.5906  1.4537
 6649SOL     OW31405   3.216   1.737  10.778 -0.0190  0.2508 -0.2653
 6649SOL    HW131406   3.221   1.832  10.769  1.9165  0.1166 -0.7440
 6649SOL    HW231407   3.144   1.712  10.721 -0.5294  0.3198  0.3547
 6650SOL     OW31408   3.006   0.264   0.642  0.6635  0.0354  0.0369
 6650SOL    HW131409   3.047   0.332   0.588  0.7219  1.0293  1.3175
 6650SOL    HW231410   3.008   0.189   0.583 -0.8850 -0.6684  0.8833
 6651SOL     OW31411   1.841   4.381  14.284  0.5437 -0.3621 -0.4637
 6651SOL    HW131412   1.923   4.332  14.287  1.3780  1.2837  2.7828
 6651SOL    HW231413   1.791   4.325  14.225  0.8099 -0.8013 -0.2718
 6652SOL     OW31414   2.603   2.512  13.871 -0.1917 -0.2450  0.2176
 6652SOL    HW131415   2.598   2.534  13.964 -0.2853 -1.4971  0.5069
 6652SOL    HW231416   2.622   2.419  13.870  0.1721 -0.1540 -1.3409
 6653SOL     OW31417   2.576   2.339   8.388  0.4488 -0.3599  0.6768
 6653SOL    HW131418   2.509   2.399   8.422  1.0256 -1.0763  3.0717
 6653SOL    HW231419   2.608   2.297   8.468  1.1236 -0.4755  0.3457
 6654SOL     OW31420   3.484   4.630   2.194 -0.2682 -0.1805 -0.2124
 6654SOL    HW131421   3.407   4.639   2.139 -0.9615  0.5161  0.8635
 6654SOL    HW231422   3.435   4.631   2.276  0.9260 -0.0144  0.5031
 6655SOL     OW31423   4.496   1.669   5.673  0.4770  0.2796 -0.4700
 6655SOL    HW131424   4.413   1.656   5.627  0.5373  0.2335 -0.5667
 6655SOL    HW231425   4.467   1.613   5.746  0.3150  1.6387  0.4994
 6656SOL     OW31426   3.810   4.153   5.848  0.1049 -0.1632 -0.0672
 6656SOL    HW131427   3.897   4.175   5.815  0.4137  2.1294  2.2736
 6656SOL    HW231428   3.834   4.066   5.878  0.9326 -0.2142 -0.8721
 6657SOL     OW31429   1.719   3.164   8.485  0.0421  0.1668 -0.1680
 6657SOL    HW131430   1.641   3.116   8.514 -0.2372 -0.0871 -1.3612
 6657SOL    HW231431   1.760   3.198   8.564  0.0602  1.1898 -0.6208
 6658SOL     OW31432   4.027   2.283   2.250 -0.2720 -0.0174  0.3068
 6658SOL    HW131433   4.073   2.340   2.188 -1.0202 -1.2136 -1.3385
 6658SOL    HW231434   4.025   2.194   2.213  0.9103 -1.4289  3.6548
 6659SOL     OW31435   1.784   2.855  15.453 -0.3636 -0.5666 -0.0069
 6659SOL    HW131436   1.753   2.862  15.544  2.6366 -0.5589  1.0107
 6659SOL    HW231437   1.754   2.765  15.445  1.8699 -1.2729 -0.3852
 6660SOL     OW31438   3.945   1.544  10.108 -0.6666 -0.0155  0.1738
 6660SOL    HW131439   3.933   1.554  10.014 -1.0262  0.2711  0.2528
 6660SOL    HW231440   4.033   1.506  10.115 -0.5076  0.2415 -0.4059
 6661SOL     OW31441   2.773   3.591   5.386 -0.8425  0.1608 -0.5839
 6661SOL    HW131442   2.794   3.537   5.310 -0.6297  1.4494 -1.4436
 6661SOL    HW231443   2.838   3.660   5.392  1.3164 -2.1162  2.0369
 6662SOL     OW31444   3.615   0.101  13.366 -0.3091  0.4505  0.0852
 6662SOL    HW131445   3.531   0.133  13.400 -0.6729 -2.4734  1.9074
 6662SOL    HW231446   3.609   0.146  13.282  2.4642 -0.4018 -0.5675
 6663SOL     OW31447   1.520   1.783   3.284 -0.6848 -0.4811 -0.0402
 6663SOL    HW131448   1.427   1.793   3.301 -0.3640 -0.1912  1.5543
 6663SOL    HW231449   1.524   1.853   3.219 -0.2270 -1.2661 -0.8622
 6664SOL     OW31450   4.578   0.696   5.951  0.0654 -0.1887  0.6293
 6664SOL    HW131451   4.506   0.674   5.892 -0.0660  3.4358 -0.5709
 6664SOL    HW231452   4.546   0.778   5.988  1.3948  0.5351  0.1772
 6665SOL     OW31453   4.126   0.578  12.713 -0.0438 -0.6639  0.0638
 6665SOL    HW131454   4.099   0.600  12.802  0.2483  1.7218 -0.4393
 6665SOL    HW231455   4.130   0.482  12.719 -3.0458 -0.9591 -2.6717
 6666SOL     OW31456   2.793   3.826   5.672  0.5731 -0.3287  0.0285
 6666SOL    HW131457   2.859   3.798   5.735 -0.4167 -1.9185  0.3447
 6666SOL    HW231458   2.709   3.787   5.695  1.4443 -2.3600 -0.2327
 6667SOL     OW31459   1.895   0.336  15.415 -0.0746 -0.2450  0.2203
 6667SOL    HW131460   1.897   0.375  15.328  0.3324  1.8518  1.1914
 6667SOL    HW231461   1.982   0.349  15.453  0.3258 -0.2504 -0.7120
 6668SOL     OW31462   4.719   1.646   3.000 -0.5704 -0.0142 -0.2628
 6668SOL    HW131463   0.006   1.741   3.016  2.5560  0.0869 -2.6451
 6668SOL    HW231464   4.629   1.645   2.967 -1.0799 -0.1089  1.0921
 6669SOL     OW31465   1.278   1.503  12.990  0.7871  0.3713 -0.3615
 6669SOL    HW131466   1.196   1.502  12.940  1.1271  1.1507 -0.9274
 6669SOL    HW231467   1.341   1.481  12.921  1.3880 -0.6778  0.5223
 6670SOL     OW31468   2.444   1.185   4.526  0.1301 -0.1034 -0.4353
 6670SOL    HW131469   2.475   1.275   4.538 -1.1025  0.0443  1.7632
 6670SOL    HW231470   2.380   1.196   4.456  0.4557  0.7808 -0.5872
 6671SOL     OW31471   3.220   3.278   0.705 -0.0106  0.8463  0.6164
 6671SOL    HW131472   3.263   3.192   0.712 -2.2231 -0.3908 -0.9668
 6671SOL    HW231473   3.292   3.333   0.737  1.3126  0.3044 -1.4297
 6672SOL     OW31474   2.755   2.492   0.875  0.1473  0.0605  0.5282
 6672SOL    HW131475   2.785   2.405   0.847 -1.6298 -0.8689  1.4773
 6672SOL    HW231476   2.832   2.545   0.855  0.8880 -1.5791 -1.0290
 6673SOL     OW31477   1.415   4.705   6.407 -0.3969  0.4531 -0.7544
 6673SOL    HW131478   1.422   0.078   6.391  2.8732  0.7478  2.4324
 6673SOL    HW231479   1.326   4.703   6.442  0.6580 -1.2333  1.8186
 6674SOL     OW31480   4.448   1.318   7.077  0.5921 -0.0261  0.6971
 6674SOL    HW131481   4.463   1.331   6.983  2.2441 -0.9972  0.8194
 6674SOL    HW231482   4.363   1.274   7.076  0.9758 -0.7545  0.3477
 6675SOL     OW31483   1.006   0.051  10.092 -0.0930 -0.8323 -0.1882
 6675SOL    HW131484   1.041   0.026  10.177  0.6760 -1.2706 -0.6356
 6675SOL    HW231485   0.913   0.045  10.113 -0.1875  1.0592 -0.1260
 6676SOL     OW31486   2.731   2.645   3.936 -0.5598  0.0496  0.2326
 6676SOL    HW131487   2.775   2.621   4.018 -1.1367 -1.9252 -0.0453
 6676SOL    HW231488   2.681   2.726   3.949 -1.2969 -0.1954 -1.0856
 6677SOL     OW31489   4.365   0.495   7.694  0.2605  0.2500 -0.6661
 6677SOL    HW131490   4.381   0.407   7.728  1.4952  0.3764 -0.9056
 6677SOL    HW231491   4.337   0.543   7.772  0.5423  0.9512 -0.9949
 6678SOL     OW31492   0.563   3.371  10.801  0.0566  0.0051  0.5005
 6678SOL    HW131493   0.469   3.367  10.787  0.2293 -3.0007  0.1381
 6678SOL    HW231494   0.571   3.413  10.886 -2.4070  1.2994  0.0740
 6679SOL     OW31495   1.673   1.874   6.975 -0.0068 -0.2342  0.5574
 6679SOL    HW131496   1.655   1.943   7.039  2.3881 -0.8452  1.9065
 6679SOL    HW231497   1.720   1.923   6.908  2.0146  0.3564  2.3807
 6680SOL     OW31498   2.847   4.428   4.586  0.3127  0.2998 -0.2852
 6680SOL    HW131499   2.837   4.485   4.510 -0.2053  0.6007  0.0107
 6680SOL    HW231500   2.928   4.466   4.622  0.0008  0.6946 -0.0077
 6681SOL     OW31501   1.028   4.234   8.697  0.4815 -0.1158  0.6698
 6681SOL    HW131502   1.119   4.229   8.727  1.3059 -0.2837 -1.8670
 6681SOL    HW231503   0.979   4.192   8.768 -0.2081  1.3816  1.0765
 6682SOL     OW31504   0.301   4.524  13.853 -0.7113 -0.1172  0.2429
 6682SOL    HW131505   0.270   4.615  13.854  1.7288  0.7252 -0.3689
 6682SOL    HW231506   0.334   4.512  13.942  0.6364  1.3299 -0.0610
 6683SOL     OW31507   2.572   0.321   6.803  0.0386 -0.3700 -0.5070
 6683SOL    HW131508   2.653   0.362   6.773 -0.4600 -0.5816 -2.1311
 6683SOL    HW231509   2.513   0.359   6.738  1.1992  1.8059 -0.2912
 6684SOL     OW31510   3.696   1.163   0.441  0.2063  0.3296  0.1734
 6684SOL    HW131511   3.749   1.103   0.493  1.2067  0.4288 -0.7255
 6684SOL    HW231512   3.749   1.243   0.434  0.6749  0.0388  0.4280
 6685SOL     OW31513   3.277   4.226   5.227 -0.4702  0.0533  0.1206
 6685SOL    HW131514   3.184   4.245   5.221 -1.0568 -3.5366 -1.7342
 6685SOL    HW231515   3.273   4.142   5.182  4.0463  0.0043 -0.2436
 6686SOL     OW31516   3.825   3.481   7.159 -0.4821  0.2726 -0.1061
 6686SOL    HW131517   3.779   3.526   7.230  2.3426  0.4889  1.6138
 6686SOL    HW231518   3.917   3.496   7.184  0.1063 -0.1147 -2.0504
 6687SOL     OW31519   1.970   3.224   9.640  0.2557 -0.3531 -0.2960
 6687SOL    HW131520   1.996   3.154   9.699 -0.8387  1.0088  1.8047
 6687SOL    HW231521   1.900   3.190   9.584  0.4750  0.0367 -0.8103
 6688SOL     OW31522   2.265   4.099  12.030 -0.4114 -0.0878  0.0236
 6688SOL    HW131523   2.293   4.025  11.975 -1.1810 -2.3934  2.7113
 6688SOL    HW231524   2.253   4.166  11.964 -1.0756  1.1016  1.3669
 6689SOL     OW31525   0.862   3.669   8.388  0.2232 -0.4059  0.4420
 6689SOL    HW131526   0.954   3.658   8.411  0.3183  0.6591  0.5771
 6689SOL    HW231527   0.866   3.714   8.304 -0.1180 -3.2951 -1.1270
 6690SOL     OW31528   4.548   1.209   5.947  0.1692 -0.0908  0.1838
 6690SOL    HW131529   4.485   1.270   5.907  2.0982  0.0776 -2.5813
 6690SOL    HW231530   4.616   1.200   5.881  0.1647  0.5333  0.0930
 6691SOL     OW31531   4.099   0.754   7.007 -0.4703 -0.5530  0.7595
 6691SOL    HW131532   4.157   0.685   7.040  2.1329  0.4736 -1.6863
 6691SOL    HW231533   4.088   0.805   7.087 -0.1083 -2.3504  1.9623
 6692SOL     OW31534   1.265   4.584  10.103  0.4126  0.1342 -0.6812
 6692SOL    HW131535   1.224   4.637  10.171  1.2609  0.3970 -0.3791
 6692SOL    HW231536   1.360   4.591  10.115  0.5973 -2.7268 -0.6032
 6693SOL     OW31537   2.166   2.736   3.278 -0.1930  0.0746 -0.3780
 6693SOL    HW131538   2.098   2.692   3.330  0.7948  0.7246  1.4607
 6693SOL    HW231539   2.220   2.788   3.337  1.8903 -1.8700 -0.5585
 6694SOL     OW31540   3.470   3.566   5.215  0.3949 -0.0914 -0.3278
 6694SOL    HW131541   3.468   3.471   5.222 -0.2723  0.1043  2.1970
 6694SOL    HW231542   3.543   3.580   5.155  1.0984  3.3152  1.3274
 6695SOL     OW31543   4.195   1.725  17.386 -0.4231  0.0467  0.4152
 6695SOL    HW131544   4.185   1.644  17.335  0.0744 -0.1357  0.5996
 6695SOL    HW231545   4.247   1.691  17.459 -1.7686  0.6229  1.6376
 6696SOL     OW31546   0.928   1.776  16.486 -0.1615 -0.0317  0.0969
 6696SOL    HW131547   0.911   1.683  16.501  1.2072 -0.3838 -0.5239
 6696SOL    HW231548   0.926   1.776  16.391 -0.5353  1.6842  0.1160
 6697SOL     OW31549   4.223   3.384   1.979  0.3381 -0.0799  0.7644
 6697SOL    HW131550   4.142   3.339   2.003  0.6217 -0.7200  0.5327
 6697SOL    HW231551   4.181   3.450   1.925  1.0730 -1.1888 -1.1571
 6698SOL     OW31552   1.168   1.767   1.132  0.0155  0.3430  0.2356
 6698SOL    HW131553   1.254   1.773   1.174  0.0721  3.1649 -0.3093
 6698SOL    HW231554   1.129   1.849   1.162 -0.2694 -0.0683  0.9860
 6699SOL     OW31555   1.751   2.450   7.443  0.1430 -0.2920  0.0876
 6699SOL    HW131556   1.663   2.415   7.450  0.5100 -1.3362 -0.5032
 6699SOL    HW231557   1.760   2.480   7.533  0.1630 -0.5382  0.1667
 6700SOL     OW31558   3.570   2.523   2.972  0.1181 -0.0160 -0.2298
 6700SOL    HW131559   3.507   2.544   3.041 -0.2840 -1.1903 -0.2293
 6700SOL    HW231560   3.520   2.456   2.925 -0.4125  0.7325 -0.7255
 6701SOL     OW31561   1.161   2.808   8.815  0.4299  0.5089 -0.1444
 6701SOL    HW131562   1.145   2.735   8.875 -0.5550  0.0453 -0.9687
 6701SOL    HW231563   1.116   2.783   8.734 -1.4624  0.9706  0.7713
 6702SOL     OW31564   0.869   2.735   2.323 -0.3217 -0.7686  0.7801
 6702SOL    HW131565   0.951   2.706   2.365  0.2296 -0.5978 -0.1737
 6702SOL    HW231566   0.895   2.751   2.232 -0.5868  0.7112  0.9783
 6703SOL     OW31567   3.124   2.563   9.165 -0.7281 -0.0430  0.2057
 6703SOL    HW131568   3.063   2.572   9.237  0.7178  1.4069  1.2576
 6703SOL    HW231569   3.156   2.653   9.154 -0.1717 -0.5190 -2.2033
 6704SOL     OW31570   0.178   1.998   6.392  0.5173  0.0214  0.3448
 6704SOL    HW131571   0.273   1.986   6.398  0.2754  0.2876  4.8506
 6704SOL    HW231572   0.174   2.079   6.443 -0.3812  0.6339 -0.7057
 6705SOL     OW31573   2.679   4.125   6.695 -0.4661  0.0417  0.0560
 6705SOL    HW131574   2.615   4.055   6.709 -0.0136 -0.0866  1.5681
 6705SOL    HW231575   2.656   4.175   6.773  1.0379  0.9176 -0.0553
 6706SOL     OW31576   2.443   3.130  16.313  0.2246  0.4049  0.4633
 6706SOL    HW131577   2.511   3.085  16.363  0.9677  0.3539 -0.5923
 6706SOL    HW231578   2.481   3.217  16.319  1.0772  0.0439  0.3105
 6707SOL     OW31579   1.939   3.275   5.843  0.1489  0.2890 -0.7379
 6707SOL    HW131580   1.936   3.346   5.907 -1.8368  0.1996 -0.7528
 6707SOL    HW231581   2.024   3.235   5.861  0.2837  0.7011 -0.4499
 6708SOL     OW31582   3.868   3.348   8.436 -0.0775  0.4435 -0.9719
 6708SOL    HW131583   3.945   3.301   8.467  0.3928  2.6043  1.1307
 6708SOL    HW231584   3.858   3.296   8.357 -1.4508 -2.5339  1.1563
 6709SOL     OW31585   2.320   0.913   2.713  0.1104  0.0206  0.5538
 6709SOL    HW131586   2.289   0.974   2.646 -0.2308  1.0535  1.6427
 6709SOL    HW231587   2.413   0.916   2.693  0.2999  1.4463  1.6558
 6710SOL     OW31588   3.813   2.838  17.198  0.6407  0.1052 -0.2308
 6710SOL    HW131589   3.877   2.809  17.133  0.9543  0.4335 -0.0663
 6710SOL    HW231590   3.874   2.843  17.271  0.5617 -0.6101 -0.1127
 6711SOL     OW31591   0.150   3.472  10.682 -0.1863 -0.0437  0.0214
 6711SOL    HW131592   0.179   3.441  10.768  1.3135  0.6372 -0.2442
 6711SOL    HW231593   0.150   3.391  10.630  2.7558 -1.2360  1.8439
 6712SOL     OW31594   2.222   2.322   4.430 -0.1397 -0.3493 -0.3470
 6712SOL    HW131595   2.128   2.306   4.421 -0.6291  2.3616 -0.0804
 6712SOL    HW231596   2.238   2.378   4.354 -1.5808  2.0450  1.1109
 6713SOL     OW31597   2.918   2.286  11.328  0.0019 -0.0122 -0.2276
 6713SOL    HW131598   2.843   2.235  11.357  0.4042 -0.6506 -0.3115
 6713SOL    HW231599   2.983   2.217  11.317 -1.0937 -1.0150 -0.3833
 6714SOL     OW31600   1.148   2.006  14.160 -0.2130 -1.1229  0.4598
 6714SOL    HW131601   1.110   2.094  14.164  0.8124 -0.6188 -0.6664
 6714SOL    HW231602   1.208   2.013  14.086 -0.5845  0.1041  0.2800
 6715SOL     OW31603   1.939   0.029   8.291 -0.0829  0.5195  0.4750
 6715SOL    HW131604   1.969   0.117   8.313 -0.6531  0.5308  1.2016
 6715SOL    HW231605   1.880   0.044   8.217  0.4670 -0.7750 -0.2303
 6716SOL     OW31606   4.499   1.906   6.558  0.6129 -0.1475  0.1480
 6716SOL    HW131607   4.412   1.939   6.536  0.0812 -1.7294 -0.1343
 6716SOL    HW231608   4.544   1.941   6.481 -0.8287  3.7911  1.0995
 6717SOL     OW31609   2.085   3.332   4.961 -0.0243 -0.1154 -0.0517
 6717SOL    HW131610   2.102   3.409   5.016 -1.5071  1.3510 -1.6740
 6717SOL    HW231611   2.109   3.373   4.879 -2.0403  0.8082 -0.1942
 6718SOL     OW31612   2.943   2.775   1.205  0.3452  0.3801  0.1244
 6718SOL    HW131613   2.965   2.704   1.143 -1.7216  1.6283 -2.0308
 6718SOL    HW231614   2.857   2.801   1.172  0.5511 -0.0058 -0.7312
 6719SOL     OW31615   0.248   1.200  10.092 -0.2368  0.2083  0.6180
 6719SOL    HW131616   0.271   1.136  10.025 -2.5052  0.4640 -0.4142
 6719SOL    HW231617   0.282   1.149  10.165 -1.3488 -0.5200  0.6164
 6720SOL     OW31618   3.578   3.488   8.801  0.2594 -0.6293 -0.3548
 6720SOL    HW131619   3.666   3.518   8.826 -0.0989 -0.4181  0.6212
 6720SOL    HW231620   3.598   3.431   8.727 -0.2091  1.6163 -2.2202
 6721SOL     OW31621   0.687   0.885   4.115  0.3491 -0.9668 -0.3157
 6721SOL    HW131622   0.737   0.816   4.159  2.3174 -0.0591 -1.1537
 6721SOL    HW231623   0.718   0.878   4.024 -0.1966  2.1696 -0.7387
 6722SOL     OW31624   0.356   0.663   6.214  0.4779  0.3940 -0.2006
 6722SOL    HW131625   0.446   0.660   6.183  0.1662  0.9950 -1.1449
 6722SOL    HW231626   0.317   0.728   6.156  2.6990  1.1950 -0.8087
 6723SOL     OW31627   3.541   2.105   5.533  0.0945 -0.1978 -0.0072
 6723SOL    HW131628   3.605   2.059   5.587  1.4055  2.3010  0.6052
 6723SOL    HW231629   3.483   2.031   5.519 -0.8880  0.4785  0.4139
 6724SOL     OW31630   0.845   0.752  11.692 -0.1401  0.0567  0.6731
 6724SOL    HW131631   0.807   0.804  11.763  1.3700  2.0593  0.0079
 6724SOL    HW231632   0.937   0.777  11.694  0.5909 -2.7244  0.7172
 6725SOL     OW31633   1.164   0.295   3.428 -0.0137 -0.2013 -0.0675
 6725SOL    HW131634   1.197   0.286   3.518 -0.4708 -1.9566 -0.0699
 6725SOL    HW231635   1.197   0.384   3.414 -1.3760  0.3794  0.3725
 6726SOL     OW31636   1.831   0.922   4.582 -0.1266  0.1032  0.0272
 6726SOL    HW131637   1.783   0.997   4.617 -0.7150 -0.6670  0.8692
 6726SOL    HW231638   1.801   0.849   4.636  2.6998  0.5425  2.1867
 6727SOL     OW31639   3.959   0.469   4.390  0.3958  0.1706 -0.0262
 6727SOL    HW131640   3.925   0.517   4.314  2.5904 -0.7775 -1.6137
 6727SOL    HW231641   3.916   0.524   4.454  0.6341  0.1315  0.1680
 6728SOL     OW31642   3.331   2.205  11.858  0.1593  0.0656  0.3353
 6728SOL    HW131643   3.307   2.166  11.942 -1.1223  2.1600  0.9158
 6728SOL    HW231644   3.270   2.159  11.799 -1.7601  0.9947  1.6172
 6729SOL     OW31645   3.691   2.654   4.276 -0.5735 -0.0320 -0.3455
 6729SOL    HW131646   3.705   2.559   4.278  0.2691  0.1552  2.9824
 6729SOL    HW231647   3.718   2.681   4.364 -1.4547  1.6431 -0.5988
 6730SOL     OW31648   1.059   1.735   2.557  0.0066  0.4034  0.4918
 6730SOL    HW131649   1.111   1.726   2.477 -3.0291  3.8200 -1.8486
 6730SOL    HW231650   1.103   1.679   2.621  1.2428  0.3265 -0.4205
 6731SOL     OW31651   4.391   1.145   2.787 -0.4488  0.1487 -0.0020
 6731SOL    HW131652   4.455   1.101   2.731 -0.8532  1.1235 -1.2122
 6731SOL    HW231653   4.445   1.166   2.863 -1.1014  1.5622  0.0571
 6732SOL     OW31654   1.145   4.502   1.813 -0.4638  0.1679 -0.6127
 6732SOL    HW131655   1.109   4.556   1.883 -2.9057  1.6029 -2.9855
 6732SOL    HW231656   1.062   4.471   1.778 -0.9442  0.5370  0.2116
 6733SOL     OW31657   1.748   3.376   4.830  0.0944  0.2103  0.6016
 6733SOL    HW131658   1.712   3.342   4.911 -2.2303  1.5705  0.1336
 6733SOL    HW231659   1.758   3.293   4.784  1.1822  0.1032  1.0215
 6734SOL     OW31660   3.406   4.369  17.657 -0.4986 -0.6725 -0.0314
 6734SOL    HW131661   3.348   4.396   0.042  1.5766  2.2910  0.5363
 6734SOL    HW231662   3.482   4.424  17.673  0.7341 -3.4796  3.7581
 6735SOL     OW31663   3.382   2.607   0.934 -0.6728  0.1053 -0.6517
 6735SOL    HW131664   3.439   2.532   0.921  0.5696  0.9174  0.1593
 6735SOL    HW231665   3.367   2.595   1.028 -1.3959 -1.7193 -0.9950
 6736SOL     OW31666   2.696   1.854   6.051 -0.1218 -0.2738  0.5988
 6736SOL    HW131667   2.650   1.833   6.132  1.1020  0.7914  1.5773
 6736SOL    HW231668   2.652   1.798   5.987  2.9432 -0.2977 -1.4507
 6737SOL     OW31669   3.015   3.453   4.774  0.4104 -0.3192  0.0833
 6737SOL    HW131670   2.986   3.499   4.695 -0.8865  2.1923  2.0237
 6737SOL    HW231671   3.041   3.370   4.735 -1.6820 -1.2081  0.5982
 6738SOL     OW31672   1.085   1.298  13.148 -0.0910 -0.4877  0.3693
 6738SOL    HW131673   1.030   1.305  13.070  0.7905  0.1079 -0.1894
 6738SOL    HW231674   1.042   1.221  13.187  0.1501 -0.1328  1.3280
 6739SOL     OW31675   1.204   3.670   4.017  0.0764 -0.2659  0.2993
 6739SOL    HW131676   1.115   3.695   3.993 -0.2328 -2.1688 -0.5552
 6739SOL    HW231677   1.249   3.703   3.938 -0.7337  0.4061  0.1272
 6740SOL     OW31678   2.387   1.994  13.437  0.4460  0.0417 -0.0403
 6740SOL    HW131679   2.294   2.005  13.415  0.3157  0.4328  0.7301
 6740SOL    HW231680   2.421   2.083  13.440 -1.0135  0.5020  2.4609
 6741SOL     OW31681   0.837   2.170  11.088 -0.0066  0.5393 -0.7047
 6741SOL    HW131682   0.912   2.111  11.081 -1.2996 -1.0150 -1.4272
 6741SOL    HW231683   0.846   2.220  11.006  0.0221  2.0558  0.2156
 6742SOL     OW31684   4.168   0.858   6.326 -0.0434 -0.0541  0.1881
 6742SOL    HW131685   4.130   0.935   6.367  0.9110  0.9836 -0.8625
 6742SOL    HW231686   4.245   0.890   6.280 -1.4024  2.0710 -0.5616
 6743SOL     OW31687   4.472   3.826  10.550 -0.1738 -0.6436 -0.1353
 6743SOL    HW131688   4.531   3.758  10.580  0.7919  0.9476  1.5823
 6743SOL    HW231689   4.481   3.812  10.456 -2.6004 -2.8145 -0.0493
 6744SOL     OW31690   0.492   3.477   5.012  0.5195  0.6831 -0.0228
 6744SOL    HW131691   0.561   3.423   5.051  0.9399  0.5595 -0.9373
 6744SOL    HW231692   0.484   3.432   4.928  0.8379 -0.1007  0.3748
 6745SOL     OW31693   0.901   1.773   3.402  0.2712  0.7975 -0.1610
 6745SOL    HW131694   0.940   1.757   3.316 -0.3984  0.7571 -0.4582
 6745SOL    HW231695   0.827   1.713   3.408  1.9384 -1.3680 -1.1171
 6746SOL     OW31696   3.710   3.901   6.365 -0.1353 -0.0611 -0.4964
 6746SOL    HW131697   3.751   3.937   6.287 -0.5602  0.7166 -0.3605
 6746SOL    HW231698   3.688   3.982   6.411  2.1936 -0.5254  1.4253
 6747SOL     OW31699   3.497   3.771   3.294  0.1883 -0.0724 -0.1211
 6747SOL    HW131700   3.543   3.757   3.211 -2.9364 -0.6882 -1.7499
 6747SOL    HW231701   3.565   3.814   3.346 -0.1043  2.1728 -1.5966
 6748SOL     OW31702   3.008   3.151   1.882  0.2537 -0.4825  0.5359
 6748SOL    HW131703   3.053   3.146   1.798  1.4447  1.6782  1.0587
 6748SOL    HW231704   3.024   3.243   1.901  0.9626 -0.7470  1.2443
 6749SOL     OW31705   4.308   3.917  17.038  0.3284 -0.3233  0.1003
 6749SOL    HW131706   4.338   3.874  16.958  1.6697  0.2146  0.3153
 6749SOL    HW231707   4.310   4.005  17.003 -1.2928 -0.0194  0.7984
 6750SOL     OW31708   0.157   2.104   4.667  0.2649 -0.1832  0.3160
 6750SOL    HW131709   0.228   2.084   4.606  0.0795  0.6942 -0.1877
 6750SOL    HW231710   0.143   2.018   4.706 -0.7748  0.9005  2.3408
 6751SOL     OW31711   2.774   3.782   6.683 -0.0967  0.4435 -0.3006
 6751SOL    HW131712   2.827   3.860   6.702 -0.5707  1.2927 -2.5113
 6751SOL    HW231713   2.689   3.823   6.670 -0.3470 -0.4148 -1.3106
 6752SOL     OW31714   2.445   3.632   1.845 -0.0811  0.4582  0.1747
 6752SOL    HW131715   2.514   3.616   1.909  0.2745  1.6836  0.1040
 6752SOL    HW231716   2.372   3.663   1.900 -0.9022 -1.7191  0.3241
 6753SOL     OW31717   1.228   4.667   9.487  0.4142  0.3569 -0.0763
 6753SOL    HW131718   1.300   4.654   9.548  1.6056 -1.4469 -1.8653
 6753SOL    HW231719   1.171   0.000   9.542 -1.9336 -1.7441 -0.4228
 6754SOL     OW31720   2.660   1.503   4.067  0.0192  0.0945  0.1455
 6754SOL    HW131721   2.632   1.494   4.158 -0.2514  2.0370  0.2511
 6754SOL    HW231722   2.716   1.580   4.068 -0.3924  0.3870  0.5781
 6755SOL     OW31723   2.277   1.654   8.260 -0.3739  0.6630 -0.3016
 6755SOL    HW131724   2.231   1.661   8.177 -0.6454 -0.9691 -0.2885
 6755SOL    HW231725   2.326   1.572   8.252  1.4202  2.1088 -4.0243
 6756SOL     OW31726   0.923   4.044   0.500  0.0401 -0.1261 -0.7162
 6756SOL    HW131727   0.984   4.111   0.530  1.0829 -1.3862 -0.0528
 6756SOL    HW231728   0.883   4.030   0.586  1.9945 -0.3962  0.1397
 6757SOL     OW31729   3.693   1.958  12.151 -0.4877 -0.0398 -0.5001
 6757SOL    HW131730   3.670   2.005  12.071  0.6371 -1.7842 -1.8523
 6757SOL    HW231731   3.742   2.030  12.191 -0.6955  0.8871 -1.9110
 6758SOL     OW31732   1.229   2.425  11.505  0.1715  0.1081  0.0514
 6758SOL    HW131733   1.300   2.412  11.568 -0.7510 -1.2037  0.8235
 6758SOL    HW231734   1.228   2.352  11.444  2.1797 -0.1272  0.2982
 6759SOL     OW31735   4.543   2.301   2.658  0.4103 -0.3739  0.1235
 6759SOL    HW131736   4.579   2.212   2.661 -0.2631 -0.6544  0.0072
 6759SOL    HW231737   4.590   2.321   2.577 -0.0891 -2.6913 -0.7559
 6760SOL     OW31738   3.946   0.956   8.668  0.0900  0.3488 -0.1855
 6760SOL    HW131739   3.956   0.980   8.760 -1.6875 -0.9428  0.3270
 6760SOL    HW231740   3.965   0.862   8.673 -0.3042  0.3401  0.9477
 6761SOL     OW31741   2.351   0.559   4.465  0.2675 -0.1665  0.2024
 6761SOL    HW131742   2.426   0.545   4.408  0.6995  1.1802  0.4480
 6761SOL    HW231743   2.287   0.606   4.411  1.8645  0.1932 -1.3688
 6762SOL     OW31744   0.226   0.170   7.385  0.3160 -0.1004  0.4050
 6762SOL    HW131745   0.231   0.219   7.303 -0.2087  1.0864  1.0766
 6762SOL    HW231746   0.300   0.198   7.440  0.6572 -0.8115  0.3028
 6763SOL     OW31747   1.071   3.623  16.786 -0.6446 -0.6530 -0.7263
 6763SOL    HW131748   1.110   3.707  16.766  0.6175 -1.6394 -2.3971
 6763SOL    HW231749   1.149   3.571  16.807 -0.4080 -0.5256 -1.2952
 6764SOL     OW31750   4.394   1.967   1.917  0.3476 -0.1534  1.0538
 6764SOL    HW131751   4.417   2.058   1.937  1.8621 -0.4245  0.5810
 6764SOL    HW231752   4.474   1.929   1.880  1.2755  0.6166  2.2384
 6765SOL     OW31753   3.330   3.792  17.583  0.0779 -0.3895  0.1478
 6765SOL    HW131754   3.359   3.872  17.539 -1.6619  0.6238  0.8161
 6765SOL    HW231755   3.248   3.822  17.623 -0.1575 -0.0192 -0.6166
 6766SOL     OW31756   0.388   1.523  10.246  0.1092 -0.1614  0.8992
 6766SOL    HW131757   0.480   1.513  10.272  0.8823 -1.2316 -2.2567
 6766SOL    HW231758   0.350   1.489  10.327  2.1864 -1.8147  1.1788
 6767SOL     OW31759   1.642   4.296   5.565  0.8218  0.4464  0.0149
 6767SOL    HW131760   1.731   4.298   5.602 -0.0288  3.1588  1.8673
 6767SOL    HW231761   1.593   4.255   5.636  1.7033 -2.4496 -1.0194
 6768SOL     OW31762   3.893   2.311   0.161 -0.3448  0.2834 -0.1653
 6768SOL    HW131763   3.879   2.238   0.101  1.6340 -0.1265 -0.1365
 6768SOL    HW231764   3.883   2.265   0.244  0.3049  0.9916  0.2991
 6769SOL     OW31765   4.305   3.425  14.265  0.5843 -0.4298 -0.4688
 6769SOL    HW131766   4.251   3.502  14.250 -2.6313 -2.8316 -1.1143
 6769SOL    HW231767   4.388   3.470  14.282  0.2320  0.2273 -0.4676
 6770SOL     OW31768   1.548   1.324   4.882 -0.2226  0.0440  0.3854
 6770SOL    HW131769   1.618   1.286   4.830  1.2392  2.4136  0.6317
 6770SOL    HW231770   1.501   1.249   4.918 -2.2143  0.9901 -0.2173
 6771SOL     OW31771   4.599   1.271   5.652  0.5281 -0.3317  0.0818
 6771SOL    HW131772   4.532   1.208   5.680 -1.4633  1.5074 -0.5799
 6771SOL    HW231773   4.578   1.282   5.560 -1.7208  1.2849  0.7925
 6772SOL     OW31774   2.774   0.663   8.594  0.1737  0.0739  0.3583
 6772SOL    HW131775   2.786   0.665   8.500  2.2673  0.9357  0.6341
 6772SOL    HW231776   2.710   0.593   8.595 -0.6527  0.8407  1.1118
 6773SOL     OW31777   3.593   0.472  16.521  0.0740 -0.0290 -0.6557
 6773SOL    HW131778   3.681   0.443  16.546  0.0986  1.4735  0.9866
 6773SOL    HW231779   3.616   0.538  16.456 -1.1959 -0.1191 -1.1807
 6774SOL     OW31780   3.390   4.483   2.949 -0.6125 -0.1490 -0.2359
 6774SOL    HW131781   3.338   4.562   2.933  0.3409  0.2748 -1.2372
 6774SOL    HW231782   3.463   4.505   2.890 -0.7659 -0.1881 -0.4430
 6775SOL     OW31783   3.538   4.196   3.402 -0.0263  0.0314  0.2173
 6775SOL    HW131784   3.494   4.215   3.319  0.8154  1.0162 -0.0071
 6775SOL    HW231785   3.538   4.278   3.452 -0.8469  0.9205 -1.2352
 6776SOL     OW31786   0.812   2.608   8.413 -0.3818 -0.0022  0.3170
 6776SOL    HW131787   0.740   2.667   8.391 -0.8332 -0.3866  0.7633
 6776SOL    HW231788   0.766   2.526   8.433  1.0528 -1.5668 -2.7093
 6777SOL     OW31789   3.351   4.352   7.282 -0.1115  0.2801 -0.0366
 6777SOL    HW131790   3.419   4.382   7.343 -1.8044  4.5155 -0.1885
 6777SOL    HW231791   3.404   4.304   7.218 -0.7960  1.4936 -1.5125
 6778SOL     OW31792   1.281   2.595   3.439  0.4626 -0.2586  0.5985
 6778SOL    HW131793   1.205   2.590   3.498 -1.3833  2.1091 -1.5978
 6778SOL    HW231794   1.221   2.585   3.365  2.9213 -0.4817 -1.3633
 6779SOL     OW31795   1.998   2.316   8.500  0.0694  0.2891 -0.6825
 6779SOL    HW131796   2.032   2.308   8.589 -1.1826  1.0157 -0.1499
 6779SOL    HW231797   2.077   2.360   8.466  0.5448  0.1094  0.1910
 6780SOL     OW31798   2.849   1.001  13.991 -1.2882 -0.6262 -0.5293
 6780SOL    HW131799   2.835   1.003  13.897 -2.8343  1.3762 -0.2469
 6780SOL    HW231800   2.767   1.034  14.026 -1.8232 -0.4039 -1.9980
 6781SOL     OW31801   3.495   1.028   0.309 -0.8682 -0.6479 -0.0233
 6781SOL    HW131802   3.551   0.950   0.300 -0.4549 -0.3927  0.3313
 6781SOL    HW231803   3.565   1.090   0.330 -1.7936  0.4769 -0.2937
 6782SOL     OW31804   1.137   0.291  14.004 -0.5511  0.3475 -0.0414
 6782SOL    HW131805   1.051   0.333  13.995 -0.6032  0.1231 -0.6689
 6782SOL    HW231806   1.113   0.200  13.986 -2.3757  0.6089  1.1099
 6783SOL     OW31807   4.330   2.479   2.312 -0.4391  0.1494 -0.6997
 6783SOL    HW131808   4.273   2.417   2.358 -0.8914 -0.1484 -1.6656
 6783SOL    HW231809   4.384   2.507   2.386 -1.7285  2.0431 -0.4975
 6784SOL     OW31810   2.816   3.062  13.576  0.0237  0.5148 -0.4223
 6784SOL    HW131811   2.878   2.993  13.553  1.5088  1.2876  1.2922
 6784SOL    HW231812   2.768   3.030  13.652  1.3781  1.3132  0.7873
 6785SOL     OW31813   3.574   1.377  12.467 -0.1079  0.3457  0.2575
 6785SOL    HW131814   3.580   1.413  12.379  1.5122 -0.0934  0.1859
 6785SOL    HW231815   3.549   1.287  12.449  2.3656  0.0351 -1.5997
 6786SOL     OW31816   1.290   4.380   3.833 -0.1516 -0.5154  0.2665
 6786SOL    HW131817   1.224   4.365   3.900 -2.7818 -0.4516 -2.2956
 6786SOL    HW231818   1.253   4.318   3.769  0.5772 -0.5396 -0.1385
 6787SOL     OW31819   0.054   1.052   6.859  0.2305 -0.6763 -0.1597
 6787SOL    HW131820   0.123   1.107   6.822  0.9505 -1.7624 -0.4283
 6787SOL    HW231821   0.089   1.046   6.948 -0.7322  0.6642  0.3027
 6788SOL     OW31822   4.010   0.256   3.588 -0.1227 -0.4013 -0.0636
 6788SOL    HW131823   3.994   0.230   3.679  0.2690  1.1128  0.4236
 6788SOL    HW231824   4.041   0.345   3.601 -0.5385 -0.6226  2.3929
 6789SOL     OW31825   0.581   3.316   3.328 -0.1845 -0.1392  0.8418
 6789SOL    HW131826   0.542   3.309   3.241  1.1080  2.7988  0.0148
 6789SOL    HW231827   0.503   3.302   3.381 -0.8871 -0.3554 -0.2599
 6790SOL     OW31828   1.395   0.753   2.803 -0.0427 -0.5138 -0.1486
 6790SOL    HW131829   1.486   0.758   2.773 -0.4449  1.1600 -1.0695
 6790SOL    HW231830   1.368   0.844   2.791 -0.0227 -0.0570  3.2814
 6791SOL     OW31831   4.448   4.133   6.187 -0.0661 -0.0022  0.3480
 6791SOL    HW131832   4.506   4.057   6.196 -0.9740 -0.7399 -0.0545
 6791SOL    HW231833   4.360   4.098   6.175 -0.1137 -1.0718  3.7039
 6792SOL     OW31834   3.973   4.203   6.531  0.1771 -0.4258  0.4564
 6792SOL    HW131835   4.061   4.186   6.496 -0.2137 -0.9532 -0.2711
 6792SOL    HW231836   3.991   4.218   6.624  2.2285 -0.9894  0.1598
 6793SOL     OW31837   0.572   3.209   5.390  0.7480 -0.4478 -0.0791
 6793SOL    HW131838   0.641   3.218   5.324 -0.1235  1.8534 -0.6726
 6793SOL    HW231839   0.499   3.170   5.343 -0.0482 -0.1481  0.9064
 6794SOL     OW31840   3.277   2.026   7.270 -0.1713  0.3695 -0.2278
 6794SOL    HW131841   3.291   1.990   7.182 -0.1087 -0.8841  0.2928
 6794SOL    HW231842   3.183   2.043   7.259  0.3982  1.5227 -3.4704
 6795SOL     OW31843   3.297   1.944   8.249 -0.2279  0.0146 -0.4993
 6795SOL    HW131844   3.230   1.957   8.316  2.0796 -0.3858  1.8822
 6795SOL    HW231845   3.305   2.033   8.214  0.4811 -0.7300 -2.2651
 6796SOL     OW31846   0.856   1.321  15.496 -0.3262 -0.1758  0.3482
 6796SOL    HW131847   0.761   1.330  15.497 -0.2618  0.6422 -1.5378
 6796SOL    HW231848   0.879   1.303  15.405 -0.5154  1.5698 -0.0455
 6797SOL     OW31849   3.233   3.543   7.213 -0.4473 -0.0422  0.3925
 6797SOL    HW131850   3.284   3.559   7.292 -1.4308 -2.1532  1.4376
 6797SOL    HW231851   3.147   3.562   7.253 -0.2079  0.9822  0.4319
 6798SOL     OW31852   2.261   3.132   6.328 -0.0328 -0.3073 -0.3084
 6798SOL    HW131853   2.258   3.053   6.382  0.4419  0.3788  0.7187
 6798SOL    HW231854   2.299   3.103   6.246 -3.0128  1.2902 -2.2452
 6799SOL     OW31855   0.517   3.097  10.665 -0.4210  0.0093  0.4426
 6799SOL    HW131856   0.473   3.012  10.677  1.8642 -0.8850  2.3777
 6799SOL    HW231857   0.518   3.124  10.757  0.2509 -0.8903  0.7066
 6800SOL     OW31858   1.175   3.940   7.251 -0.4236 -0.0664  0.1315
 6800SOL    HW131859   1.121   3.873   7.294  0.6745 -0.6750  0.5602
 6800SOL    HW231860   1.194   4.011   7.312 -1.5215  0.7441 -0.4628
 6801SOL     OW31861   1.994   4.410   8.245  0.1225  0.3023 -0.4308
 6801SOL    HW131862   1.965   4.444   8.330  0.4476 -2.1498  0.6503
 6801SOL    HW231863   2.043   4.483   8.205 -2.6199 -0.5494 -5.3688
 6802SOL     OW31864   4.359   4.403  12.485 -0.0538  0.0628 -0.2910
 6802SOL    HW131865   4.337   4.495  12.473  1.8369  0.7498  1.5100
 6802SOL    HW231866   4.323   4.383  12.571  1.4131  0.6994  0.4709
 6803SOL     OW31867   2.600   1.730  15.851 -0.6649  0.4486 -0.0781
 6803SOL    HW131868   2.590   1.825  15.838 -2.8192 -0.1971 -3.0045
 6803SOL    HW231869   2.649   1.714  15.770 -0.8584  2.5209 -0.6216
 6804SOL     OW31870   2.704   1.857  16.432 -0.0989 -0.3051 -0.1420
 6804SOL    HW131871   2.698   1.943  16.473  0.1396  0.3501 -1.4809
 6804SOL    HW231872   2.646   1.811  16.493  2.1456 -1.3764  1.1856
 6805SOL     OW31873   4.269   2.462   7.010  0.3306  0.5434 -0.9817
 6805SOL    HW131874   4.346   2.422   6.969  0.2440 -0.7846  0.1599
 6805SOL    HW231875   4.307   2.539   7.052  1.0968 -0.9836  1.0788
 6806SOL     OW31876   2.537   1.915   2.928  0.1469 -0.1888 -0.5224
 6806SOL    HW131877   2.563   1.823   2.927  1.3001  0.1280  0.1820
 6806SOL    HW231878   2.555   1.936   2.837 -0.0439  0.8482 -0.3200
 6807SOL     OW31879   1.749   2.377  12.611 -0.1604  0.3251 -0.2042
 6807SOL    HW131880   1.718   2.354  12.523  0.5218  1.5023 -0.7576
 6807SOL    HW231881   1.709   2.460  12.634 -0.2067  0.8098 -2.0500
 6808SOL     OW31882   0.113   3.650   7.084  0.0142 -0.3462 -0.5888
 6808SOL    HW131883   0.044   3.696   7.132  2.2812  0.4955  1.8849
 6808SOL    HW231884   0.140   3.591   7.154  0.1590  1.4238  0.8495
 6809SOL     OW31885   0.235   0.953   4.713 -0.0834  0.1198  0.6722
 6809SOL    HW131886   0.262   1.031   4.762  5.3009 -2.6030  2.0662
 6809SOL    HW231887   0.141   0.952   4.729  0.2092 -2.5434  2.1992
 6810SOL     OW31888   0.642   2.501   7.265  0.1104 -0.5565 -0.1950
 6810SOL    HW131889   0.720   2.554   7.276 -0.7533  0.6312  0.2959
 6810SOL    HW231890   0.690   2.418   7.265  0.0454 -0.6096  2.5469
 6811SOL     OW31891   3.191   3.816   4.812  0.2138 -0.2258 -0.0766
 6811SOL    HW131892   3.161   3.902   4.841  0.0902 -0.6630  1.0748
 6811SOL    HW231893   3.116   3.756   4.810  0.6807 -0.7947 -0.5317
 6812SOL     OW31894   0.001   3.898   5.832  0.0380  0.1617 -0.9623
 6812SOL    HW131895   0.053   3.929   5.758 -0.5796  0.7519 -1.1377
 6812SOL    HW231896   0.047   3.933   5.909 -1.5736 -1.2635  0.6357
 6813SOL     OW31897   3.084   3.153   5.563 -0.2650  0.1853 -0.0139
 6813SOL    HW131898   3.109   3.170   5.653 -1.6833 -0.3957  0.4790
 6813SOL    HW231899   3.010   3.213   5.555  0.1409  0.6124 -0.5545
 6814SOL     OW31900   4.515   2.863  16.205  0.4922  0.7973 -0.2870
 6814SOL    HW131901   4.506   2.949  16.165 -2.9458  0.7748  0.4289
 6814SOL    HW231902   4.577   2.825  16.142 -0.1087  0.5278 -0.7141
 6815SOL     OW31903   0.072   1.050   3.949 -0.1892  0.4088 -0.1960
 6815SOL    HW131904   0.087   1.113   3.879 -0.2156  0.7116  0.0716
 6815SOL    HW231905   0.135   0.981   3.928 -1.1030 -0.6037  0.3214
 6816SOL     OW31906   4.136   3.200   7.973 -0.2023 -0.4745 -0.1236
 6816SOL    HW131907   4.137   3.105   7.979  0.7018 -0.4149  0.5966
 6816SOL    HW231908   4.186   3.224   8.051  0.0815 -1.5193  0.0082
 6817SOL     OW31909   2.902   2.519   1.516  0.1793 -0.8310  0.7824
 6817SOL    HW131910   2.910   2.531   1.610 -0.2077 -0.2033  0.7368
 6817SOL    HW231911   2.824   2.570   1.492  1.2209  0.5373  0.2959
 6818SOL     OW31912   0.285   3.363   5.490  0.1955  0.0357  0.0384
 6818SOL    HW131913   0.205   3.396   5.449 -0.3426 -2.4494 -0.9414
 6818SOL    HW231914   0.254   3.346   5.579 -0.6752 -0.9988 -0.4652
 6819SOL     OW31915   0.897   2.982   4.696 -0.3820 -0.4231 -0.3448
 6819SOL    HW131916   0.962   3.045   4.727 -0.4671 -0.8627  0.7486
 6819SOL    HW231917   0.951   2.925   4.642 -1.7177 -2.2982  0.2994
 6820SOL     OW31918   3.848   4.611   9.606 -0.5490 -0.3613  0.0495
 6820SOL    HW131919   3.796   4.533   9.629 -0.1044 -0.7160 -0.1452
 6820SOL    HW231920   3.808   4.676   9.664 -0.1185  0.6889 -0.8320
 6821SOL     OW31921   2.849   2.019  11.176 -0.6937  0.1639  0.2817
 6821SOL    HW131922   2.801   1.944  11.143  0.1232 -1.0576  1.9158
 6821SOL    HW231923   2.788   2.084  11.212 -1.5089 -1.9493  2.6746
 6822SOL     OW31924   1.822   3.568  13.123 -0.7978 -0.2155  0.0205
 6822SOL    HW131925   1.743   3.531  13.084 -1.1984 -0.0815  0.7082
 6822SOL    HW231926   1.790   3.565  13.213  2.6404 -0.9535  1.2233
 6823SOL     OW31927   0.658   3.116  10.096  0.2538 -0.1282  0.0262
 6823SOL    HW131928   0.717   3.159  10.159 -0.0353  2.1178 -1.2536
 6823SOL    HW231929   0.586   3.178  10.087 -0.9252 -1.6814 -1.1137
 6824SOL     OW31930   1.655   0.366   0.702  0.1825  0.6624  0.2345
 6824SOL    HW131931   1.672   0.405   0.616 -0.7615  1.0594  0.2247
 6824SOL    HW231932   1.580   0.418   0.729 -0.9739  0.1231 -1.9296
 6825SOL     OW31933   0.873   0.031   2.457 -0.7741  0.3481  0.4904
 6825SOL    HW131934   0.786   0.068   2.464 -0.6478  1.5712 -4.1448
 6825SOL    HW231935   0.854   4.661   2.481 -0.6866  0.4714  1.0173
 6826SOL     OW31936   0.289   1.011   5.365 -0.1292  0.2106  0.0572
 6826SOL    HW131937   0.333   1.028   5.449  1.7581  0.6749 -1.0251
 6826SOL    HW231938   0.272   0.917   5.363 -1.2828  0.4070  0.5181
 6827SOL     OW31939   2.587   4.674   5.668 -0.4063  0.0562  0.8254
 6827SOL    HW131940   2.606   0.044   5.693 -3.2990  0.3973  1.8057
 6827SOL    HW231941   2.496   4.676   5.695 -1.0672 -1.9227 -1.3074
 6828SOL     OW31942   1.852   3.609   2.894 -0.0939  0.1579 -0.7385
 6828SOL    HW131943   1.781   3.647   2.843 -0.2995 -0.7837 -1.1687
 6828SOL    HW231944   1.913   3.621   2.821  1.0392  0.4103  0.2534
 6829SOL     OW31945   0.134   1.002  11.695  0.7100  0.1009  0.3058
 6829SOL    HW131946   0.169   1.091  11.700 -0.0009  0.6114 -3.7786
 6829SOL    HW231947   0.192   0.959  11.632 -0.2941 -0.1560 -0.4459
 6830SOL     OW31948   1.711   2.452   6.224 -0.7680  0.6039  0.5176
 6830SOL    HW131949   1.747   2.372   6.185 -1.1565  0.6298  0.1011
 6830SOL    HW231950   1.620   2.431   6.204 -1.2435  2.9164  0.1527
 6831SOL     OW31951   3.862   2.293   3.618  0.1452  0.1171  0.5736
 6831SOL    HW131952   3.791   2.279   3.556 -0.2930 -0.1066  1.1339
 6831SOL    HW231953   3.851   2.216   3.673 -1.7552 -0.2997 -0.3999
 6832SOL     OW31954   4.036   1.872  13.294 -0.3735 -0.2293  0.0550
 6832SOL    HW131955   3.998   1.949  13.337  0.9375  0.3455  0.1636
 6832SOL    HW231956   4.077   1.823  13.365  0.8525 -0.9646 -1.1633
 6833SOL     OW31957   4.304   0.674   3.552  0.1837  0.2544 -0.2061
 6833SOL    HW131958   4.316   0.585   3.585 -3.5027 -0.0015  0.4545
 6833SOL    HW231959   4.284   0.714   3.637  0.2971 -0.7299  0.2796
 6834SOL     OW31960   4.433   4.604   8.372  0.1524 -0.1008  0.3338
 6834SOL    HW131961   4.341   4.623   8.390 -0.0735  1.2372 -2.2784
 6834SOL    HW231962   4.455   4.555   8.451 -1.7559 -1.1497  0.2077
 6835SOL     OW31963   1.524   4.330  15.384 -0.3291 -0.2614 -0.5089
 6835SOL    HW131964   1.588   4.260  15.397 -0.6083 -0.7144 -1.5603
 6835SOL    HW231965   1.449   4.299  15.435 -1.5294  3.2284 -0.1475
 6836SOL     OW31966   2.396   3.723   7.306 -0.1542  0.6331  0.0548
 6836SOL    HW131967   2.311   3.701   7.345  0.0122  0.0127  0.0576
 6836SOL    HW231968   2.435   3.640   7.279  1.4738  0.7523  2.0249
 6837SOL     OW31969   0.359   1.623   4.904 -0.0925 -0.1243 -0.3118
 6837SOL    HW131970   0.447   1.586   4.918 -0.0965  0.1062  0.3678
 6837SOL    HW231971   0.374   1.694   4.967 -0.0784 -0.0576 -0.3906
 6838SOL     OW31972   1.419   3.351   5.315  0.7741  0.1249  0.0795
 6838SOL    HW131973   1.460   3.291   5.253 -0.2033  1.0285 -1.4859
 6838SOL    HW231974   1.339   3.365   5.263  0.3933 -0.3364  0.5555
 6839SOL     OW31975   3.657   3.509   4.303 -0.1425  0.0190 -0.0610
 6839SOL    HW131976   3.714   3.532   4.230  1.1549 -1.5061  0.4992
 6839SOL    HW231977   3.642   3.417   4.283 -0.2039 -0.0500  0.3121
 6840SOL     OW31978   2.262   0.598  15.301 -0.0146 -0.1800 -0.4859
 6840SOL    HW131979   2.282   0.675  15.353  0.0739 -1.1094  0.8463
 6840SOL    HW231980   2.228   0.538  15.367  3.2970 -2.1975 -0.6052
 6841SOL     OW31981   3.880   4.075   2.739 -0.1937 -0.1980  0.4965
 6841SOL    HW131982   3.851   4.165   2.733  0.8655  0.1945  1.1243
 6841SOL    HW231983   3.946   4.068   2.670 -0.7699  3.8670 -0.4314
 6842SOL     OW31984   1.251   2.675   6.799  0.6748  0.5049 -0.1998
 6842SOL    HW131985   1.327   2.712   6.842  2.2572 -2.3556 -0.5269
 6842SOL    HW231986   1.194   2.747   6.772  3.3603  3.1548  1.2093
 6843SOL     OW31987   3.602   3.793  14.680 -0.1491 -0.3135 -0.0297
 6843SOL    HW131988   3.674   3.853  14.661 -1.4109  1.3716  0.5511
 6843SOL    HW231989   3.605   3.766  14.772  0.9117  0.5998  0.2045
 6844SOL     OW31990   2.774   0.301   4.054 -0.2293  0.4582 -0.1695
 6844SOL    HW131991   2.750   0.215   4.021  2.0391 -1.1306  2.3192
 6844SOL    HW231992   2.722   0.306   4.134  1.4671 -0.6356  0.9993
 6845SOL     OW31993   0.003   0.733   2.277  0.6390 -0.0990 -0.1341
 6845SOL    HW131994   0.088   0.777   2.291  1.2697 -1.1149 -0.7664
 6845SOL    HW231995   0.041   0.671   2.215 -3.2520  0.0059 -2.5744
 6846SOL     OW31996   0.926   4.586   1.957  0.1998  0.2426 -0.3758
 6846SOL    HW131997   0.933   4.631   2.041 -0.1958 -2.1158  0.9246
 6846SOL    HW231998   0.835   4.609   1.936 -0.7252 -3.4757 -0.4671
 6847SOL     OW31999   4.181   0.006   3.707  0.2605 -0.5215 -0.2080
 6847SOL    HW132000   4.216   0.052   3.631  3.3982  0.0882  1.5990
 6847SOL    HW232001   4.136   0.074   3.757  0.6093 -0.8273  0.5403
 6848SOL     OW32002   4.204   1.980   0.311 -0.5683 -0.0229  0.1761
 6848SOL    HW132003   4.224   2.072   0.295 -0.9004  0.2464  1.2652
 6848SOL    HW232004   4.245   1.929   0.241  2.5814  0.0205  1.9667
 6849SOL     OW32005   1.641   1.577   7.909  0.5632  0.0624  0.2932
 6849SOL    HW132006   1.667   1.519   7.838 -0.5365 -1.2780  0.9747
 6849SOL    HW232007   1.724   1.580   7.957  0.9943 -1.8372 -0.3414
 6850SOL     OW32008   0.361   2.840   1.507  0.0848 -0.4615 -0.1135
 6850SOL    HW132009   0.454   2.816   1.506  0.2069 -0.0411  1.1649
 6850SOL    HW232010   0.355   2.860   1.601  1.4883  0.4079 -0.2150
 6851SOL     OW32011   3.667   3.203  14.801  0.1326  0.3425  0.4200
 6851SOL    HW132012   3.751   3.192  14.758 -0.7279  1.2598 -1.4748
 6851SOL    HW232013   3.637   3.282  14.757  0.1143  0.9769  1.5544
 6852SOL     OW32014   1.429   0.378  10.841  0.1500 -0.1187  0.3130
 6852SOL    HW132015   1.508   0.332  10.812  0.0130 -0.8802  1.1479
 6852SOL    HW232016   1.403   0.307  10.899  1.7657  0.5011  1.7864
 6853SOL     OW32017   1.558   2.209   2.499  0.2039 -0.0796  0.3219
 6853SOL    HW132018   1.560   2.144   2.428  1.2215  3.2006 -2.6647
 6853SOL    HW232019   1.651   2.231   2.506 -0.3235  1.4925  2.1731
 6854SOL     OW32020   0.879   1.271   2.148 -0.0342 -0.2185  0.1714
 6854SOL    HW132021   0.881   1.283   2.243 -1.3491 -1.0621  0.3087
 6854SOL    HW232022   0.790   1.237   2.135  0.1434  0.1342 -1.9359
 6855SOL     OW32023   3.891   3.963   3.084  0.5066 -0.1443 -0.0826
 6855SOL    HW132024   3.980   3.977   3.117  1.4846 -0.2648 -2.7147
 6855SOL    HW232025   3.849   4.035   3.131  0.6329  0.3603 -0.7490
 6856SOL     OW32026   2.680   1.145   6.386 -0.0931 -0.4279  0.5963
 6856SOL    HW132027   2.745   1.206   6.420  0.5105  0.0342 -1.3724
 6856SOL    HW232028   2.700   1.063   6.431  1.2882  0.4427  1.5594
 6857SOL     OW32029   3.132   0.727   7.385  0.6578  0.5801  0.2361
 6857SOL    HW132030   3.134   0.782   7.307  2.4134  0.4945  0.2233
 6857SOL    HW232031   3.212   0.750   7.432  0.8870  1.0968 -0.4018
 6858SOL     OW32032   1.850   3.695  12.644 -0.0788 -1.0202 -0.0690
 6858SOL    HW132033   1.846   3.662  12.555 -1.5896  1.1896 -0.8269
 6858SOL    HW232034   1.880   3.619  12.694  1.9658  0.9251  1.6748
 6859SOL     OW32035   2.104   3.972   3.178  0.1513 -0.5587 -0.1797
 6859SOL    HW132036   2.131   3.882   3.194  0.3758 -0.3591  0.5679
 6859SOL    HW232037   2.135   3.975   3.087 -1.2305 -3.5142 -0.7202
 6860SOL     OW32038   2.911   3.262   1.047 -0.2964  0.2576 -0.0001
 6860SOL    HW132039   2.909   3.173   1.010 -0.8748 -0.1242  0.9671
 6860SOL    HW232040   2.947   3.304   0.969 -1.1360  0.4389 -0.2862
 6861SOL     OW32041   3.804   0.559   6.474 -0.2262 -0.5601 -0.5004
 6861SOL    HW132042   3.895   0.588   6.486 -0.7093  0.3414  0.9445
 6861SOL    HW232043   3.825   0.481   6.423 -0.7372 -1.3608  0.5137
 6862SOL     OW32044   1.490   1.909   0.124  0.2400 -0.1164  0.0661
 6862SOL    HW132045   1.575   1.872   0.149  0.5433  0.6835  0.2254
 6862SOL    HW232046   1.518   1.987   0.077 -1.2659 -0.4459 -1.3897
 6863SOL     OW32047   0.807   1.366   7.675 -1.0683 -0.1330  0.5111
 6863SOL    HW132048   0.890   1.390   7.634  0.2898  0.6126  3.6512
 6863SOL    HW232049   0.843   1.321   7.752 -0.4469 -3.0070 -1.5047
 6864SOL     OW32050   4.421   2.656   5.159  0.2256 -0.0497  0.1381
 6864SOL    HW132051   4.448   2.660   5.067 -3.5287  1.3451 -0.8832
 6864SOL    HW232052   4.455   2.739   5.192 -0.5478  0.4822 -0.4077
 6865SOL     OW32053   3.015   4.266   2.289 -0.2948 -0.0057 -0.5907
 6865SOL    HW132054   2.933   4.274   2.241  0.6337  1.1203 -1.9813
 6865SOL    HW232055   3.011   4.177   2.324  1.2157  0.0301 -0.3336
 6866SOL     OW32056   4.544   4.314   3.675 -0.3880  0.6807  0.0033
 6866SOL    HW132057   4.523   4.232   3.631  0.4907  1.2545 -1.4789
 6866SOL    HW232058   4.617   4.295   3.733  0.2577  1.8389 -0.4359
 6867SOL     OW32059   1.705   0.488   4.037  0.4273  0.5199  0.1638
 6867SOL    HW132060   1.619   0.474   4.077  0.8491 -0.4693  0.7372
 6867SOL    HW232061   1.716   0.413   3.978 -0.0064 -0.9236  1.9044
 6868SOL     OW32062   0.845   3.404   4.785 -0.1257 -0.3111 -0.2974
 6868SOL    HW132063   0.861   3.472   4.851  1.2271 -1.7745  0.8922
 6868SOL    HW232064   0.750   3.393   4.796 -0.2990  2.6014  1.1706
 6869SOL     OW32065   3.323   0.857  12.634 -0.1035 -0.2289 -0.5352
 6869SOL    HW132066   3.381   0.860  12.710  1.0424  0.4081 -1.4241
 6869SOL    HW232067   3.325   0.948  12.602  0.6782 -0.0817 -0.0625
 6870SOL     OW32068   2.102   2.583  14.510  0.3692  0.2479 -0.9356
 6870SOL    HW132069   2.159   2.509  14.531  0.5891  0.2201 -1.6327
 6870SOL    HW232070   2.045   2.579  14.587  0.2448  0.3295 -1.0239
 6871SOL     OW32071   2.657   2.561   4.861  0.7307  0.3651  0.4279
 6871SOL    HW132072   2.635   2.469   4.875 -0.0449  0.0319 -3.0720
 6871SOL    HW232073   2.644   2.573   4.767  0.9402  0.2715  0.3865
 6872SOL     OW32074   0.820   4.719   1.693  0.0662 -1.0711  0.1463
 6872SOL    HW132075   0.802   4.682   1.779 -3.7515  2.2909  0.7981
 6872SOL    HW232076   0.884   0.065   1.717 -0.0597 -0.2520 -1.7746
 6873SOL     OW32077   2.559   1.143   8.418 -0.2272 -0.2901 -0.3561
 6873SOL    HW132078   2.575   1.054   8.451  0.3768 -0.1683 -0.3315
 6873SOL    HW232079   2.536   1.188   8.499  1.4820  0.2678 -0.1929
 6874SOL     OW32080   3.202   2.818   9.122 -0.0861 -0.4926  0.3331
 6874SOL    HW132081   3.203   2.894   9.180  0.1749  0.6758 -1.2079
 6874SOL    HW232082   3.294   2.803   9.103 -0.0085  1.3198 -0.6283
 6875SOL     OW32083   3.372   4.213  16.759  0.2747  0.4962  0.1817
 6875SOL    HW132084   3.440   4.146  16.760 -0.6753 -0.4450  2.1100
 6875SOL    HW232085   3.362   4.234  16.666  2.8442  0.3914 -0.1176
 6876SOL     OW32086   0.187   2.790   8.896 -0.1202  0.1138  0.3615
 6876SOL    HW132087   0.147   2.732   8.831 -0.0637 -0.9189  1.2407
 6876SOL    HW232088   0.121   2.854   8.922 -0.4196  0.0440 -0.2188
 6877SOL     OW32089   3.034   0.397   7.185  0.3301 -0.4157  0.6153
 6877SOL    HW132090   2.952   0.407   7.138 -0.1144 -0.9916  1.2760
 6877SOL    HW232091   3.002   0.413   7.273  2.3160 -1.6748  1.5818
 6878SOL     OW32092   1.213   2.156   9.084 -0.3921  0.0166 -0.7157
 6878SOL    HW132093   1.290   2.187   9.132  0.0782  1.4283 -2.3954
 6878SOL    HW232094   1.220   2.220   9.013  2.8430  1.0794  0.5831
 6879SOL     OW32095   1.823   4.586   0.963 -0.6349  0.4180  0.1810
 6879SOL    HW132096   1.791   4.602   1.052  0.8696  0.5481  0.7010
 6879SOL    HW232097   1.744   4.567   0.912 -2.2807  1.5869  2.3249
 6880SOL     OW32098   4.647   0.815   8.852 -0.3763  0.0706 -0.3597
 6880SOL    HW132099   4.581   0.885   8.851 -1.0131 -0.5249 -0.7580
 6880SOL    HW232100   4.605   0.743   8.899 -1.0701  0.3545 -0.5333
 6881SOL     OW32101   0.102   2.202   9.279 -0.2034  0.7694 -0.2799
 6881SOL    HW132102   0.114   2.183   9.186  1.2245  2.9950 -0.5392
 6881SOL    HW232103   0.177   2.261   9.289  0.9310 -0.7580  0.2922
 6882SOL     OW32104   0.570   3.708   7.142 -0.9223 -0.5856  0.7192
 6882SOL    HW132105   0.504   3.639   7.132 -0.6489 -0.8645  0.8517
 6882SOL    HW232106   0.651   3.657   7.149  0.9058  2.1191 -0.7821
 6883SOL     OW32107   3.466   1.938   3.073  0.1707  0.2916  0.1331
 6883SOL    HW132108   3.452   1.844   3.084 -1.0919  0.6734  1.6588
 6883SOL    HW232109   3.395   1.957   3.012  0.2954  1.1127  0.2530
 6884SOL     OW32110   1.349   0.384   8.205  0.0889 -0.1114 -0.1821
 6884SOL    HW132111   1.396   0.376   8.122  0.9832  1.5566  0.1651
 6884SOL    HW232112   1.395   0.319   8.258  0.1052 -0.8245 -1.0837
 6885SOL     OW32113   1.951   1.436   8.681  0.2681  0.2299 -0.0288
 6885SOL    HW132114   2.029   1.468   8.726  0.0856  0.4368  0.1393
 6885SOL    HW232115   1.896   1.514   8.669  1.7200  1.5387  1.8565
 6886SOL     OW32116   0.230   3.529   3.354 -0.1588 -0.2740 -0.2139
 6886SOL    HW132117   0.283   3.452   3.375 -0.5943 -1.2903 -2.8356
 6886SOL    HW232118   0.144   3.492   3.333 -0.1228  0.2685 -1.2891
 6887SOL     OW32119   4.334   2.516   8.805 -0.3503  0.1300 -0.0046
 6887SOL    HW132120   4.361   2.443   8.861  0.9384  0.6364  0.0321
 6887SOL    HW232121   4.419   2.549   8.778 -1.5776  0.6622 -3.1688
 6888SOL     OW32122   2.738   4.484   1.442  0.1480  0.2463 -0.3402
 6888SOL    HW132123   2.654   4.451   1.409 -1.2473  0.9482  2.5542
 6888SOL    HW232124   2.798   4.446   1.377  0.6282  0.8542 -0.2561
 6889SOL     OW32125   3.106   1.867   5.539  0.0971 -0.2311 -0.0473
 6889SOL    HW132126   3.145   1.911   5.464  1.8439 -0.8880  0.4753
 6889SOL    HW232127   3.190   1.855   5.582  0.4473  2.4466 -0.0244
 6890SOL     OW32128   0.621   4.239   6.922 -0.2116  0.2021 -0.0312
 6890SOL    HW132129   0.556   4.210   6.859  1.0340 -0.9606 -0.7905
 6890SOL    HW232130   0.610   4.183   6.999  2.2919 -2.1161 -1.3689
 6891SOL     OW32131   2.079   0.652   4.815 -0.0160 -0.5450  0.5009
 6891SOL    HW132132   2.136   0.711   4.767  0.6122 -0.5312  1.2567
 6891SOL    HW232133   2.057   0.584   4.751 -0.7618  0.2190 -0.0471
 6892SOL     OW32134   2.854   4.715  12.770  0.1555  0.0655 -0.5578
 6892SOL    HW132135   2.888   0.078  12.800 -0.6585 -0.5399  2.0897
 6892SOL    HW232136   2.935   4.673  12.742  0.5373 -0.4636  1.3074
 6893SOL     OW32137   2.941   4.484   8.530  0.5507  0.3745 -0.3230
 6893SOL    HW132138   2.921   4.416   8.595  2.5511  0.2046  0.0948
 6893SOL    HW232139   2.930   4.558   8.590  0.7395 -0.2498  0.4747
 6894SOL     OW32140   3.736   1.294   9.142  0.9945 -0.6294 -0.1005
 6894SOL    HW132141   3.667   1.344   9.184  1.1440  0.4035 -1.0882
 6894SOL    HW232142   3.815   1.348   9.149  1.0388 -0.4945 -1.6638
 6895SOL     OW32143   0.841   2.565  11.207 -0.1470  0.4226  0.0260
 6895SOL    HW132144   0.752   2.567  11.173  0.2606 -0.1203 -1.0520
 6895SOL    HW232145   0.824   2.578  11.301  3.0378 -3.8239  1.1762
 6896SOL     OW32146   0.896   0.608   3.510  0.1729  0.3755  0.3841
 6896SOL    HW132147   0.921   0.679   3.568 -2.3818  1.1833  0.4689
 6896SOL    HW232148   0.966   0.607   3.444 -0.8479 -0.0744 -0.6978
 6897SOL     OW32149   2.513   4.610   7.976  0.4899  0.2012 -0.0851
 6897SOL    HW132150   2.486   4.678   7.914 -2.2835 -1.4568 -0.6920
 6897SOL    HW232151   2.509   4.530   7.924 -0.7319 -0.1691  0.5733
 6898SOL     OW32152   4.403   3.126  17.272 -0.3379  0.0901 -0.0782
 6898SOL    HW132153   4.388   3.097  17.362  0.2444  3.1405  0.9908
 6898SOL    HW232154   4.457   3.048  17.257 -0.9568 -0.4971  0.7238
 6899SOL     OW32155   0.539   2.157  15.543  0.1794 -0.3190 -0.1437
 6899SOL    HW132156   0.480   2.232  15.549  1.2740  0.5175  0.2813
 6899SOL    HW232157   0.485   2.082  15.519 -2.7081  2.1466 -1.3266
 6900SOL     OW32158   0.154   1.792   7.345 -0.4957 -0.4596  1.0507
 6900SOL    HW132159   0.115   1.723   7.290  1.0073 -0.1562 -0.3907
 6900SOL    HW232160   0.103   1.866   7.312 -2.4740 -2.7361 -1.0527
 6901SOL     OW32161   2.052   1.419  13.675 -0.0517 -0.2831 -0.1568
 6901SOL    HW132162   2.111   1.494  13.664  2.2536 -2.1406 -0.6055
 6901SOL    HW232163   1.981   1.433  13.613  2.0545  0.2170 -2.4733
 6902SOL     OW32164   2.412   1.058   3.671 -0.2803 -0.7952 -0.1554
 6902SOL    HW132165   2.360   1.118   3.618  2.0823 -0.2326 -1.8317
 6902SOL    HW232166   2.501   1.089   3.657 -0.5131  1.9695  4.0912
 6903SOL     OW32167   3.131   1.114  16.689 -0.3828  0.2366  0.3605
 6903SOL    HW132168   3.066   1.091  16.756 -0.2521 -1.0219  0.0632
 6903SOL    HW232169   3.081   1.115  16.607 -0.0785 -1.7381  0.1598
 6904SOL     OW32170   3.192   2.643   0.740  0.3080 -0.7928  0.1959
 6904SOL    HW132171   3.145   2.568   0.703 -0.5305  0.5674 -1.4811
 6904SOL    HW232172   3.266   2.599   0.781 -0.2400 -1.7731  0.1405
 6905SOL     OW32173   3.315   2.866   4.822  0.6458  0.3582 -0.1518
 6905SOL    HW132174   3.268   2.787   4.848  0.2251  0.9734  0.9442
 6905SOL    HW232175   3.255   2.925   4.777 -0.5225 -0.7575 -0.0359
 6906SOL     OW32176   3.494   4.360   7.525  0.4581 -0.0074 -0.2377
 6906SOL    HW132177   3.535   4.443   7.549 -0.1888  0.7577 -1.7547
 6906SOL    HW232178   3.520   4.305   7.599  3.3766 -0.4157 -1.5307
 6907SOL     OW32179   0.519   0.933  10.531  0.5304  0.5481  0.0637
 6907SOL    HW132180   0.579   0.882  10.478 -0.9480  0.0282 -1.1201
 6907SOL    HW232181   0.561   0.955  10.614  0.7568  1.7305 -0.3601
 6908SOL     OW32182   4.338   1.813   3.048 -0.1378 -0.4936 -0.4853
 6908SOL    HW132183   4.399   1.750   3.009  3.1664  2.2084  0.3968
 6908SOL    HW232184   4.285   1.833   2.971 -0.4050  1.0760  0.1126
 6909SOL     OW32185   4.587   1.524   2.499  0.0601 -0.3201  0.6129
 6909SOL    HW132186   4.663   1.544   2.554  2.4833  0.7882 -3.1204
 6909SOL    HW232187   4.531   1.597   2.526 -0.2978 -0.9189  1.4907
 6910SOL     OW32188   4.654   1.247   4.850 -0.0120 -0.0879  0.1104
 6910SOL    HW132189   4.695   1.160   4.849 -0.0013 -0.0895  0.6174
 6910SOL    HW232190   4.717   1.302   4.896  2.1309 -1.9886 -0.5739
 6911SOL     OW32191   1.749   3.130  12.364  0.3059 -0.7145  0.3827
 6911SOL    HW132192   1.745   3.074  12.286 -0.9408 -0.1729  0.0521
 6911SOL    HW232193   1.841   3.156  12.368 -0.1225  0.9015 -0.4054
 6912SOL     OW32194   2.772   3.965   2.565 -0.0631  0.3598  0.9531
 6912SOL    HW132195   2.754   4.052   2.598 -0.2438  0.5738  0.2923
 6912SOL    HW232196   2.766   3.986   2.472  0.1983  0.2466  0.9087
 6913SOL     OW32197   0.957   4.715   3.497  0.3356 -0.6042 -0.0535
 6913SOL    HW132198   1.008   4.637   3.520 -1.4873 -1.2172  1.9067
 6913SOL    HW232199   0.925   0.013   3.585  1.5734  0.7840  0.0892
 6914SOL     OW32200   0.278   0.541  12.603 -0.4342  0.4236  0.1883
 6914SOL    HW132201   0.225   0.504  12.532  0.4087  0.9839 -0.7257
 6914SOL    HW232202   0.307   0.462  12.649 -0.7758 -0.2481 -0.7427
 6915SOL     OW32203   4.123   3.236   5.808  0.1717  0.0908  0.2121
 6915SOL    HW132204   4.067   3.301   5.851  0.6238  1.0284 -0.6056
 6915SOL    HW232205   4.057   3.167   5.801  0.2844  0.0817 -0.7747
 6916SOL     OW32206   4.474   3.240   4.078 -0.1581 -0.0136 -0.7260
 6916SOL    HW132207   4.510   3.194   4.002  2.1049  1.2767 -0.4191
 6916SOL    HW232208   4.411   3.296   4.033 -0.3633 -0.7353 -1.3335
 6917SOL     OW32209   0.117   2.944   6.800 -0.0334 -0.1320  0.2242
 6917SOL    HW132210   0.192   2.986   6.842 -1.1681  0.1541  1.9574
 6917SOL    HW232211   0.107   3.004   6.726 -0.1536  0.0094  0.3532
 6918SOL     OW32212   4.236   0.274   3.878 -0.2942  0.5768  0.6297
 6918SOL    HW132213   4.213   0.321   3.958 -1.4887  0.5706  0.2966
 6918SOL    HW232214   4.301   0.214   3.914 -1.0144 -1.8509 -2.1529
 6919SOL     OW32215   4.399   4.343   6.559  0.1899 -0.4912 -0.3470
 6919SOL    HW132216   4.376   4.341   6.652 -0.2637  1.2084 -0.4344
 6919SOL    HW232217   4.494   4.349   6.571  0.0816  0.4244 -0.0012
 6920SOL     OW32218   0.017   4.533   3.156  0.1659 -0.3290 -0.0067
 6920SOL    HW132219   0.043   4.553   3.066  0.9656  2.6226  0.8785
 6920SOL    HW232220   0.053   4.607   3.206  0.6670  1.0983 -2.4721
 6921SOL     OW32221   4.302   3.831  12.660  0.1748 -0.3089  0.2903
 6921SOL    HW132222   4.372   3.801  12.718 -0.6539 -2.7311  0.0325
 6921SOL    HW232223   4.330   3.794  12.576 -0.7530 -1.1727  0.3641
 6922SOL     OW32224   1.763   0.899  17.549 -0.1179 -0.2981  0.5569
 6922SOL    HW132225   1.758   0.932  17.460 -0.6004 -0.3277  0.5759
 6922SOL    HW232226   1.691   0.949  17.586 -1.1099 -1.2842 -0.0257
 6923SOL     OW32227   2.178   4.606   8.369  0.0477  0.1951 -0.2127
 6923SOL    HW132228   2.125   4.677   8.334  1.1397  0.9960 -0.2424
 6923SOL    HW232229   2.214   4.569   8.288  1.2105  1.2633 -0.1804
 6924SOL     OW32230   2.358   2.141   7.472 -0.6992  0.7046  0.4116
 6924SOL    HW132231   2.291   2.116   7.536  1.1160 -0.6733  1.7709
 6924SOL    HW232232   2.323   2.219   7.429  1.5186  3.4754  3.6964
 6925SOL     OW32233   0.061   3.579   6.793 -0.2382 -0.1177  0.3251
 6925SOL    HW132234   0.152   3.583   6.764 -0.3434 -1.3152 -0.1582
 6925SOL    HW232235   0.072   3.630   6.874 -1.1088 -0.1585  0.4757
 6926SOL     OW32236   0.574   2.660   2.884 -0.0235  0.3102  0.4777
 6926SOL    HW132237   0.556   2.691   2.973  1.7351 -1.8743  1.6003
 6926SOL    HW232238   0.503   2.706   2.841  0.0694  1.2658  1.3275
 6927SOL     OW32239   2.490   4.475  16.974  0.6099 -0.2080 -0.1091
 6927SOL    HW132240   2.502   4.381  16.987 -0.5466 -0.0800  1.8841
 6927SOL    HW232241   2.395   4.478  16.962  0.4293  0.3357  1.4879
 6928SOL     OW32242   2.722   1.657   8.626 -0.3494 -0.5415 -0.3908
 6928SOL    HW132243   2.773   1.578   8.646 -0.7239 -1.3180 -2.5753
 6928SOL    HW232244   2.638   1.622   8.656 -0.3428 -0.7010 -0.5603
 6929SOL     OW32245   0.266   3.074   8.754 -0.0460 -0.1177 -0.1252
 6929SOL    HW132246   0.207   3.022   8.808  1.2610 -1.7657 -0.3060
 6929SOL    HW232247   0.218   3.157   8.758  2.0112  1.2043 -2.8084
 6930SOL     OW32248   1.954   1.429   3.318 -0.3082  0.3717 -0.1719
 6930SOL    HW132249   2.005   1.475   3.386  0.6061 -0.1252 -0.5275
 6930SOL    HW232250   2.028   1.397   3.267 -0.7415  1.9368 -1.7801
 6931SOL     OW32251   2.440   3.763   9.806  0.0774  0.2983 -0.1348
 6931SOL    HW132252   2.385   3.825   9.758 -0.9420 -0.8509 -0.4388
 6931SOL    HW232253   2.517   3.760   9.749  1.1164 -1.9585  1.4005
 6932SOL     OW32254   3.144   2.289  15.214  0.0444 -1.0432 -0.4738
 6932SOL    HW132255   3.129   2.336  15.132  1.8171  2.4782  1.1705
 6932SOL    HW232256   3.068   2.232  15.214 -0.2570 -0.6683  2.7355
 6933SOL     OW32257   1.967   3.424   6.841  0.1270  0.6112  0.2067
 6933SOL    HW132258   2.035   3.412   6.907  2.8248 -3.4683 -3.2870
 6933SOL    HW232259   1.891   3.384   6.882  1.2008 -2.4067 -0.7582
 6934SOL     OW32260   2.311   0.024  14.698  0.3950 -0.0318  0.1484
 6934SOL    HW132261   2.239   4.682  14.690  0.5099 -0.2514  0.8752
 6934SOL    HW232262   2.389   4.694  14.718 -1.3335 -2.4733  0.6768
 6935SOL     OW32263   4.685   0.412   9.826  0.0102 -0.4738 -0.5088
 6935SOL    HW132264   4.708   0.375   9.912  0.6503  0.1153 -0.4260
 6935SOL    HW232265   4.620   0.352   9.790  0.2394  0.3442 -2.2712
 6936SOL     OW32266   0.210   1.330   3.987 -0.6115  0.5538 -0.2504
 6936SOL    HW132267   0.165   1.288   3.914 -0.0711 -1.4818  0.5999
 6936SOL    HW232268   0.237   1.259   4.044  1.9500 -0.3197 -2.5752
 6937SOL     OW32269   2.585   3.558   8.814 -0.3660  0.5067  0.0979
 6937SOL    HW132270   2.501   3.584   8.853  0.0651 -2.0188  2.7345
 6937SOL    HW232271   2.585   3.606   8.731 -4.2429 -0.6042 -0.5360
 6938SOL     OW32272   3.086   0.636   6.278 -0.0820 -0.2903  0.0556
 6938SOL    HW132273   3.149   0.686   6.331  0.9600 -0.5168 -0.9716
 6938SOL    HW232274   3.144   0.574   6.233  0.6587  1.4416 -1.3760
 6939SOL     OW32275   1.785   2.499   6.773 -0.3106 -0.5075 -0.0335
 6939SOL    HW132276   1.721   2.428   6.781  0.4018 -1.2901 -1.3679
 6939SOL    HW232277   1.860   2.462   6.727 -2.3626 -2.2612 -1.9744
 6940SOL     OW32278   0.034   0.117   9.700  0.5660 -0.4880 -0.1693
 6940SOL    HW132279   0.107   0.169   9.666  0.7242 -0.8955 -0.4551
 6940SOL    HW232280   0.032   0.045   9.636  2.0643 -0.9926  0.3550
 6941SOL     OW32281   2.865   3.526  10.255  0.2998 -0.2767 -0.3447
 6941SOL    HW132282   2.821   3.529  10.170 -0.1242  0.8369 -0.0852
 6941SOL    HW232283   2.933   3.461  10.238  0.1944 -1.6539  4.5357
 6942SOL     OW32284   0.643   0.344  17.361  0.2271 -0.4772  0.4783
 6942SOL    HW132285   0.714   0.345  17.426 -0.5643  1.4304  1.3253
 6942SOL    HW232286   0.638   0.248  17.360  0.3188 -0.4562 -1.2831
 6943SOL     OW32287   1.872   1.930   1.783 -0.6701  0.1039 -0.3575
 6943SOL    HW132288   1.856   2.014   1.741 -2.5598 -0.6563 -1.1809
 6943SOL    HW232289   1.951   1.949   1.834 -1.5554  1.0098  0.6808
 6944SOL     OW32290   1.176   0.826   3.309 -0.2711  0.6745 -0.3106
 6944SOL    HW132291   1.206   0.911   3.278  0.5980  0.6658  0.5035
 6944SOL    HW232292   1.193   0.778   3.228 -2.5943  1.7172 -1.4299
 6945SOL     OW32293   0.707   3.567  16.876 -0.1197 -0.1055 -0.0234
 6945SOL    HW132294   0.621   3.608  16.888 -0.6458 -0.8847 -1.1284
 6945SOL    HW232295   0.742   3.620  16.804  1.5736 -1.4243 -0.1880
 6946SOL     OW32296   3.925   1.928   3.273  1.2176  0.6471 -0.2011
 6946SOL    HW132297   3.889   2.011   3.244  1.7311  0.7340 -0.5833
 6946SOL    HW232298   3.943   1.959   3.362  1.3299  0.8425 -0.2922
 6947SOL     OW32299   3.655   2.931  17.609  0.2930 -0.2617 -0.3130
 6947SOL    HW132300   3.639   2.915  17.517 -0.8644  0.5188 -0.2403
 6947SOL    HW232301   3.671   3.025  17.606 -0.1146 -0.2881 -2.6083
 6948SOL     OW32302   1.662   0.554   3.421 -0.3169 -0.5906  0.3064
 6948SOL    HW132303   1.756   0.537   3.418 -0.6964 -2.6484 -0.1355
 6948SOL    HW232304   1.636   0.568   3.330 -0.7444 -0.3341  0.4660
 6949SOL     OW32305   1.348   4.362   9.141  0.3320 -0.0089 -0.5744
 6949SOL    HW132306   1.300   4.444   9.131 -1.7986 -1.2948 -0.9473
 6949SOL    HW232307   1.279   4.296   9.134  0.2350 -0.0329  0.5125
 6950SOL     OW32308   3.377   1.368   6.593 -0.1728  0.8380 -0.2617
 6950SOL    HW132309   3.416   1.301   6.649  0.3993  0.5455 -0.9988
 6950SOL    HW232310   3.286   1.338   6.586  0.7429 -2.0001  0.1216
 6951SOL     OW32311   3.970   1.664   5.349 -0.9958  0.3504 -0.7374
 6951SOL    HW132312   3.922   1.705   5.422 -1.0818  0.0779 -0.6393
 6951SOL    HW232313   3.950   1.572   5.369  1.0662  0.2693  0.8987
 6952SOL     OW32314   4.343   1.409   6.515  0.4010  0.1637  0.0268
 6952SOL    HW132315   4.286   1.477   6.551  0.7418  1.2225 -1.4514
 6952SOL    HW232316   4.414   1.460   6.476  0.9396 -1.5741 -1.2443
 6953SOL     OW32317   4.357   2.140   7.654  0.5011  0.2724  0.0472
 6953SOL    HW132318   4.365   2.089   7.734  0.8147 -0.7459 -0.6289
 6953SOL    HW232319   4.302   2.076   7.609  3.1584 -2.7608  1.1099
 6954SOL     OW32320   0.629   2.361   3.486  0.3448  0.7422  0.0833
 6954SOL    HW132321   0.578   2.285   3.457  1.8792 -1.1472  2.3170
 6954SOL    HW232322   0.695   2.316   3.539 -1.3103 -0.5284  1.0777
 6955SOL     OW32323   4.457   0.975   8.549  0.1218  0.2685 -0.3392
 6955SOL    HW132324   4.403   1.033   8.602 -2.5529 -0.7364 -2.0225
 6955SOL    HW232325   4.455   0.893   8.599 -2.2956 -0.4596 -1.6671
 6956SOL     OW32326   3.953   2.139  10.405 -0.1342  0.0623  0.6246
 6956SOL    HW132327   3.983   2.230  10.409  1.1540 -0.3615  0.6594
 6956SOL    HW232328   3.964   2.109  10.496 -2.1784 -3.4551 -0.2820
 6957SOL     OW32329   3.959   2.977   3.319 -0.0624  0.0964 -0.1419
 6957SOL    HW132330   3.925   2.894   3.286  0.2300 -0.9134  2.0848
 6957SOL    HW232331   3.909   3.041   3.269 -0.4091 -1.2553 -1.5260
 6958SOL     OW32332   3.414   3.742   6.406  0.0678 -0.0909  0.1970
 6958SOL    HW132333   3.473   3.791   6.462  3.4193 -2.7652 -0.9819
 6958SOL    HW232334   3.367   3.684   6.466 -0.6862  2.2189  1.8164
 6959SOL     OW32335   3.495   0.264   6.016  0.3810  0.3202 -0.1118
 6959SOL    HW132336   3.432   0.336   6.025 -0.4871 -0.5292  0.6367
 6959SOL    HW232337   3.566   0.294   6.074  0.9124 -3.3329  1.0858
 6960SOL     OW32338   0.895   4.317   3.378  0.1391  0.3023  0.2433
 6960SOL    HW132339   0.915   4.318   3.472 -1.4603 -2.2584  0.6209
 6960SOL    HW232340   0.897   4.224   3.357  4.6926  0.2105  1.1602
 6961SOL     OW32341   1.237   1.434   5.618 -0.1395  0.3543 -0.0138
 6961SOL    HW132342   1.310   1.435   5.556  0.7609 -2.2683  1.0199
 6961SOL    HW232343   1.168   1.438   5.552  0.4631  1.2172 -0.5829
 6962SOL     OW32344   4.631   3.746   3.876 -0.4376 -0.3432  0.2112
 6962SOL    HW132345   4.583   3.801   3.814  0.8579 -1.7274 -2.0185
 6962SOL    HW232346   4.594   3.783   3.956  1.3198 -0.4557  1.0722
 6963SOL     OW32347   4.627   0.404   8.535  0.0463 -0.0834  0.2092
 6963SOL    HW132348   4.650   0.494   8.558  0.1675  0.3082 -1.4578
 6963SOL    HW232349   4.553   0.384   8.592  0.2366 -0.0354  0.4744
 6964SOL     OW32350   1.429   3.637   4.163  0.0238  0.9440 -0.5446
 6964SOL    HW132351   1.345   3.645   4.118 -0.9312  1.2152  1.2671
 6964SOL    HW232352   1.485   3.700   4.119  0.8242  0.5307 -0.1037
 6965SOL     OW32353   3.867   2.312   7.065  0.1032 -0.1125 -0.0965
 6965SOL    HW132354   3.881   2.406   7.059  1.5050 -0.3034  0.2483
 6965SOL    HW232355   3.945   2.292   7.117  1.2721  2.2215 -0.9662
 6966SOL     OW32356   2.010   1.702   5.001  0.2881 -0.8493 -0.8299
 6966SOL    HW132357   2.095   1.747   5.003 -0.7614  1.0488  0.5279
 6966SOL    HW232358   2.014   1.645   5.077  2.4301  0.7150  0.2442
 6967SOL     OW32359   0.369   1.566   8.758  0.0707 -0.4518  0.3377
 6967SOL    HW132360   0.304   1.548   8.690  1.4101 -2.2624 -0.4695
 6967SOL    HW232361   0.312   1.581   8.834  0.7741 -0.9527  0.9641
 6968SOL     OW32362   3.652   1.353   2.695  0.4382 -0.2462 -0.2940
 6968SOL    HW132363   3.623   1.308   2.775 -1.1111 -1.6280 -1.6330
 6968SOL    HW232364   3.705   1.426   2.725  0.0957  0.2285 -0.8485
 6969SOL     OW32365   1.842   0.553   4.427 -0.6723  0.1101  0.5357
 6969SOL    HW132366   1.934   0.569   4.450 -0.6948  0.5530  0.3180
 6969SOL    HW232367   1.843   0.498   4.349 -1.8962  0.9314 -0.0448
 6970SOL     OW32368   2.675   4.416   7.596  0.2730 -0.1048 -0.4743
 6970SOL    HW132369   2.734   4.488   7.574  0.5698 -0.2764 -0.2229
 6970SOL    HW232370   2.688   4.373   7.512  1.7522 -0.9636  0.1917
 6971SOL     OW32371   0.147   1.976   9.459 -0.3194 -0.1285  0.0364
 6971SOL    HW132372   0.195   1.941   9.384  1.7385 -2.4303  2.3615
 6971SOL    HW232373   0.208   2.042   9.493 -3.0494  2.3391  0.1430
 6972SOL     OW32374   0.021   2.529   9.036 -0.3918 -0.3331  0.1311
 6972SOL    HW132375   0.025   2.534   9.132 -1.2036 -1.3931  0.2204
 6972SOL    HW232376   4.673   2.594   9.024  1.2137  1.6377  1.4310
 6973SOL     OW32377   4.364   1.640  12.455 -0.7003 -0.5125  0.7973
 6973SOL    HW132378   4.278   1.670  12.423 -0.9433 -0.8946  1.0943
 6973SOL    HW232379   4.409   1.723  12.468  1.6249 -1.4877 -1.0876
 6974SOL     OW32380   3.375   0.183  13.480  0.2244 -0.3985 -0.1958
 6974SOL    HW132381   3.373   0.106  13.537 -1.1601 -0.0538  0.2183
 6974SOL    HW232382   3.294   0.176  13.430  0.5410  3.1679 -1.2112
 6975SOL     OW32383   3.578   1.936   4.817  0.5588 -0.2339 -0.2965
 6975SOL    HW132384   3.558   1.997   4.745 -1.5818 -1.5236 -0.7991
 6975SOL    HW232385   3.645   1.877   4.784 -0.4693 -2.2733  1.2642
 6976SOL     OW32386   3.860   4.015   0.409 -0.2894 -0.5580 -0.3940
 6976SOL    HW132387   3.930   4.040   0.348  0.5273  3.3763  2.1457
 6976SOL    HW232388   3.818   3.946   0.358  1.3341 -0.1824 -2.2455
 6977SOL     OW32389   1.612   3.305   4.254 -0.0171  0.5248 -0.5935
 6977SOL    HW132390   1.707   3.311   4.263  0.1809 -1.4476 -1.3787
 6977SOL    HW232391   1.607   3.277   4.162  0.3151  1.3580 -0.8713
 6978SOL     OW32392   2.006   0.341   7.662 -0.5259 -0.7098 -0.4754
 6978SOL    HW132393   2.098   0.367   7.652 -0.3632 -1.2986 -0.5008
 6978SOL    HW232394   1.998   0.354   7.756  0.4022 -0.6305 -0.4014
 6979SOL     OW32395   2.837   0.150  11.453  0.0889  0.5292 -0.4398
 6979SOL    HW132396   2.784   0.082  11.411  2.3878 -1.2400 -0.4909
 6979SOL    HW232397   2.806   0.141  11.543 -0.2235 -0.9534 -0.6886
 6980SOL     OW32398   4.404   2.267  15.923  0.1603 -0.2330 -0.3130
 6980SOL    HW132399   4.411   2.173  15.933  0.7537 -0.4130 -2.3233
 6980SOL    HW232400   4.481   2.299  15.969  0.0138  3.0331 -2.2885
 6981SOL     OW32401   3.975   4.269   1.884  0.2488 -0.7582 -0.4351
 6981SOL    HW132402   3.959   4.326   1.959  0.6489  0.0694 -0.9785
 6981SOL    HW232403   3.984   4.324   1.807 -0.5222  0.6825  0.5136
 6982SOL     OW32404   2.936   2.784  12.606  0.2616 -0.2657 -0.2427
 6982SOL    HW132405   2.897   2.840  12.673  0.2315  0.7602 -1.1268
 6982SOL    HW232406   2.980   2.713  12.653 -0.6894  0.4776  1.7486
 6983SOL     OW32407   2.408   0.200   1.595  0.0975 -0.0061 -0.4367
 6983SOL    HW132408   2.473   0.224   1.661 -1.3294 -1.4645  1.4827
 6983SOL    HW232409   2.437   0.113   1.571  0.7044  0.3312 -0.9257
 6984SOL     OW32410   1.110   1.550   2.942  0.1781 -0.7664  0.1623
 6984SOL    HW132411   1.018   1.528   2.956  0.6176 -2.4501  0.3355
 6984SOL    HW232412   1.127   1.489   2.871  6.3529  1.0771 -0.0361
 6985SOL     OW32413   3.364   4.032  17.443 -0.0807  0.4473  0.1162
 6985SOL    HW132414   3.441   4.090  17.444 -1.1515  1.8850 -0.7466
 6985SOL    HW232415   3.315   4.077  17.374 -0.8747 -0.6895 -0.0612
 6986SOL     OW32416   2.596   1.497   3.495  0.0572 -0.3383 -0.1642
 6986SOL    HW132417   2.525   1.495   3.431  2.1962  0.9118 -2.5522
 6986SOL    HW232418   2.568   1.555   3.566  1.6559  0.6514 -0.3585
 6987SOL     OW32419   0.730   2.598   2.606 -0.0099  0.0249 -0.3182
 6987SOL    HW132420   0.684   2.624   2.686  0.8339  0.9023 -0.1092
 6987SOL    HW232421   0.737   2.685   2.568  0.8494 -0.1844 -0.6489
 6988SOL     OW32422   1.335   3.385   7.550 -0.2719 -0.4249  0.3529
 6988SOL    HW132423   1.412   3.414   7.502  0.3275  0.0853  1.6559
 6988SOL    HW232424   1.295   3.462   7.589  0.8410 -0.2431  1.1159
 6989SOL     OW32425   1.341   3.555  10.945 -0.0352  0.1394  0.4761
 6989SOL    HW132426   1.419   3.503  10.925 -0.7938 -1.3634  1.3682
 6989SOL    HW232427   1.336   3.614  10.870  0.6033  1.8372  1.7651
 6990SOL     OW32428   2.681   3.961   8.863  0.3343  0.1272  0.6904
 6990SOL    HW132429   2.599   3.944   8.911 -0.8548  3.0380 -0.3333
 6990SOL    HW232430   2.729   3.879   8.879  0.5906 -0.4058 -2.8862
 6991SOL     OW32431   0.104   2.487   6.598  0.1046 -0.4038 -0.0567
 6991SOL    HW132432   0.128   2.538   6.676  0.9412 -1.9996  0.7220
 6991SOL    HW232433   0.027   2.443   6.633 -1.4925 -0.9145 -4.1898
 6992SOL     OW32434   0.303   4.451   6.005 -0.0295  0.5816  0.5335
 6992SOL    HW132435   0.225   4.486   5.963  0.1263  0.2392 -0.0308
 6992SOL    HW232436   0.353   4.528   6.033  0.7358 -0.6344  2.4753
 6993SOL     OW32437   1.575   2.189  16.809  0.0148  0.0534  0.4415
 6993SOL    HW132438   1.669   2.211  16.810 -0.0345  0.2277  1.0059
 6993SOL    HW232439   1.559   2.219  16.719 -0.1651 -3.5117 -0.7261
 6994SOL     OW32440   3.764   0.779   5.588  0.2050 -0.1935  0.3047
 6994SOL    HW132441   3.685   0.756   5.636  0.0913 -2.4496 -0.9253
 6994SOL    HW232442   3.733   0.760   5.499  1.1575 -2.9906  0.5473
 6995SOL     OW32443   1.344   2.274   5.620  0.1164 -0.7356  0.5492
 6995SOL    HW132444   1.321   2.329   5.544  0.3490 -1.4694 -0.0574
 6995SOL    HW232445   1.263   2.278   5.671  0.0404 -1.8231  0.5159
 6996SOL     OW32446   1.031   4.472   2.914  0.1877 -0.0747  0.5247
 6996SOL    HW132447   1.043   4.469   3.009  2.0324 -0.5762  0.2576
 6996SOL    HW232448   0.975   4.397   2.896  0.0891  0.1733 -0.1963
 6997SOL     OW32449   4.249   3.088   9.081  0.0109 -0.1839 -0.1252
 6997SOL    HW132450   4.227   3.177   9.109 -1.7791 -1.0702  1.3257
 6997SOL    HW232451   4.342   3.094   9.059  0.3400  1.2690  1.6108
 6998SOL     OW32452   1.553   4.476   9.290 -0.2957  0.3704  0.2464
 6998SOL    HW132453   1.491   4.411   9.255 -1.1623  0.9432  0.7236
 6998SOL    HW232454   1.580   4.427   9.368  0.9982  1.1378  0.2823
 6999SOL     OW32455   4.110   3.413   2.272  0.5306  0.6873  0.0830
 6999SOL    HW132456   4.015   3.405   2.274  0.7141 -0.9261  1.7072
 6999SOL    HW232457   4.135   3.321   2.281  0.3861  0.6031 -0.3665
 7000SOL     OW32458   2.528   0.939   5.559  0.1735 -0.0326 -0.2665
 7000SOL    HW132459   2.511   0.989   5.479 -2.9524 -1.5221 -0.5637
 7000SOL    HW232460   2.437   0.917   5.580  0.8050 -3.2444 -0.8925
 7001SOL     OW32461   3.139   3.761  11.304 -0.6847 -0.1803 -0.1662
 7001SOL    HW132462   3.088   3.818  11.247 -2.6458 -1.8427 -0.0475
 7001SOL    HW232463   3.166   3.692  11.243 -1.6289 -1.9344  1.3980
 7002SOL     OW32464   3.050   2.806   3.369  0.1237  0.8482  0.0256
 7002SOL    HW132465   2.995   2.815   3.291 -2.4525  0.7444  1.8512
 7002SOL    HW232466   3.094   2.891   3.376 -0.7671  1.4049 -1.2124
 7003SOL     OW32467   2.316   0.303   9.129  0.5085  0.1058  0.5578
 7003SOL    HW132468   2.352   0.272   9.045 -2.1877 -0.4003 -0.4134
 7003SOL    HW232469   2.222   0.314   9.114  0.4495 -2.0239 -0.7064
 7004SOL     OW32470   1.930   1.387   6.062  0.2320  0.0839 -0.1230
 7004SOL    HW132471   1.911   1.453   5.995  2.3303  0.5033 -0.2788
 7004SOL    HW232472   1.885   1.425   6.138 -0.9014  2.0108 -1.7449
 7005SOL     OW32473   4.043   3.987   4.521 -0.0392 -0.1225  0.4190
 7005SOL    HW132474   3.962   4.022   4.560  0.5005  2.1477 -0.4932
 7005SOL    HW232475   4.094   3.975   4.601  0.2084  2.9575  0.7272
 7006SOL     OW32476   0.472   0.073  13.241 -0.5874  0.0411  0.1994
 7006SOL    HW132477   0.485   4.701  13.259 -1.0784  0.2027  1.3871
 7006SOL    HW232478   0.385   0.077  13.201 -0.4818  1.7350  0.1151
 7007SOL     OW32479   4.111   4.020   2.613 -0.4916 -0.0759 -0.7465
 7007SOL    HW132480   4.183   4.070   2.573  0.7919 -1.1822  0.2258
 7007SOL    HW232481   4.128   3.933   2.579 -0.7536 -1.1827  1.9980
 7008SOL     OW32482   1.208   3.771   8.413 -0.3308 -0.0594  0.0915
 7008SOL    HW132483   1.166   3.835   8.355  1.4081  0.6963 -0.3418
 7008SOL    HW232484   1.289   3.756   8.364  0.2309  0.3988  0.8808
 7009SOL     OW32485   1.073   1.719   6.830 -0.6093  0.5259  0.0377
 7009SOL    HW132486   1.063   1.706   6.924 -0.8125  2.0846  0.2263
 7009SOL    HW232487   1.169   1.726   6.825 -0.3263 -3.2364  0.0659
 7010SOL     OW32488   3.265   3.343   3.720  0.4777 -0.3629  0.6662
 7010SOL    HW132489   3.312   3.395   3.784  0.4413 -0.3531  0.6844
 7010SOL    HW232490   3.258   3.408   3.651  0.5765  0.5354  1.5140
 7011SOL     OW32491   1.705   0.874   7.807  0.3478 -0.6632 -0.1616
 7011SOL    HW132492   1.749   0.948   7.848  0.8746 -0.9608 -0.1867
 7011SOL    HW232493   1.683   0.905   7.719  1.1627  1.4431  0.3768
 7012SOL     OW32494   1.630   0.160   4.376 -0.1401  0.5759 -0.5037
 7012SOL    HW132495   1.545   0.203   4.369 -1.1611 -0.7631  3.3408
 7012SOL    HW232496   1.600   0.089   4.319  0.4043  1.4629 -1.8902
 7013SOL     OW32497   1.130   4.333  10.088  0.0366  0.0188  0.8022
 7013SOL    HW132498   1.203   4.394  10.085 -0.1191  0.2156  1.0415
 7013SOL    HW232499   1.144   4.291  10.173  0.7876  2.2945  1.8073
 7014SOL     OW32500   4.413   2.309  16.638 -0.0533 -0.3491 -0.1590
 7014SOL    HW132501   4.440   2.293  16.728 -2.8375 -1.0867  0.5467
 7014SOL    HW232502   4.391   2.401  16.647 -0.7658 -0.6160  0.8626
 7015SOL     OW32503   4.489   0.690   3.016  0.2807 -0.1999 -0.0906
 7015SOL    HW132504   4.479   0.698   2.921  0.6248  0.8663 -0.0424
 7015SOL    HW232505   4.568   0.742   3.029 -0.7572  1.2988  0.3180
 7016SOL     OW32506   3.365   1.235   4.801  0.4553 -0.4800  0.1552
 7016SOL    HW132507   3.454   1.201   4.793  0.8765  0.6550  0.0448
 7016SOL    HW232508   3.342   1.263   4.713 -0.7016 -0.0342  0.5913
 7017SOL     OW32509   1.011   4.350  15.304  0.1528 -0.4182  0.8471
 7017SOL    HW132510   1.106   4.358  15.300 -0.1236  2.2354 -0.8040
 7017SOL    HW232511   0.986   4.435  15.267 -1.7129 -0.6332  1.6206
 7018SOL     OW32512   3.342   2.938  16.997 -0.0468 -0.2686  0.2020
 7018SOL    HW132513   3.260   2.944  17.046  1.6669  0.6732  2.9345
 7018SOL    HW232514   3.395   3.016  17.016 -0.1855 -0.0138 -0.4598
 7019SOL     OW32515   4.334   0.422   5.961 -0.3433  0.2282 -0.1759
 7019SOL    HW132516   4.242   0.443   5.975 -0.3155  2.1895 -3.0127
 7019SOL    HW232517   4.364   0.504   5.923  0.1158  0.0717 -0.1533
 7020SOL     OW32518   0.652   3.955   8.563  0.3600  0.5885 -0.3320
 7020SOL    HW132519   0.630   4.048   8.556  0.0929  0.6106  0.8211
 7020SOL    HW232520   0.668   3.947   8.469 -0.2317 -0.8760 -0.3081
 7021SOL     OW32521   4.636   4.132   5.636 -0.1975 -0.2568  0.1449
 7021SOL    HW132522   4.592   4.143   5.721 -0.3469 -1.9315  0.2917
 7021SOL    HW232523   0.007   4.110   5.643  0.5712  3.6158  2.4106
 7022SOL     OW32524   2.600   2.861  13.774  0.1449 -0.0909 -0.5800
 7022SOL    HW132525   2.559   2.847  13.860  1.0105  2.8279  0.3005
 7022SOL    HW232526   2.661   2.932  13.791 -0.9330  0.8221 -0.5105
 7023SOL     OW32527   1.949   2.343   4.295 -0.6998  0.0874  0.1037
 7023SOL    HW132528   1.963   2.396   4.217 -1.2406 -0.7358 -0.5543
 7023SOL    HW232529   1.856   2.360   4.314 -0.4147 -2.5529  3.8390
 7024SOL     OW32530   2.416   3.064   1.580 -0.3176 -0.0553  0.3836
 7024SOL    HW132531   2.374   2.978   1.573 -1.4012  0.4165  1.0387
 7024SOL    HW232532   2.375   3.124   1.517 -0.2023 -0.1294  0.2379
 7025SOL     OW32533   2.121   1.997   6.484 -0.2741 -0.2153  0.1105
 7025SOL    HW132534   2.194   1.973   6.426 -1.3575 -2.5532 -0.2972
 7025SOL    HW232535   2.139   2.083   6.520 -1.9112  0.1419  0.0759
 7026SOL     OW32536   3.483   2.852  15.378  0.4698 -0.5471  0.0436
 7026SOL    HW132537   3.558   2.844  15.320  0.0796  0.9235 -0.6716
 7026SOL    HW232538   3.463   2.946  15.376 -0.2209 -0.6720  0.9894
 7027SOL     OW32539   2.661   0.160   9.314  0.2720 -0.0216  0.7435
 7027SOL    HW132540   2.635   0.078   9.357  2.2773 -1.7269 -1.3020
 7027SOL    HW232541   2.753   0.149   9.339  0.1584 -1.2850  0.6114
 7028SOL     OW32542   4.340   3.210   5.221 -0.0844  0.6153 -0.3039
 7028SOL    HW132543   4.370   3.207   5.312  0.0266 -2.5360 -0.4428
 7028SOL    HW232544   4.294   3.126   5.221 -1.7464  1.5213  0.8285
 7029SOL     OW32545   4.148   1.993  17.360 -0.4125 -0.0927 -0.0683
 7029SOL    HW132546   4.052   1.995  17.360 -0.3707  2.2864  3.1323
 7029SOL    HW232547   4.156   1.898  17.368 -0.4927  0.2243  3.4620
 7030SOL     OW32548   1.714   2.940   9.807  0.0700 -0.4009  0.6979
 7030SOL    HW132549   1.671   2.855   9.813 -0.8993  0.0058 -0.3975
 7030SOL    HW232550   1.645   3.004   9.788  0.7458  0.3203  0.7036
 7031SOL     OW32551   2.827   2.218   0.792 -0.0672  0.0678  0.0951
 7031SOL    HW132552   2.819   2.137   0.843  2.1780 -0.1300  0.1512
 7031SOL    HW232553   2.860   2.182   0.709 -2.7814 -0.6814 -0.6742
 7032SOL     OW32554   0.016   4.602   6.742 -0.2436 -0.5048 -0.1050
 7032SOL    HW132555   4.721   4.696   6.737  0.4912 -0.3474  0.4437
 7032SOL    HW232556   0.110   4.610   6.726 -0.4648  2.0342 -0.0213
 7033SOL     OW32557   1.684   2.056   9.184  0.5040  0.0974 -0.4274
 7033SOL    HW132558   1.590   2.041   9.174  0.3700  1.3868 -1.1672
 7033SOL    HW232559   1.703   1.986   9.246 -0.6584  0.2601  0.1151
 7034SOL     OW32560   2.958   1.293  12.723  0.2494  0.0193  0.0332
 7034SOL    HW132561   3.007   1.281  12.641  0.5577 -0.4726  0.2874
 7034SOL    HW232562   3.018   1.252  12.786  0.2927 -1.5845 -1.0593
 7035SOL     OW32563   0.974   3.187  11.544 -0.2705  0.0675 -0.0573
 7035SOL    HW132564   0.960   3.217  11.633 -0.6767 -0.7122  0.1383
 7035SOL    HW232565   1.065   3.212  11.524  0.1859 -1.9938 -0.5016
 7036SOL     OW32566   1.662   3.213  10.659  0.5663  0.1488 -0.1442
 7036SOL    HW132567   1.620   3.189  10.576  2.4490 -1.2770 -0.6699
 7036SOL    HW232568   1.706   3.295  10.639 -0.1993  0.0447 -2.2925
 7037SOL     OW32569   0.806   2.559   5.600 -0.2724 -0.1188  0.1615
 7037SOL    HW132570   0.806   2.468   5.572  0.5963 -0.7414  2.2695
 7037SOL    HW232571   0.741   2.589   5.535 -0.0570 -0.6474 -0.3002
 7038SOL     OW32572   1.693   0.751   6.748  0.0581  0.1803 -0.1142
 7038SOL    HW132573   1.735   0.731   6.832 -1.1069 -0.4250  0.3291
 7038SOL    HW232574   1.764   0.733   6.687 -3.4200 -2.8554 -3.2799
 7039SOL     OW32575   0.498   0.205  12.119 -0.1840 -0.2424 -0.3083
 7039SOL    HW132576   0.418   0.244  12.154  0.8405  0.2218  1.5084
 7039SOL    HW232577   0.536   0.147  12.186 -0.1334  0.2271  0.0689
 7040SOL     OW32578   0.614   3.718   3.712 -1.1991 -0.0939  0.6297
 7040SOL    HW132579   0.582   3.667   3.786 -0.3412 -0.3179  0.8455
 7040SOL    HW232580   0.589   3.802   3.753 -2.6242 -0.2277  0.0484
 7041SOL     OW32581   4.513   0.315   2.737 -0.2007 -0.1653  0.0044
 7041SOL    HW132582   4.585   0.315   2.801  0.2370  0.4767 -0.4891
 7041SOL    HW232583   4.544   0.389   2.685  0.4627 -0.4449 -0.0037
 7042SOL     OW32584   1.468   2.978   8.288 -0.3733 -0.2470  0.1257
 7042SOL    HW132585   1.382   2.973   8.247 -0.3556 -0.8735  0.1615
 7042SOL    HW232586   1.460   3.060   8.338 -0.8964  1.8835 -3.4406
 7043SOL     OW32587   4.164   4.670  15.067 -1.3683 -0.3217 -0.0164
 7043SOL    HW132588   4.139   4.677  14.975 -1.0499 -0.5999 -0.1220
 7043SOL    HW232589   4.105   0.013  15.108 -0.5151  1.0092 -0.8675
 7044SOL     OW32590   2.785   4.524   5.130  0.0335 -0.4902 -0.3407
 7044SOL    HW132591   2.735   4.526   5.048 -1.5667 -0.6827  0.6202
 7044SOL    HW232592   2.871   4.520   5.088  0.9346 -0.3145  1.4801
 7045SOL     OW32593   1.387   0.326   9.300  0.3002 -0.0783 -0.4642
 7045SOL    HW132594   1.475   0.351   9.274 -0.6180  3.5856 -0.0492
 7045SOL    HW232595   1.381   0.232   9.286 -0.3006  0.1399 -1.6693
 7046SOL     OW32596   2.591   1.130  16.323  0.2096  0.2329  0.4522
 7046SOL    HW132597   2.641   1.093  16.251 -0.5090  1.4563 -0.6627
 7046SOL    HW232598   2.512   1.078  16.310  2.1662 -2.5863 -0.1734
 7047SOL     OW32599   1.812   1.925   4.905  1.0454 -0.2296  0.1962
 7047SOL    HW132600   1.829   1.851   4.963  0.6765 -1.4666 -1.2665
 7047SOL    HW232601   1.884   1.924   4.842  0.4660  0.3462 -0.4818
 7048SOL     OW32602   0.065   3.608  12.709  0.1788  0.2371 -0.2460
 7048SOL    HW132603   0.077   3.583  12.617 -0.2899  2.5575 -0.9259
 7048SOL    HW232604   0.100   3.532  12.756  0.8742  0.5180 -0.3189
 7049SOL     OW32605   2.822   1.743   7.349  0.1780 -0.2095 -0.1317
 7049SOL    HW132606   2.893   1.724   7.287 -1.7683 -0.9170 -2.1266
 7049SOL    HW232607   2.743   1.758   7.298  0.8113 -0.3298 -1.1694
 7050SOL     OW32608   1.111   0.789  11.959  0.0830 -0.3792 -0.1541
 7050SOL    HW132609   1.114   0.813  11.866  0.1206  4.1463  0.9875
 7050SOL    HW232610   1.172   0.716  11.962  2.7698  1.8089 -0.6815
 7051SOL     OW32611   2.205   0.476   3.946 -0.0013 -0.0811 -0.4424
 7051SOL    HW132612   2.217   0.399   4.001 -1.0490  0.3320  0.3677
 7051SOL    HW232613   2.288   0.467   3.900  0.7809  0.6338  0.8209
 7052SOL     OW32614   3.107   3.802   7.605 -0.3978  0.8121  0.6362
 7052SOL    HW132615   3.129   3.870   7.669  1.3244  0.1148  0.7843
 7052SOL    HW232616   3.041   3.846   7.550 -0.9669 -1.9180 -0.8364
 7053SOL     OW32617   4.131   1.066   9.451 -0.2220  0.1880  0.0682
 7053SOL    HW132618   4.148   1.077   9.545  0.1507 -0.2819  0.0524
 7053SOL    HW232619   4.204   1.009   9.427  2.1844  2.7912  1.1199
 7054SOL     OW32620   3.585   4.269   1.915 -0.4625  0.5697 -0.1107
 7054SOL    HW132621   3.630   4.321   1.849  0.6436 -1.1588 -0.7276
 7054SOL    HW232622   3.617   4.309   1.995 -0.4185  0.1410  0.0860
 7055SOL     OW32623   3.058   2.718  12.972  0.4740  0.3630  0.4898
 7055SOL    HW132624   3.075   2.701  12.879 -0.6480 -2.2732  0.7458
 7055SOL    HW232625   2.966   2.743  12.964  0.1511 -1.4602 -1.6467
 7056SOL     OW32626   2.628   4.467   6.354  0.0040 -0.3380 -0.0990
 7056SOL    HW132627   2.543   4.454   6.397 -1.6747  2.5006 -2.5636
 7056SOL    HW232628   2.623   4.553   6.312 -1.6656  0.9863  2.8401
 7057SOL     OW32629   4.534   2.700   9.010  0.1281  1.0323  0.8432
 7057SOL    HW132630   4.479   2.666   9.080  0.6662  0.0700  0.8043
 7057SOL    HW232631   4.523   2.794   9.014 -3.4424  0.6063  0.8505
 7058SOL     OW32632   3.078   2.644  17.224  0.0837  0.3623 -0.0786
 7058SOL    HW132633   3.063   2.649  17.129 -0.6228  2.8271  0.1811
 7058SOL    HW232634   2.996   2.604  17.252 -1.1364  2.2997 -0.8923
 7059SOL     OW32635   0.290   3.336   2.985 -0.0673  0.3599  0.0496
 7059SOL    HW132636   0.293   3.369   2.895  1.3358 -1.1231 -0.4380
 7059SOL    HW232637   0.380   3.314   3.005 -0.0467 -0.6392 -1.1783
 7060SOL     OW32638   4.246   0.892   8.976  0.5215  0.0853  0.4739
 7060SOL    HW132639   4.193   0.968   8.999  0.5011 -0.4723  2.2847
 7060SOL    HW232640   4.332   0.934   8.973  0.8693 -0.5381  1.4412
 7061SOL     OW32641   2.383   0.195   6.089  0.0492 -0.1983  0.0525
 7061SOL    HW132642   2.325   0.167   6.160 -0.9588  1.1594 -0.2244
 7061SOL    HW232643   2.366   0.288   6.072  1.3216 -0.3887 -2.2530
 7062SOL     OW32644   0.627   1.451  10.347 -0.1983  0.0791  0.5158
 7062SOL    HW132645   0.718   1.467  10.369  0.2398 -0.6112 -0.8246
 7062SOL    HW232646   0.617   1.361  10.379 -1.2797 -1.0686 -3.1014
 7063SOL     OW32647   2.499   3.121   4.091  0.2689 -0.4997 -0.1573
 7063SOL    HW132648   2.456   3.100   4.173 -2.2835  2.1569 -0.8298
 7063SOL    HW232649   2.547   3.039   4.076  1.1371  0.1136 -0.7043
 7064SOL     OW32650   4.397   3.479  10.443 -0.5683 -0.0469 -0.3239
 7064SOL    HW132651   4.366   3.529  10.518 -0.8769  0.5793 -0.8673
 7064SOL    HW232652   4.352   3.397  10.460  0.0494 -0.2697  0.2384
 7065SOL     OW32653   3.927   1.210   0.147 -0.6218  0.2561 -0.0643
 7065SOL    HW132654   3.978   1.149   0.094 -0.1820  0.7062 -0.1550
 7065SOL    HW232655   3.991   1.232   0.215 -0.0491  0.2826 -0.6134
 7066SOL     OW32656   3.981   4.400   8.169  0.3089  0.2822  0.7154
 7066SOL    HW132657   4.008   4.312   8.143  1.1044  0.4295  1.0454
 7066SOL    HW232658   3.970   4.395   8.264 -0.2676  1.7862  0.7295
 7067SOL     OW32659   4.215   3.950   6.830  0.4817  0.4373  0.1633
 7067SOL    HW132660   4.176   3.923   6.913  0.9221  0.3650  0.3496
 7067SOL    HW232661   4.295   3.983   6.871 -0.9676  3.3039  0.7027
 7068SOL     OW32662   3.102   0.756   3.627 -0.7276 -0.5977  0.0235
 7068SOL    HW132663   3.020   0.714   3.604 -1.2078  0.9104 -0.9922
 7068SOL    HW232664   3.080   0.846   3.603  0.4143 -1.5269 -4.5992
 7069SOL     OW32665   3.089   4.518   4.644 -0.1262 -0.5878  0.0308
 7069SOL    HW132666   3.101   4.431   4.680  1.5083 -0.7173 -0.8195
 7069SOL    HW232667   3.178   4.553   4.655 -0.1014 -0.8264  0.5793
 7070SOL     OW32668   0.219   1.415   2.322  0.2506  0.2511 -0.3487
 7070SOL    HW132669   0.139   1.363   2.331 -0.4034  0.8373 -2.7323
 7070SOL    HW232670   0.205   1.492   2.376  1.1269 -1.9277  2.9553
 7071SOL     OW32671   0.787   3.579   5.605  0.6379 -0.5414 -0.3274
 7071SOL    HW132672   0.707   3.532   5.581 -0.2878  1.3446 -0.8968
 7071SOL    HW232673   0.758   3.606   5.692  1.8156  0.5408 -0.2672
 7072SOL     OW32674   1.432   0.417   9.715  0.0013  0.0959 -0.1805
 7072SOL    HW132675   1.495   0.405   9.786 -0.2985 -2.9182 -0.4055
 7072SOL    HW232676   1.360   0.373   9.761  1.4614 -1.4140  0.6379
 7073SOL     OW32677   3.821   2.449  16.697  0.0562 -0.1496 -0.1159
 7073SOL    HW132678   3.809   2.389  16.771  0.2760  0.4877  0.4416
 7073SOL    HW232679   3.905   2.488  16.721  0.6091  0.1008 -2.4559
 7074SOL     OW32680   2.117   0.450   4.622 -0.1294 -0.0837 -0.6347
 7074SOL    HW132681   2.088   0.370   4.579  0.4406 -1.5613  1.7330
 7074SOL    HW232682   2.204   0.460   4.584  0.5971 -1.9620  0.5253
 7075SOL     OW32683   4.493   2.918   0.073  0.0533 -0.1891 -0.0079
 7075SOL    HW132684   4.484   2.955   0.161 -0.3830  1.0647 -0.5731
 7075SOL    HW232685   4.459   2.831   0.093 -2.0247  1.4011  3.2018
 7076SOL     OW32686   4.577   0.415   4.436 -0.2813  0.3795 -0.4347
 7076SOL    HW132687   4.588   0.409   4.341 -2.8778 -2.9555 -0.5375
 7076SOL    HW232688   4.670   0.420   4.459  0.0983 -0.5582 -1.7512
 7077SOL     OW32689   3.875   0.131  14.892  0.2743 -0.3111  0.1638
 7077SOL    HW132690   3.792   0.178  14.884  1.1902  1.6245  1.9419
 7077SOL    HW232691   3.888   0.143  14.986  1.6683  0.8518 -0.1715
 7078SOL     OW32692   0.949   1.258  12.913  0.1860 -0.0916 -0.7187
 7078SOL    HW132693   0.859   1.228  12.925  0.2672 -0.7621 -1.7156
 7078SOL    HW232694   0.945   1.273  12.818 -0.6894 -0.8428 -0.7961
 7079SOL     OW32695   3.561   0.576   6.977 -0.0987 -0.1784 -0.2013
 7079SOL    HW132696   3.536   0.575   6.884 -1.4554 -2.4468  0.1815
 7079SOL    HW232697   3.655   0.579   6.961 -0.1715  2.4332 -0.2098
 7080SOL     OW32698   1.750   2.726   6.885  0.0946 -0.1974 -0.2231
 7080SOL    HW132699   1.807   2.698   6.957 -1.8237 -1.2015  0.9092
 7080SOL    HW232700   1.756   2.648   6.829  0.2094 -0.9984  0.8973
 7081SOL     OW32701   3.155   0.908  12.910 -0.3181 -0.8253 -0.1734
 7081SOL    HW132702   3.114   0.836  12.862  0.1976  1.0479 -3.4116
 7081SOL    HW232703   3.178   0.866  12.993 -0.7051 -1.0252 -0.1682
 7082SOL     OW32704   4.072   2.897   7.036 -0.3108 -0.1401 -0.7774
 7082SOL    HW132705   4.004   2.901   6.968 -0.1701  0.2007 -0.8998
 7082SOL    HW232706   4.114   2.815   7.010 -0.1238 -0.4586  0.5234
 7083SOL     OW32707   0.515   3.713   7.483 -0.1747  0.5206  0.1066
 7083SOL    HW132708   0.432   3.669   7.502  0.8664 -3.2125 -3.9220
 7083SOL    HW232709   0.509   3.704   7.388  0.6234 -1.9595  0.2790
 7084SOL     OW32710   0.393   3.834  10.155  0.4734  0.6001  0.3327
 7084SOL    HW132711   0.334   3.761  10.172 -1.4871  1.7313 -1.5262
 7084SOL    HW232712   0.478   3.790  10.155  1.5683  2.7252  1.8331
 7085SOL     OW32713   2.382   4.505   8.176 -0.1526 -0.6298  0.6219
 7085SOL    HW132714   2.439   4.539   8.107 -1.0124 -1.0472 -0.2910
 7085SOL    HW232715   2.446   4.475   8.241  0.2840 -2.1533 -0.5287
 7086SOL     OW32716   3.393   4.337   0.719 -0.2802 -0.3930 -0.1478
 7086SOL    HW132717   3.306   4.307   0.694 -0.2701 -1.0024  0.5758
 7086SOL    HW232718   3.371   4.427   0.744  0.7345 -0.5408  1.3030
 7087SOL     OW32719   2.710   1.600   0.549 -0.1595  0.1928  0.2710
 7087SOL    HW132720   2.671   1.526   0.595  0.8150  0.0514  0.8610
 7087SOL    HW232721   2.697   1.584   0.455 -1.8542  0.6593  0.4158
 7088SOL     OW32722   1.415   1.884   7.516  0.0868  0.2600  0.1517
 7088SOL    HW132723   1.467   1.815   7.558 -1.0676  0.9851  2.8237
 7088SOL    HW232724   1.461   1.917   7.439 -1.2118  1.8123  0.0475
 7089SOL     OW32725   3.206   1.464  12.887  0.5900 -0.0862 -0.2585
 7089SOL    HW132726   3.169   1.377  12.873  2.2831 -0.4916 -2.2015
 7089SOL    HW232727   3.133   1.526  12.894  1.9525  1.3245  1.5772
 7090SOL     OW32728   2.793   1.758   4.035  0.1687 -0.0917  0.1748
 7090SOL    HW132729   2.877   1.772   3.992 -0.9619  2.1725 -1.3332
 7090SOL    HW232730   2.722   1.763   3.970  1.0021 -0.2553 -0.7459
 7091SOL     OW32731   1.738   2.286  10.438  0.4618  0.5115  0.2713
 7091SOL    HW132732   1.667   2.283  10.503  0.8973  1.8141  0.7943
 7091SOL    HW232733   1.754   2.380  10.433 -1.6730  0.8404 -0.2494
 7092SOL     OW32734   1.722   0.715   4.191 -0.6568 -0.1920  0.4783
 7092SOL    HW132735   1.762   0.637   4.151 -1.1091  0.7694 -1.8497
 7092SOL    HW232736   1.651   0.734   4.130 -0.9087 -1.3993  0.3940
 7093SOL     OW32737   3.176   3.917   0.813  0.3574  0.0842 -0.0691
 7093SOL    HW132738   3.083   3.934   0.797 -0.4296 -3.2302  1.1207
 7093SOL    HW232739   3.197   3.963   0.895 -0.2949  0.1014  0.0941
 7094SOL     OW32740   1.281   2.274  11.855  0.0404  0.2565 -0.1643
 7094SOL    HW132741   1.189   2.299  11.850 -0.9566 -3.8527 -1.4876
 7094SOL    HW232742   1.327   2.357  11.868 -0.1308  0.1861  0.9122
 7095SOL     OW32743   0.496   1.980   5.920  0.5584  0.1098  0.6030
 7095SOL    HW132744   0.489   1.947   5.830 -1.6113  0.7997  0.5337
 7095SOL    HW232745   0.415   1.942   5.953  1.9906 -0.3658  3.5616
 7096SOL     OW32746   1.024   1.893   4.316 -0.0164  0.2314 -0.6146
 7096SOL    HW132747   0.961   1.924   4.250 -0.9936 -1.5350 -0.5075
 7096SOL    HW232748   0.977   1.912   4.398  1.7420  0.6398  0.2980
 7097SOL     OW32749   0.653   0.772  12.357  0.2091  0.4398  0.2428
 7097SOL    HW132750   0.673   0.690  12.402  1.0374  0.3222 -0.3491
 7097SOL    HW232751   0.570   0.788  12.402 -0.0069 -0.5865  0.2061
 7098SOL     OW32752   3.777   1.331   0.767 -0.2041  0.1327  0.1047
 7098SOL    HW132753   3.802   1.423   0.776  2.1895 -0.6832  1.7293
 7098SOL    HW232754   3.747   1.307   0.855 -1.5747 -1.2867 -0.7453
 7099SOL     OW32755   3.292   2.375   7.430 -0.1692  0.5701  0.7635
 7099SOL    HW132756   3.246   2.459   7.426 -2.2940 -0.6486 -0.6705
 7099SOL    HW232757   3.213   2.327   7.403 -0.6189  0.9588  1.3857
 7100SOL     OW32758   1.964   1.235  12.948 -0.3947  0.1212  1.1058
 7100SOL    HW132759   1.916   1.171  13.000  0.7384 -0.1351  1.8432
 7100SOL    HW232760   1.974   1.193  12.862 -1.8545  0.0352  0.9884
 7101SOL     OW32761   0.545   1.114   7.332 -0.6762  0.1896 -0.1198
 7101SOL    HW132762   0.525   1.107   7.425 -1.1534 -0.4753 -0.2665
 7101SOL    HW232763   0.581   1.027   7.317 -1.3062  0.1810 -1.5637
 7102SOL     OW32764   1.840   4.244   6.982  0.6851 -0.2565  0.0571
 7102SOL    HW132765   1.810   4.259   7.071 -2.1748  1.7156 -1.2487
 7102SOL    HW232766   1.840   4.149   6.968 -2.3691 -0.2105 -0.2287
 7103SOL     OW32767   0.838   3.594   2.218  1.1471 -0.0740 -0.2909
 7103SOL    HW132768   0.775   3.533   2.257  0.0203  0.4357 -1.3425
 7103SOL    HW232769   0.899   3.526   2.189  0.1920 -0.5073 -1.2671
 7104SOL     OW32770   4.022   0.691   6.154 -0.0663 -0.2486  0.3154
 7104SOL    HW132771   4.058   0.740   6.228 -1.1583  0.9892  0.0208
 7104SOL    HW232772   3.941   0.737   6.133  0.1596 -1.2844 -2.8080
 7105SOL     OW32773   2.693   3.486   5.072 -0.1415  0.0779  0.3000
 7105SOL    HW132774   2.636   3.490   4.995  0.8279 -1.4898 -0.4903
 7105SOL    HW232775   2.645   3.552   5.122 -2.0451 -1.0657  0.0219
 7106SOL     OW32776   2.067   4.208   9.159 -0.3934 -0.0617 -0.0599
 7106SOL    HW132777   1.973   4.200   9.149 -0.2507 -0.6270 -0.8809
 7106SOL    HW232778   2.074   4.304   9.156  1.5135 -0.1666  0.5915
 7107SOL     OW32779   4.178   0.203   4.781  0.1607  0.8331  0.0598
 7107SOL    HW132780   4.262   0.245   4.765  0.0288  1.1197  0.1095
 7107SOL    HW232781   4.118   0.277   4.791  1.4642  1.8337  0.4764
 7108SOL     OW32782   0.029   4.087   8.052 -0.0436 -0.0486  0.6779
 7108SOL    HW132783   0.106   4.080   7.995 -0.0846 -3.7055  1.0713
 7108SOL    HW232784   4.707   4.006   8.025  0.2091  0.6204 -1.6885
 7109SOL     OW32785   2.609   2.205   3.421 -0.2491  0.0397  0.2387
 7109SOL    HW132786   2.601   2.300   3.433  0.7052  0.1445 -0.0088
 7109SOL    HW232787   2.572   2.193   3.334  1.1495  0.7441 -0.4410
 7110SOL     OW32788   2.232   4.458  16.912  0.0084 -0.3079 -0.0681
 7110SOL    HW132789   2.153   4.403  16.917 -0.1434  0.1038  2.2441
 7110SOL    HW232790   2.261   4.444  16.822 -0.9472 -0.9246 -0.2817
 7111SOL     OW32791   4.673   0.701  16.784 -0.1443 -0.1633 -0.4920
 7111SOL    HW132792   0.034   0.711  16.831  1.2775  0.5115 -3.1243
 7111SOL    HW232793   4.612   0.697  16.857 -0.6482 -1.3186 -0.9843
 7112SOL     OW32794   3.728   2.528  17.392 -0.3981  0.0830 -0.1965
 7112SOL    HW132795   3.732   2.588  17.467 -0.3920  0.9836 -0.9114
 7112SOL    HW232796   3.632   2.521  17.386 -0.4611  1.3084 -0.7549
 7113SOL     OW32797   1.898   0.698  16.672  0.0739  0.8543  0.3322
 7113SOL    HW132798   1.921   0.677  16.582  1.2071  2.6168  0.2245
 7113SOL    HW232799   1.936   0.620  16.713  0.9987 -0.2937 -2.7324
 7114SOL     OW32800   4.719   0.933  12.140  0.3892 -0.6111  0.3063
 7114SOL    HW132801   4.624   0.936  12.149  0.7311  1.1316  3.2390
 7114SOL    HW232802   0.021   0.995  12.209  0.4243 -1.5174  1.1042
 7115SOL     OW32803   0.593   4.381   3.084  0.0208  0.3987  0.6198
 7115SOL    HW132804   0.513   4.404   3.038  1.3381 -2.8144 -3.3037
 7115SOL    HW232805   0.586   4.436   3.162 -2.6727 -0.3943  0.9344
 7116SOL     OW32806   4.659   3.193   2.970  0.0324  0.3330  0.3497
 7116SOL    HW132807   4.568   3.172   2.991 -0.0447  1.9976  1.6683
 7116SOL    HW232808   4.654   3.289   2.975 -0.5818  0.2928  0.4261
 7117SOL     OW32809   4.293   1.083   6.141  0.3945  0.0044 -0.1337
 7117SOL    HW132810   4.306   1.116   6.230  4.4669 -0.1556 -0.6858
 7117SOL    HW232811   4.224   1.145   6.115  1.3858  2.2317  2.4630
 7118SOL     OW32812   2.642   3.409   3.375 -0.5601 -0.1293  0.2370
 7118SOL    HW132813   2.714   3.399   3.437 -1.9445  0.1542  1.8799
 7118SOL    HW232814   2.690   3.392   3.294 -0.0306 -1.9903  0.9385
 7119SOL     OW32815   1.824   1.116   2.043  0.8665 -0.2897  0.0856
 7119SOL    HW132816   1.747   1.172   2.041  1.6014  0.7540  1.0740
 7119SOL    HW232817   1.845   1.102   1.950 -0.6104  2.3543 -0.6443
 7120SOL     OW32818   0.663   1.982  11.548 -0.4205 -0.1349  0.0913
 7120SOL    HW132819   0.684   1.964  11.640  4.2663 -1.1926 -1.1977
 7120SOL    HW232820   0.569   1.963  11.542 -0.2968 -1.0108  0.8543
 7121SOL     OW32821   4.564   0.694   2.755 -0.5426 -0.1009  0.2716
 7121SOL    HW132822   4.514   0.667   2.678 -0.1629 -0.0200 -0.0079
 7121SOL    HW232823   4.653   0.690   2.720 -0.3136 -0.0595  0.8576
 7122SOL     OW32824   1.193   3.403   4.154  0.0999 -0.4283  0.4479
 7122SOL    HW132825   1.230   3.486   4.124 -1.0484  0.1103  0.5535
 7122SOL    HW232826   1.214   3.353   4.075 -0.5856 -0.1841  0.1091
 7123SOL     OW32827   3.920   4.249  11.747 -0.2936 -0.8850 -0.0907
 7123SOL    HW132828   3.948   4.210  11.665  0.5842 -0.8463  0.1906
 7123SOL    HW232829   3.986   4.227  11.813  1.3235 -0.0350 -1.4347
 7124SOL     OW32830   2.462   1.744   6.635 -0.6788 -0.4989 -0.1317
 7124SOL    HW132831   2.368   1.757   6.623 -0.3581  2.9155  1.1166
 7124SOL    HW232832   2.496   1.814   6.580 -1.0382 -0.3807 -0.2001
 7125SOL     OW32833   3.383   1.885   3.428 -0.2575  0.1501  0.2116
 7125SOL    HW132834   3.321   1.947   3.466 -1.6416 -0.9563 -0.2761
 7125SOL    HW232835   3.329   1.807   3.436  1.4952 -1.3168 -2.1045
 7126SOL     OW32836   2.984   3.820   4.511 -0.2387  0.2137  0.5001
 7126SOL    HW132837   3.024   3.740   4.545  0.5037  0.7673  0.9280
 7126SOL    HW232838   3.023   3.827   4.424 -0.5668  1.5173  0.4504
 7127SOL     OW32839   3.255   3.827   3.209 -0.2771 -0.1970 -0.3453
 7127SOL    HW132840   3.329   3.797   3.261 -1.7398 -0.2050  1.7022
 7127SOL    HW232841   3.308   3.859   3.136  0.0958 -0.1771 -0.0644
 7128SOL     OW32842   2.866   4.192  17.532 -0.0018  0.2825  0.1427
 7128SOL    HW132843   2.887   4.272  17.484 -1.2679 -0.0223 -0.9182
 7128SOL    HW232844   2.784   4.219  17.572 -0.5942  0.5012 -1.2019
 7129SOL     OW32845   3.329   2.246   6.118 -0.3472 -0.4162 -0.4252
 7129SOL    HW132846   3.245   2.276   6.084 -0.7990 -0.8396  0.3060
 7129SOL    HW232847   3.309   2.250   6.212  2.1529  2.3589 -0.0163
 7130SOL     OW32848   0.461   2.632   5.186 -0.0575 -0.6123 -0.5229
 7130SOL    HW132849   0.474   2.570   5.115  0.9912 -0.7692 -0.1944
 7130SOL    HW232850   0.383   2.678   5.157 -1.2288 -0.6852  2.5417
 7131SOL     OW32851   3.902   2.778  12.924  0.0723 -0.0361  0.2466
 7131SOL    HW132852   3.891   2.852  12.983 -0.9175 -0.5410  0.7011
 7131SOL    HW232853   3.933   2.818  12.843 -2.1589  0.0567 -0.5556
 7132SOL     OW32854   2.919   1.551  13.263  0.6996  0.1475 -0.3808
 7132SOL    HW132855   2.855   1.555  13.192  1.1649 -1.2235 -0.8755
 7132SOL    HW232856   2.901   1.637  13.302  1.0827 -0.8568  2.0207
 7133SOL     OW32857   0.259   3.681   6.291 -0.3136  0.2400 -0.8728
 7133SOL    HW132858   0.318   3.621   6.244  0.6350 -0.3823  1.1068
 7133SOL    HW232859   0.316   3.757   6.301  1.2461 -1.3782  2.7935
 7134SOL     OW32860   3.920   0.940  16.850 -0.1172  0.5453  0.3632
 7134SOL    HW132861   3.916   0.930  16.945  1.3395  1.5502  0.5391
 7134SOL    HW232862   4.007   0.903  16.835 -0.5722  0.1904 -1.4131
 7135SOL     OW32863   0.998   3.435   8.907  0.0886 -0.0086 -0.2685
 7135SOL    HW132864   0.998   3.507   8.844  1.3771 -0.5612 -0.9064
 7135SOL    HW232865   1.010   3.360   8.847  0.3005  0.1282 -0.3977
 7136SOL     OW32866   0.853   1.572   7.191 -0.1012  0.1672 -0.3420
 7136SOL    HW132867   0.856   1.477   7.203  0.1394  0.1834 -0.2711
 7136SOL    HW232868   0.798   1.593   7.267  0.0815  0.2180 -0.2240
 7137SOL     OW32869   4.177   2.827  17.591 -0.5621  0.1883  0.2232
 7137SOL    HW132870   4.253   2.884  17.576 -0.1345 -0.6373 -0.6931
 7137SOL    HW232871   4.143   2.856  17.676 -0.1671 -0.8641  0.7397
 7138SOL     OW32872   3.702   3.265   1.480  0.5302  0.3671  0.7285
 7138SOL    HW132873   3.728   3.191   1.425 -0.4463  1.2541 -0.9337
 7138SOL    HW232874   3.642   3.214   1.534  0.4182  0.8865  1.0973
 7139SOL     OW32875   4.663   3.433   8.971 -0.0095 -0.3583  0.0825
 7139SOL    HW132876   4.588   3.373   8.967  0.5593 -1.0540 -0.1292
 7139SOL    HW232877   4.646   3.462   9.060 -3.9248  2.5549 -1.5709
 7140SOL     OW32878   2.636   1.665   7.695  0.0691  0.0231  0.0629
 7140SOL    HW132879   2.667   1.584   7.736 -1.1871 -0.3245  0.3013
 7140SOL    HW232880   2.702   1.730   7.719  1.1645 -0.2388 -2.1706
 7141SOL     OW32881   1.734   2.023   4.454 -0.4792 -0.0336 -0.3205
 7141SOL    HW132882   1.703   1.975   4.530 -0.4896 -0.8649 -0.8554
 7141SOL    HW232883   1.657   2.001   4.402 -0.8884  0.1845  0.1944
 7142SOL     OW32884   3.195   2.912   1.107 -0.4900  0.3347 -0.0613
 7142SOL    HW132885   3.124   2.848   1.107 -1.9178  1.9241 -0.6293
 7142SOL    HW232886   3.225   2.901   1.017 -1.1407  2.3312 -0.5276
 7143SOL     OW32887   1.704   0.308   2.951 -0.1854  0.1631  0.2567
 7143SOL    HW132888   1.668   0.249   2.885 -1.5659  1.9304 -0.5354
 7143SOL    HW232889   1.679   0.387   2.905  0.1805  0.9315  1.3641
 7144SOL     OW32890   4.529   2.373  10.779  1.4496  0.4309  0.1876
 7144SOL    HW132891   4.564   2.407  10.696 -0.6655  0.0333 -0.8712
 7144SOL    HW232892   4.445   2.419  10.788  0.2870 -1.2224 -1.9324
 7145SOL     OW32893   3.671   2.107  13.491  0.9128 -0.1222  0.3792
 7145SOL    HW132894   3.581   2.089  13.516  0.9811  0.7091  1.2084
 7145SOL    HW232895   3.677   2.187  13.543 -0.0679  1.6398 -2.1645
 7146SOL     OW32896   4.420   2.595  13.139  0.0139 -0.0453 -0.3659
 7146SOL    HW132897   4.402   2.505  13.112 -1.1773  0.0230  0.2302
 7146SOL    HW232898   4.354   2.644  13.091 -0.7081 -1.3860 -0.7455
 7147SOL     OW32899   0.867   2.317   6.094  0.5264  0.3649  0.0242
 7147SOL    HW132900   0.871   2.399   6.143 -1.1211  0.7012 -0.3963
 7147SOL    HW232901   0.820   2.262   6.156  0.6180  0.7781  0.4644
 7148SOL     OW32902   0.443   4.600   4.133 -0.4373  0.0116  0.3368
 7148SOL    HW132903   0.411   4.513   4.155 -2.0394 -0.1556 -2.6041
 7148SOL    HW232904   0.432   4.590   4.039  0.0475 -2.4402  0.5473
 7149SOL     OW32905   3.255   4.433   6.287 -0.1401 -0.3642 -0.1962
 7149SOL    HW132906   3.175   4.393   6.253 -0.2164  0.1188 -0.5881
 7149SOL    HW232907   3.314   4.400   6.219 -0.2296 -1.1305  0.0983
 7150SOL     OW32908   4.057   2.829   2.933 -0.0398  0.0469 -0.4146
 7150SOL    HW132909   3.991   2.885   2.974 -1.9240 -0.9565 -2.0702
 7150SOL    HW232910   4.003   2.781   2.869 -0.0960  1.2587 -1.2743
 7151SOL     OW32911   3.978   1.526   7.338  0.3950  0.4708  0.1569
 7151SOL    HW132912   3.974   1.432   7.318  2.0960  0.7231 -1.4372
 7151SOL    HW232913   3.890   1.546   7.307  0.4160  2.1385  1.1902
 7152SOL     OW32914   1.196   1.754   1.483  0.4720 -0.2100  0.6189
 7152SOL    HW132915   1.112   1.711   1.464 -0.6389  1.9344  0.7231
 7152SOL    HW232916   1.254   1.700   1.429 -1.2575 -1.0082 -0.4623
 7153SOL     OW32917   4.563   0.137   9.448 -0.1853  0.3305  0.0340
 7153SOL    HW132918   4.618   0.069   9.487  0.3243  0.8031  0.1502
 7153SOL    HW232919   4.523   0.098   9.370 -1.5284 -0.7685  1.2891
 7154SOL     OW32920   0.789   4.689  11.607 -0.0280  0.2514  0.4640
 7154SOL    HW132921   0.767   4.648  11.690 -0.2766 -0.9537 -0.1968
 7154SOL    HW232922   0.711   0.022  11.590 -0.1625  0.0484  0.4393
 7155SOL     OW32923   3.917   1.829   5.572 -0.0294  0.3174  0.3891
 7155SOL    HW132924   4.002   1.872   5.570 -0.8607  1.8779 -1.1967
 7155SOL    HW232925   3.855   1.901   5.582 -0.7685 -0.0914 -1.2178
 7156SOL     OW32926   1.111   2.123   6.129  0.2422  0.3605  0.0463
 7156SOL    HW132927   1.185   2.148   6.184  0.3050 -0.9448  0.5576
 7156SOL    HW232928   1.037   2.141   6.187  0.2809  2.7495 -0.6497
 7157SOL     OW32929   3.193   3.021   9.307 -0.5137 -0.0588  0.3620
 7157SOL    HW132930   3.137   3.005   9.383 -0.7778 -0.1334  0.1530
 7157SOL    HW232931   3.171   3.113   9.291 -0.2093  0.2080  1.4916
 7158SOL     OW32932   4.563   1.636   9.455  0.1007 -0.4658 -0.0662
 7158SOL    HW132933   4.547   1.595   9.540  1.4810 -0.0951  0.3665
 7158SOL    HW232934   4.632   1.696   9.482  2.5611 -3.2073 -0.2813
 7159SOL     OW32935   2.245   1.834  16.472 -0.3725  0.0757  0.1404
 7159SOL    HW132936   2.272   1.783  16.396  0.5741  1.8047 -0.6847
 7159SOL    HW232937   2.289   1.782  16.539  0.7635 -1.6039 -1.9223
 7160SOL     OW32938   0.607   4.689   2.597 -0.1984 -0.4843  0.4659
 7160SOL    HW132939   0.566   4.670   2.681 -0.4761 -0.9708  0.2122
 7160SOL    HW232940   0.654   4.609   2.574 -0.2783 -0.6488  0.8721
 7161SOL     OW32941   3.830   3.195   6.088  0.3547 -0.4450 -0.0631
 7161SOL    HW132942   3.762   3.259   6.112 -0.4109 -0.3805 -2.4126
 7161SOL    HW232943   3.823   3.146   6.170 -2.6323 -0.9893 -0.6458
 7162SOL     OW32944   2.100   1.388   4.731 -0.1009  0.4055  0.1510
 7162SOL    HW132945   2.044   1.461   4.705  2.1124  1.0603 -2.8802
 7162SOL    HW232946   2.174   1.437   4.765 -1.0169  2.7080 -1.1608
 7163SOL     OW32947   2.039   0.751   1.847  0.3012  0.0880 -0.2268
 7163SOL    HW132948   2.129   0.719   1.860  0.1513 -0.5195 -0.7437
 7163SOL    HW232949   2.033   0.763   1.753  1.0977 -0.5571 -0.3618
 7164SOL     OW32950   4.617   3.416   1.883 -0.2660  0.0742  0.1262
 7164SOL    HW132951   4.638   3.475   1.811  0.2600  0.4483  0.5933
 7164SOL    HW232952   4.691   3.356   1.876  0.1207  0.4643  0.8732
 7165SOL     OW32953   3.524   0.277   8.254 -0.0697 -0.1065  0.2965
 7165SOL    HW132954   3.458   0.259   8.187  0.8253  1.6813 -1.0719
 7165SOL    HW232955   3.546   0.368   8.234 -2.0527 -0.0795 -1.8497
 7166SOL     OW32956   3.502   1.935  10.057 -0.1111  0.1627 -0.3767
 7166SOL    HW132957   3.409   1.959  10.055  0.0798  0.8316 -1.0936
 7166SOL    HW232958   3.508   1.894  10.143  0.6589  0.5374 -0.2542
 7167SOL     OW32959   3.658   3.026  13.200  0.5233  0.2479 -0.2849
 7167SOL    HW132960   3.625   3.116  13.197 -1.3777 -0.4104  0.6178
 7167SOL    HW232961   3.580   2.986  13.240  1.5644 -0.8415  0.6439
 7168SOL     OW32962   0.046   4.650   8.558  0.2189  0.4743  0.1389
 7168SOL    HW132963   0.051   0.021   8.581  0.6339  1.0787 -2.3426
 7168SOL    HW232964   0.103   4.608   8.622  0.2102  0.2694  0.0135
 7169SOL     OW32965   1.552   3.461   8.655 -0.1192  0.0037 -0.0977
 7169SOL    HW132966   1.488   3.430   8.720 -0.6354  0.9388 -0.1703
 7169SOL    HW232967   1.488   3.492   8.591  2.1117  2.3431 -1.1810
 7170SOL     OW32968   1.147   4.449   1.457 -0.3498 -0.5172  0.1242
 7170SOL    HW132969   1.191   4.473   1.376  1.2316  0.0305  1.1440
 7170SOL    HW232970   1.210   4.388   1.496 -0.0667  1.0829  2.2306
 7171SOL     OW32971   2.832   0.019   5.321 -0.0631  0.5366  0.5281
 7171SOL    HW132972   2.800   4.698   5.242  1.9196  3.6792 -1.9547
 7171SOL    HW232973   2.746   0.037   5.359 -0.0500  0.4470  0.6011
 7172SOL     OW32974   3.964   1.947  16.843  0.3778 -0.5483 -0.0533
 7172SOL    HW132975   3.947   1.875  16.904  0.4437  0.8938  1.6500
 7172SOL    HW232976   3.896   2.008  16.871  1.7890  0.6266  0.7818
 7173SOL     OW32977   4.239   1.538  17.179  0.2739 -0.5461  0.0440
 7173SOL    HW132978   4.271   1.448  17.184 -0.6685 -0.9069 -0.4069
 7173SOL    HW232979   4.313   1.586  17.142  0.7912  1.7937  4.1204
 7174SOL     OW32980   3.925   1.957   4.519 -0.1179  0.0561 -0.1805
 7174SOL    HW132981   3.946   2.050   4.523 -0.2837  0.0223  1.3294
 7174SOL    HW232982   4.002   1.917   4.559 -0.2649 -1.6367 -1.6052
 7175SOL     OW32983   0.586   2.830   5.482  0.2461 -0.0533  0.0573
 7175SOL    HW132984   0.676   2.862   5.487 -0.5689  2.5040 -1.6429
 7175SOL    HW232985   0.557   2.850   5.571  1.2965 -0.0033  0.3902
 7176SOL     OW32986   3.734   1.547   2.243  0.1951  0.4205  0.1116
 7176SOL    HW132987   3.678   1.625   2.235 -0.5136 -0.1011  0.0197
 7176SOL    HW232988   3.773   1.553   2.330  1.0287  0.3102 -0.2564
 7177SOL     OW32989   2.609   0.550  15.414  0.2169  0.3809  0.1237
 7177SOL    HW132990   2.667   0.582  15.484 -0.7357  1.4791  0.4085
 7177SOL    HW232991   2.559   0.630  15.398  0.1119  0.4036  0.5605
 7178SOL     OW32992   1.187   3.989   7.518  0.3252  0.1311  0.1506
 7178SOL    HW132993   1.094   3.965   7.526  0.4688 -0.7353 -0.8059
 7178SOL    HW232994   1.232   3.906   7.509 -0.3762  0.1330 -3.3970
 7179SOL     OW32995   2.479   4.579   7.262 -0.1197  0.0266 -0.0135
 7179SOL    HW132996   2.447   4.631   7.337 -1.0037  0.1364 -0.4659
 7179SOL    HW232997   2.512   4.644   7.199 -1.9577 -0.2337 -1.2257
 7180SOL     OW32998   2.861   1.776   2.189 -0.4722  0.0361  0.4459
 7180SOL    HW132999   2.938   1.720   2.198 -2.4547 -2.7343  0.1049
 7180SOL    HW233000   2.875   1.834   2.264  0.2157  0.5123 -0.0443
 7181SOL     OW33001   0.335   0.459   2.201  0.6406 -0.4395 -0.3175
 7181SOL    HW133002   0.426   0.446   2.230  0.9375  1.3354 -0.4780
 7181SOL    HW233003   0.331   0.373   2.158  0.0486 -0.6428  0.1349
 7182SOL     OW33004   2.431   1.808   7.536 -0.0927 -0.5059  0.5426
 7182SOL    HW133005   2.498   1.762   7.586 -0.6102 -0.9073  0.8587
 7182SOL    HW233006   2.456   1.901   7.541  1.3603 -0.8687 -0.1202
 7183SOL     OW33007   4.305   4.220  16.974 -0.0842 -0.0581 -0.0524
 7183SOL    HW133008   4.399   4.211  16.987 -0.0698 -2.8760 -2.4079
 7183SOL    HW233009   4.288   4.313  16.957  0.3391 -0.1562 -0.9609
 7184SOL     OW33010   4.216   2.439   5.128  0.1648  0.5421  0.3766
 7184SOL    HW133011   4.262   2.523   5.132  1.2683 -0.0173 -0.6564
 7184SOL    HW233012   4.287   2.381   5.156  0.2737  1.1250  1.3446
 7185SOL     OW33013   1.356   0.791   4.981  0.5490  0.6236  0.2431
 7185SOL    HW133014   1.292   0.856   5.010  0.6536  1.9136 -2.4139
 7185SOL    HW233015   1.413   0.784   5.058 -0.9399 -2.3122  1.0766
 7186SOL     OW33016   0.074   2.240   5.917  0.2951 -0.5845 -0.0323
 7186SOL    HW133017   0.080   2.160   5.863  1.9668 -3.0952  3.9017
 7186SOL    HW233018   4.701   2.236   5.935  0.4361  1.2311  1.0673
 7187SOL     OW33019   0.388   0.244   7.584 -0.4067 -0.4591 -0.2383
 7187SOL    HW133020   0.310   0.263   7.637 -0.5585 -0.4822 -0.4542
 7187SOL    HW233021   0.448   0.223   7.655 -1.5899 -1.3835  0.4874
 7188SOL     OW33022   1.728   4.057   5.416 -0.0294 -0.0721 -0.0001
 7188SOL    HW133023   1.786   4.052   5.493  0.8618  0.2238 -0.6584
 7188SOL    HW233024   1.688   4.139   5.446 -2.4006 -0.9109 -0.8920
 7189SOL     OW33025   3.935   4.670   2.289 -0.6134  0.3166 -0.1973
 7189SOL    HW133026   3.942   0.028   2.342 -1.1222 -0.0792  0.4550
 7189SOL    HW233027   3.989   4.700   2.215 -1.5149 -0.6257 -1.2541
 7190SOL     OW33028   1.120   0.532   9.908  0.4357 -0.3288  0.1559
 7190SOL    HW133029   1.159   0.448   9.887  0.5500 -0.0974 -0.5553
 7190SOL    HW233030   1.117   0.514  10.002  2.1815 -2.5341 -0.2069
 7191SOL     OW33031   2.988   3.393   4.273 -0.7208 -0.9289 -0.2466
 7191SOL    HW133032   3.000   3.359   4.185  0.9331  1.1402 -0.8065
 7191SOL    HW233033   2.997   3.487   4.259 -1.8480 -1.0702 -1.8674
 7192SOL     OW33034   1.119   4.166   9.116  0.0980 -0.0577 -0.5978
 7192SOL    HW133035   1.128   4.075   9.087  0.8751 -0.0644 -0.3557
 7192SOL    HW233036   1.121   4.169   9.212  0.3717 -0.5056 -0.5846
 7193SOL     OW33037   4.335   0.108   2.787 -0.1497 -0.1046 -0.1230
 7193SOL    HW133038   4.321   0.107   2.881 -0.3820  1.9651 -0.1468
 7193SOL    HW233039   4.390   0.186   2.781  0.9375 -0.8874 -0.3064
 7194SOL     OW33040   0.358   4.551  13.510 -0.1858  0.1908 -0.2957
 7194SOL    HW133041   0.377   4.466  13.471  0.5307  0.0593  0.3252
 7194SOL    HW233042   0.423   4.604  13.464  0.7379 -1.4464 -0.8790
 7195SOL     OW33043   0.779   1.463  11.178  1.0604  0.2761 -0.0696
 7195SOL    HW133044   0.817   1.501  11.099  2.3242 -3.1131 -1.1217
 7195SOL    HW233045   0.755   1.535  11.236  2.7978  1.5536 -0.9332
 7196SOL     OW33046   4.467   1.724   4.018 -0.1332 -0.1193  0.1570
 7196SOL    HW133047   4.535   1.658   4.005  0.0132 -0.0400  0.5113
 7196SOL    HW233048   4.487   1.783   3.945  1.0835  1.0454  1.4251
 7197SOL     OW33049   4.042   1.641   7.090 -0.3825  0.2349  0.5459
 7197SOL    HW133050   4.036   1.720   7.143  2.1855 -0.0913  1.3369
 7197SOL    HW233051   3.987   1.585   7.144  0.6392  0.5087  1.8798
 7198SOL     OW33052   1.724   2.728   8.019  0.0397 -0.3382  0.1617
 7198SOL    HW133053   1.759   2.639   8.024  2.0203  0.4097 -0.3219
 7198SOL    HW233054   1.739   2.747   7.926  1.2272 -0.5676  0.3078
 7199SOL     OW33055   4.302   4.434   5.740 -0.7470  0.1467  0.9262
 7199SOL    HW133056   4.266   4.425   5.828 -3.1527 -0.9723 -0.1745
 7199SOL    HW233057   4.293   4.524   5.708 -1.3501 -0.5534 -0.8549
 7200SOL     OW33058   3.450   3.537   6.240  0.0977 -0.0894  0.8489
 7200SOL    HW133059   3.360   3.510   6.259 -0.5711  0.3854 -1.5651
 7200SOL    HW233060   3.449   3.615   6.296  0.2184  0.8236 -0.4108
 7201SOL     OW33061   2.706   1.604   1.141  0.1382 -0.0964  0.0009
 7201SOL    HW133062   2.750   1.567   1.065  0.0452 -0.9765  0.3813
 7201SOL    HW233063   2.768   1.596   1.213  0.8483 -2.3524 -0.8495
 7202SOL     OW33064   2.687   2.144  11.341  0.5312  0.4200  0.3514
 7202SOL    HW133065   2.650   2.225  11.376  3.1353  1.2244  1.1800
 7202SOL    HW233066   2.623   2.081  11.376 -1.0163  0.9554 -1.4862
 7203SOL     OW33067   4.401   0.598   4.139 -0.4142  0.0139  0.4359
 7203SOL    HW133068   4.462   0.527   4.118  0.5012  0.3708  1.8761
 7203SOL    HW233069   4.374   0.576   4.228  0.8017  0.0230  0.8129
 7204SOL     OW33070   1.660   1.170   8.595  0.0166  0.1830  0.1746
 7204SOL    HW133071   1.579   1.190   8.548 -0.1877  0.9188  0.8356
 7204SOL    HW233072   1.724   1.221   8.544 -0.4324  0.2772 -0.2967
 7205SOL     OW33073   0.471   3.315  16.135  0.4894 -0.0904  0.4266
 7205SOL    HW133074   0.519   3.355  16.207 -0.6739 -1.3263  1.8798
 7205SOL    HW233075   0.445   3.386  16.076 -0.6000 -0.6458  0.2361
 7206SOL     OW33076   2.271   1.822   4.992 -0.3513 -0.4382  0.5323
 7206SOL    HW133077   2.365   1.841   4.994  0.0065 -2.1502 -0.6025
 7206SOL    HW233078   2.245   1.914   4.997  0.1875 -0.2988  0.8072
 7207SOL     OW33079   0.759   2.288   5.084 -0.2394 -0.5661  0.1510
 7207SOL    HW133080   0.691   2.334   5.035  0.6635  0.2559 -0.3299
 7207SOL    HW233081   0.808   2.367   5.109 -1.5035  0.0636  0.6805
 7208SOL     OW33082   2.308   4.349  11.894 -0.1776  0.4713  0.0825
 7208SOL    HW133083   2.216   4.368  11.876 -0.4824  0.5529  1.6897
 7208SOL    HW233084   2.360   4.427  11.876  0.7873  0.1766  1.6270
 7209SOL     OW33085   0.013   0.066   7.864 -0.3631 -0.0189  0.4879
 7209SOL    HW133086   0.039   0.066   7.956 -1.0232  0.3727  0.6772
 7209SOL    HW233087   4.651   0.019   7.862 -0.5661  0.4400 -2.0438
 7210SOL     OW33088   3.235   4.567  16.667 -0.9384 -0.0855 -0.1290
 7210SOL    HW133089   3.238   4.487  16.615 -1.0119  0.1297 -0.4605
 7210SOL    HW233090   3.146   4.559  16.700  0.1698 -0.1020  2.8342
 7211SOL     OW33091   2.155   1.251   6.841  0.1057  0.1159  0.5914
 7211SOL    HW133092   2.073   1.246   6.792  0.7224 -3.0013 -0.1182
 7211SOL    HW233093   2.166   1.346   6.845 -0.1534  0.1978 -0.6934
 7212SOL     OW33094   1.866   0.814   5.876 -0.3078 -0.2590 -0.3763
 7212SOL    HW133095   1.803   0.801   5.805 -1.7897 -1.0494  1.0974
 7212SOL    HW233096   1.810   0.790   5.950  0.2989  2.3411  0.9052
 7213SOL     OW33097   2.876   0.086  15.260 -0.3629  0.1237 -0.5634
 7213SOL    HW133098   2.906   0.175  15.277 -1.2147  0.4184 -0.5909
 7213SOL    HW233099   2.899   0.025  15.331 -0.2854  0.2236 -0.5036
 7214SOL     OW33100   1.290   2.100   9.445 -0.0515  0.5463 -0.4966
 7214SOL    HW133101   1.238   2.068   9.519  0.8720 -0.3914 -0.2507
 7214SOL    HW233102   1.243   2.058   9.373 -0.5880  1.3538 -0.6156
 7215SOL     OW33103   1.115   2.688  14.015  0.0867 -0.3694  0.1567
 7215SOL    HW133104   1.126   2.707  14.108  0.0970  1.0195 -0.1392
 7215SOL    HW233105   1.023   2.714  14.006  0.0461 -0.7894 -0.6838
 7216SOL     OW33106   2.977   3.160   8.206  0.2317  0.1642  0.9787
 7216SOL    HW133107   3.021   3.117   8.279  2.2619  0.4426 -0.0893
 7216SOL    HW233108   3.022   3.244   8.210 -2.0586  1.3730  1.3846
 7217SOL     OW33109   1.762   2.125   3.121 -0.2731  0.2389  0.0097
 7217SOL    HW133110   1.701   2.192   3.088  0.4621  2.6435  3.5679
 7217SOL    HW233111   1.699   2.053   3.131  0.5131 -0.3982  0.3363
 7218SOL     OW33112   0.114   4.369   6.616 -0.5518  0.5215 -0.2720
 7218SOL    HW133113   0.186   4.332   6.667 -0.6799 -0.7578 -1.0097
 7218SOL    HW233114   0.054   4.404   6.682 -0.1875 -2.3849  1.5814
 7219SOL     OW33115   2.201   3.309   7.531 -0.1322 -0.2246  0.4238
 7219SOL    HW133116   2.260   3.245   7.569  0.0944  0.7878  1.7832
 7219SOL    HW233117   2.131   3.321   7.597  0.8577  1.2931  1.2085
 7220SOL     OW33118   1.513   3.108   9.267  0.0729  0.1998 -0.6259
 7220SOL    HW133119   1.552   3.023   9.288  2.6845  1.2362 -1.2985
 7220SOL    HW233120   1.429   3.086   9.226 -1.2420  1.6894  1.3224
 7221SOL     OW33121   2.964   1.667  16.495 -0.6009  0.1504  0.0703
 7221SOL    HW133122   2.898   1.703  16.436  0.5950  0.6042 -0.9907
 7221SOL    HW233123   2.910   1.608  16.548 -1.9673 -0.4652 -1.9840
 7222SOL     OW33124   3.260   4.290  17.010 -0.3744  0.4496  0.3234
 7222SOL    HW133125   3.318   4.285  16.935 -1.7003 -0.5858 -0.6351
 7222SOL    HW233126   3.177   4.280  16.963 -0.0772  2.1279 -0.5483
 7223SOL     OW33127   0.355   1.094   4.034 -0.1527  0.5807 -0.1847
 7223SOL    HW133128   0.412   1.039   4.088 -1.4607 -0.4308  0.1680
 7223SOL    HW233129   0.372   1.056   3.948 -0.0381  0.0263  0.0830
 7224SOL     OW33130   2.120   4.215  11.355  0.3976  0.0376 -0.7138
 7224SOL    HW133131   2.152   4.125  11.355 -2.4817 -0.9682  1.1423
 7224SOL    HW233132   2.117   4.238  11.262  0.8956 -1.2416 -1.0432
 7225SOL     OW33133   0.413   0.218   3.174 -0.0495  0.0083 -0.5566
 7225SOL    HW133134   0.344   0.269   3.216 -0.0546 -0.9339  0.5684
 7225SOL    HW233135   0.474   0.293   3.168  0.1289 -0.1652 -0.9171
 7226SOL     OW33136   3.577   3.897   1.950 -0.1255 -0.6246  0.3337
 7226SOL    HW133137   3.668   3.876   1.971 -0.5890 -1.0565  1.9271
 7226SOL    HW233138   3.548   3.809   1.925  0.6964 -1.7618  3.4330
 7227SOL     OW33139   4.464   4.073   7.824  0.2463  0.5636  0.5791
 7227SOL    HW133140   4.437   4.029   7.744 -0.0823 -1.7478  1.9418
 7227SOL    HW233141   4.551   4.104   7.802  0.4130 -1.3320 -1.4199
 7228SOL     OW33142   3.590   2.968  10.197  0.0899 -0.1382 -0.1189
 7228SOL    HW133143   3.528   2.959  10.270  0.8035  0.5022  0.5713
 7228SOL    HW233144   3.602   2.875  10.178  1.4603 -0.0292  0.2391
 7229SOL     OW33145   0.878   2.590   1.670  0.4288 -0.8556 -0.6459
 7229SOL    HW133146   0.884   2.523   1.739 -0.7786  0.6823  0.9590
 7229SOL    HW233147   0.876   2.527   1.598 -1.7524 -0.5586 -0.8398
 7230SOL     OW33148   1.159   0.476   2.114  0.1333 -0.0035 -0.5826
 7230SOL    HW133149   1.254   0.480   2.118  0.0433  2.0126 -0.6486
 7230SOL    HW233150   1.137   0.568   2.105 -1.8535 -0.5058 -0.9615
 7231SOL     OW33151   4.440   2.297  15.296 -0.1879 -0.4073  0.4192
 7231SOL    HW133152   4.385   2.329  15.368  1.5565  2.9203  0.2943
 7231SOL    HW233153   4.406   2.209  15.279 -0.5148  0.2765 -2.3980
 7232SOL     OW33154   4.283   3.569   2.399 -0.8141  0.0125 -0.3204
 7232SOL    HW133155   4.359   3.529   2.356 -1.2660 -1.0465 -0.1268
 7232SOL    HW233156   4.224   3.509   2.354 -1.6858  0.1406  0.6658
 7233SOL     OW33157   2.382   1.009  10.550  0.1968  0.0064  0.0116
 7233SOL    HW133158   2.350   0.970  10.632  0.9840  2.1774  1.3566
 7233SOL    HW233159   2.416   1.090  10.589  1.2729 -1.1521  1.5160
 7234SOL     OW33160   0.083   3.452   5.355 -0.0792  0.1133 -0.0786
 7234SOL    HW133161   0.016   3.451   5.423 -1.7547  2.9373 -1.7045
 7234SOL    HW233162   0.040   3.393   5.293  3.7703 -3.4617  0.6581
 7235SOL     OW33163   1.290   1.858  10.055 -0.5885 -0.2402 -0.4929
 7235SOL    HW133164   1.240   1.777  10.055 -0.9349 -0.0251  0.9280
 7235SOL    HW233165   1.213   1.915  10.059 -0.4235 -0.0639  0.2633
 7236SOL     OW33166   1.822   0.545   2.282 -0.4692  0.1914  0.1311
 7236SOL    HW133167   1.833   0.608   2.211  1.1783  0.3046  0.4955
 7236SOL    HW233168   1.884   0.580   2.345 -0.6782  0.6333  0.0903
 7237SOL     OW33169   3.936   2.153  13.417 -0.4657 -0.1745  0.0632
 7237SOL    HW133170   3.989   2.142  13.496 -0.1961 -0.8101 -0.2024
 7237SOL    HW233171   3.845   2.151  13.448  0.1189 -3.1963  1.5848
 7238SOL     OW33172   2.720   2.016   3.180  0.4631  0.1166 -0.2767
 7238SOL    HW133173   2.666   2.062   3.115  2.0140 -0.4348 -1.9677
 7238SOL    HW233174   2.666   1.940   3.204  0.0118  0.5415  0.0551
 7239SOL     OW33175   2.073   2.033   3.973  0.5515  0.0146 -0.2219
 7239SOL    HW133176   2.164   2.021   4.001  0.1918  1.3858  1.5305
 7239SOL    HW233177   2.066   2.118   3.930  0.9951 -0.7702 -1.8570
 7240SOL     OW33178   3.546   2.715  16.399  0.2414  0.2208  0.2780
 7240SOL    HW133179   3.579   2.634  16.438 -1.3957 -0.3743  0.4183
 7240SOL    HW233180   3.537   2.774  16.474  0.2310 -1.0523  1.2816
 7241SOL     OW33181   1.422   1.332   6.597  0.2561  0.3417 -0.0602
 7241SOL    HW133182   1.361   1.258   6.603  0.5194  0.3706  3.1827
 7241SOL    HW233183   1.452   1.320   6.507 -0.7795 -0.4228 -0.3015
 7242SOL     OW33184   2.767   2.672  12.018  0.2428 -0.0222 -0.1337
 7242SOL    HW133185   2.718   2.636  11.944 -0.6294  0.5302  0.1675
 7242SOL    HW233186   2.853   2.695  11.983  0.3336  0.7180  0.5536
 7243SOL     OW33187   2.240   1.734   7.085 -0.8026  0.0850  0.3170
 7243SOL    HW133188   2.234   1.777   7.170 -2.7969 -1.5586  0.9890
 7243SOL    HW233189   2.327   1.695   7.094  0.9789  3.5307 -1.8094
 7244SOL     OW33190   3.022   1.437  10.849  0.4858  0.9334  0.3305
 7244SOL    HW133191   2.934   1.472  10.857 -0.9795 -2.5236 -0.7089
 7244SOL    HW233192   3.054   1.460  10.762 -0.3135  1.8500  0.2840
 7245SOL     OW33193   2.535   0.930   7.715  0.2287  0.5284 -0.2011
 7245SOL    HW133194   2.503   0.955   7.802  1.4416  0.1911  0.3468
 7245SOL    HW233195   2.629   0.917   7.730 -0.0134 -0.6681  0.2577
 7246SOL     OW33196   1.683   0.312   6.254  0.4622 -0.1086 -0.2263
 7246SOL    HW133197   1.632   0.260   6.192 -0.3990 -0.2915  0.6305
 7246SOL    HW233198   1.767   0.276   6.228  0.6550 -1.2914  2.0486
 7247SOL     OW33199   1.144   4.622   8.148 -0.1596  0.6373 -0.2673
 7247SOL    HW133200   1.179   4.633   8.237  0.0201 -0.2734 -0.2241
 7247SOL    HW233201   1.222   4.631   8.092 -1.1128 -1.5905 -1.9385
 7248SOL     OW33202   0.976   1.582  10.470  0.0716  0.2939  0.5606
 7248SOL    HW133203   0.996   1.635  10.393  1.7886 -1.3327 -0.0856
 7248SOL    HW233204   1.062   1.548  10.496 -0.0149 -0.2930  0.0545
 7249SOL     OW33205   0.866   1.935   4.108 -0.0172 -0.0230 -0.0073
 7249SOL    HW133206   0.783   1.888   4.114  0.3520 -0.6283  0.4440
 7249SOL    HW233207   0.908   1.896   4.031 -0.2488  1.2292 -0.7660
 7250SOL     OW33208   2.497   4.171   1.375 -0.3414 -0.0092 -0.2964
 7250SOL    HW133209   2.418   4.121   1.356  0.0115 -0.0007 -1.7502
 7250SOL    HW233210   2.539   4.116   1.440  1.1453  0.1388 -1.1403
 7251SOL     OW33211   4.331   4.583   5.269 -0.6173  0.5954 -0.9397
 7251SOL    HW133212   4.386   4.602   5.344  1.7086 -1.4489 -2.1396
 7251SOL    HW233213   4.285   4.504   5.299  1.7550 -0.2099  0.4937
 7252SOL     OW33214   0.845   0.130   7.450  0.3453 -0.0997 -0.5137
 7252SOL    HW133215   0.849   0.041   7.414  0.0676 -0.9169  1.4680
 7252SOL    HW233216   0.839   0.185   7.372 -1.5948  1.8932  1.0454
 7253SOL     OW33217   4.074   2.027  15.105  0.2803  0.2836 -0.0100
 7253SOL    HW133218   4.136   1.954  15.098  1.0422  0.7489  2.0522
 7253SOL    HW233219   4.137   2.087  15.143  0.8821  0.3089 -1.0423
 7254SOL     OW33220   3.924   0.109   8.580 -0.7152  0.0535 -0.2103
 7254SOL    HW133221   3.834   0.110   8.611 -0.7910  0.8225 -0.4512
 7254SOL    HW233222   3.913   0.151   8.494  0.7476  1.7681  0.4288
 7255SOL     OW33223   0.142   4.345   3.444  0.0350 -0.3134  0.5402
 7255SOL    HW133224   0.218   4.395   3.414  0.6885 -0.1633  2.4454
 7255SOL    HW233225   0.091   4.355   3.364 -0.7553 -1.0005  0.9580
 7256SOL     OW33226   0.333   1.582   7.169  0.0096  0.2351  0.4100
 7256SOL    HW133227   0.409   1.524   7.162  0.6263  1.1786 -0.8002
 7256SOL    HW233228   0.364   1.673   7.174  0.8716 -0.0095 -0.5207
 7257SOL     OW33229   3.521   2.388   0.901  0.7445 -0.0505  0.1611
 7257SOL    HW133230   3.589   2.386   0.833 -0.7364  0.4392 -1.3481
 7257SOL    HW233231   3.566   2.352   0.977 -0.3433  0.3608  0.9842
 7258SOL     OW33232   2.397   2.342   4.189 -0.5053 -0.0626 -0.5592
 7258SOL    HW133233   2.383   2.388   4.106 -0.6511  1.1724  0.1478
 7258SOL    HW233234   2.435   2.411   4.244 -0.6078  1.4634 -2.4196
 7259SOL     OW33235   1.376   1.619   6.574  0.5108 -0.3795 -0.3014
 7259SOL    HW133236   1.356   1.619   6.480  2.0658  2.8520 -0.6350
 7259SOL    HW233237   1.366   1.530   6.606  0.8485 -0.7931 -1.3267
 7260SOL     OW33238   2.230   0.074  16.026  0.3554  0.2316 -0.5420
 7260SOL    HW133239   2.222   0.024  15.945 -1.7359 -1.8739  0.9758
 7260SOL    HW233240   2.319   0.050  16.051 -0.3737  0.4199  2.1534
 7261SOL     OW33241   3.830   1.398   1.981  0.6763  0.0829 -0.0166
 7261SOL    HW133242   3.796   1.454   2.051  1.4196  1.1150 -0.4753
 7261SOL    HW233243   3.909   1.361   2.019  0.7345  1.1306  0.8897
 7262SOL     OW33244   1.291   2.525   1.195  0.5862  0.3818 -0.1867
 7262SOL    HW133245   1.268   2.504   1.285 -0.4054  3.5416  0.3088
 7262SOL    HW233246   1.213   2.580   1.183 -0.0877 -0.2588  1.2866
 7263SOL     OW33247   3.176   3.020   7.137 -0.1327 -0.4750  0.1558
 7263SOL    HW133248   3.160   3.114   7.139  0.7938 -0.3392  1.1744
 7263SOL    HW233249   3.115   2.993   7.067 -2.4318  1.7927  1.2823
 7264SOL     OW33250   3.084   3.713   3.011 -0.0863 -0.5492  0.4680
 7264SOL    HW133251   3.126   3.627   3.007  0.8684 -0.0184 -0.8201
 7264SOL    HW233252   3.149   3.757   3.066  0.7133  2.0739 -2.5618
 7265SOL     OW33253   4.194   2.013  13.129  0.2867  0.0540  0.0184
 7265SOL    HW133254   4.128   1.958  13.171  0.0413 -0.4412 -1.0088
 7265SOL    HW233255   4.176   1.999  13.036 -0.8384 -1.2999  0.4384
 7266SOL     OW33256   3.798   2.018  10.155 -0.3076  0.2148 -0.6275
 7266SOL    HW133257   3.714   1.978  10.130  0.3352 -1.8879  0.5814
 7266SOL    HW233258   3.815   1.981  10.242 -0.5512  2.3183  0.3287
 7267SOL     OW33259   0.864   4.177   8.170 -0.4293 -0.1440  0.3254
 7267SOL    HW133260   0.884   4.269   8.149 -0.6758 -0.4189 -1.0627
 7267SOL    HW233261   0.889   4.163   8.262 -2.8965 -0.6257  0.9277
 7268SOL     OW33262   3.590   4.672   6.985  0.3759  0.4882 -0.3839
 7268SOL    HW133263   3.558   4.620   6.911  0.7736  1.5711 -1.3191
 7268SOL    HW233264   3.673   4.627   7.003 -0.7186 -2.0942 -1.7811
 7269SOL     OW33265   1.220   0.563   5.888 -0.1859 -0.1500  0.4035
 7269SOL    HW133266   1.149   0.533   5.831  1.0056 -2.0676 -0.0484
 7269SOL    HW233267   1.170   0.619   5.948  0.0340  0.3066  0.1646
 7270SOL     OW33268   3.652   3.662  17.114 -0.1124  0.0963  0.3016
 7270SOL    HW133269   3.736   3.706  17.129 -0.5220  1.4047 -1.2547
 7270SOL    HW233270   3.681   3.588  17.060 -0.7564 -0.3501  0.5689
 7271SOL     OW33271   4.052   2.903  15.927 -0.5184  0.6331  0.3712
 7271SOL    HW133272   4.107   2.871  15.999 -0.9853  0.0526  0.4708
 7271SOL    HW233273   3.960   2.913  15.955 -0.0058  1.5927  1.7461
 7272SOL     OW33274   4.560   2.016   0.228 -0.0646 -0.1438 -0.5301
 7272SOL    HW133275   4.609   1.990   0.306 -1.2277 -1.3541 -0.2093
 7272SOL    HW233276   4.497   1.945   0.215  0.3534 -0.7461  0.7923
 7273SOL     OW33277   0.242   1.618   3.098 -0.3732  0.0018 -0.2688
 7273SOL    HW133278   0.157   1.626   3.054  0.7300  0.9368 -2.2417
 7273SOL    HW233279   0.306   1.581   3.037 -1.0403  0.9434 -1.5436
 7274SOL     OW33280   1.747   1.209   7.507 -0.3319 -0.4424 -0.4851
 7274SOL    HW133281   1.757   1.198   7.412 -1.2363  1.2898 -0.7781
 7274SOL    HW233282   1.656   1.182   7.520 -0.5233  0.3181 -0.2249
 7275SOL     OW33283   3.668   3.885   4.667  0.0345  0.5842 -0.1206
 7275SOL    HW133284   3.616   3.857   4.742  0.9199  2.0061  1.0326
 7275SOL    HW233285   3.663   3.800   4.623 -0.1095  0.0055  1.0222
 7276SOL     OW33286   0.595   2.753   7.010  0.0355 -0.7165 -0.1308
 7276SOL    HW133287   0.664   2.816   6.990  0.2798 -0.4275  1.6976
 7276SOL    HW233288   0.634   2.702   7.081  0.8692 -1.0661 -0.8431
 7277SOL     OW33289   4.678   0.649  17.223  0.6285 -0.0000 -0.0336
 7277SOL    HW133290   4.669   0.612  17.311  2.9990  1.5483  0.8253
 7277SOL    HW233291   0.027   0.711  17.239 -2.5123  3.0632  1.8868
 7278SOL     OW33292   4.514   0.284   3.675 -0.3090 -0.4931  0.1214
 7278SOL    HW133293   4.574   0.356   3.654 -0.8512 -0.0601  0.0756
 7278SOL    HW233294   4.509   0.246   3.587  0.3849 -0.7412  0.1895
 7279SOL     OW33295   4.692   2.629   2.567  0.2918 -0.1244 -0.0146
 7279SOL    HW133296   4.600   2.651   2.576  0.0882 -0.5755 -1.0369
 7279SOL    HW233297   4.691   2.554   2.627 -2.3491 -2.5834 -3.2116
 7280SOL     OW33298   3.037   1.564   2.147 -0.2758  0.0383 -0.1096
 7280SOL    HW133299   2.947   1.541   2.123 -0.5242 -1.4351  2.1734
 7280SOL    HW233300   3.045   1.515   2.230  1.3026 -0.6599 -0.6891
 7281SOL     OW33301   1.926   2.842   3.626 -0.1164  0.1694  0.1193
 7281SOL    HW133302   1.911   2.778   3.557  1.4626  0.9489 -0.9255
 7281SOL    HW233303   1.844   2.853   3.674  0.3282  2.3007  0.3806
 7282SOL     OW33304   0.174   4.315   6.230 -0.2390 -0.0589 -0.2363
 7282SOL    HW133305   0.090   4.289   6.191 -0.8681  3.3283 -1.1233
 7282SOL    HW233306   0.209   4.380   6.169 -1.5922  0.5701 -0.3444
 7283SOL     OW33307   3.516   2.017   8.789  0.0572  0.4546  0.2661
 7283SOL    HW133308   3.482   2.103   8.767 -0.3745  0.7004  1.8835
 7283SOL    HW233309   3.510   1.983   8.700 -0.2592  1.6031 -0.1512
 7284SOL     OW33310   3.304   2.122  13.903  0.4252  0.0177 -0.2527
 7284SOL    HW133311   3.362   2.049  13.884  1.1904  0.1566  1.5928
 7284SOL    HW233312   3.222   2.091  13.863  0.6679 -0.1375 -0.6255
 7285SOL     OW33313   2.661   4.345   7.317  0.3201 -1.1089  0.6173
 7285SOL    HW133314   2.603   4.420   7.305  1.6105 -0.3389 -0.8452
 7285SOL    HW233315   2.615   4.282   7.262 -2.8598 -0.3725  2.4654
 7286SOL     OW33316   4.283   4.063   8.474 -0.3369 -0.1711 -0.0693
 7286SOL    HW133317   4.355   4.053   8.412 -0.0807 -2.2774  0.5575
 7286SOL    HW233318   4.333   4.092   8.551 -1.5678  2.0033 -0.0983
 7287SOL     OW33319   0.079   0.270  16.873 -0.3055  0.1027  0.1933
 7287SOL    HW133320   0.068   0.338  16.939  0.3496 -0.3096  0.7177
 7287SOL    HW233321   0.164   0.229  16.886 -0.5914 -0.0941  1.3692
 7288SOL     OW33322   3.917   1.762   7.515 -0.1992 -0.4943 -0.5286
 7288SOL    HW133323   3.888   1.826   7.580  1.4569 -1.6617  1.3492
 7288SOL    HW233324   3.983   1.702   7.550  0.2872  0.3233 -0.0617
 7289SOL     OW33325   2.498   3.246   9.239  0.6307 -0.5213  0.1821
 7289SOL    HW133326   2.535   3.162   9.212  0.0937  0.1283 -2.5636
 7289SOL    HW233327   2.524   3.305   9.169 -2.2304 -1.0209 -1.2868
 7290SOL     OW33328   4.120   2.397  12.997  0.2013 -0.2427 -0.2756
 7290SOL    HW133329   4.088   2.339  13.066  0.4938 -0.3699 -0.2459
 7290SOL    HW233330   4.214   2.386  13.007  0.2829  0.3922 -0.3554
 7291SOL     OW33331   1.783   2.689  10.941  0.1477 -0.3429  0.2206
 7291SOL    HW133332   1.783   2.779  10.907  2.1085 -0.1355  0.7768
 7291SOL    HW233333   1.847   2.689  11.012  1.8383  0.3300 -1.2892
 7292SOL     OW33334   3.799   1.917   5.940  0.2786 -0.4779 -0.8324
 7292SOL    HW133335   3.829   1.826   5.931  1.2938 -0.2695  0.3458
 7292SOL    HW233336   3.882   1.960   5.962  0.5482 -0.1292 -2.5641
 7293SOL     OW33337   0.674   3.394   2.376 -0.3317 -0.5027 -0.1406
 7293SOL    HW133338   0.585   3.428   2.362 -0.2512  0.1654  0.8978
 7293SOL    HW233339   0.707   3.467   2.429 -0.7966  0.9422 -1.8366
 7294SOL     OW33340   2.894   4.442   7.118 -0.7724  0.2325 -0.0250
 7294SOL    HW133341   2.980   4.410   7.145 -2.0802 -1.7680  1.7184
 7294SOL    HW233342   2.852   4.480   7.196 -2.2687  0.6502 -1.0459
 7295SOL     OW33343   2.732   0.661   0.978  0.2110  0.2173  0.1496
 7295SOL    HW133344   2.686   0.613   0.909  2.7803 -0.3787 -1.1764
 7295SOL    HW233345   2.699   0.638   1.064 -1.5233 -1.9455 -1.0853
 7296SOL     OW33346   4.146   1.845  17.112  0.3469  0.2384 -0.6828
 7296SOL    HW133347   4.211   1.775  17.106 -2.2831 -2.0616 -2.8954
 7296SOL    HW233348   4.070   1.799  17.075 -1.0614  2.0368 -0.0293
 7297SOL     OW33349   2.685   3.745   8.597 -0.3462  0.1903  0.6895
 7297SOL    HW133350   2.634   3.691   8.537  0.3613  1.0881 -0.7076
 7297SOL    HW233351   2.664   3.833   8.565  1.9490  0.4071 -0.1645
 7298SOL     OW33352   0.842   2.539   5.165  0.4757  0.5154  0.0951
 7298SOL    HW133353   0.880   2.499   5.243 -0.0901  0.3772  0.3052
 7298SOL    HW233354   0.783   2.607   5.198  0.6942  1.0452 -0.5989
 7299SOL     OW33355   4.579   4.220  16.987 -0.1729 -0.4058  0.2823
 7299SOL    HW133356   4.604   4.147  16.930  0.2397  1.1066 -1.5242
 7299SOL    HW233357   4.631   4.292  16.949 -0.9185  0.6120  1.2081
 7300SOL     OW33358   0.953   1.707   6.064  0.5374 -0.4896  0.3893
 7300SOL    HW133359   0.916   1.785   6.022  0.1102 -1.5668 -1.2050
 7300SOL    HW233360   1.032   1.695   6.012  0.6474  0.7584  0.2754
 7301SOL     OW33361   3.452   3.745   7.940 -0.0144 -0.1353 -0.1364
 7301SOL    HW133362   3.391   3.702   7.880  1.6728 -0.2423 -1.7778
 7301SOL    HW233363   3.418   3.834   7.945  1.4758  0.3433  1.4827
 7302SOL     OW33364   4.101   2.231   8.927  0.3878 -0.6022 -0.1693
 7302SOL    HW133365   4.111   2.192   9.014 -0.0328 -1.4465 -0.4974
 7302SOL    HW233366   4.191   2.256   8.907  0.4024  0.7957  1.6005
 7303SOL     OW33367   1.900   1.754   2.824  0.2057  0.3199 -0.2079
 7303SOL    HW133368   1.988   1.718   2.828  0.3089  0.5575 -0.3438
 7303SOL    HW233369   1.911   1.849   2.831 -0.7057  0.2296  2.3688
 7304SOL     OW33370   4.718   4.167  14.184  0.0625 -0.9238  0.3804
 7304SOL    HW133371   0.092   4.175  14.172  0.1179 -1.5195  0.4275
 7304SOL    HW233372   4.704   4.109  14.109 -0.6882  1.1013 -1.0288
 7305SOL     OW33373   3.274   2.750   5.682  0.2721  0.2533  0.1142
 7305SOL    HW133374   3.192   2.752   5.633  0.0956 -0.4469  0.3756
 7305SOL    HW233375   3.305   2.660   5.667 -0.8303 -0.3508  1.4456
 7306SOL     OW33376   0.200   2.616   8.175  0.2960 -0.0890 -0.6606
 7306SOL    HW133377   0.125   2.572   8.134  0.0342  0.0767 -0.3518
 7306SOL    HW233378   0.221   2.559   8.249  1.9667  0.4963 -0.6935
 7307SOL     OW33379   1.298   3.028   3.416  0.4487  0.2704 -0.2285
 7307SOL    HW133380   1.209   2.997   3.430  0.6392 -1.0298 -1.9850
 7307SOL    HW233381   1.286   3.067   3.329 -2.4273 -1.7704 -0.7311
 7308SOL     OW33382   2.193   3.606  13.690  0.2637 -0.4730 -0.3368
 7308SOL    HW133383   2.205   3.580  13.781  1.2773 -1.1484 -0.6595
 7308SOL    HW233384   2.214   3.699  13.687  0.6296 -0.5299  0.3690
 7309SOL     OW33385   0.570   3.547  12.820 -0.5951 -0.0906  0.0922
 7309SOL    HW133386   0.649   3.530  12.768 -1.0101 -1.0493 -0.2366
 7309SOL    HW233387   0.601   3.525  12.907 -0.8276 -0.9283 -0.0365
 7310SOL     OW33388   1.753   3.658   5.501  0.3464  0.0134  0.6984
 7310SOL    HW133389   1.844   3.676   5.523  1.2338 -3.2616 -0.2270
 7310SOL    HW233390   1.722   3.620   5.583  0.0775 -0.0781  0.5579
 7311SOL     OW33391   1.685   1.223   5.603 -0.1946  0.0937  0.0286
 7311SOL    HW133392   1.718   1.312   5.592  0.3358 -0.1927 -0.6974
 7311SOL    HW233393   1.764   1.172   5.588 -1.9568 -2.3578 -0.9607
 7312SOL     OW33394   1.741   2.006  13.005  0.0116 -0.2238 -0.2027
 7312SOL    HW133395   1.727   2.085  12.953  0.0749 -0.8700 -1.2175
 7312SOL    HW233396   1.672   2.012  13.071 -0.5105  1.3909 -0.9067
 7313SOL     OW33397   3.410   0.431   4.687 -0.1966  0.5626 -0.0843
 7313SOL    HW133398   3.353   0.430   4.763  1.0909  0.5619  0.8756
 7313SOL    HW233399   3.351   0.450   4.613  0.7933 -0.4117 -1.1310
 7314SOL     OW33400   1.204   0.913   6.690  0.6965  0.3880  0.4423
 7314SOL    HW133401   1.288   0.867   6.692  0.1343 -0.6664 -0.0256
 7314SOL    HW233402   1.192   0.926   6.785 -0.1884 -0.9737  0.5123
 7315SOL     OW33403   4.087   3.570  10.631 -0.0892  0.1454 -0.2897
 7315SOL    HW133404   4.082   3.531  10.543 -0.2767 -0.0377 -0.1962
 7315SOL    HW233405   4.048   3.654  10.607  0.4072  1.0272  2.0055
 7316SOL     OW33406   2.814   0.149   2.572 -0.3143  0.1401 -0.3680
 7316SOL    HW133407   2.770   0.071   2.537  2.5116 -1.3283 -0.6982
 7316SOL    HW233408   2.867   0.176   2.497 -1.4142 -2.8594 -2.2184
 7317SOL     OW33409   1.552   4.363   7.093 -0.0294 -0.4322  0.4817
 7317SOL    HW133410   1.466   4.330   7.119 -0.5085  0.8250  0.5107
 7317SOL    HW233411   1.602   4.291   7.130 -0.9102 -1.6973 -0.7857
 7318SOL     OW33412   3.512   1.232  15.894 -0.2577  0.1607 -0.3135
 7318SOL    HW133413   3.535   1.315  15.936  0.0336 -0.7600  1.3158
 7318SOL    HW233414   3.541   1.252  15.805  0.4006 -1.1150 -0.3834
 7319SOL     OW33415   2.745   4.045   3.933 -0.1336  0.0826 -0.1362
 7319SOL    HW133416   2.831   4.074   3.964 -0.5839  0.8541  0.3821
 7319SOL    HW233417   2.691   4.071   4.007 -0.9095 -0.6422 -0.4533
 7320SOL     OW33418   1.691   3.715   8.259 -0.1504 -0.4106  0.2583
 7320SOL    HW133419   1.694   3.710   8.354 -0.2362  0.5091  0.3086
 7320SOL    HW233420   1.668   3.807   8.251  0.0505 -0.5194 -1.6548
 7321SOL     OW33421   0.245   1.468   5.396 -0.0271  0.0782  0.4317
 7321SOL    HW133422   0.179   1.531   5.428 -2.1755 -2.7002  1.4892
 7321SOL    HW233423   0.239   1.405   5.468  1.9921 -0.2091  0.3442
 7322SOL     OW33424   0.790   0.670   5.328  0.9204 -0.5399 -0.0110
 7322SOL    HW133425   0.702   0.655   5.363  1.0577 -2.3075 -0.4109
 7322SOL    HW233426   0.837   0.644   5.407 -3.2513 -1.3114  2.2358
 7323SOL     OW33427   1.571   1.088   5.831 -0.7197  0.7347 -0.5551
 7323SOL    HW133428   1.627   1.164   5.822 -1.6688  1.6341  1.2025
 7323SOL    HW233429   1.604   1.026   5.765 -1.8624 -1.1825  0.6840
 7324SOL     OW33430   0.414   2.222  15.916 -0.3007  0.1431 -0.6148
 7324SOL    HW133431   0.490   2.248  15.969 -0.6561  0.9835 -0.5153
 7324SOL    HW233432   0.416   2.277  15.838  1.6475  0.2110 -0.5165
 7325SOL     OW33433   0.840   4.163  15.639  0.0997 -0.4692  0.0323
 7325SOL    HW133434   0.825   4.207  15.723 -2.2285 -1.3858  0.1043
 7325SOL    HW233435   0.794   4.081  15.657  1.0711 -1.4087 -1.8700
 7326SOL     OW33436   2.458   3.473   7.215 -0.4425  0.5915 -0.2505
 7326SOL    HW133437   2.379   3.420   7.227 -0.6983  1.0531  0.0800
 7326SOL    HW233438   2.469   3.465   7.120  1.6835  0.4713  0.0173
 7327SOL     OW33439   3.683   1.578  11.474 -0.2078  0.1182 -0.1495
 7327SOL    HW133440   3.596   1.571  11.436  0.1944  0.6558 -1.1782
 7327SOL    HW233441   3.708   1.665  11.442  0.7414  0.0125  0.3063
 7328SOL     OW33442   4.340   4.320   6.840 -0.7937  0.5841  0.7436
 7328SOL    HW133443   4.324   4.261   6.914 -1.4864 -0.8355 -0.5355
 7328SOL    HW233444   4.403   4.380   6.880 -0.3008 -0.3695  1.4201
 7329SOL     OW33445   3.740   2.425   9.153 -0.0601  0.4017 -0.4581
 7329SOL    HW133446   3.758   2.387   9.067  0.5652 -0.9922  0.2907
 7329SOL    HW233447   3.683   2.357   9.187 -2.2075  2.9451  1.0337
 7330SOL     OW33448   2.973   0.715   3.184  0.2585  0.0092  0.2067
 7330SOL    HW133449   3.026   0.678   3.113  0.5576 -1.6956  1.3034
 7330SOL    HW233450   2.916   0.638   3.193 -1.1382  0.9137 -0.9771
 7331SOL     OW33451   3.874   4.193   8.901 -0.3044  0.4133  0.0848
 7331SOL    HW133452   3.959   4.149   8.909  0.1715  1.7058  2.1329
 7331SOL    HW233453   3.890   4.229   8.814  0.6387 -2.3605 -0.8882
 7332SOL     OW33454   4.610   4.091   5.053 -0.1438  0.3786  0.1693
 7332SOL    HW133455   4.547   4.043   4.999  1.3315 -0.1941 -1.0316
 7332SOL    HW233456   4.659   4.147   4.992 -1.3937  0.9688 -0.2955
 7333SOL     OW33457   4.324   2.689   7.137  0.0775  0.0524  0.4874
 7333SOL    HW133458   4.310   2.747   7.212  2.2829  0.6687  0.4426
 7333SOL    HW233459   4.346   2.749   7.066  0.9107  0.9652  1.5138
 7334SOL     OW33460   0.473   3.096  15.596 -0.3337 -0.0633 -0.6425
 7334SOL    HW133461   0.472   3.001  15.601  0.9960  0.0272  1.2982
 7334SOL    HW233462   0.547   3.106  15.536 -0.8098 -0.6030 -1.3142
 7335SOL     OW33463   2.272   2.714   5.614  0.5364 -0.2882 -0.2123
 7335SOL    HW133464   2.311   2.682   5.696  0.2422  1.3388  0.5694
 7335SOL    HW233465   2.182   2.726   5.646  1.1160 -2.6659  2.3130
 7336SOL     OW33466   2.259   0.276   2.011 -0.0916  0.1632 -0.4506
 7336SOL    HW133467   2.291   0.316   2.092  0.9628  1.3036 -1.4314
 7336SOL    HW233468   2.300   0.190   2.018 -3.1258 -1.2836 -0.6919
 7337SOL     OW33469   0.719   3.819   2.341  0.5275  0.0600 -0.2425
 7337SOL    HW133470   0.768   3.742   2.312 -0.4806  0.0715 -1.9350
 7337SOL    HW233471   0.704   3.857   2.255 -1.7815  0.3072  0.2711
 7338SOL     OW33472   0.875   1.481   2.948  0.4163 -0.3265  0.3036
 7338SOL    HW133473   0.834   1.451   2.867  1.7033 -0.0070 -0.4540
 7338SOL    HW233474   0.800   1.508   3.002 -0.5470 -0.8731 -0.7635
 7339SOL     OW33475   4.153   4.644   3.106  0.3335 -0.0975 -0.3331
 7339SOL    HW133476   4.213   4.605   3.042 -1.9931 -0.2898 -2.3846
 7339SOL    HW233477   4.178   0.014   3.093 -2.6672  0.7837 -0.0299
 7340SOL     OW33478   2.142   3.475  13.442  0.1514 -0.0632  0.0979
 7340SOL    HW133479   2.098   3.447  13.362 -1.5512  1.1177  0.6061
 7340SOL    HW233480   2.133   3.570  13.434 -1.8553 -0.0318  2.5587
 7341SOL     OW33481   1.428   3.912   6.005  0.1290  0.2878  0.3397
 7341SOL    HW133482   1.435   4.006   5.987  1.0288 -0.0091 -0.8649
 7341SOL    HW233483   1.399   3.895   6.095 -0.5740  0.2169  0.0971
 7342SOL     OW33484   3.579   0.609  15.903  0.3102 -0.0939  0.3300
 7342SOL    HW133485   3.562   0.579  15.992 -1.1949  2.0871  0.7750
 7342SOL    HW233486   3.582   0.704  15.912  0.2428  0.0646 -1.2494
 7343SOL     OW33487   4.159   1.219   5.107  0.3535  0.2260  0.6938
 7343SOL    HW133488   4.246   1.239   5.072  0.0620 -2.5129 -1.6045
 7343SOL    HW233489   4.125   1.308   5.105  0.8967  0.4353  0.7913
 7344SOL     OW33490   3.606   4.324   5.860 -0.4225 -0.5076  0.0260
 7344SOL    HW133491   3.667   4.251   5.870  2.0810  1.6468  0.5484
 7344SOL    HW233492   3.594   4.315   5.765  0.1676  0.5789 -0.1470
 7345SOL     OW33493   1.570   3.652   9.232 -0.0595 -0.1594  0.3642
 7345SOL    HW133494   1.493   3.640   9.288 -0.4408  1.7197  0.2484
 7345SOL    HW233495   1.577   3.747   9.232  0.0498 -0.1808 -3.1605
 7346SOL     OW33496   4.317   0.871  16.127  0.6672 -0.6194  0.2335
 7346SOL    HW133497   4.412   0.880  16.130  0.6533  0.0650 -1.9632
 7346SOL    HW233498   4.289   0.916  16.207 -1.0054  0.4744 -0.9625
 7347SOL     OW33499   3.124   2.475   8.273  0.1779  0.0669 -0.4281
 7347SOL    HW133500   3.068   2.546   8.303 -0.9187 -1.4663  1.1730
 7347SOL    HW233501   3.058   2.406   8.266  1.7546 -1.6623  1.6807
 7348SOL     OW33502   3.153   2.519   8.899  0.2148  0.5412  0.0388
 7348SOL    HW133503   3.179   2.432   8.930  0.2215  1.0197  1.3816
 7348SOL    HW233504   3.098   2.546   8.972 -0.2241  0.0577 -0.1115
 7349SOL     OW33505   0.599   2.204   7.100  0.3912 -0.0867 -0.3696
 7349SOL    HW133506   0.669   2.259   7.064 -1.0267  1.5953 -0.5503
 7349SOL    HW233507   0.553   2.196   7.017  0.4924 -1.7591 -0.2637
 7350SOL     OW33508   1.802   2.228   3.969 -0.2136 -0.3761 -0.0608
 7350SOL    HW133509   1.851   2.148   3.987  0.2402  0.0008  0.3782
 7350SOL    HW233510   1.882   2.276   3.948 -0.2192 -0.4634 -0.2709
 7351SOL     OW33511   4.176   3.025   5.608 -0.2971 -0.3365  0.0566
 7351SOL    HW133512   4.171   3.070   5.692  0.0581  1.9302 -1.1133
 7351SOL    HW233513   4.106   3.075   5.566  0.7742  1.9720  0.9801
 7352SOL     OW33514   0.077   3.789   2.505 -0.5600 -0.3822 -0.3185
 7352SOL    HW133515   0.127   3.839   2.569 -0.0780  1.4405 -2.1018
 7352SOL    HW233516   0.050   3.716   2.560  0.9415  1.2094  2.4987
 7353SOL     OW33517   0.720   1.089   3.528  0.4931 -0.0930  0.0302
 7353SOL    HW133518   0.802   1.059   3.566 -0.4473 -1.4185  1.0402
 7353SOL    HW233519   0.748   1.100   3.437 -1.1755  0.2876 -0.4450
 7354SOL     OW33520   4.077   3.575   1.849  0.4386  0.0451 -0.1983
 7354SOL    HW133521   4.000   3.527   1.819  1.3931 -1.1217 -0.7462
 7354SOL    HW233522   4.083   3.632   1.772  0.9672 -0.2058 -0.3407
 7355SOL     OW33523   4.073   0.557  14.265  0.2010 -0.5474  0.2579
 7355SOL    HW133524   4.036   0.503  14.335  0.6956 -1.1813  0.0331
 7355SOL    HW233525   4.162   0.574  14.295  0.0124 -2.4269  1.9631
 7356SOL     OW33526   4.371   3.727   0.890 -0.0092 -1.0464 -0.0126
 7356SOL    HW133527   4.416   3.643   0.898 -1.1951 -1.5722  0.9017
 7356SOL    HW233528   4.322   3.715   0.809  0.0409 -0.6522 -0.1048
 7357SOL     OW33529   1.867   0.738   6.527 -0.0997  0.4819 -0.2397
 7357SOL    HW133530   1.940   0.695   6.573  0.7630 -1.5540 -3.4359
 7357SOL    HW233531   1.840   0.669   6.466  2.5336 -1.3901  0.6668
 7358SOL     OW33532   0.497   2.877   5.764  0.0050 -0.3083  0.0572
 7358SOL    HW133533   0.455   2.953   5.725 -0.1767 -0.5529 -0.2285
 7358SOL    HW233534   0.435   2.815   5.803 -2.3381  0.9983 -1.6135
 7359SOL     OW33535   1.922   4.099   4.694 -0.3187  0.2853 -0.5187
 7359SOL    HW133536   1.919   4.043   4.772  1.0131  4.4408  2.5088
 7359SOL    HW233537   1.872   4.176   4.720 -1.4492 -0.1454 -1.4214
 7360SOL     OW33538   1.185   0.140   7.108  0.2834 -0.2195 -0.7869
 7360SOL    HW133539   1.279   0.123   7.111  0.8501  2.6154 -2.1244
 7360SOL    HW233540   1.157   0.076   7.042 -0.6345  0.3527 -0.9591
 7361SOL     OW33541   1.201   2.718  14.285 -0.1526  0.4694 -0.0828
 7361SOL    HW133542   1.204   2.744  14.377  0.4026  1.4872 -0.3899
 7361SOL    HW233543   1.241   2.795  14.247 -2.5851  2.0062  0.4734
 7362SOL     OW33544   4.258   4.630   0.708  0.3398 -0.0468 -0.6308
 7362SOL    HW133545   4.346   4.600   0.732 -0.0251  0.5547  1.4619
 7362SOL    HW233546   4.231   4.541   0.685 -3.0610  1.0030 -0.7136
 7363SOL     OW33547   2.114   1.478  12.060  0.2218 -0.3012  0.6992
 7363SOL    HW133548   2.202   1.441  12.055  0.0178 -0.7319  0.3479
 7363SOL    HW233549   2.075   1.457  11.975 -0.2913  1.3147  0.5404
 7364SOL     OW33550   3.070   3.412   3.219 -0.0295  0.6763  0.0766
 7364SOL    HW133551   3.089   3.439   3.129  2.9744 -0.2844  0.4168
 7364SOL    HW233552   2.977   3.392   3.215 -0.1967  1.1801  1.4614
 7365SOL     OW33553   4.244   3.966   3.773  0.0214  0.3402 -0.1282
 7365SOL    HW133554   4.201   3.936   3.853 -2.1176 -3.0914 -2.5349
 7365SOL    HW233555   4.182   4.019   3.722  1.1313  0.3513 -1.4676
 7366SOL     OW33556   3.659   2.298   8.201 -0.4219  0.4357  0.9327
 7366SOL    HW133557   3.725   2.343   8.147  0.6836 -1.8651  0.3791
 7366SOL    HW233558   3.623   2.232   8.142 -1.0607  0.9712  0.7143
 7367SOL     OW33559   3.610   3.661   9.748  0.7206  0.3199  0.2931
 7367SOL    HW133560   3.680   3.694   9.804  2.1285 -0.7377 -0.8087
 7367SOL    HW233561   3.650   3.585   9.704 -3.6200 -0.8789 -1.5641
 7368SOL     OW33562   1.736   3.073   0.796  0.8931 -0.2308 -0.1884
 7368SOL    HW133563   1.656   3.029   0.766  0.0599 -0.2855  2.1181
 7368SOL    HW233564   1.747   3.139   0.727  0.2873  0.5595  0.4771
 7369SOL     OW33565   3.121   2.328   5.369  0.6839  0.0014  0.6840
 7369SOL    HW133566   3.084   2.240   5.371 -1.5275  0.9211  0.5889
 7369SOL    HW233567   3.211   2.311   5.341  0.1518 -0.5003 -0.6884
 7370SOL     OW33568   0.392   1.316   9.508  0.5260 -0.1282 -0.3154
 7370SOL    HW133569   0.351   1.238   9.546  0.5364  0.5467  1.0772
 7370SOL    HW233570   0.418   1.283   9.422  0.5476  1.0723 -0.7724
 7371SOL     OW33571   2.118   4.674   0.767 -0.0683 -0.7319 -0.9980
 7371SOL    HW133572   2.147   4.707   0.852  1.0923 -0.2617 -1.5742
 7371SOL    HW233573   2.061   4.601   0.790 -0.5868 -0.3767 -1.1317
 7372SOL     OW33574   2.064   2.828   2.734  0.2750  0.0447  0.1532
 7372SOL    HW133575   2.043   2.874   2.816 -0.3802  1.0762 -0.5950
 7372SOL    HW233576   2.048   2.737   2.760  2.0606 -1.1301 -2.8187
 7373SOL     OW33577   1.515   1.234   8.247 -0.2666 -0.3566  0.5489
 7373SOL    HW133578   1.569   1.311   8.234 -0.1519 -0.8894 -2.2122
 7373SOL    HW233579   1.442   1.267   8.300 -1.0061  0.5401 -1.0065
 7374SOL     OW33580   3.880   3.642  14.783 -0.4369  0.3677  0.2640
 7374SOL    HW133581   3.794   3.602  14.772 -0.5956  0.8707 -0.3462
 7374SOL    HW233582   3.875   3.672  14.873 -1.6193 -0.1293  0.3660
 7375SOL     OW33583   1.810   2.589  11.898 -0.1495 -0.3268  0.0237
 7375SOL    HW133584   1.869   2.664  11.906 -0.3778  0.0735 -2.0225
 7375SOL    HW233585   1.803   2.599  11.803 -0.8377  2.3234  0.3616
 7376SOL     OW33586   2.656   3.217   1.167 -0.1941  0.0989  0.0121
 7376SOL    HW133587   2.670   3.234   1.260 -1.6326 -0.6330  0.3545
 7376SOL    HW233588   2.737   3.243   1.123 -0.8238 -1.5645 -2.1306
 7377SOL     OW33589   2.456   3.992   0.380 -0.2754 -0.9360 -0.0566
 7377SOL    HW133590   2.484   3.917   0.433 -1.1442 -1.5976 -0.5383
 7377SOL    HW233591   2.424   4.044   0.455 -0.1511 -2.1317  0.8264
 7378SOL     OW33592   4.501   2.347   3.260 -0.0948 -0.4450  0.7870
 7378SOL    HW133593   4.440   2.377   3.193 -1.7556  0.1013  2.5327
 7378SOL    HW233594   4.572   2.318   3.203  1.1997  1.2997  1.4845
 7379SOL     OW33595   2.376   1.663   4.437  0.3496  0.0051 -0.0339
 7379SOL    HW133596   2.462   1.676   4.399  0.5173 -1.2336 -0.0841
 7379SOL    HW233597   2.318   1.660   4.361  0.6827 -1.4168 -0.2208
 7380SOL     OW33598   0.181   2.407   8.381  0.0257  0.4014  0.2339
 7380SOL    HW133599   0.122   2.444   8.446 -1.5260 -0.6830 -0.5732
 7380SOL    HW233600   0.108   2.387   8.324 -0.6658 -2.3492  2.1055
 7381SOL     OW33601   3.502   1.741  15.889 -0.2272  0.0380 -0.0677
 7381SOL    HW133602   3.408   1.728  15.891 -0.3821  1.4217  1.2791
 7381SOL    HW233603   3.517   1.816  15.947 -1.4532 -0.4410  0.8590
 7382SOL     OW33604   4.439   0.961   3.673 -0.1451 -0.0472 -0.0001
 7382SOL    HW133605   4.469   0.989   3.759 -0.6187  0.9236 -0.1554
 7382SOL    HW233606   4.345   0.968   3.682 -0.0960 -0.8846  1.1363
 7383SOL     OW33607   4.405   1.308   1.310 -0.0281  0.1900 -0.2849
 7383SOL    HW133608   4.378   1.220   1.285  2.0918 -0.9621  1.4623
 7383SOL    HW233609   4.477   1.323   1.249 -0.7998 -0.9679 -1.4525
 7384SOL     OW33610   1.160   0.309   1.203 -0.3135  0.1980  0.1960
 7384SOL    HW133611   1.117   0.230   1.236  0.7375 -1.2204 -1.8279
 7384SOL    HW233612   1.106   0.379   1.239  0.0285  0.8268 -0.4952
 7385SOL     OW33613   3.262   3.971  14.316 -0.2512 -0.2791 -0.5810
 7385SOL    HW133614   3.292   3.880  14.305 -4.3903 -1.5592 -1.3314
 7385SOL    HW233615   3.196   3.967  14.246 -2.0275 -0.2762  1.1167
 7386SOL     OW33616   0.563   2.570   1.317 -0.1458 -0.1935  0.5560
 7386SOL    HW133617   0.582   2.643   1.376 -0.8923 -0.0625  0.6353
 7386SOL    HW233618   0.517   2.613   1.244 -0.4148 -0.4976  0.5453
 7387SOL     OW33619   2.213   3.063   9.098 -0.0987 -0.0488 -0.1492
 7387SOL    HW133620   2.200   2.981   9.145  0.1558 -0.3908 -0.6759
 7387SOL    HW233621   2.163   3.126   9.150  0.1763 -1.0972  1.3722
 7388SOL     OW33622   3.769   0.951   6.976 -0.0674 -0.5316 -0.0662
 7388SOL    HW133623   3.719   0.870   6.974 -0.3191 -0.3733 -0.2351
 7388SOL    HW233624   3.818   0.944   6.894  0.4395 -1.4432  0.3225
 7389SOL     OW33625   3.001   4.520  16.449  0.0405 -0.1918  0.2643
 7389SOL    HW133626   3.014   4.613  16.432 -0.9878  0.0928  1.0397
 7389SOL    HW233627   2.955   4.518  16.533  1.9130  1.6053  1.3158
 7390SOL     OW33628   4.167   3.341  11.346 -0.0772 -0.3601 -0.2049
 7390SOL    HW133629   4.128   3.258  11.374  1.2355 -0.6771  0.6723
 7390SOL    HW233630   4.177   3.334  11.251 -2.8423 -0.9190 -0.4436
 7391SOL     OW33631   1.445   4.069   3.520 -0.3613  0.3961  0.1629
 7391SOL    HW133632   1.432   3.980   3.486 -0.2421  0.5281 -0.2261
 7391SOL    HW233633   1.501   4.107   3.453 -0.3694 -0.5274 -0.3662
 7392SOL     OW33634   0.508   2.190  17.428  0.2302 -0.2906  0.3969
 7392SOL    HW133635   0.463   2.241  17.361 -0.9394  0.5549  1.7926
 7392SOL    HW233636   0.595   2.218  17.399 -1.5976  3.1885 -1.6990
 7393SOL     OW33637   3.859   0.601   4.609  0.0068  0.2602 -0.5419
 7393SOL    HW133638   3.764   0.602   4.621  0.0440 -0.0723 -0.2168
 7393SOL    HW233639   3.872   0.688   4.648  0.5460 -0.0166 -0.1066
 7394SOL     OW33640   4.397   3.522  11.369  0.2620 -0.1201 -0.6638
 7394SOL    HW133641   4.373   3.521  11.462  1.2962 -0.9714 -0.4135
 7394SOL    HW233642   4.347   3.445  11.343 -1.4519  1.0349 -0.8473
 7395SOL     OW33643   0.890   0.837   6.370 -0.5737 -0.0922 -0.9912
 7395SOL    HW133644   0.836   0.894   6.316 -1.4497 -0.2354 -0.2614
 7395SOL    HW233645   0.978   0.871   6.358 -0.2192 -1.4548 -2.3117
 7396SOL     OW33646   3.166   3.375   8.258 -0.0405  0.6244 -0.1247
 7396SOL    HW133647   3.138   3.378   8.167 -0.4610 -0.3180 -0.0297
 7396SOL    HW233648   3.259   3.354   8.246 -0.9300 -0.9214 -4.3517
 7397SOL     OW33649   0.487   2.051   9.245 -0.3257  0.2045  0.0042
 7397SOL    HW133650   0.488   1.957   9.226 -0.1680  0.2679 -0.3077
 7397SOL    HW233651   0.485   2.086   9.156  1.3527  0.5027  0.0930
 7398SOL     OW33652   2.855   4.644   9.990  0.5280  0.7051 -0.0722
 7398SOL    HW133653   2.820   4.578   9.931 -0.6569 -0.3513  1.7782
 7398SOL    HW233654   2.772   4.669  10.031  1.6209  0.2311  2.4358
 7399SOL     OW33655   1.823   0.619   8.020  0.2414  0.0382  0.0340
 7399SOL    HW133656   1.785   0.596   8.104 -0.2952  1.5724  0.1984
 7399SOL    HW233657   1.876   0.696   8.040 -1.1010  0.6660  1.1601
 7400SOL     OW33658   1.498   1.950   9.562 -0.4553 -0.0895 -0.1733
 7400SOL    HW133659   1.422   2.004   9.537  0.3208  1.1361  0.1140
 7400SOL    HW233660   1.467   1.904   9.640  0.3802 -0.2636  0.0524
 7401SOL     OW33661   3.316   3.707  13.786 -0.1411  0.0318  0.3533
 7401SOL    HW133662   3.396   3.655  13.794  0.6150  1.1950  0.3034
 7401SOL    HW233663   3.307   3.679  13.695 -1.0694  1.7089 -0.0659
 7402SOL     OW33664   3.992   2.881  17.413 -0.2125  0.5519  0.5957
 7402SOL    HW133665   3.980   2.976  17.412  1.7188  0.7989  1.8136
 7402SOL    HW233666   4.053   2.867  17.485 -0.3052  1.5295  0.8601
 7403SOL     OW33667   2.552   0.856  16.493  0.0354  0.6410 -0.9034
 7403SOL    HW133668   2.505   0.821  16.568  1.8605 -0.9643 -0.5174
 7403SOL    HW233669   2.592   0.936  16.527 -0.8492 -0.0116  1.6576
 7404SOL     OW33670   2.258   2.685   1.178 -0.0856 -0.5007  0.0041
 7404SOL    HW133671   2.278   2.738   1.101 -0.1182  1.9463  1.6894
 7404SOL    HW233672   2.166   2.659   1.175 -0.0220 -0.7130 -0.1463
 7405SOL     OW33673   3.968   0.681   5.310 -0.0326  0.3528 -0.0224
 7405SOL    HW133674   3.873   0.674   5.297 -0.1266  1.8974 -0.1686
 7405SOL    HW233675   3.972   0.633   5.392  2.6063  1.7367  0.6515
 7406SOL     OW33676   0.120   4.167   2.988 -0.1729  0.1455 -0.4913
 7406SOL    HW133677   0.110   4.211   2.904 -2.3372  2.1644  0.8216
 7406SOL    HW233678   0.155   4.082   2.961  2.8182  1.1048  0.3592
 7407SOL     OW33679   4.058   1.082   9.036 -0.1231 -0.2140  0.1779
 7407SOL    HW133680   4.053   1.132   8.955  0.7622 -1.3475 -0.5714
 7407SOL    HW233681   4.073   1.157   9.094  1.2480  0.7952 -1.4950
 7408SOL     OW33682   1.471   3.255   0.963  0.2043  0.4041 -0.3203
 7408SOL    HW133683   1.564   3.249   0.985  0.5038 -1.6081 -2.0943
 7408SOL    HW233684   1.450   3.346   0.982 -0.2126  0.3624 -0.5776
 7409SOL     OW33685   2.810   4.482   3.503  0.1540 -0.7812  0.4607
 7409SOL    HW133686   2.893   4.528   3.514  0.4295 -0.3828 -3.0830
 7409SOL    HW233687   2.815   4.446   3.414 -1.6845  0.7778 -0.2672
 7410SOL     OW33688   1.563   3.690   6.905  0.4000 -0.4051 -0.7384
 7410SOL    HW133689   1.548   3.621   6.840  2.4898 -0.7928 -0.8164
 7410SOL    HW233690   1.655   3.713   6.898 -0.6271  3.4275 -1.3724
 7411SOL     OW33691   3.008   1.560   5.169  0.8489  0.1314  0.6222
 7411SOL    HW133692   3.087   1.514   5.139  0.9734  0.5298  0.3513
 7411SOL    HW233693   2.942   1.491   5.174  1.8894 -0.8719  0.6134
 7412SOL     OW33694   0.590   4.653   5.317 -0.4463  0.7158  0.0275
 7412SOL    HW133695   0.631   4.658   5.230  0.0636 -0.3810  0.2076
 7412SOL    HW233696   0.538   0.013   5.316 -1.0093  0.3422 -0.9496
 7413SOL     OW33697   2.145   0.041   9.476  0.1928  0.7317  0.0233
 7413SOL    HW133698   2.056   0.028   9.507  1.2228  1.2097  3.1705
 7413SOL    HW233699   2.139   0.018   9.383  1.1224 -0.8288  0.3431
 7414SOL     OW33700   4.011   0.367  13.692  0.4418 -0.5336 -0.5684
 7414SOL    HW133701   4.026   0.380  13.598 -1.3143  0.4338 -0.6991
 7414SOL    HW233702   4.093   0.320  13.706  0.2860 -0.9228 -0.9554
 7415SOL     OW33703   0.362   2.733  11.085 -0.6448 -0.1956  0.7132
 7415SOL    HW133704   0.365   2.701  10.994  0.9806 -1.4133  1.1974
 7415SOL    HW233705   0.274   2.708  11.115 -1.1178  1.9321  1.1459
 7416SOL     OW33706   3.945   0.107   7.465 -0.3075  0.4798  0.3005
 7416SOL    HW133707   4.005   0.159   7.411  0.1304 -0.0700  0.2581
 7416SOL    HW233708   3.868   0.163   7.459 -0.4366  0.1387 -1.2331
 7417SOL     OW33709   0.915   0.136   8.500 -0.3835  0.5534  0.4486
 7417SOL    HW133710   0.949   0.097   8.580  0.9500  1.7170  0.4274
 7417SOL    HW233711   0.823   0.108   8.507 -0.7162  1.3650 -0.7447
 7418SOL     OW33712   0.158   0.108  12.626  0.1572 -0.4214 -0.2858
 7418SOL    HW133713   0.202   0.029  12.594 -0.0507 -0.6175 -0.0864
 7418SOL    HW233714   0.098   0.147  12.564  0.0129  2.2508  1.5177
 7419SOL     OW33715   0.183   2.680   6.779 -0.0654  0.0912  0.1218
 7419SOL    HW133716   0.259   2.724   6.740  0.5030 -1.7559 -0.8398
 7419SOL    HW233717   0.121   2.753   6.782 -2.3169 -1.7666 -1.6235
 7420SOL     OW33718   0.805   2.170   3.168 -0.2114 -0.9000 -0.1468
 7420SOL    HW133719   0.722   2.156   3.214  0.4696 -0.0752  1.3439
 7420SOL    HW233720   0.806   2.261   3.138  0.9040 -0.5994  0.7866
 7421SOL     OW33721   3.495   2.649  10.945  0.1979 -0.2984 -0.3411
 7421SOL    HW133722   3.450   2.655  10.861 -1.6017 -0.6364  0.6159
 7421SOL    HW233723   3.588   2.666  10.926  0.0630  0.8486  0.0186
 7422SOL     OW33724   0.822   0.659   6.700  0.7553 -0.0478  0.1934
 7422SOL    HW133725   0.914   0.655   6.726  0.0482 -1.4887  2.4433
 7422SOL    HW233726   0.818   0.614   6.616  0.0710  0.2968  0.0434
 7423SOL     OW33727   2.870   1.478   0.934 -0.2028 -0.1337  0.0527
 7423SOL    HW133728   2.960   1.466   0.966 -0.1425  2.7544  0.9621
 7423SOL    HW233729   2.874   1.449   0.843  1.2107 -0.2518  0.1523
 7424SOL     OW33730   3.041   3.490   0.319 -0.0442 -0.0324 -0.2974
 7424SOL    HW133731   3.011   3.399   0.324  1.2011 -0.4587 -0.5792
 7424SOL    HW233732   2.957   3.534   0.334  1.0688  1.1984  2.3890
 7425SOL     OW33733   4.427   1.490   5.864  0.3345 -0.1339 -0.6674
 7425SOL    HW133734   4.394   1.464   5.951 -0.7877 -0.0996 -1.0770
 7425SOL    HW233735   4.380   1.431   5.806  0.5420 -0.0984 -0.8702
 7426SOL     OW33736   0.014   0.715  13.533 -0.2776  0.1755 -0.6585
 7426SOL    HW133737   0.057   0.798  13.549 -1.8742  0.8776 -0.0496
 7426SOL    HW233738   4.706   0.678  13.617 -0.7535 -1.6147 -1.5962
 7427SOL     OW33739   0.100   4.337  13.912  0.5277 -0.5048  0.4100
 7427SOL    HW133740   0.161   4.409  13.896  2.0077 -1.3623  2.1350
 7427SOL    HW233741   0.146   4.283  13.977 -2.0548  1.2391  3.6938
 7428SOL     OW33742   2.320   3.028   4.310 -0.4735  0.3112 -0.0921
 7428SOL    HW133743   2.254   2.975   4.356 -2.0126  0.4159 -2.1670
 7428SOL    HW233744   2.290   3.110   4.349  1.0547  0.3950  0.8646
 7429SOL     OW33745   0.960   0.706   7.965  0.4458 -0.1562 -0.8488
 7429SOL    HW133746   0.892   0.756   8.011  1.0867  0.8204 -0.9626
 7429SOL    HW233747   1.038   0.729   8.015  1.4498 -1.8237 -1.6558
 7430SOL     OW33748   4.424   3.286   8.957  0.4111 -0.4675 -0.2705
 7430SOL    HW133749   4.358   3.261   8.892  0.3709 -1.1970  0.0626
 7430SOL    HW233750   4.378   3.345   9.016  0.9515  0.0730 -0.3789
 7431SOL     OW33751   3.382   0.488   7.918 -0.4693  0.3561  0.0319
 7431SOL    HW133752   3.380   0.556   7.850 -1.3618  0.6142  0.3044
 7431SOL    HW233753   3.288   0.471   7.925 -0.1523 -0.4898  2.2696
 7432SOL     OW33754   3.651   2.324   1.425  0.3874 -0.2036  0.5407
 7432SOL    HW133755   3.647   2.413   1.390  0.5542 -0.4609 -0.1520
 7432SOL    HW233756   3.561   2.321   1.456  0.3556  2.8008  0.6939
 7433SOL     OW33757   1.254   1.854  10.832  0.0823 -0.2035  0.0768
 7433SOL    HW133758   1.346   1.835  10.850  0.7423  1.9333 -0.9834
 7433SOL    HW233759   1.249   1.841  10.737 -0.9541  1.4551 -0.0927
 7434SOL     OW33760   3.601   4.265  14.177  0.0262 -0.2494 -0.4164
 7434SOL    HW133761   3.647   4.309  14.248  0.7250 -1.0133 -0.3963
 7434SOL    HW233762   3.665   4.251  14.107  0.4460  0.4282 -0.1663
 7435SOL     OW33763   1.430   1.794   9.817  0.0549  0.3187  0.1775
 7435SOL    HW133764   1.485   1.733   9.866  0.5214 -1.0612 -2.0702
 7435SOL    HW233765   1.369   1.800   9.890 -2.1921  0.0218 -1.6844
 7436SOL     OW33766   3.199   4.462   8.194 -0.2280  0.0906 -0.0282
 7436SOL    HW133767   3.264   4.518   8.151  0.3177 -0.7214 -0.2606
 7436SOL    HW233768   3.239   4.457   8.281 -0.4023  1.8460  0.1604
 7437SOL     OW33769   3.375   2.183   4.977 -0.1793 -0.8531  0.4171
 7437SOL    HW133770   3.437   2.112   4.986  1.1143 -0.0443 -2.2923
 7437SOL    HW233771   3.297   2.141   5.014 -2.8116  0.8684 -3.1877
 7438SOL     OW33772   0.053   3.612   6.091  0.1913  0.2793 -0.2091
 7438SOL    HW133773   4.704   3.563   6.133  0.9987 -1.2801 -0.6901
 7438SOL    HW233774   0.101   3.632   6.172  0.5161  1.5441 -0.7105
 7439SOL     OW33775   4.542   1.882   6.917 -0.1569  0.7188  0.2153
 7439SOL    HW133776   4.592   1.955   6.880 -0.6188  0.3267 -1.1652
 7439SOL    HW233777   4.605   1.840   6.975 -0.8908  1.2884  1.4360
 7440SOL     OW33778   2.141   0.970   3.437 -0.0704  0.2287  0.3259
 7440SOL    HW133779   2.170   1.023   3.511  0.8498  2.1508 -1.4026
 7440SOL    HW233780   2.112   0.889   3.479  0.9795 -0.1855  0.2528
 7441SOL     OW33781   2.637   2.514   1.121 -0.5120  0.0382  0.0230
 7441SOL    HW133782   2.676   2.536   1.036  0.9112  0.4046  0.7707
 7441SOL    HW233783   2.691   2.439   1.144 -0.5907  0.3197  1.1173
 7442SOL     OW33784   4.062   3.963  12.788  0.0822  0.3507 -0.1893
 7442SOL    HW133785   4.139   3.932  12.742  2.1263  0.4088  3.1410
 7442SOL    HW233786   4.023   3.878  12.809  0.5812 -0.1867 -1.4767
 7443SOL     OW33787   3.815   3.798   7.143 -0.6778 -0.1493 -0.2123
 7443SOL    HW133788   3.781   3.724   7.192 -0.7429  0.1046  0.1203
 7443SOL    HW233789   3.751   3.865   7.164 -0.2348  0.2173 -0.0358
 7444SOL     OW33790   3.365   1.399  16.260 -0.0387 -1.0108  0.0597
 7444SOL    HW133791   3.374   1.440  16.174  0.1385  1.1461  1.1055
 7444SOL    HW233792   3.271   1.404  16.277  0.0415 -1.5899  0.6854
 7445SOL     OW33793   4.582   1.554  13.513 -0.5777  0.1113  0.5039
 7445SOL    HW133794   4.628   1.478  13.547 -0.8750 -0.3396 -0.1016
 7445SOL    HW233795   4.547   1.520  13.431  1.2488 -1.5386  0.4242
 7446SOL     OW33796   2.750   4.650  16.079  1.2290 -0.3646  0.4198
 7446SOL    HW133797   2.843   4.659  16.096  0.9135  0.1465  1.9384
 7446SOL    HW233798   2.736   0.023  16.066 -1.2468 -0.7786  0.0349
 7447SOL     OW33799   1.310   3.189   7.363  0.0999 -0.4747 -0.1665
 7447SOL    HW133800   1.369   3.123   7.399  0.8162  0.2986  0.0773
 7447SOL    HW233801   1.311   3.255   7.433  0.5533 -0.8875  0.2172
 7448SOL     OW33802   2.110   4.683   6.082 -0.0241 -0.2857 -0.0075
 7448SOL    HW133803   2.137   0.033   6.024  2.0056  0.6357  2.0699
 7448SOL    HW233804   2.193   4.650   6.115  0.7340  0.0771 -1.5776
 7449SOL     OW33805   0.180   1.197  14.538  0.7964  0.0240 -0.1259
 7449SOL    HW133806   0.201   1.225  14.448 -0.3293  2.1686  0.2819
 7449SOL    HW233807   0.250   1.142  14.574  0.4198 -1.4089 -1.5909
 7450SOL     OW33808   2.037   0.988   2.224 -0.2571  0.2178 -0.5810
 7450SOL    HW133809   2.031   0.911   2.168 -0.8408 -1.7858  2.2508
 7450SOL    HW233810   1.967   1.038   2.181 -1.1196 -0.8457 -0.4052
 7451SOL     OW33811   4.502   0.781  12.293  0.2235  0.1427 -0.1797
 7451SOL    HW133812   4.431   0.717  12.302  0.2449  0.0030 -1.0242
 7451SOL    HW233813   4.474   0.823  12.212 -1.1001 -0.9050 -0.2555
 7452SOL     OW33814   2.684   0.210  16.088 -0.2592  0.0568  0.5081
 7452SOL    HW133815   2.653   0.299  16.105 -2.3155 -0.4965 -0.3763
 7452SOL    HW233816   2.599   0.168  16.077  1.1663 -2.8836  0.8783
 7453SOL     OW33817   3.176   1.228  17.302 -0.5216 -0.3033  0.3087
 7453SOL    HW133818   3.119   1.302  17.281 -0.2085 -0.0156  0.4781
 7453SOL    HW233819   3.163   1.165  17.231  0.2486 -2.2969  1.9405
 7454SOL     OW33820   1.206   1.443  13.890 -0.4325  0.0615  0.4982
 7454SOL    HW133821   1.227   1.491  13.970  0.6683  2.8934 -1.4997
 7454SOL    HW233822   1.207   1.513  13.825 -0.4922 -0.0130  0.4152
 7455SOL     OW33823   1.056   4.396   6.238 -0.3233  0.3825 -0.3245
 7455SOL    HW133824   1.081   4.484   6.267 -0.7580  0.0067  1.1416
 7455SOL    HW233825   1.140   4.352   6.229 -0.9956 -0.2571 -3.3741
 7456SOL     OW33826   3.443   1.934  11.413  0.1559 -0.5693  0.4329
 7456SOL    HW133827   3.353   1.906  11.429  0.0348  0.2540  1.1914
 7456SOL    HW233828   3.444   1.995  11.487 -1.5547  0.1466 -0.1471
 7457SOL     OW33829   3.266   1.007   7.987 -0.5980  0.0577 -0.0446
 7457SOL    HW133830   3.184   1.052   8.007 -0.7456  0.1416 -0.8174
 7457SOL    HW233831   3.315   1.080   7.949 -1.8114  0.4292 -0.9074
 7458SOL     OW33832   2.402   2.409   6.508 -0.1907  0.5436 -0.1670
 7458SOL    HW133833   2.378   2.325   6.469 -2.4140  0.5707  1.1095
 7458SOL    HW233834   2.495   2.416   6.489 -0.4676 -0.7110 -1.9720
 7459SOL     OW33835   3.913   1.119   5.587  0.2590  0.1363 -0.6419
 7459SOL    HW133836   3.992   1.136   5.639 -1.4769  1.6553  1.5028
 7459SOL    HW233837   3.937   1.031   5.557 -1.8810  0.4327 -3.1607
 7460SOL     OW33838   1.870   1.129   6.034 -0.2166  0.2530  0.1002
 7460SOL    HW133839   1.865   1.217   6.071  0.1717  0.0817  0.5671
 7460SOL    HW233840   1.794   1.094   6.081 -0.8103 -0.3664 -1.3165
 7461SOL     OW33841   1.523   1.397  15.330 -0.4045  1.2304  0.3327
 7461SOL    HW133842   1.477   1.415  15.412 -1.1525 -2.0621  0.6449
 7461SOL    HW233843   1.514   1.303  15.313  3.9342  1.1514 -1.5434
 7462SOL     OW33844   2.348   1.493   3.663  0.0466 -0.2774 -0.0864
 7462SOL    HW133845   2.388   1.575   3.633  2.0469 -0.6730  1.5003
 7462SOL    HW233846   2.399   1.475   3.742  0.1149 -0.0644 -0.0823
 7463SOL     OW33847   2.387   3.457   3.645 -0.5334 -0.0626  0.3029
 7463SOL    HW133848   2.330   3.497   3.579 -1.6205 -1.3963  0.4413
 7463SOL    HW233849   2.427   3.540   3.670  1.9911 -1.7014  1.6754
 7464SOL     OW33850   0.583   1.892   5.113  0.2553 -0.6643  0.1085
 7464SOL    HW133851   0.675   1.916   5.108  0.2168 -0.6612 -0.7455
 7464SOL    HW233852   0.540   1.965   5.157  0.8286 -0.3658  0.1731
 7465SOL     OW33853   2.172   0.612   8.096  0.1409  0.0447 -0.3861
 7465SOL    HW133854   2.177   0.577   8.185 -1.0190 -0.4683 -0.5354
 7465SOL    HW233855   2.133   0.698   8.111  0.2151  0.1911 -1.0295
 7466SOL     OW33856   0.773   3.501   6.246  0.4558 -0.2228  0.1078
 7466SOL    HW133857   0.790   3.549   6.165 -1.1630  0.8623  0.4085
 7466SOL    HW233858   0.837   3.430   6.238  0.7523  0.2345 -1.4340
 7467SOL     OW33859   3.832   4.661   8.037  0.0253  0.4873 -0.8573
 7467SOL    HW133860   3.800   4.696   8.120  1.8029  1.7811 -0.7241
 7467SOL    HW233861   3.911   4.712   8.025  0.1754 -0.0436 -2.0865
 7468SOL     OW33862   1.588   3.847  13.828 -0.0655 -0.6361 -0.2941
 7468SOL    HW133863   1.672   3.880  13.798  0.0786 -2.0001 -1.4382
 7468SOL    HW233864   1.608   3.753  13.834  2.6601 -0.0892 -0.8547
 7469SOL     OW33865   1.961   1.127   4.340 -0.2117  0.8331  0.1388
 7469SOL    HW133866   1.877   1.163   4.311 -0.1993  2.1508  1.6729
 7469SOL    HW233867   1.940   1.035   4.331 -2.2375  1.3701 -0.5732
 7470SOL     OW33868   2.027   0.012   9.227 -0.3282 -0.1221 -0.4337
 7470SOL    HW133869   1.933   4.720   9.219 -0.4122 -0.8451  1.6756
 7470SOL    HW233870   2.045   0.065   9.149 -1.7121 -1.0552 -1.3730
 7471SOL     OW33871   2.191   2.945   4.019 -0.0601 -0.3719 -0.1009
 7471SOL    HW133872   2.249   2.871   4.038 -0.3614 -0.9466 -1.4630
 7471SOL    HW233873   2.190   2.993   4.102  2.6493  1.4980 -1.1468
 7472SOL     OW33874   1.730   4.714   9.768 -0.7608 -0.4155  0.1211
 7472SOL    HW133875   1.681   0.072   9.744 -2.1445 -0.8591  1.5032
 7472SOL    HW233876   1.669   4.673   9.830 -0.1525 -1.7416 -0.1566
 7473SOL     OW33877   3.388   4.364   2.566 -0.0449 -0.1352 -0.2307
 7473SOL    HW133878   3.324   4.348   2.635  2.5387 -1.6925  1.8211
 7473SOL    HW233879   3.447   4.289   2.564  0.6086  0.3958 -0.9688
 7474SOL     OW33880   2.089   0.977   3.797  0.1073  0.3344 -0.4693
 7474SOL    HW133881   2.061   0.983   3.888 -1.3870 -0.9464 -0.8494
 7474SOL    HW233882   2.033   1.043   3.756 -0.9683  1.3234  2.6337
 7475SOL     OW33883   1.515   4.523   6.220  0.4962 -0.0438 -0.3120
 7475SOL    HW133884   1.523   4.594   6.157 -0.2381 -0.2068 -0.5832
 7475SOL    HW233885   1.495   4.579   6.295  1.3210 -0.6492  0.3712
 7476SOL     OW33886   0.076   0.582  15.832  0.0118 -0.1620  0.2281
 7476SOL    HW133887   0.038   0.663  15.866 -1.6788 -0.9560  0.2849
 7476SOL    HW233888   0.085   0.533  15.914  0.1793  1.6650  1.2858
 7477SOL     OW33889   4.178   1.858   5.967 -0.1634 -0.4486  0.4871
 7477SOL    HW133890   4.151   1.786   5.911 -2.1247  0.3685  0.3817
 7477SOL    HW233891   4.161   1.935   5.912 -1.0584  1.1681  3.0034
 7478SOL     OW33892   4.086   2.861  15.347 -0.2652 -0.0822  0.1846
 7478SOL    HW133893   4.005   2.906  15.374  1.5475  1.7994  2.5016
 7478SOL    HW233894   4.151   2.900  15.406 -0.4487 -0.2254  0.4832
 7479SOL     OW33895   0.367   2.820   2.759  0.2333  0.4489  0.6990
 7479SOL    HW133896   0.357   2.914   2.753 -0.2595  0.3188 -0.4997
 7479SOL    HW233897   0.283   2.803   2.801  1.3340 -2.1553  1.8824
 7480SOL     OW33898   2.170   3.665   7.462 -0.2197 -0.3028  0.0774
 7480SOL    HW133899   2.105   3.716   7.510  1.0128  0.7907  0.6054
 7480SOL    HW233900   2.159   3.576   7.493  1.6094  0.0668  1.7851
 7481SOL     OW33901   0.192   2.625   7.705  0.2669  0.3958 -0.0379
 7481SOL    HW133902   0.138   2.583   7.773  2.8892 -1.3518  0.9559
 7481SOL    HW233903   0.208   2.551   7.647  0.9766  1.0663 -0.6977
 7482SOL     OW33904   3.033   2.887   8.619 -0.1415 -0.1845  0.6386
 7482SOL    HW133905   3.046   2.794   8.599  0.1324  0.0997 -0.5483
 7482SOL    HW233906   3.063   2.894   8.709 -2.0070 -0.2506  1.2503
 7483SOL     OW33907   2.905   1.694   5.532  0.1358 -0.4508  0.1470
 7483SOL    HW133908   2.961   1.771   5.525  0.5053 -0.5863  1.6168
 7483SOL    HW233909   2.970   1.624   5.530 -1.1954 -1.7155  1.2905
 7484SOL     OW33910   4.057   2.607  17.435 -0.1527  0.0012  0.4504
 7484SOL    HW133911   4.132   2.635  17.487  0.8492 -1.4426 -0.2524
 7484SOL    HW233912   4.004   2.685  17.416 -1.2638 -1.1337 -1.0709
 7485SOL     OW33913   3.889   1.430   3.064  0.1738 -0.1010  0.6257
 7485SOL    HW133914   3.886   1.361   2.998  3.5836  1.5309 -1.1839
 7485SOL    HW233915   3.858   1.499   3.005  0.5486 -0.5352 -0.0649
 7486SOL     OW33916   4.528   4.288  12.947  1.1163 -0.0201 -0.3998
 7486SOL    HW133917   4.582   4.289  12.868  0.8696  0.7626 -0.5638
 7486SOL    HW233918   4.535   4.200  12.983  0.7822 -0.2337 -0.8605
 7487SOL     OW33919   1.933   3.565   3.863 -0.0265 -0.2714  0.0981
 7487SOL    HW133920   2.022   3.547   3.892 -0.0271  1.7142  1.3351
 7487SOL    HW233921   1.891   3.541   3.945  1.4933  0.2567  1.0402
 7488SOL     OW33922   3.603   4.161   8.316 -0.2203 -0.1989  0.1998
 7488SOL    HW133923   3.653   4.171   8.397 -1.3619  2.7429  0.5133
 7488SOL    HW233924   3.607   4.066   8.305  0.9961 -0.3644  2.0960
 7489SOL     OW33925   4.622   2.292   0.140 -0.1599  0.1448  0.5619
 7489SOL    HW133926   4.695   2.354   0.147 -1.7526  2.0480  0.3537
 7489SOL    HW233927   4.658   2.213   0.180 -2.3564 -1.6228 -0.9879
 7490SOL     OW33928   1.684   3.655   7.362  0.0957  0.6691 -0.5945
 7490SOL    HW133929   1.612   3.682   7.418 -0.7080 -0.2303 -1.1979
 7490SOL    HW233930   1.640   3.630   7.281  0.8290  0.3114 -0.8883
 7491SOL     OW33931   2.629   2.818   7.497 -0.2116  0.3096 -0.3078
 7491SOL    HW133932   2.612   2.754   7.566 -0.8061  1.8146  0.9307
 7491SOL    HW233933   2.583   2.779   7.422 -1.7157 -0.0462  0.7973
 7492SOL     OW33934   4.296   1.707   3.526 -0.0530 -0.0599 -0.0800
 7492SOL    HW133935   4.239   1.784   3.523 -1.4415 -1.1411 -1.6274
 7492SOL    HW233936   4.291   1.674   3.436  0.2599  0.4043 -0.2715
 7493SOL     OW33937   2.532   0.343   5.091 -0.0384  0.5627 -0.6616
 7493SOL    HW133938   2.562   0.259   5.059  0.1269  0.1747  0.4889
 7493SOL    HW233939   2.477   0.382   5.023 -0.7559 -0.9619 -0.9384
 7494SOL     OW33940   3.600   0.610   2.489  0.0423  0.0315  0.2079
 7494SOL    HW133941   3.623   0.679   2.552 -2.5250 -0.5119  1.7470
 7494SOL    HW233942   3.546   0.664   2.432  1.4350  2.0618  0.7946
 7495SOL     OW33943   1.581   4.325   9.523  0.3487 -0.3996  0.2015
 7495SOL    HW133944   1.658   4.371   9.557  0.8648 -1.4114  0.4169
 7495SOL    HW233945   1.510   4.342   9.584 -0.3728  1.6538 -1.2270
 7496SOL     OW33946   2.592   4.478   2.592  0.0340 -0.7604 -0.0416
 7496SOL    HW133947   2.637   4.542   2.537 -1.4364  0.1856 -0.1164
 7496SOL    HW233948   2.548   4.423   2.527  0.8954 -2.3909  0.7368
 7497SOL     OW33949   4.522   4.043  13.781 -0.2163 -0.3893 -0.1075
 7497SOL    HW133950   4.494   4.133  13.800  1.1918  0.0685 -0.2316
 7497SOL    HW233951   4.527   4.029  13.686  1.1641 -3.1224  0.3732
 7498SOL     OW33952   1.268   2.315   3.617 -0.1246 -0.0979 -0.3551
 7498SOL    HW133953   1.213   2.384   3.581 -0.4901 -0.8835 -1.3051
 7498SOL    HW233954   1.267   2.251   3.546 -2.4064  0.5209 -0.8718
 7499SOL     OW33955   1.944   3.717   9.686  0.0998  0.2542  0.7717
 7499SOL    HW133956   1.848   3.717   9.690  0.1267 -0.2789  1.3212
 7499SOL    HW233957   1.958   3.631   9.647 -0.0025 -0.3363  2.0376
 7500SOL     OW33958   1.419   1.021   0.898 -0.6335  0.2052 -0.3907
 7500SOL    HW133959   1.397   1.071   0.977  1.1553 -2.2524  1.6171
 7500SOL    HW233960   1.405   0.932   0.930  1.6949 -0.3063 -0.8174
 7501SOL     OW33961   2.445   0.281  10.404 -0.5231  0.4573  0.4225
 7501SOL    HW133962   2.358   0.268  10.441 -0.2584 -0.1349  0.8372
 7501SOL    HW233963   2.498   0.287  10.483  0.5206  3.8877 -0.5352
 7502SOL     OW33964   1.824   3.627   4.807  0.2573  0.2006 -0.1337
 7502SOL    HW133965   1.780   3.622   4.722  0.0621 -3.2473  0.1826
 7502SOL    HW233966   1.823   3.533   4.824 -0.1653  0.3344  0.6021
 7503SOL     OW33967   3.167   4.520   9.865 -0.6814  0.4138 -0.1168
 7503SOL    HW133968   3.089   4.473   9.836  0.6103 -0.5040 -2.1729
 7503SOL    HW233969   3.215   4.452   9.912 -0.9198 -0.2126 -0.7836
 7504SOL     OW33970   2.628   3.579   3.879  0.4494 -0.7150  0.1433
 7504SOL    HW133971   2.568   3.506   3.898  1.3010 -1.2355  0.8672
 7504SOL    HW233972   2.712   3.536   3.860  1.5319  0.5164  2.0766
 7505SOL     OW33973   0.711   0.764   9.568 -0.1933 -0.0340  0.5483
 7505SOL    HW133974   0.774   0.726   9.629  0.2570 -0.6576 -0.3110
 7505SOL    HW233975   0.725   0.698   9.500  0.9414  0.9759 -0.1826
 7506SOL     OW33976   1.822   3.191  15.519 -0.3671 -0.2283  0.3587
 7506SOL    HW133977   1.833   3.132  15.593  2.7139 -0.5015 -0.3434
 7506SOL    HW233978   1.824   3.282  15.549 -0.3825 -0.0784 -0.0927
 7507SOL     OW33979   2.945   0.681   2.659 -0.1240 -0.5014  0.3719
 7507SOL    HW133980   2.941   0.738   2.582 -0.6848  0.0690  0.8161
 7507SOL    HW233981   2.920   0.601   2.613 -0.2028 -0.3280  0.1156
 7508SOL     OW33982   1.650   1.484   7.213 -0.9362 -0.5722  0.3468
 7508SOL    HW133983   1.595   1.481   7.291 -0.4593  1.4933  0.7665
 7508SOL    HW233984   1.659   1.392   7.191  0.0443 -0.0334 -1.4930
 7509SOL     OW33985   3.918   1.711  17.388 -0.1332 -0.2087  0.4783
 7509SOL    HW133986   3.857   1.696  17.461 -1.5141 -1.6549 -0.9544
 7509SOL    HW233987   3.998   1.738  17.433  0.6264  2.8531 -2.6757
 7510SOL     OW33988   2.447   3.353   6.658 -0.4202 -0.0449 -0.1511
 7510SOL    HW133989   2.378   3.393   6.605 -1.3297  0.3746  1.3520
 7510SOL    HW233990   2.527   3.389   6.618 -0.1753 -1.6582 -1.1114
 7511SOL     OW33991   2.508   3.735  10.160  0.3506  0.0848  0.4175
 7511SOL    HW133992   2.530   3.650  10.200  0.2793 -0.1138  0.0343
 7511SOL    HW233993   2.505   3.798  10.232 -1.0538 -1.5718  1.8180
 7512SOL     OW33994   3.260   4.458   1.189 -0.5061 -0.2663  0.2296
 7512SOL    HW133995   3.265   4.419   1.102  0.9614  1.4096 -0.4347
 7512SOL    HW233996   3.303   4.396   1.247  0.9345 -0.5505 -1.1514
 7513SOL     OW33997   2.001   1.272  17.064 -0.2158 -0.6514 -0.1407
 7513SOL    HW133998   1.977   1.280  17.157  2.2934 -0.3523  0.4843
 7513SOL    HW233999   1.921   1.259  17.013  1.1869  2.3239 -3.1094
 7514SOL     OW34000   2.872   2.493   4.318 -0.0643  0.0834 -0.0154
 7514SOL    HW134001   2.961   2.476   4.347  1.0145  0.9564 -2.8142
 7514SOL    HW234002   2.825   2.411   4.334 -3.0473  1.7226 -0.4462
 7515SOL     OW34003   4.360   1.212   7.764 -0.5547  0.1743  0.0495
 7515SOL    HW134004   4.357   1.226   7.858  0.3513 -1.4824  0.3290
 7515SOL    HW234005   4.404   1.294   7.743  1.2837 -0.6872  0.4683
 7516SOL     OW34006   1.975   0.834   8.072 -0.5725  0.2677 -0.3102
 7516SOL    HW134007   2.001   0.913   8.120 -2.8506  2.0197 -1.9445
 7516SOL    HW234008   1.950   0.871   7.987 -1.7727  1.8576  0.7381
 7517SOL     OW34009   2.673   3.571   2.454 -0.9930 -0.0458  0.2679
 7517SOL    HW134010   2.587   3.539   2.480 -1.7871  0.9134 -1.2223
 7517SOL    HW234011   2.650   3.623   2.378 -1.9993  0.8160  1.1601
 7518SOL     OW34012   3.189   2.889   1.719 -0.0781 -0.5889  1.3614
 7518SOL    HW134013   3.106   2.935   1.728 -0.8619 -1.4549 -1.2480
 7518SOL    HW234014   3.238   2.949   1.662  0.6549 -1.5717  0.9478
 7519SOL     OW34015   0.418   1.324   8.944 -0.2384  0.5013 -0.3848
 7519SOL    HW134016   0.387   1.301   8.857  0.9287  1.4271 -1.0506
 7519SOL    HW234017   0.435   1.242   8.990  0.1368 -0.1765 -1.7465
 7520SOL     OW34018   2.466   3.753   6.463  0.4984 -0.4786  0.0062
 7520SOL    HW134019   2.426   3.702   6.533 -1.4758 -2.0845 -2.2555
 7520SOL    HW234020   2.400   3.822   6.471  1.1958  0.1225  0.4597
 7521SOL     OW34021   2.166   1.947   4.335  0.7386 -0.3258  0.1120
 7521SOL    HW134022   2.097   1.992   4.286  0.5897 -1.2642 -0.5513
 7521SOL    HW234023   2.158   1.861   4.295 -0.5625 -0.3469  0.4353
 7522SOL     OW34024   1.869   3.523  12.854 -0.3714 -0.1950  0.0144
 7522SOL    HW134025   1.803   3.453  12.856 -0.9462  0.3986  1.9987
 7522SOL    HW234026   1.864   3.557  12.943 -2.3396 -1.8392  0.5251
 7523SOL     OW34027   4.101   0.098   8.772  0.6111  0.9401 -0.4518
 7523SOL    HW134028   4.072   0.009   8.793 -0.2021  1.1062 -0.8627
 7523SOL    HW234029   4.036   0.127   8.709 -1.6934 -2.6415  0.2719
 7524SOL     OW34030   4.050   4.224   7.721  0.6524  0.5273 -0.5826
 7524SOL    HW134031   3.999   4.282   7.778  0.5629  0.3973 -0.5312
 7524SOL    HW234032   4.105   4.291   7.679  2.0211  0.1975  0.6829
 7525SOL     OW34033   0.404   4.207   4.615  1.2155 -0.5606 -0.5768
 7525SOL    HW134034   0.403   4.113   4.595  0.4382 -0.4555 -1.0142
 7525SOL    HW234035   0.480   4.231   4.668 -0.2728  1.4009  0.6945
 7526SOL     OW34036   4.022   1.932  11.772  0.0398 -0.4664  0.7470
 7526SOL    HW134037   4.050   2.011  11.726 -0.7365 -1.3766 -1.2867
 7526SOL    HW234038   4.089   1.873  11.736  0.9339 -1.5872  4.2413
 7527SOL     OW34039   2.695   3.296  11.967 -0.0063 -0.1185  0.5407
 7527SOL    HW134040   2.764   3.354  11.935 -0.0251  0.0912  0.8857
 7527SOL    HW234041   2.732   3.213  11.938 -0.2928 -0.1948  0.3845
 7528SOL     OW34042   0.151   1.125  13.422  0.0430 -0.2099  0.2096
 7528SOL    HW134043   0.100   1.104  13.501 -0.1733  0.2328  0.1890
 7528SOL    HW234044   0.237   1.086  13.436 -0.0893 -1.1679 -1.7544
 7529SOL     OW34045   2.402   3.347   3.224 -0.5409 -0.0316 -0.2050
 7529SOL    HW134046   2.433   3.359   3.314  1.6596 -0.6827 -0.8703
 7529SOL    HW234047   2.460   3.403   3.173 -1.5160  1.0911 -0.0725
 7530SOL     OW34048   4.240   4.140   6.476 -0.5745 -0.6775  0.2661
 7530SOL    HW134049   4.305   4.209   6.462 -0.0184 -1.4919 -1.1995
 7530SOL    HW234050   4.245   4.096   6.391 -2.6314 -0.2304 -0.0922
 7531SOL     OW34051   0.442   4.436   8.850 -0.4557 -0.3751 -0.3131
 7531SOL    HW134052   0.462   4.491   8.926 -1.9816  0.8728 -0.8096
 7531SOL    HW234053   0.533   4.415   8.828 -0.8259 -3.5367  1.2227
 7532SOL     OW34054   0.794   0.062   3.719 -0.3528  0.1649  0.1523
 7532SOL    HW134055   0.739   0.135   3.745  0.0681 -0.1507  1.9294
 7532SOL    HW234056   0.866   0.080   3.780 -0.2931 -1.9378  0.7141
 7533SOL     OW34057   4.299   1.177   8.667 -0.2356  0.1274 -0.3170
 7533SOL    HW134058   4.337   1.265   8.667 -1.1797  0.5173  3.1103
 7533SOL    HW234059   4.216   1.190   8.712 -1.2985 -1.3674 -1.8193
 7534SOL     OW34060   0.110   2.826   2.784 -0.7189  0.1017 -0.7459
 7534SOL    HW134061   0.021   2.791   2.782  0.3633 -2.6260 -0.5770
 7534SOL    HW234062   0.097   2.921   2.778 -0.5014  0.2108  0.5105
 7535SOL     OW34063   0.471   3.553  14.201  0.1218  0.3849  0.4101
 7535SOL    HW134064   0.392   3.606  14.214  0.8078  1.0816  1.7156
 7535SOL    HW234065   0.500   3.542  14.291  0.1323 -0.8512  0.2650
 7536SOL     OW34066   4.234   3.489   6.055  0.2657  0.0274  0.2596
 7536SOL    HW134067   4.239   3.553   5.984 -0.0940 -0.9964 -0.6771
 7536SOL    HW234068   4.142   3.462   6.049  0.1736 -0.5104  3.5697
 7537SOL     OW34069   2.017   1.245  15.577 -0.2254 -0.4133 -0.2938
 7537SOL    HW134070   2.060   1.326  15.604 -0.5222 -1.0685  2.1161
 7537SOL    HW234071   2.068   1.189  15.635  0.9331  1.8916  0.8927
 7538SOL     OW34072   1.260   3.240   3.920  0.2682 -0.1172 -0.7581
 7538SOL    HW134073   1.301   3.308   3.866  0.6426  0.5671  0.3936
 7538SOL    HW234074   1.258   3.165   3.861  0.4886  0.0414 -0.9654
 7539SOL     OW34075   4.520   3.040   3.429  0.4628 -0.2060 -0.2372
 7539SOL    HW134076   4.600   2.988   3.419 -0.4393 -1.3792 -1.2547
 7539SOL    HW234077   4.471   2.980   3.485 -0.2195  1.8778  1.3820
 7540SOL     OW34078   3.922   0.354   4.697 -0.1190  0.7943  0.7867
 7540SOL    HW134079   3.827   0.346   4.699  0.0944 -1.9996 -0.6462
 7540SOL    HW234080   3.919   0.448   4.681 -0.1602  0.3185 -1.9075
 7541SOL     OW34081   4.262   4.322   4.321  0.2936 -0.4908 -0.3327
 7541SOL    HW134082   4.343   4.276   4.298  0.6361 -1.0110  1.8940
 7541SOL    HW234083   4.208   4.262   4.270 -0.9732 -0.0927  0.5429
 7542SOL     OW34084   2.964   3.819   3.951 -0.4960  0.5952  0.5344
 7542SOL    HW134085   2.918   3.826   3.868  1.2174 -2.4556 -0.6642
 7542SOL    HW234086   3.039   3.879   3.950 -0.5463  0.6731  1.1389
 7543SOL     OW34087   0.450   2.588   1.647 -0.3222 -0.0123 -0.4143
 7543SOL    HW134088   0.426   2.616   1.736  0.6847  0.4501 -0.2874
 7543SOL    HW234089   0.385   2.521   1.629  0.8892 -0.5926 -2.5294
 7544SOL     OW34090   1.733   2.827  15.735  0.1716  0.4068  0.0981
 7544SOL    HW134091   1.770   2.916  15.739 -1.1135  0.9438  0.1891
 7544SOL    HW234092   1.765   2.787  15.815  0.0007  0.1185  0.0191
 7545SOL     OW34093   0.740   2.819   4.110 -0.2073 -0.1856 -0.3477
 7545SOL    HW134094   0.718   2.901   4.065 -1.0517 -1.0395 -1.4806
 7545SOL    HW234095   0.658   2.772   4.095 -0.1378 -0.5286  0.3381
 7546SOL     OW34096   4.442   4.493   8.127  0.3890  0.6386  0.5593
 7546SOL    HW134097   4.421   4.507   8.220  0.9716 -0.8254  0.9177
 7546SOL    HW234098   4.508   4.424   8.135 -1.3246 -1.0043  0.7067
 7547SOL     OW34099   0.276   0.700  14.115 -0.3219 -0.5417 -0.3193
 7547SOL    HW134100   0.211   0.703  14.045 -0.7521  1.0645  0.1604
 7547SOL    HW234101   0.237   0.629  14.166 -1.5389 -1.1776 -2.1488
 7548SOL     OW34102   2.914   1.167   8.354 -0.0490  0.2879 -0.7412
 7548SOL    HW134103   2.829   1.154   8.397  0.7299  0.3259  0.8289
 7548SOL    HW234104   2.970   1.113   8.410  0.0591  1.6100  0.4245
 7549SOL     OW34105   0.107   3.729   5.291  0.6746  0.2269  0.5163
 7549SOL    HW134106   0.120   3.641   5.325  0.0495  0.2979  0.9567
 7549SOL    HW234107   0.067   3.776   5.365  0.5738  1.8879 -0.5987
 7550SOL     OW34108   0.774   1.300   9.273 -0.3211  0.3657 -0.3934
 7550SOL    HW134109   0.827   1.238   9.323 -1.9480  0.0126  0.9159
 7550SOL    HW234110   0.843   1.337   9.219 -0.1546 -0.3436 -0.6690
 7551SOL     OW34111   0.792   3.379   7.443 -0.2156 -0.4311 -0.4894
 7551SOL    HW134112   0.796   3.443   7.372  2.4168 -1.1058 -0.9622
 7551SOL    HW234113   0.800   3.435   7.519  0.0875 -0.0877 -0.7751
 7552SOL     OW34114   1.274   3.354  14.212  0.5869  0.0837  0.0494
 7552SOL    HW134115   1.230   3.420  14.267 -0.8727 -0.0211 -0.9950
 7552SOL    HW234116   1.240   3.380  14.127 -0.7127  0.8700  0.8047
 7553SOL     OW34117   0.897   0.860  15.135  0.6642  0.7463  0.0604
 7553SOL    HW134118   0.935   0.937  15.177  1.8428  0.0845  0.2074
 7553SOL    HW234119   0.837   0.897  15.071  1.6449 -1.3603 -2.1022
 7554SOL     OW34120   1.156   3.610   6.203 -0.0030  0.1407 -0.8063
 7554SOL    HW134121   1.244   3.630   6.170 -0.2562 -0.7979 -2.0485
 7554SOL    HW234122   1.138   3.525   6.163  1.4238 -0.2415 -0.6298
 7555SOL     OW34123   3.159   3.129  14.296 -0.3000  0.0552 -0.6555
 7555SOL    HW134124   3.202   3.045  14.314 -1.0485 -0.6328 -2.0405
 7555SOL    HW234125   3.165   3.162  14.385 -1.9680 -2.4414  0.3859
 7556SOL     OW34126   3.942   4.411  12.856  0.7714  0.4039  0.2271
 7556SOL    HW134127   3.991   4.444  12.931  0.6270  2.2725 -0.4914
 7556SOL    HW234128   3.907   4.328  12.887 -0.3719  0.6818 -0.3352
 7557SOL     OW34129   3.772   0.093  14.125 -0.3727 -0.8540 -0.1688
 7557SOL    HW134130   3.831   0.017  14.119 -0.8030 -0.9442 -3.6365
 7557SOL    HW234131   3.812   0.155  14.064  1.1712  0.9803  2.7530
 7558SOL     OW34132   3.084   1.471   2.395 -1.0300  0.3127  0.3596
 7558SOL    HW134133   3.073   1.543   2.457  2.9804  1.0022  0.2914
 7558SOL    HW234134   3.094   1.402   2.460  1.0084  0.4480  0.2136
 7559SOL     OW34135   4.692   3.638   4.229 -0.3578 -0.3909  0.3684
 7559SOL    HW134136   4.687   3.720   4.277 -1.1044 -1.0035  1.3342
 7559SOL    HW234137   4.599   3.619   4.215 -0.8305  0.9214  1.7497
 7560SOL     OW34138   4.249   2.362   3.516 -0.4867  0.4362  0.0982
 7560SOL    HW134139   4.277   2.280   3.476 -1.3961  0.8116 -1.3077
 7560SOL    HW234140   4.331   2.411   3.527 -0.3902  0.7877 -2.0933
 7561SOL     OW34141   3.508   1.501   6.410  0.5687 -0.1889 -0.5987
 7561SOL    HW134142   3.467   1.464   6.488  1.5808 -0.8127 -0.3707
 7561SOL    HW234143   3.444   1.572   6.401 -0.6420 -1.2741 -0.5393
 7562SOL     OW34144   1.814   1.408   6.531  0.5363  0.3569 -0.1922
 7562SOL    HW134145   1.831   1.473   6.599 -1.4441  0.1036  0.5223
 7562SOL    HW234146   1.856   1.329   6.563  1.4137  0.3798 -1.2816
 7563SOL     OW34147   0.376   1.644   4.610 -0.5465  0.1973  0.2178
 7563SOL    HW134148   0.459   1.598   4.612  1.1842  3.3565  0.7070
 7563SOL    HW234149   0.371   1.667   4.703  1.9037 -0.1797  0.4236
 7564SOL     OW34150   3.052   3.577   3.618  0.0185  0.2323  0.6548
 7564SOL    HW134151   3.106   3.556   3.542  0.0215  1.1979  0.3988
 7564SOL    HW234152   3.043   3.671   3.603  1.5870  0.1621 -0.7145
 7565SOL     OW34153   4.677   2.367  11.662 -0.0164  0.2071  0.2624
 7565SOL    HW134154   0.040   2.410  11.649  1.0050 -1.7852  0.3037
 7565SOL    HW234155   4.619   2.430  11.618 -0.9289  1.4740  3.3127
 7566SOL     OW34156   1.209   2.118   7.736  0.0138  0.0553 -0.5524
 7566SOL    HW134157   1.262   2.191   7.769 -0.6812  0.4452 -0.3053
 7566SOL    HW234158   1.124   2.150   7.765  0.2712  0.4159 -0.1863
 7567SOL     OW34159   0.221   2.957  10.849  0.0782  0.1964  0.0357
 7567SOL    HW134160   0.300   2.935  10.800  0.7359  0.3767  1.0207
 7567SOL    HW234161   0.179   2.871  10.859  0.8938  0.0661  2.2535
 7568SOL     OW34162   0.958   2.358   1.819  0.3969  0.4125  0.3207
 7568SOL    HW134163   1.006   2.352   1.902 -0.6650 -1.7688  0.7961
 7568SOL    HW234164   0.981   2.276   1.776 -0.2781 -0.9717  2.5981
 7569SOL     OW34165   1.890   0.628   5.613  0.1953  0.0252 -0.4681
 7569SOL    HW134166   1.984   0.610   5.611  0.1599  0.1406 -3.1649
 7569SOL    HW234167   1.871   0.535   5.603 -1.4737  0.5945 -2.6627
 7570SOL     OW34168   4.658   3.431  15.094  0.1748 -0.2565 -0.8968
 7570SOL    HW134169   0.003   3.498  15.110  1.4256 -1.1786 -2.2089
 7570SOL    HW234170   4.711   3.352  15.101  2.4370  1.2676 -1.0769
 7571SOL     OW34171   0.106   0.971  17.253 -0.0725  0.1660 -0.0862
 7571SOL    HW134172   0.083   0.993  17.343  0.5776 -0.8982  0.3392
 7571SOL    HW234173   0.171   0.904  17.271  0.0301 -0.7037 -3.7801
 7572SOL     OW34174   1.751   4.373  10.634 -0.0536 -0.0019 -1.4763
 7572SOL    HW134175   1.748   4.414  10.720  1.0843  1.1244 -1.9704
 7572SOL    HW234176   1.809   4.433  10.587  3.0706 -1.3833  0.5926
 7573SOL     OW34177   3.648   0.310   4.688 -0.1306 -0.1140 -0.4419
 7573SOL    HW134178   3.635   0.285   4.597 -2.9440  1.1825 -0.3957
 7573SOL    HW234179   3.580   0.375   4.704 -0.7565 -1.3457  2.0026
 7574SOL     OW34180   1.001   1.780  10.270  0.5690 -0.1830 -0.0070
 7574SOL    HW134181   1.025   1.872  10.286 -0.0861 -0.0518  0.2146
 7574SOL    HW234182   0.920   1.781  10.220  2.0745  0.8114 -2.4058
 7575SOL     OW34183   2.530   0.603   5.625  0.3314 -0.5255 -0.1234
 7575SOL    HW134184   2.507   0.633   5.713  1.6508  0.0427  0.0344
 7575SOL    HW234185   2.607   0.657   5.610  0.7315 -1.1855 -0.4391
 7576SOL     OW34186   4.563   0.375  10.969 -0.1898 -0.0609 -0.1089
 7576SOL    HW134187   4.538   0.448  11.026 -0.8098 -0.2990 -0.0761
 7576SOL    HW234188   4.479   0.344  10.935 -0.9527  1.4159  0.4258
 7577SOL     OW34189   1.975   1.872   7.492  0.7457 -0.1780  0.1134
 7577SOL    HW134190   2.005   1.809   7.557  0.3540 -0.6907 -0.2138
 7577SOL    HW234191   2.015   1.834   7.414  1.2150  1.3851 -0.4261
 7578SOL     OW34192   4.488   2.371   4.602  0.7250 -0.0425 -0.0565
 7578SOL    HW134193   4.476   2.456   4.644  0.0480 -0.7095  1.1196
 7578SOL    HW234194   4.413   2.371   4.542  1.3865 -1.6828 -0.8880
 7579SOL     OW34195   3.391   2.407   1.493  0.1574 -0.4255 -0.6660
 7579SOL    HW134196   3.392   2.333   1.553 -2.5154 -0.6421 -0.8779
 7579SOL    HW234197   3.374   2.483   1.548  0.2478  0.2092 -1.5080
 7580SOL     OW34198   0.251   2.673   3.730  0.1035  0.0429  0.1243
 7580SOL    HW134199   0.263   2.736   3.801 -1.6346  1.1369 -0.5452
 7580SOL    HW234200   0.275   2.592   3.775  0.0197 -1.3112 -2.2549
 7581SOL     OW34201   1.498   4.437  17.458  0.4178 -0.2859  0.2124
 7581SOL    HW134202   1.495   4.520  17.410  0.5701 -1.1373 -1.2500
 7581SOL    HW234203   1.576   4.438  17.512  0.4606 -0.8773  0.1599
 7582SOL     OW34204   0.394   3.157   1.699 -0.3053 -0.1565 -0.1462
 7582SOL    HW134205   0.466   3.094   1.711 -0.4679 -0.2959  0.1012
 7582SOL    HW234206   0.332   3.105   1.750 -0.4923  2.2329  2.0635
 7583SOL     OW34207   2.282   1.535   4.880 -0.1329 -0.0972 -0.3159
 7583SOL    HW134208   2.328   1.589   4.816  2.8389 -2.6737 -0.3243
 7583SOL    HW234209   2.270   1.600   4.950  1.2662 -0.8201  0.5907
 7584SOL     OW34210   4.709   1.602   9.048  0.6329 -0.1313  0.2741
 7584SOL    HW134211   4.689   1.529   9.106 -1.0028 -0.8436 -1.1688
 7584SOL    HW234212   0.082   1.617   9.053  0.3499  2.3087 -1.8997
 7585SOL     OW34213   2.299   1.084  12.015  0.1503  0.1246  0.8073
 7585SOL    HW134214   2.280   1.131  11.933 -0.1822  1.7739  1.8213
 7585SOL    HW234215   2.385   1.058  11.984 -1.2425 -2.9783 -0.4284
 7586SOL     OW34216   3.040   2.299   1.477  0.4207 -0.1304  0.3520
 7586SOL    HW134217   2.969   2.235   1.483 -0.3791  0.7781  0.5536
 7586SOL    HW234218   2.996   2.376   1.512  0.8831  0.1450  0.3235
 7587SOL     OW34219   1.535   2.042   8.069 -0.4359  0.2558 -0.3017
 7587SOL    HW134220   1.583   2.031   8.150 -2.0104 -0.0270  0.5875
 7587SOL    HW234221   1.510   2.133   8.081 -1.9632 -0.0366 -1.1716
 7588SOL     OW34222   4.138   2.186   8.309 -0.0304  0.4079 -0.1429
 7588SOL    HW134223   4.058   2.232   8.331  0.0962  0.5272  0.0687
 7588SOL    HW234224   4.127   2.098   8.347 -0.8239 -0.7785 -3.1589
 7589SOL     OW34225   2.948   2.005   0.105 -0.3688  0.3438  0.4287
 7589SOL    HW134226   2.965   2.090   0.065 -0.6197  0.3947  0.4276
 7589SOL    HW234227   3.026   1.998   0.160 -0.6271  0.7175  0.8337
 7590SOL     OW34228   4.321   0.502  10.616 -0.6200 -0.5602 -0.3692
 7590SOL    HW134229   4.375   0.546  10.550  1.5922  0.2492  2.0287
 7590SOL    HW234230   4.379   0.428  10.632  0.4806  0.6778  1.3611
 7591SOL     OW34231   3.652   2.872   6.183  0.0341  0.4020 -0.1231
 7591SOL    HW134232   3.562   2.844   6.202  0.1665  0.0860  0.0383
 7591SOL    HW234233   3.648   2.920   6.101  0.4484 -0.0310 -0.3995
 7592SOL     OW34234   1.450   1.118  17.178  0.5266 -0.7006 -0.0885
 7592SOL    HW134235   1.438   1.084  17.267  1.1916  0.2057  0.3428
 7592SOL    HW234236   1.517   1.059  17.144  0.5464 -1.4538  1.2538
 7593SOL     OW34237   4.466   0.967  17.067 -0.0708 -0.3895 -0.0490
 7593SOL    HW134238   4.487   1.055  17.098  0.7011 -0.6316  0.0949
 7593SOL    HW234239   4.538   0.943  17.008  0.2014 -1.1985  0.6267
 7594SOL     OW34240   0.011   2.783   3.644 -0.2944  0.3632  0.0226
 7594SOL    HW134241   0.091   2.730   3.648 -0.0365  0.6063 -1.8930
 7594SOL    HW234242   0.013   2.815   3.554  0.7529 -0.6751 -0.3406
 7595SOL     OW34243   3.100   0.882   6.109  0.0714 -0.2730  0.1526
 7595SOL    HW134244   3.165   0.858   6.175  0.8075  1.9939  0.2492
 7595SOL    HW234245   3.075   0.793   6.084  1.0501 -0.9277  1.4923
 7596SOL     OW34246   1.266   3.002   7.732 -0.2323 -0.2364 -0.0429
 7596SOL    HW134247   1.188   2.946   7.730 -0.0762 -0.3684 -2.1211
 7596SOL    HW234248   1.333   2.947   7.771 -0.9460  0.1848  1.7975
 7597SOL     OW34249   2.488   4.103  14.728 -0.3249 -1.3841 -0.5101
 7597SOL    HW134250   2.535   4.180  14.762 -0.4786 -0.5923 -2.0935
 7597SOL    HW234251   2.513   4.040  14.795 -1.9986 -0.5681  0.8701
 7598SOL     OW34252   0.939   2.457   1.355  0.4068 -0.6272  0.3205
 7598SOL    HW134253   1.018   2.406   1.337  1.3574  0.8151  0.3531
 7598SOL    HW234254   0.967   2.528   1.297  0.7597  1.5396  3.0889
 7599SOL     OW34255   2.798   0.900   7.760 -0.4838 -0.2907  0.4353
 7599SOL    HW134256   2.811   0.823   7.815 -1.9201 -2.1491 -1.7826
 7599SOL    HW234257   2.888   0.926   7.744 -0.2651 -1.2086  0.1964
 7600SOL     OW34258   1.974   1.192   6.367 -0.3354  0.3681  0.5298
 7600SOL    HW134259   2.030   1.264   6.395 -0.5383  1.6234 -2.2081
 7600SOL    HW234260   2.015   1.119   6.413  1.0015  0.4193 -0.5792
 7601SOL     OW34261   2.270   1.301   7.678  0.1755  0.0201 -0.4551
 7601SOL    HW134262   2.229   1.292   7.593 -0.5078 -2.6520  0.1412
 7601SOL    HW234263   2.193   1.320   7.732 -0.8282  0.1614 -1.9550
 7602SOL     OW34264   2.131   4.336   7.583 -0.2131 -0.4730 -0.3015
 7602SOL    HW134265   2.214   4.304   7.547 -1.1685 -2.9479 -0.2712
 7602SOL    HW234266   2.140   4.319   7.676  0.6072 -0.6682 -0.4155
 7603SOL     OW34267   2.979   1.113   8.012  0.0975 -0.3706 -0.6346
 7603SOL    HW134268   2.953   1.107   7.920  0.9976  1.8693 -1.0313
 7603SOL    HW234269   2.898   1.123   8.063  1.1899  1.3254  0.7379
 7604SOL     OW34270   3.733   2.114   9.455  0.0293 -0.1193  0.1263
 7604SOL    HW134271   3.638   2.112   9.463  0.0576  0.0805  0.4786
 7604SOL    HW234272   3.743   2.207   9.475  1.9970  0.1491 -2.0561
 7605SOL     OW34273   0.098   2.436  10.621 -0.4828  0.5112 -0.4432
 7605SOL    HW134274   0.103   2.389  10.704 -0.0419  1.6083  0.1482
 7605SOL    HW234275   0.143   2.520  10.631  4.3011 -2.0321 -1.0272
 7606SOL     OW34276   3.139   2.292  15.947 -0.2121 -0.1204 -0.3674
 7606SOL    HW134277   3.198   2.312  16.020  0.2616 -0.7773 -0.5696
 7606SOL    HW234278   3.209   2.256  15.892  0.1523 -0.0251  0.0359
 7607SOL     OW34279   4.260   3.829   2.285  0.4594 -0.1982  0.0298
 7607SOL    HW134280   4.353   3.806   2.283 -0.0452 -2.0236 -3.8000
 7607SOL    HW234281   4.229   3.748   2.325 -1.5776  0.6978  0.2361
 7608SOL     OW34282   0.791   1.158  12.047 -0.1216  0.3178  0.0579
 7608SOL    HW134283   0.726   1.191  12.109 -1.0279  0.8858 -1.2054
 7608SOL    HW234284   0.788   1.064  12.064 -0.3402  0.0727 -1.3231
 7609SOL     OW34285   2.057   1.251   5.067  0.3249  0.3333  0.2148
 7609SOL    HW134286   2.040   1.343   5.088 -1.2439  0.0047  0.3225
 7609SOL    HW234287   2.060   1.257   4.971  1.5918 -2.1625  0.0981
 7610SOL     OW34288   0.083   1.255   8.905 -0.3536  0.3182 -0.4479
 7610SOL    HW134289   0.100   1.295   8.989  0.3503 -3.2416  1.1007
 7610SOL    HW234290   0.173   1.248   8.872 -0.6910 -0.7758 -1.1348
 7611SOL     OW34291   3.906   0.483   2.518 -0.6412 -0.0659 -0.5220
 7611SOL    HW134292   3.833   0.451   2.570 -0.0803  0.2469  0.4471
 7611SOL    HW234293   3.854   0.548   2.471  2.5182  2.5072 -0.4624
 7612SOL     OW34294   0.604   0.596  16.787  0.0968  0.2493 -0.3231
 7612SOL    HW134295   0.649   0.525  16.743  1.8108 -0.1370  2.0136
 7612SOL    HW234296   0.655   0.601  16.868 -1.2502  1.6769  0.4384
 7613SOL     OW34297   4.541   2.561  15.252 -0.5544 -0.1045  0.2090
 7613SOL    HW134298   4.585   2.567  15.337 -1.5218  0.6769  0.6664
 7613SOL    HW234299   4.511   2.472  15.267 -0.3630 -0.3982 -1.1675
 7614SOL     OW34300   1.516   1.284  11.248 -0.2648 -0.4496 -0.4489
 7614SOL    HW134301   1.539   1.373  11.220  0.3699 -0.1745  0.9353
 7614SOL    HW234302   1.462   1.263  11.172  0.1560 -2.8507 -0.0912
 7615SOL     OW34303   4.313   0.748   3.301 -0.6324  0.0936 -0.0351
 7615SOL    HW134304   4.299   0.750   3.396 -0.0487 -1.4788  0.0877
 7615SOL    HW234305   4.354   0.662   3.289  1.4605  1.3502 -1.9774
 7616SOL     OW34306   2.716   1.907   8.058  0.6082 -0.4932  0.7574
 7616SOL    HW134307   2.749   1.984   8.103  0.3234 -1.8269  3.2424
 7616SOL    HW234308   2.653   1.859   8.112 -0.4987 -0.4613 -0.4921
 7617SOL     OW34309   3.824   1.399   0.402 -0.0532 -0.2939 -0.0191
 7617SOL    HW134310   3.870   1.461   0.459  4.1074 -0.4328 -3.2681
 7617SOL    HW234311   3.899   1.370   0.351  0.5139  0.0203  0.6411
 7618SOL     OW34312   2.459   4.673   3.959  0.5933  0.2184  0.2781
 7618SOL    HW134313   2.510   4.611   4.010 -0.3581 -1.6488 -1.0607
 7618SOL    HW234314   2.392   4.619   3.918 -0.7144  1.0577  1.2943
 7619SOL     OW34315   1.773   0.948  16.569  0.4745 -0.6248 -0.1427
 7619SOL    HW134316   1.830   0.873  16.585  0.8543  0.0537  1.6810
 7619SOL    HW234317   1.687   0.905  16.573  0.0695 -0.0250 -2.7394
 7620SOL     OW34318   3.554   1.829   5.395  0.0584  0.1279 -0.3358
 7620SOL    HW134319   3.512   1.843   5.310  3.4183 -0.9002 -2.1984
 7620SOL    HW234320   3.641   1.791   5.382  0.0807 -0.1825  0.7769
 7621SOL     OW34321   2.884   4.648   2.771 -0.2145  0.2369 -0.3752
 7621SOL    HW134322   2.883   4.692   2.856 -3.6487 -0.6542  0.0585
 7621SOL    HW234323   2.940   4.705   2.719  0.6596  1.1656  1.5916
 7622SOL     OW34324   0.200   1.239   4.529  1.0253 -0.3688  0.1982
 7622SOL    HW134325   0.240   1.224   4.615  2.6951 -4.5909 -1.3343
 7622SOL    HW234326   0.184   1.332   4.543  0.2052 -0.3370 -0.9573
 7623SOL     OW34327   2.278   3.635   4.304  0.1394  0.1612 -0.3892
 7623SOL    HW134328   2.257   3.667   4.216 -1.7789  0.1829  0.0980
 7623SOL    HW234329   2.347   3.573   4.277 -0.4825  0.0433 -1.6896
 7624SOL     OW34330   2.274   3.056   6.994  0.0377  0.4583 -0.6901
 7624SOL    HW134331   2.260   2.991   7.063  0.9176  0.1301 -0.8312
 7624SOL    HW234332   2.355   3.085   7.035  0.1767 -0.3260 -0.4173
 7625SOL     OW34333   4.364   2.408   1.035 -0.2778 -0.0758  1.0178
 7625SOL    HW134334   4.433   2.466   1.067 -0.8233  0.1701  1.7456
 7625SOL    HW234335   4.416   2.328   1.032 -0.5534 -0.2716  1.4160
 7626SOL     OW34336   1.041   2.812   9.605  0.0776 -0.1435 -0.7422
 7626SOL    HW134337   1.044   2.898   9.648 -0.8032 -0.1977 -0.5675
 7626SOL    HW234338   1.108   2.764   9.654 -0.8090 -1.7718 -1.1647
 7627SOL     OW34339   1.767   2.788   4.182  0.3182  0.4203 -0.6107
 7627SOL    HW134340   1.773   2.732   4.105  0.8204  1.8963 -1.6457
 7627SOL    HW234341   1.675   2.815   4.182 -0.0470 -0.8245  1.2854
 7628SOL     OW34342   1.784   4.151   9.146 -0.2859 -0.0744 -0.0050
 7628SOL    HW134343   1.695   4.157   9.112  0.0214 -0.4872 -0.8779
 7628SOL    HW234344   1.776   4.135   9.240  1.3703  0.6941  0.2597
 7629SOL     OW34345   4.493   1.095   6.840  0.9772  0.6703 -0.4004
 7629SOL    HW134346   4.501   1.180   6.798 -2.0458  1.0767 -0.1616
 7629SOL    HW234347   4.584   1.074   6.861  0.7885  1.0439  0.7921
 7630SOL     OW34348   0.031   3.186   6.436 -0.2353  0.0008  0.5301
 7630SOL    HW134349   0.087   3.114   6.466  0.5104 -0.0632 -1.0458
 7630SOL    HW234350   0.017   3.224   6.522 -3.1995  0.4411 -0.1453
 7631SOL     OW34351   2.775   1.868  13.101 -0.1494  0.6503  0.0697
 7631SOL    HW134352   2.861   1.857  13.060 -0.5732  0.0309 -0.6475
 7631SOL    HW234353   2.742   1.778  13.096 -0.3308  0.7432 -0.5160
 7632SOL     OW34354   4.166   1.591   4.809  0.5694  0.2730 -0.0193
 7632SOL    HW134355   4.122   1.507   4.801 -0.2781  0.6063  1.1460
 7632SOL    HW234356   4.166   1.601   4.904  1.3334  0.9275 -0.0867
 7633SOL     OW34357   4.324   3.384  17.335  0.4659  0.5409 -0.1841
 7633SOL    HW134358   4.349   3.333  17.258  2.6256 -0.4442  1.1628
 7633SOL    HW234359   4.360   3.320  17.396  1.6816  2.4869  1.1198
 7634SOL     OW34360   0.769   3.750   4.772  0.0794 -0.0786  0.2402
 7634SOL    HW134361   0.732   3.756   4.860 -1.1412 -1.6973 -0.1732
 7634SOL    HW234362   0.689   3.750   4.721  1.0229 -2.1531 -1.2418
 7635SOL     OW34363   1.343   1.360   3.129  0.3569 -0.3475 -0.3432
 7635SOL    HW134364   1.351   1.440   3.078 -0.9643  0.1243  0.1897
 7635SOL    HW234365   1.428   1.317   3.119 -0.0911 -1.4496  0.5265
 7636SOL     OW34366   1.013   1.855   2.899  0.2896  0.4216  0.0092
 7636SOL    HW134367   0.950   1.806   2.846  0.7536 -0.5145  0.3079
 7636SOL    HW234368   1.088   1.796   2.888  0.9715  1.1768  0.6018
 7637SOL     OW34369   4.542   0.361   4.164  0.0061  0.0392  0.5377
 7637SOL    HW134370   4.630   0.350   4.129 -0.6701  0.7119 -1.3950
 7637SOL    HW234371   4.486   0.295   4.121  1.3783 -0.3197 -0.6941
 7638SOL     OW34372   2.897   2.007   6.955 -0.5033 -0.2002  0.3035
 7638SOL    HW134373   2.986   2.003   6.919 -0.0410  0.6460  1.3357
 7638SOL    HW234374   2.847   2.045   6.884 -0.6411 -1.4195 -0.2514
 7639SOL     OW34375   4.164   3.902   4.018 -0.2688  0.2978  0.0904
 7639SOL    HW134376   4.193   3.818   4.055 -0.8606  0.6272  1.3053
 7639SOL    HW234377   4.071   3.883   4.002 -0.2717  2.3884 -2.2657
 7640SOL     OW34378   1.292   2.702   9.143 -0.9833 -0.6979 -0.5715
 7640SOL    HW134379   1.214   2.661   9.104 -0.7905  0.4481 -2.1818
 7640SOL    HW234380   1.270   2.688   9.235  1.4676 -0.8117 -0.0084
 7641SOL     OW34381   3.845   3.909  16.567 -0.0196  0.4560  0.7518
 7641SOL    HW134382   3.837   3.905  16.663  0.8402  0.2857  0.8198
 7641SOL    HW234383   3.758   3.884  16.537  1.5289 -1.0151 -2.4226
 7642SOL     OW34384   0.534   0.524   7.541 -0.9791  0.1651 -0.1209
 7642SOL    HW134385   0.517   0.538   7.448  2.4417 -0.9655 -0.9286
 7642SOL    HW234386   0.521   0.429   7.547  2.2931 -0.1389  2.1452
 7643SOL     OW34387   2.626   1.224   3.600  0.2314 -0.0369  0.0275
 7643SOL    HW134388   2.612   1.305   3.551 -0.0961  0.8823  1.6616
 7643SOL    HW234389   2.642   1.159   3.531 -0.1696 -0.7803  0.6351
 7644SOL     OW34390   1.902   3.683   3.401  0.0633 -0.5952 -0.7908
 7644SOL    HW134391   1.887   3.610   3.340  2.8443  0.1596 -2.3613
 7644SOL    HW234392   1.856   3.755   3.357 -1.9612 -2.0078 -1.0116
 7645SOL     OW34393   0.587   0.111   2.125 -0.3660  0.1819  0.1949
 7645SOL    HW134394   0.620   0.078   2.209 -1.8501 -1.4838  0.1227
 7645SOL    HW234395   0.496   0.134   2.145 -0.6504  0.4716 -1.4416
 7646SOL     OW34396   0.858   2.912   7.698 -0.2747  0.4325 -0.2387
 7646SOL    HW134397   0.881   2.985   7.640  3.6792 -1.8999 -1.5942
 7646SOL    HW234398   0.817   2.965   7.767  0.5890  0.2082  0.4484
 7647SOL     OW34399   0.922   3.524  11.520 -0.0601 -0.5971 -0.1073
 7647SOL    HW134400   0.974   3.508  11.599 -1.0644 -0.4004  0.5953
 7647SOL    HW234401   0.983   3.581  11.473 -0.5640 -0.1962 -0.2774
 7648SOL     OW34402   1.898   3.750   4.298  0.3490 -0.0407 -0.2465
 7648SOL    HW134403   1.968   3.767   4.362 -0.2249  2.7399 -0.3785
 7648SOL    HW234404   1.879   3.667   4.341 -0.8650 -0.1521 -1.0182
 7649SOL     OW34405   2.178   3.708   6.325  0.1543 -0.0595  0.0964
 7649SOL    HW134406   2.098   3.759   6.339  1.8798  2.9405 -0.8590
 7649SOL    HW234407   2.233   3.783   6.303 -1.1997  0.6361 -0.9562
 7650SOL     OW34408   0.545   1.798   6.130  0.1043 -0.0036  0.0362
 7650SOL    HW134409   0.630   1.818   6.091 -0.3389  0.0889 -0.8892
 7650SOL    HW234410   0.488   1.795   6.054  1.1578 -0.7049 -0.7220
 7651SOL     OW34411   4.198   0.945  16.966  0.6906  0.2869  0.4177
 7651SOL    HW134412   4.290   0.969  16.981  1.3724 -2.4026  0.4907
 7651SOL    HW234413   4.182   0.926  17.059  0.0269 -2.2927 -0.2401
 7652SOL     OW34414   0.874   2.824  14.127  0.1962 -0.3277  0.4655
 7652SOL    HW134415   0.904   2.809  14.216  0.5029  2.4708  0.8188
 7652SOL    HW234416   0.854   2.917  14.118 -1.2212 -0.5036  1.9035
 7653SOL     OW34417   0.590   0.771   7.060 -0.0784 -0.2779 -0.4531
 7653SOL    HW134418   0.527   0.840   7.038  3.1576  3.1863  1.0679
 7653SOL    HW234419   0.572   0.716   6.984 -1.5892  3.1050 -2.5444
 7654SOL     OW34420   2.945   2.441  12.221  0.1697 -0.1439  0.1381
 7654SOL    HW134421   3.032   2.456  12.183  0.8270 -1.3124  1.2033
 7654SOL    HW234422   2.969   2.424  12.312 -1.3991  1.2193  0.8020
 7655SOL     OW34423   0.935   4.527   9.944  0.0692 -0.5710 -0.1126
 7655SOL    HW134424   0.927   4.450  10.001 -0.6980  0.4964  1.2220
 7655SOL    HW234425   0.919   4.494   9.856  3.8245 -1.4088 -0.4644
 7656SOL     OW34426   1.978   1.935  12.831 -0.1116 -0.0159  0.1736
 7656SOL    HW134427   2.011   2.000  12.769 -0.5136  0.7169  0.7198
 7656SOL    HW234428   2.033   1.970  12.901 -0.7913 -3.3536  2.3331
 7657SOL     OW34429   2.413   0.103   6.884  0.3933 -0.0291  0.3874
 7657SOL    HW134430   2.332   0.142   6.916  1.1064 -0.1519  2.3339
 7657SOL    HW234431   2.454   0.178   6.840 -0.0118 -0.8601 -1.4097
 7658SOL     OW34432   0.278   4.613  17.564  0.4905  0.2108  0.0302
 7658SOL    HW134433   0.265   4.704  17.538 -0.4466 -0.3606 -1.4743
 7658SOL    HW234434   0.370   4.600  17.541  0.3674  1.1424 -0.9687
 7659SOL     OW34435   1.168   3.238   7.695 -0.0445 -0.4206  0.1298
 7659SOL    HW134436   1.237   3.277   7.642 -0.3883 -0.6198 -0.4566
 7659SOL    HW234437   1.206   3.157   7.728  1.7713  0.8785  1.1973
 7660SOL     OW34438   3.801   4.465   9.012 -0.5727  0.0392 -0.4475
 7660SOL    HW134439   3.882   4.452   9.061  0.1443  2.2006 -1.0352
 7660SOL    HW234440   3.775   4.377   8.986  3.2600 -1.2444 -0.0011
 7661SOL     OW34441   2.514   3.113   6.754 -0.1145  0.1845 -0.0345
 7661SOL    HW134442   2.431   3.066   6.762  0.3671 -0.4496  1.2891
 7661SOL    HW234443   2.478   3.197   6.727 -0.4808 -0.0638 -0.3105
 7662SOL     OW34444   1.098   2.307   4.747 -0.0943  0.2926 -0.3129
 7662SOL    HW134445   1.105   2.299   4.652 -1.8566  0.0153 -0.4297
 7662SOL    HW234446   1.166   2.374   4.753 -0.5704  0.8288 -0.8286
 7663SOL     OW34447   1.564   3.084  14.248  0.6455  0.2526 -0.1850
 7663SOL    HW134448   1.545   3.135  14.169  0.8699  1.6650  0.6764
 7663SOL    HW234449   1.546   3.154  14.312 -2.6293 -0.2541 -0.5322
 7664SOL     OW34450   2.195   2.810   9.186 -0.1247 -0.0974  0.0376
 7664SOL    HW134451   2.103   2.803   9.210  0.0550 -1.7516  0.2574
 7664SOL    HW234452   2.217   2.718   9.174 -1.1524 -0.3767  0.2501
 7665SOL     OW34453   4.003   3.512   5.123 -0.2019 -0.0534  0.1041
 7665SOL    HW134454   3.937   3.512   5.191 -0.5153  0.8213 -0.2008
 7665SOL    HW234455   3.969   3.561   5.047  2.7265  2.0096  0.0977
 7666SOL     OW34456   3.551   2.263   4.064  0.2516  0.4242  0.3664
 7666SOL    HW134457   3.552   2.180   4.111  2.1721  0.3129  0.1103
 7666SOL    HW234458   3.499   2.325   4.115 -0.6527  1.6508 -2.0119
 7667SOL     OW34459   3.619   2.796   9.029  0.2814  0.5502 -0.4546
 7667SOL    HW134460   3.562   2.854   9.079 -2.1064 -1.8560 -0.3562
 7667SOL    HW234461   3.558   2.726   9.004  0.2169 -0.1943  1.7832
 7668SOL     OW34462   0.310   3.494  15.158 -0.6688  0.4017  0.2049
 7668SOL    HW134463   0.233   3.549  15.174 -1.0978 -0.7543  2.1363
 7668SOL    HW234464   0.328   3.457  15.245  1.6892 -0.2678 -0.5496
 7669SOL     OW34465   0.391   3.871   8.493  0.7147  0.5131  0.1426
 7669SOL    HW134466   0.403   3.890   8.400 -1.6110  2.7422  0.3021
 7669SOL    HW234467   0.471   3.906   8.532  0.9647  3.0172 -2.6429
 7670SOL     OW34468   0.824   2.979   5.477  0.0424  0.3557  0.3764
 7670SOL    HW134469   0.885   2.906   5.492 -0.4264 -0.0657  0.2405
 7670SOL    HW234470   0.884   3.024   5.418  1.7739 -0.9375  1.1411
 7671SOL     OW34471   3.624   2.523   3.908  0.0934 -0.3103  0.2945
 7671SOL    HW134472   3.555   2.562   3.855 -0.4399 -1.9657 -0.2480
 7671SOL    HW234473   3.608   2.428   3.913  0.5227 -0.4780 -1.4478
 7672SOL     OW34474   3.926   3.876   8.366  0.8656 -0.2794  0.1051
 7672SOL    HW134475   3.985   3.856   8.293 -0.0222  2.0705 -1.2704
 7672SOL    HW234476   3.964   3.959   8.395  2.8781 -0.5455 -1.7680
 7673SOL     OW34477   0.975   0.137   5.808  0.0954 -1.0497  0.0095
 7673SOL    HW134478   0.898   0.117   5.755  1.8976 -3.4407 -1.7320
 7673SOL    HW234479   0.958   0.092   5.891 -0.6862  0.4502  0.6464
 7674SOL     OW34480   3.846   3.016   2.950  0.8710 -0.1255 -0.3494
 7674SOL    HW134481   3.801   3.047   3.028 -0.4929  0.7567 -1.4681
 7674SOL    HW234482   3.794   2.944   2.912  1.7348 -0.6363 -0.5604
 7675SOL     OW34483   2.491   4.660   1.589 -0.5691  0.4654  0.1341
 7675SOL    HW134484   2.461   4.603   1.518 -0.8328 -0.0826  0.6879
 7675SOL    HW234485   2.586   4.661   1.576 -0.5492 -1.4766  0.1460
 7676SOL     OW34486   2.188   0.694   8.606 -0.1565 -0.5206  0.1026
 7676SOL    HW134487   2.177   0.771   8.663  0.0666 -0.2320 -0.2444
 7676SOL    HW234488   2.221   0.628   8.667  0.1385 -0.8647 -0.4273
 7677SOL     OW34489   0.618   0.204   4.615  0.2600  0.3946  0.1574
 7677SOL    HW134490   0.603   0.117   4.653  0.5083 -0.5483 -1.8959
 7677SOL    HW234491   0.679   0.188   4.543  1.3906  0.9036  1.0001
 7678SOL     OW34492   2.464   0.671   6.280 -0.3783 -0.1575 -0.2614
 7678SOL    HW134493   2.460   0.702   6.371  1.3215  1.9313 -0.9120
 7678SOL    HW234494   2.558   0.671   6.264 -0.4048  0.6039 -0.4214
 7679SOL     OW34495   1.765   1.393   3.629  0.2667 -0.2086 -0.5311
 7679SOL    HW134496   1.715   1.423   3.704 -0.8916  1.4795 -1.9596
 7679SOL    HW234497   1.790   1.477   3.589 -0.2051  0.1996  0.0468
 7680SOL     OW34498   3.974   2.155   1.419 -0.0475 -0.7355 -0.5680
 7680SOL    HW134499   4.000   2.088   1.482  0.9691  2.0068  1.8955
 7680SOL    HW234500   4.060   2.195   1.408  0.2621 -1.2681 -0.0925
 7681SOL     OW34501   1.017   2.481   7.870  0.2387 -0.2211 -0.0235
 7681SOL    HW134502   0.937   2.514   7.911  0.8278  0.0111  0.9209
 7681SOL    HW234503   1.093   2.517   7.914  0.6098  1.1678 -1.8013
 7682SOL     OW34504   2.656   4.698   1.885 -0.0819  0.1767  0.4041
 7682SOL    HW134505   2.688   4.711   1.796 -1.2863  0.5258  0.0226
 7682SOL    HW234506   2.564   4.714   1.866 -0.1938 -1.4624 -0.4062
 7683SOL     OW34507   4.630   2.202   8.745 -0.0160  0.5372 -0.4441
 7683SOL    HW134508   4.641   2.231   8.836 -0.5372 -1.8432  0.3720
 7683SOL    HW234509   4.562   2.135   8.754 -1.3184  2.0589  1.2376
 7684SOL     OW34510   2.322   3.881  13.806  0.0544  0.3989 -0.5238
 7684SOL    HW134511   2.369   3.959  13.776  0.6317  0.2298 -0.0483
 7684SOL    HW234512   2.398   3.831  13.836 -0.2797  1.1424  1.5523
 7685SOL     OW34513   2.772   4.703   1.591  0.0068 -0.1561 -0.4302
 7685SOL    HW134514   2.757   4.622   1.543 -0.0903  1.2133 -2.7088
 7685SOL    HW234515   2.855   0.011   1.552 -0.6411  0.8865 -1.0066
 7686SOL     OW34516   3.738   1.996   6.231 -0.4448 -0.0463  0.0103
 7686SOL    HW134517   3.832   1.983   6.225 -0.6112 -1.9503  1.6180
 7686SOL    HW234518   3.731   2.023   6.140  1.2794  3.0298  0.7905
 7687SOL     OW34519   0.838   0.395   2.114 -0.1997 -0.0390  0.0306
 7687SOL    HW134520   0.853   0.320   2.058  2.9367 -0.8740  1.9544
 7687SOL    HW234521   0.923   0.419   2.152  0.0291  0.6213 -0.8839
 7688SOL     OW34522   0.047   0.484  16.643  0.7920 -0.0959 -0.3429
 7688SOL    HW134523   0.020   0.566  16.683 -1.8628 -1.8836  1.5725
 7688SOL    HW234524   0.079   0.429  16.715  0.7943 -0.8523 -0.9203
 7689SOL     OW34525   2.866   1.454   3.868  0.6772 -0.1050 -0.7375
 7689SOL    HW134526   2.812   1.465   3.946 -0.0519 -1.4131 -1.0584
 7689SOL    HW234527   2.880   1.359   3.869 -0.4908 -0.2588  2.2957
 7690SOL     OW34528   2.560   2.449  17.208  0.2651 -0.3332 -0.3897
 7690SOL    HW134529   2.597   2.472  17.293 -0.5192 -1.6981  0.3321
 7690SOL    HW234530   2.476   2.493  17.197  0.0900 -0.4932  0.2631
 7691SOL     OW34531   0.187   1.234   8.462  0.4935 -0.9791 -0.2790
 7691SOL    HW134532   0.153   1.160   8.511  0.5598 -0.5164  0.4578
 7691SOL    HW234533   0.152   1.229   8.373  0.4554  0.8252 -0.3687
 7692SOL     OW34534   0.890   3.822   2.584  0.3539 -0.7112  0.5049
 7692SOL    HW134535   0.959   3.883   2.558  0.0065  0.8211  3.0958
 7692SOL    HW234536   0.809   3.854   2.544  1.1262 -0.2250 -0.6609
 7693SOL     OW34537   0.482   1.952   4.761 -0.5643 -0.2602 -0.0577
 7693SOL    HW134538   0.528   1.876   4.796 -0.7203 -0.4320 -0.2222
 7693SOL    HW234539   0.424   1.980   4.831  0.1552 -1.3855  0.9961
 7694SOL     OW34540   2.568   3.898   4.630  0.0272  0.6231 -0.3999
 7694SOL    HW134541   2.550   3.858   4.715 -0.8576  2.0315  0.0620
 7694SOL    HW234542   2.623   3.834   4.585 -1.1360 -1.3450  0.9794
 7695SOL     OW34543   0.729   1.143   4.952 -0.2215 -0.0127 -0.5753
 7695SOL    HW134544   0.654   1.121   4.896 -0.1974  1.0625 -1.0291
 7695SOL    HW234545   0.685   1.175   5.030 -0.2485 -1.9321  0.1962
 7696SOL     OW34546   2.643   4.085  13.379 -0.4336 -0.3245 -0.3169
 7696SOL    HW134547   2.714   4.042  13.426 -1.6410 -0.0803  1.7587
 7696SOL    HW234548   2.571   4.027  13.404 -0.9082  0.4040  0.0231
 7697SOL     OW34549   3.076   2.178  16.923  1.0446 -0.2652 -0.2860
 7697SOL    HW134550   3.051   2.130  16.844  0.4687 -1.7130  0.7791
 7697SOL    HW234551   3.169   2.194  16.907  0.6954 -0.6083 -2.6439
 7698SOL     OW34552   2.425   2.372   4.925  0.2778  0.5577  0.5410
 7698SOL    HW134553   2.415   2.419   4.842 -0.9308  2.2001  1.6107
 7698SOL    HW234554   2.347   2.400   4.972  0.1181 -0.8087  1.0794
 7699SOL     OW34555   3.650   0.383   2.627 -0.4595  0.3740  0.1740
 7699SOL    HW134556   3.594   0.392   2.704 -1.5400 -0.9454 -0.4521
 7699SOL    HW234557   3.629   0.470   2.595  2.6647  1.6103  1.4772
 7700SOL     OW34558   1.376   3.494   8.426  0.2927 -0.6824 -0.5624
 7700SOL    HW134559   1.281   3.490   8.439  0.3976 -2.4205 -0.2663
 7700SOL    HW234560   1.375   3.549   8.348 -2.5494  0.7824  0.5224
 7701SOL     OW34561   1.957   1.125   9.691 -0.6296  0.0840  0.3644
 7701SOL    HW134562   2.017   1.056   9.662 -1.0788 -1.0835  2.2096
 7701SOL    HW234563   2.014   1.201   9.691  0.3033 -0.6210 -1.1502
 7702SOL     OW34564   2.129   3.606  12.863 -0.3376 -0.1664 -0.6255
 7702SOL    HW134565   2.127   3.534  12.800 -0.5506 -1.4520  0.8476
 7702SOL    HW234566   2.038   3.599  12.893  0.7862 -2.7211  2.1101
 7703SOL     OW34567   4.610   3.033  16.994 -0.5895  0.0073 -0.2403
 7703SOL    HW134568   4.590   2.975  17.068  0.3166  0.7055  0.5656
 7703SOL    HW234569   4.684   3.081  17.032 -1.7348 -0.1577  2.1997
 7704SOL     OW34570   0.968   2.340  16.347  0.0714  0.1579  1.1952
 7704SOL    HW134571   0.898   2.405  16.353 -0.1749 -0.1432  1.6338
 7704SOL    HW234572   1.014   2.355  16.430  2.1736 -1.4874  0.3335
 7705SOL     OW34573   2.378   2.410   4.650 -0.3381 -0.3162  0.0338
 7705SOL    HW134574   2.466   2.434   4.620 -1.0736  2.9538  0.5084
 7705SOL    HW234575   2.327   2.380   4.575  1.5444  1.5988 -1.9729
 7706SOL     OW34576   3.758   2.605  12.762  0.2487  0.4345 -0.3834
 7706SOL    HW134577   3.682   2.663  12.764  0.8010  1.1991 -1.4074
 7706SOL    HW234578   3.811   2.663  12.817  2.1477 -2.8057  1.2275
 7707SOL     OW34579   2.829   0.867   6.454  0.1428  0.1178  0.1564
 7707SOL    HW134580   2.802   0.796   6.512 -0.1723 -0.2675 -0.4599
 7707SOL    HW234581   2.924   0.864   6.449  0.2504  0.9543  2.0574
 7708SOL     OW34582   0.196   1.785   6.667 -0.3369  0.1958  0.1240
 7708SOL    HW134583   0.189   1.808   6.760 -0.7785 -0.0238  0.1459
 7708SOL    HW234584   0.104   1.761   6.653 -0.3081  0.8505 -1.1868
 7709SOL     OW34585   1.750   3.249  13.945  0.4126  0.5077  0.1178
 7709SOL    HW134586   1.788   3.331  13.977 -1.3686  0.8647  1.3183
 7709SOL    HW234587   1.656   3.258  13.959 -0.5780 -3.4892 -3.8553
 7710SOL     OW34588   2.012   3.317   5.382 -0.3091  0.4711  0.2725
 7710SOL    HW134589   1.953   3.282   5.448  0.6933 -0.0918  0.8644
 7710SOL    HW234590   2.090   3.266   5.402 -1.5430 -0.9579  1.4563
 7711SOL     OW34591   0.363   1.186   4.793 -0.3771  0.1261  0.4352
 7711SOL    HW134592   0.434   1.242   4.765  1.6655 -1.4245  2.4421
 7711SOL    HW234593   0.377   1.169   4.886 -1.6731  0.1415  0.6339
 7712SOL     OW34594   2.884   2.076   0.562  0.3449 -0.3951 -0.3201
 7712SOL    HW134595   2.950   2.036   0.505 -1.4780 -3.0642 -0.5737
 7712SOL    HW234596   2.805   2.032   0.531 -1.1464  1.1424  1.3267
 7713SOL     OW34597   0.720   3.577   2.542  0.2803  0.4022 -0.0993
 7713SOL    HW134598   0.758   3.663   2.561  0.1964 -0.3671  3.6156
 7713SOL    HW234599   0.640   3.577   2.595  0.5880  0.1127  0.3655
 7714SOL     OW34600   1.985   1.878   7.182  0.7004 -0.3331 -0.1505
 7714SOL    HW134601   1.959   1.787   7.177  0.2269 -0.0779 -2.4994
 7714SOL    HW234602   2.081   1.870   7.178  0.7234 -0.7959  1.4608
 7715SOL     OW34603   3.338   3.984   4.646  0.6035 -0.1705 -0.4679
 7715SOL    HW134604   3.285   3.908   4.669 -0.9230  0.9575 -0.2833
 7715SOL    HW234605   3.337   3.968   4.552 -0.3777 -0.1277 -0.4643
 7716SOL     OW34606   2.185   1.333  10.212 -0.6104 -0.2121  0.0134
 7716SOL    HW134607   2.173   1.320  10.118  0.3994  1.2331 -0.3174
 7716SOL    HW234608   2.189   1.243  10.244  0.4046 -0.4213 -0.7001
 7717SOL     OW34609   1.101   3.461  10.998  0.3089 -0.7444  0.5907
 7717SOL    HW134610   1.183   3.497  10.966  0.8714 -1.8298  0.8333
 7717SOL    HW234611   1.093   3.371  10.965  1.2091 -1.1781  1.5596
 7718SOL     OW34612   2.657   2.320   6.936 -0.3769  0.0153 -0.0068
 7718SOL    HW134613   2.567   2.305   6.908 -0.1558  1.4202 -1.5172
 7718SOL    HW234614   2.713   2.251   6.900  2.0178  1.4505  0.9471
 7719SOL     OW34615   2.422   2.605   6.694  0.6897  0.7128  0.1128
 7719SOL    HW134616   2.421   2.542   6.622 -0.0788  0.6266  0.2009
 7719SOL    HW234617   2.517   2.602   6.707  0.8881  1.5100 -1.1066
 7720SOL     OW34618   0.124   3.104   7.375  0.5330  0.5832 -0.2224
 7720SOL    HW134619   0.126   3.029   7.315  1.4014 -0.7091  1.4445
 7720SOL    HW234620   0.154   3.164   7.307 -0.8221  1.2727 -0.2033
 7721SOL     OW34621   0.420   1.131   8.330 -0.2311  0.0205 -0.1055
 7721SOL    HW134622   0.343   1.168   8.374  0.1059  2.7231 -1.8244
 7721SOL    HW234623   0.453   1.202   8.276 -1.3793  1.2204  0.7566
 7722SOL     OW34624   2.706   0.648   6.967  0.7285 -0.2827  0.1500
 7722SOL    HW134625   2.670   0.580   7.024 -0.4325 -0.9666 -1.3886
 7722SOL    HW234626   2.774   0.689   7.020 -1.0763  1.5175  1.1078
 7723SOL     OW34627   2.299   1.743  15.894  0.3512  0.1096  0.3204
 7723SOL    HW134628   2.386   1.709  15.912 -0.0380 -0.2110  1.6332
 7723SOL    HW234629   2.311   1.781  15.808  1.5857  0.3154  0.5917
 7724SOL     OW34630   3.514   4.186   7.036  0.8126  0.1509 -0.3824
 7724SOL    HW134631   3.511   4.091   7.027 -1.4120  0.1456  0.2900
 7724SOL    HW234632   3.441   4.215   6.981 -0.1048  0.9569  1.2403
 7725SOL     OW34633   3.876   1.147   3.317  0.0216 -0.1585 -0.1229
 7725SOL    HW134634   3.786   1.152   3.285 -0.1150  0.7130  0.3925
 7725SOL    HW234635   3.892   1.058   3.287  1.3854  0.7482 -2.0627
 7726SOL     OW34636   2.939   1.648  12.207 -0.5049 -0.4946  0.6129
 7726SOL    HW134637   2.896   1.696  12.136  1.9229 -0.1319 -0.6204
 7726SOL    HW234638   2.914   1.703  12.282  0.6807  0.4672  0.2893
 7727SOL     OW34639   0.928   3.831   6.532  0.7138 -0.4256 -0.5048
 7727SOL    HW134640   1.016   3.801   6.510  0.6513 -0.5743 -0.5487
 7727SOL    HW234641   0.905   3.865   6.445 -0.4482 -0.9298 -0.3840
 7728SOL     OW34642   2.615   2.127   8.218  0.4569  0.2049  0.0524
 7728SOL    HW134643   2.562   2.195   8.261  0.6906 -0.9758  2.2187
 7728SOL    HW234644   2.653   2.091   8.298 -0.3079  1.5462  1.0197
 7729SOL     OW34645   4.460   2.460   5.363 -0.9572 -0.5051 -0.0911
 7729SOL    HW134646   4.485   2.523   5.295  0.2557  0.4504  1.2232
 7729SOL    HW234647   4.506   2.384   5.329 -0.2756 -0.3446  0.4760
 7730SOL     OW34648   2.345   1.180  12.502 -0.2633 -0.1839  0.3698
 7730SOL    HW134649   2.316   1.192  12.412 -0.5912  0.2319  0.5274
 7730SOL    HW234650   2.440   1.179  12.492 -0.1228  1.5081  1.4560
 7731SOL     OW34651   1.362   4.354   4.480 -0.0895 -0.0356 -0.3537
 7731SOL    HW134652   1.371   4.396   4.566 -0.3890 -0.2593 -0.2128
 7731SOL    HW234653   1.312   4.282   4.519  0.2852 -0.2293 -0.2208
 7732SOL     OW34654   4.194   1.139   4.118  0.1221  0.2156 -0.4634
 7732SOL    HW134655   4.132   1.205   4.148  2.6783  2.3491  0.1171
 7732SOL    HW234656   4.263   1.196   4.083  0.1434  1.3186  1.3804
 7733SOL     OW34657   2.591   1.058  14.058 -0.0284 -0.1194  0.0237
 7733SOL    HW134658   2.589   1.142  14.104 -1.3747 -0.9083  1.3640
 7733SOL    HW234659   2.500   1.051  14.031 -0.4129  1.8570  0.7762
 7734SOL     OW34660   2.791   2.185   7.628 -0.1988 -0.0683 -0.8253
 7734SOL    HW134661   2.737   2.114   7.593 -1.2495  0.3899 -0.0987
 7734SOL    HW234662   2.733   2.260   7.637  0.3703  0.4213 -1.2112
 7735SOL     OW34663   0.478   2.195   6.828  0.2609  0.4102 -0.0606
 7735SOL    HW134664   0.464   2.116   6.879 -0.9277  0.9128  0.4008
 7735SOL    HW234665   0.533   2.163   6.757  0.2790  1.5568 -0.5705
 7736SOL     OW34666   4.494   1.876  14.500 -0.1774 -0.0913 -0.5728
 7736SOL    HW134667   4.433   1.949  14.510 -2.3664 -2.0399  0.3284
 7736SOL    HW234668   4.477   1.820  14.576 -1.1431 -1.0142 -1.4571
 7737SOL     OW34669   4.285   3.685  17.620 -0.1182 -0.4712  0.5678
 7737SOL    HW134670   4.329   3.602  17.641 -0.5021 -0.9258 -0.4148
 7737SOL    HW234671   4.332   3.752  17.669  0.1242 -1.1149  1.2224
 7738SOL     OW34672   2.312   3.218   9.847  0.4254 -0.1443  0.1661
 7738SOL    HW134673   2.234   3.164   9.861 -0.7506  1.7752  1.0292
 7738SOL    HW234674   2.367   3.140   9.851 -1.5568 -1.4400  1.9162
 7739SOL     OW34675   1.878   0.678  15.459  0.5661 -0.0716  0.0081
 7739SOL    HW134676   1.890   0.604  15.518 -0.9872  0.6561  1.2279
 7739SOL    HW234677   1.791   0.698  15.494  0.3159 -1.3879  0.1475
 7740SOL     OW34678   4.308   2.341   4.373  0.1787 -0.3427  0.0395
 7740SOL    HW134679   4.266   2.427   4.378  1.7177  0.5553 -2.0089
 7740SOL    HW234680   4.272   2.320   4.287  1.4197  1.4880 -0.9447
 7741SOL     OW34681   2.726   0.189  11.701  0.1421  0.2912  0.2828
 7741SOL    HW134682   2.689   0.270  11.735  2.6200  2.2685 -1.7962
 7741SOL    HW234683   2.791   0.172  11.769  0.5481  0.0097 -0.1688
 7742SOL     OW34684   1.714   4.017   0.006  0.2780 -0.2713 -0.5642
 7742SOL    HW134685   1.665   3.958   0.063 -1.1693  1.2851 -0.1834
 7742SOL    HW234686   1.639   4.077   0.003  0.5428  0.0983  0.4364
 7743SOL     OW34687   1.695   1.878   9.408 -0.1199 -0.3503 -0.1161
 7743SOL    HW134688   1.727   1.814   9.472 -0.3966 -0.9738 -0.5979
 7743SOL    HW234689   1.615   1.903   9.455 -0.3608 -1.7349  0.2149
 7744SOL     OW34690   0.308   1.349  10.475 -0.5093 -0.8967 -0.4745
 7744SOL    HW134691   0.240   1.282  10.478 -0.4555 -0.9391 -0.2198
 7744SOL    HW234692   0.383   1.295  10.451  0.7027  0.0839  1.1388
 7745SOL     OW34693   1.779   0.268   2.526 -0.0204 -0.0692 -0.7597
 7745SOL    HW134694   1.824   0.339   2.572  0.1741 -1.8562  1.8154
 7745SOL    HW234695   1.687   0.294   2.532  0.3438  0.5598  2.0249
 7746SOL     OW34696   4.317   3.657   6.262 -0.2218 -0.0472 -0.9030
 7746SOL    HW134697   4.411   3.644   6.267 -0.2186 -0.6729 -2.6337
 7746SOL    HW234698   4.291   3.597   6.192 -1.7625 -1.7523  1.1080
 7747SOL     OW34699   1.004   0.044  14.755  0.4290  0.0191 -0.1168
 7747SOL    HW134700   0.947   4.717  14.814  0.8699 -1.3506 -0.8227
 7747SOL    HW234701   0.937   0.079  14.697 -1.3355 -2.0887  0.6932
 7748SOL     OW34702   3.822   4.604   7.354 -0.5180 -0.1630 -0.2202
 7748SOL    HW134703   3.831   4.698   7.369  0.6087 -0.0235 -1.8267
 7748SOL    HW234704   3.862   4.566   7.432 -0.2610  0.3700 -0.0908
 7749SOL     OW34705   2.553   2.848   2.656 -0.2062 -0.0790  0.2062
 7749SOL    HW134706   2.542   2.811   2.744  0.7890 -2.5881 -0.7252
 7749SOL    HW234707   2.462   2.835   2.630 -0.2252  1.5850 -0.5506
 7750SOL     OW34708   3.092   3.001  14.680  0.2352 -0.4413  0.5056
 7750SOL    HW134709   3.050   2.951  14.610  0.4509  0.2865 -0.1414
 7750SOL    HW234710   3.019   3.058  14.706 -1.5302 -2.2105 -0.6100
 7751SOL     OW34711   4.446   0.676  10.412  0.0895  0.2443  0.6172
 7751SOL    HW134712   4.439   0.772  10.413  0.3274  0.2682  0.3364
 7751SOL    HW234713   4.541   0.668  10.400  0.0670  1.1784 -0.1921
 7752SOL     OW34714   3.855   0.540   8.431  0.1174  0.1154  0.4821
 7752SOL    HW134715   3.825   0.624   8.467  1.4538  0.7354  0.1616
 7752SOL    HW234716   3.917   0.576   8.368 -1.8610  1.3845 -0.7600
 7753SOL     OW34717   3.702   3.777   4.353 -0.2164  0.2993  0.6533
 7753SOL    HW134718   3.651   3.698   4.337  2.3159 -0.8300 -1.6667
 7753SOL    HW234719   3.642   3.846   4.323  0.8066 -0.2342 -2.5988
 7754SOL     OW34720   0.915   3.876   6.796  0.5413 -0.2044 -0.1738
 7754SOL    HW134721   0.960   3.805   6.844  2.9470 -0.3457 -2.6437
 7754SOL    HW234722   0.930   3.847   6.706 -1.1890 -0.8493 -0.2481
 7755SOL     OW34723   3.357   3.958   3.004 -0.0919 -0.6707 -0.8327
 7755SOL    HW134724   3.448   3.985   2.994  0.4788 -2.4499 -0.3628
 7755SOL    HW234725   3.308   4.028   2.961  2.7772  1.1914 -1.0657
 7756SOL     OW34726   1.102   2.480   8.712  0.0001 -0.7522  0.0696
 7756SOL    HW134727   1.099   2.556   8.655 -0.4979 -1.6054 -1.0255
 7756SOL    HW234728   1.013   2.449   8.701 -0.8966  0.4480  3.9240
 7757SOL     OW34729   0.045   0.556  14.189 -0.0968 -0.3710  0.0403
 7757SOL    HW134730   4.680   0.554  14.148  0.3234 -0.6621 -0.8301
 7757SOL    HW234731   0.016   0.603  14.267  0.6173 -1.1805  0.7818
 7758SOL     OW34732   4.274   1.881   4.954 -0.0528 -0.0015 -0.1956
 7758SOL    HW134733   4.318   1.964   4.975  1.3191  0.0457 -3.3110
 7758SOL    HW234734   4.236   1.858   5.039  0.6538  3.3905  1.0723
 7759SOL     OW34735   2.700   1.419   7.829 -0.0591  0.0296 -0.5528
 7759SOL    HW134736   2.719   1.409   7.922 -0.4916  0.1166 -0.4525
 7759SOL    HW234737   2.746   1.350   7.781 -1.3842  0.7593 -2.9107
 7760SOL     OW34738   4.139   4.507  12.689  0.0745 -0.4861 -0.6810
 7760SOL    HW134739   4.065   4.467  12.735  1.2144 -0.4321  1.1775
 7760SOL    HW234740   4.206   4.440  12.702 -1.6426 -1.8345  1.2929
 7761SOL     OW34741   4.313   1.007   6.640 -0.5424  0.4299  0.3316
 7761SOL    HW134742   4.373   1.022   6.713  0.5684 -0.2621 -0.4283
 7761SOL    HW234743   4.319   0.912   6.633 -1.2618  0.4609 -0.5496
 7762SOL     OW34744   2.734   3.449   0.691 -0.5513  0.7053  0.2010
 7762SOL    HW134745   2.795   3.450   0.765 -1.1194  1.5471  0.6648
 7762SOL    HW234746   2.785   3.500   0.628 -2.2871  2.5015  0.2493
 7763SOL     OW34747   1.831   3.259   3.553  0.1376  0.4284 -0.7054
 7763SOL    HW134748   1.925   3.259   3.572  0.5664  0.9586 -2.8857
 7763SOL    HW234749   1.816   3.192   3.487 -0.0387 -1.1085  0.8773
 7764SOL     OW34750   2.197   0.606   5.050 -0.3257  0.4143  0.2578
 7764SOL    HW134751   2.121   0.576   5.100 -1.1199  1.9848 -0.0076
 7764SOL    HW234752   2.156   0.630   4.967  1.2685 -1.7752 -1.1729
 7765SOL     OW34753   2.470   1.542   0.867 -0.3707  0.1742  0.4174
 7765SOL    HW134754   2.444   1.452   0.883  0.2343  0.3804  2.5857
 7765SOL    HW234755   2.552   1.530   0.819  0.5642 -1.2017  2.3858
 7766SOL     OW34756   2.747   2.788   3.525 -0.3808  0.7384 -0.2463
 7766SOL    HW134757   2.805   2.798   3.601 -0.1131  3.2445 -0.7794
 7766SOL    HW234758   2.800   2.729   3.470 -1.8773 -0.1177 -0.7679
 7767SOL     OW34759   3.465   3.158  15.032  0.2584 -0.4665  0.3415
 7767SOL    HW134760   3.534   3.194  14.976 -0.2792  2.4641  1.5847
 7767SOL    HW234761   3.489   3.180  15.122  0.6734  1.3123 -0.2084
 7768SOL     OW34762   2.561   1.103   8.949 -0.8301 -0.4360  0.1131
 7768SOL    HW134763   2.556   1.144   9.035 -1.5526  1.4640 -0.8232
 7768SOL    HW234764   2.546   1.182   8.897  2.4062 -0.5208 -0.9755
 7769SOL     OW34765   2.854   3.707   7.765  0.3539  0.2208  0.3275
 7769SOL    HW134766   2.868   3.623   7.809  1.2611 -0.5499 -1.4073
 7769SOL    HW234767   2.804   3.682   7.687 -0.4107 -0.0636  0.9143
 7770SOL     OW34768   1.668   3.262  13.267  0.2713  0.4495  0.1326
 7770SOL    HW134769   1.729   3.325  13.304  0.6713  1.4980 -2.3349
 7770SOL    HW234770   1.726   3.231  13.198 -0.0364 -0.6083  0.3392
 7771SOL     OW34771   1.101   1.677  13.244  0.3442 -0.2253  0.0376
 7771SOL    HW134772   1.048   1.603  13.214 -0.4761  0.1602  0.5322
 7771SOL    HW234773   1.052   1.707  13.321  2.7582 -1.5086  2.0833
 7772SOL     OW34774   4.520   4.313   4.603  0.5107  0.1094 -0.2053
 7772SOL    HW134775   4.568   4.251   4.547 -0.1377 -0.0491 -0.5897
 7772SOL    HW234776   4.438   4.265   4.614 -0.3554  1.5507 -0.3880
 7773SOL     OW34777   2.416   0.969   7.405  0.2208 -0.5086  0.2619
 7773SOL    HW134778   2.483   0.902   7.420  0.9751 -0.0273 -0.8929
 7773SOL    HW234779   2.459   1.047   7.439  1.1477 -0.1066 -1.8363
 7774SOL     OW34780   0.573   1.200  12.205  0.1741  0.1264 -0.3664
 7774SOL    HW134781   0.479   1.183  12.218  0.7212 -1.6985  1.1715
 7774SOL    HW234782   0.604   1.176  12.293 -0.5376 -1.1620 -0.4651
 7775SOL     OW34783   4.137   2.933   7.641 -0.3264  0.0223 -0.0081
 7775SOL    HW134784   4.217   2.900   7.600 -0.1199  0.2120  0.2343
 7775SOL    HW234785   4.104   2.851   7.676  0.2568 -0.7709 -1.3090
 7776SOL     OW34786   2.111   2.874   4.393 -0.0322 -0.7125 -0.2998
 7776SOL    HW134787   2.061   2.796   4.369 -0.9713  0.5834 -2.5449
 7776SOL    HW234788   2.150   2.835   4.472 -0.1894 -0.7465 -0.2393
 7777SOL     OW34789   1.555   0.050  17.074  0.6212 -0.5354 -0.4053
 7777SOL    HW134790   1.509   0.001  17.006 -1.4881  1.0926 -0.1763
 7777SOL    HW234791   1.523   0.138  17.050  0.2471 -1.3189 -2.7575
 7778SOL     OW34792   1.998   0.678  16.411  0.0041  0.3615  0.0849
 7778SOL    HW134793   2.040   0.755  16.374 -0.5153  1.0255  0.8725
 7778SOL    HW234794   2.052   0.613  16.366  0.2332  0.4909  0.1760
 7779SOL     OW34795   1.105   1.465  17.223 -0.6927 -0.1478 -0.1664
 7779SOL    HW134796   1.152   1.422  17.152 -0.3374  1.5021 -0.9332
 7779SOL    HW234797   1.171   1.501  17.282  0.2906  0.4372 -1.6146
 7780SOL     OW34798   0.245   1.913   6.032  0.0528  0.9508  0.1524
 7780SOL    HW134799   0.202   1.859   6.099 -0.1472 -0.8707 -1.4236
 7780SOL    HW234800   0.242   2.000   6.071  1.7286  0.3972  1.4813
 7781SOL     OW34801   1.886   4.175   9.465 -1.1258  0.2739 -0.5439
 7781SOL    HW134802   1.875   4.243   9.531  0.5070  1.1024 -1.1272
 7781SOL    HW234803   1.826   4.107   9.494  0.4723 -1.1887 -0.7166
 7782SOL     OW34804   3.763   2.241   4.558 -0.2119  0.1688  0.8495
 7782SOL    HW134805   3.841   2.290   4.535 -1.1162  1.1963 -0.0154
 7782SOL    HW234806   3.800   2.195   4.633  2.6597  0.4465 -0.3888
 7783SOL     OW34807   0.925   4.013   4.408  0.3572  0.1005 -0.1674
 7783SOL    HW134808   0.899   3.921   4.404 -1.2947  0.5463  0.0612
 7783SOL    HW234809   0.924   4.025   4.313 -1.1907  1.6774  0.0407
 7784SOL     OW34810   3.270   1.347   4.583 -0.0021  0.0786 -0.4826
 7784SOL    HW134811   3.176   1.348   4.562  0.0863 -2.8002 -0.9787
 7784SOL    HW234812   3.298   1.377   4.496 -2.5059 -0.3356 -1.4369
 7785SOL     OW34813   1.072   2.269   2.498  0.2198 -0.2909 -0.0274
 7785SOL    HW134814   1.055   2.175   2.508  0.8180 -0.4400 -0.4315
 7785SOL    HW234815   1.029   2.285   2.414  1.1179 -1.1945 -0.6551
 7786SOL     OW34816   3.735   0.291   0.721  0.2239  0.3143 -0.2154
 7786SOL    HW134817   3.741   0.343   0.640  0.5873  1.3912  0.4973
 7786SOL    HW234818   3.767   0.209   0.683 -1.6867 -0.2742 -0.5464
 7787SOL     OW34819   2.661   0.120   4.945  0.3321 -0.0055  0.7636
 7787SOL    HW134820   2.606   0.150   4.873 -0.1052 -1.3384  0.5338
 7787SOL    HW234821   2.632   0.031   4.965 -1.4688  0.6777  1.1376
 7788SOL     OW34822   1.419   3.072   2.739 -0.5209  0.3025 -0.0595
 7788SOL    HW134823   1.430   3.042   2.650  0.8716  0.2861  0.1197
 7788SOL    HW234824   1.385   3.160   2.722 -2.2181 -0.0087  1.6517
 7789SOL     OW34825   0.278   1.214  11.775 -0.0544 -0.5382 -0.0585
 7789SOL    HW134826   0.347   1.278  11.756 -1.4831  0.9937 -0.0784
 7789SOL    HW234827   0.223   1.270  11.830  0.4376 -2.1899  2.0822
 7790SOL     OW34828   1.291   1.506   4.684  0.1956  0.4403 -0.3550
 7790SOL    HW134829   1.248   1.543   4.607 -0.4980  2.1130  0.8406
 7790SOL    HW234830   1.374   1.536   4.648  0.9163 -0.3276  0.7075
 7791SOL     OW34831   2.425   3.484   0.939  0.2956 -0.3636  0.3697
 7791SOL    HW134832   2.438   3.576   0.959 -1.1153 -0.3918  1.4360
 7791SOL    HW234833   2.428   3.487   0.844 -0.8511 -0.2273  0.3435
 7792SOL     OW34834   0.724   0.060   7.686  0.2009  0.2800  0.0180
 7792SOL    HW134835   0.760   0.088   7.602  1.3554  0.9448  0.7338
 7792SOL    HW234836   0.765   0.126   7.741  2.0117 -0.3147 -0.6164
 7793SOL     OW34837   3.230   3.246   8.545  0.0860 -0.4564 -0.4867
 7793SOL    HW134838   3.295   3.315   8.552 -0.5132  0.0180  0.4422
 7793SOL    HW234839   3.169   3.290   8.485 -2.1207 -1.7628  0.7722
 7794SOL     OW34840   1.674   2.238  12.887 -0.7903 -0.6034 -0.0130
 7794SOL    HW134841   1.617   2.255  12.962  0.2598  0.4349  0.5477
 7794SOL    HW234842   1.657   2.309  12.825  2.0185  0.9252  0.9436
 7795SOL     OW34843   2.540   2.263  15.050 -0.6418 -0.0864 -0.2963
 7795SOL    HW134844   2.535   2.279  15.144  1.7102 -1.5606  0.0832
 7795SOL    HW234845   2.635   2.263  15.039 -0.3597  0.2075  2.1626
 7796SOL     OW34846   0.886   3.538  16.538  0.3781 -0.3292  0.2469
 7796SOL    HW134847   0.938   3.554  16.616 -0.5406  0.3252  0.7258
 7796SOL    HW234848   0.934   3.472  16.488  0.7227  0.3217 -0.2847
 7797SOL     OW34849   0.205   2.295   8.016 -0.1804  0.8305  0.5445
 7797SOL    HW134850   0.299   2.303   8.034 -0.1051 -0.2934  0.6449
 7797SOL    HW234851   0.202   2.367   7.954  0.9120 -1.0337 -1.6643
 7798SOL     OW34852   4.244   2.883  13.233 -0.5343 -0.0054  0.1024
 7798SOL    HW134853   4.193   2.876  13.314 -0.6280  2.3496  0.2550
 7798SOL    HW234854   4.192   2.812  13.195 -0.5518  0.2725 -0.3821
 7799SOL     OW34855   3.272   2.195   6.846  0.4729  0.1362 -0.1099
 7799SOL    HW134856   3.306   2.253   6.914 -1.1448  0.9148  0.0210
 7799SOL    HW234857   3.180   2.208   6.868  0.7761  1.4073  0.4015
 7800SOL     OW34858   0.908   3.634   0.706  0.1674  0.2106  0.3109
 7800SOL    HW134859   0.952   3.697   0.764  0.7690  0.0241  0.0506
 7800SOL    HW234860   0.910   3.555   0.760 -2.0583  1.5703  2.3760
 7801SOL     OW34861   4.440   4.665   3.915 -0.3047 -0.0335  0.0725
 7801SOL    HW134862   4.468   0.035   3.911  0.4833 -0.2029  1.7448
 7801SOL    HW234863   4.453   4.633   3.826  0.1026  0.7635 -0.1604
 7802SOL     OW34864   1.339   0.398   7.241 -0.4784  0.0440 -0.3170
 7802SOL    HW134865   1.376   0.320   7.201  1.5099 -0.6546  2.8571
 7802SOL    HW234866   1.341   0.456   7.165  1.1729 -1.7237 -1.6261
 7803SOL     OW34867   0.293   2.181   7.171 -0.0406 -0.8932 -0.3915
 7803SOL    HW134868   0.349   2.258   7.171 -2.0707  0.5767  1.5845
 7803SOL    HW234869   0.314   2.137   7.254  0.3460 -0.4848 -0.2781
 7804SOL     OW34870   1.730   0.133   0.813 -0.1241 -0.2923  0.5406
 7804SOL    HW134871   1.789   0.158   0.885  2.9588 -0.2071 -2.0102
 7804SOL    HW234872   1.696   0.215   0.777 -0.3441  0.0542  1.5201
 7805SOL     OW34873   2.061   3.773   4.789  0.3342 -0.1621  0.1072
 7805SOL    HW134874   1.982   3.726   4.817  0.6225 -0.2097  0.8500
 7805SOL    HW234875   2.063   3.747   4.697  1.7559 -2.1957  0.7163
 7806SOL     OW34876   0.944   0.960   6.679  0.1741  0.4373 -0.5446
 7806SOL    HW134877   1.037   0.942   6.664  0.3376  2.3170 -1.8335
 7806SOL    HW234878   0.908   0.903   6.611 -0.5018 -1.0222  1.0535
 7807SOL     OW34879   3.140   2.305  14.345  0.5834  0.1170 -0.2250
 7807SOL    HW134880   3.110   2.245  14.276 -1.0274 -1.3012  1.7162
 7807SOL    HW234881   3.224   2.269  14.373  2.8667  2.9446 -3.5397
 7808SOL     OW34882   4.014   0.860   5.503  0.1175 -0.0025  0.4593
 7808SOL    HW134883   3.927   0.842   5.540  1.1897  2.6271  4.3438
 7808SOL    HW234884   4.003   0.811   5.422  1.9336  2.2009 -1.1191
 7809SOL     OW34885   2.159   4.358   9.735  0.1452 -0.1867 -0.7034
 7809SOL    HW134886   2.204   4.443   9.731  0.7456 -0.3796  1.9778
 7809SOL    HW234887   2.224   4.293   9.761  0.2360 -1.2866 -3.6615
 7810SOL     OW34888   1.221   1.351   9.634 -0.0984 -0.5125 -0.2873
 7810SOL    HW134889   1.185   1.356   9.722 -0.8096  0.9441 -0.6556
 7810SOL    HW234890   1.246   1.442   9.615 -2.1526  0.0876 -0.1248
 7811SOL     OW34891   2.087   0.771  10.944  0.3652 -0.1679 -0.2755
 7811SOL    HW134892   2.021   0.702  10.939 -0.5356  0.7530 -1.3666
 7811SOL    HW234893   2.029   0.836  10.984  1.9279  0.8848  0.2717
 7812SOL     OW34894   1.360   0.349   2.887  0.2122  0.1237  0.3372
 7812SOL    HW134895   1.304   0.298   2.946  2.6281 -1.3012  1.3766
 7812SOL    HW234896   1.300   0.423   2.874  1.5261  1.3770  1.3286
 7813SOL     OW34897   2.840   3.439   7.907  0.5006  0.1572  0.8932
 7813SOL    HW134898   2.778   3.431   7.979  0.7623  2.2836  1.3352
 7813SOL    HW234899   2.920   3.397   7.939  0.7377  0.8968  1.2532
 7814SOL     OW34900   3.090   0.733   5.512  0.1007 -0.1833 -0.8796
 7814SOL    HW134901   2.996   0.747   5.498 -0.4872 -1.9969  1.2251
 7814SOL    HW234902   3.106   0.640   5.525 -3.5064 -0.7263 -0.3479
 7815SOL     OW34903   4.256   1.684   5.512  0.1227 -0.1859  0.9426
 7815SOL    HW134904   4.263   1.779   5.507  2.2835 -0.6072 -4.1922
 7815SOL    HW234905   4.165   1.670   5.485 -0.3070 -0.8042  2.6987
 7816SOL     OW34906   3.036   3.824   6.959  0.3334 -0.6555  0.0249
 7816SOL    HW134907   3.028   3.868   7.044 -1.1507 -2.8225  1.0178
 7816SOL    HW234908   2.992   3.886   6.901 -0.1227 -0.5779  0.4557
 7817SOL     OW34909   4.345   3.426   3.893  0.2034  0.0327  0.1107
 7817SOL    HW134910   4.294   3.497   3.931  0.3232 -1.3689  2.8609
 7817SOL    HW234911   4.433   3.462   3.881  0.0954  0.2983  0.1171
 7818SOL     OW34912   1.397   2.474   3.808  0.3404  0.0661  0.0642
 7818SOL    HW134913   1.474   2.525   3.784  2.2763 -3.2103 -0.7747
 7818SOL    HW234914   1.395   2.413   3.734 -1.8446  1.2716 -0.8970
 7819SOL     OW34915   3.528   1.059   8.233  0.6713  0.1064 -0.4661
 7819SOL    HW134916   3.453   1.013   8.272  0.2172  1.9282  0.8336
 7819SOL    HW234917   3.607   1.016   8.265  0.2448 -0.4582 -0.1679
 7820SOL     OW34918   1.813   4.587   8.452  0.1218 -0.2899  0.3005
 7820SOL    HW134919   1.869   4.633   8.389  2.3984 -0.3554  2.3051
 7820SOL    HW234920   1.730   4.579   8.405  0.3956  1.2047 -0.4307
 7821SOL     OW34921   1.513   1.782  10.535 -0.0642  0.0850 -0.2885
 7821SOL    HW134922   1.422   1.797  10.507 -0.7466 -2.0240  0.7929
 7821SOL    HW234923   1.540   1.866  10.570  2.3124 -0.8603  0.0996
 7822SOL     OW34924   0.368   1.894   5.681 -0.1312 -0.0094  0.1604
 7822SOL    HW134925   0.288   1.843   5.674 -1.6038  2.3396 -0.1761
 7822SOL    HW234926   0.348   1.953   5.608 -0.8769  1.4081  1.5095
 7823SOL     OW34927   1.930   2.630   3.399  0.1885  0.1336 -0.4818
 7823SOL    HW134928   1.899   2.561   3.458 -1.5126 -1.5802 -3.3672
 7823SOL    HW234929   1.889   2.604   3.316  0.1173  1.3917 -0.8334
 7824SOL     OW34930   1.172   3.462   0.812 -0.3271  0.3454  0.3768
 7824SOL    HW134931   1.210   3.530   0.756 -0.6966 -1.1208 -1.6723
 7824SOL    HW234932   1.137   3.409   0.740  0.1916 -0.0214  0.3923
 7825SOL     OW34933   3.769   3.457   5.552  0.0700  0.0089  0.0886
 7825SOL    HW134934   3.689   3.404   5.554  0.0922  0.0077  0.8613
 7825SOL    HW234935   3.739   3.526   5.612  2.9410  1.4569 -0.1531
 7826SOL     OW34936   2.949   2.967  17.426  0.1639  0.1912 -0.2250
 7826SOL    HW134937   2.895   2.943  17.351  2.2236 -1.0401 -1.2970
 7826SOL    HW234938   2.897   3.034  17.471  0.2716  0.2651 -0.2100
 7827SOL     OW34939   2.212   3.272   0.950  0.1842  0.8991  0.4770
 7827SOL    HW134940   2.153   3.239   0.882  1.7906  0.1738 -0.5580
 7827SOL    HW234941   2.210   3.367   0.936  0.1835  0.8339  0.0369
 7828SOL     OW34942   0.587   3.987   0.230  0.2166 -0.6009 -0.1246
 7828SOL    HW134943   0.628   3.925   0.291  1.6293 -0.5077 -0.9664
 7828SOL    HW234944   0.576   4.070   0.277 -0.6379 -0.9932  0.3609
 7829SOL     OW34945   3.695   2.351   2.055  0.0979 -0.3943  0.7774
 7829SOL    HW134946   3.706   2.410   2.129  2.4365  1.3631 -0.9497
 7829SOL    HW234947   3.716   2.268   2.096 -0.5188 -0.1460  1.5841
 7830SOL     OW34948   0.957   0.617   3.987 -0.4551 -0.2968  0.5499
 7830SOL    HW134949   1.009   0.538   4.002  1.1528  0.7122  0.3288
 7830SOL    HW234950   0.873   0.580   4.013 -2.5183  2.2497 -2.5391
 7831SOL     OW34951   3.807   0.775  16.563  0.1118 -0.3369  0.0599
 7831SOL    HW134952   3.767   0.701  16.517  0.6218 -1.9997  2.2343
 7831SOL    HW234953   3.734   0.809  16.614 -1.5103 -4.5525  0.5770
 7832SOL     OW34954   2.654   3.103   7.460 -0.1256 -0.2652  0.1017
 7832SOL    HW134955   2.655   3.020   7.508 -0.6889  0.4867  1.3902
 7832SOL    HW234956   2.743   3.106   7.424 -0.0938 -2.1442  0.0314
 7833SOL     OW34957   3.697   0.153   4.178 -0.1457  0.3668 -0.5732
 7833SOL    HW134958   3.661   0.194   4.100  1.5665  1.4604 -0.7913
 7833SOL    HW234959   3.700   0.060   4.154  4.4978  0.5381 -0.7082
 7834SOL     OW34960   4.692   2.096   6.824  0.3633  0.1118 -0.2037
 7834SOL    HW134961   4.617   2.140   6.785 -0.6650  0.0576  1.7193
 7834SOL    HW234962   4.720   2.156   6.894 -0.2825 -1.5059  1.4481
 7835SOL     OW34963   2.421   3.482   2.565 -0.4858  0.2299 -0.1788
 7835SOL    HW134964   2.370   3.553   2.604 -1.9628 -0.5209 -0.7683
 7835SOL    HW234965   2.365   3.461   2.491  1.2014 -0.7440 -1.1668
 7836SOL     OW34966   3.477   3.666   1.850 -0.4948  0.1248 -0.3678
 7836SOL    HW134967   3.413   3.612   1.896 -1.7438  1.6296 -0.3391
 7836SOL    HW234968   3.421   3.722   1.797  0.2803 -0.6545 -1.9811
 7837SOL     OW34969   3.607   1.143   7.230  0.1642  0.1798  0.2489
 7837SOL    HW134970   3.702   1.141   7.231  0.1807  0.1249 -1.7348
 7837SOL    HW234971   3.593   1.118   7.139  0.8267 -0.2589  0.2752
 7838SOL     OW34972   1.694   0.226   8.910  0.4266  0.0765  0.0794
 7838SOL    HW134973   1.673   0.135   8.933 -0.0680  0.3879  0.8560
 7838SOL    HW234974   1.743   0.211   8.829  1.1819  0.5582  0.4463
 7839SOL     OW34975   2.262   1.120   4.304 -0.1141  0.0726  0.2256
 7839SOL    HW134976   2.258   1.092   4.212 -1.0692 -0.3381  0.3883
 7839SOL    HW234977   2.171   1.129   4.334  0.1087  0.8330  0.6716
 7840SOL     OW34978   0.143   2.954   0.955  0.0029  0.3008  0.1156
 7840SOL    HW134979   0.206   2.899   0.908 -0.3680  0.1524 -0.2075
 7840SOL    HW234980   0.116   2.878   1.006  1.4881  0.2011  0.7634
 7841SOL     OW34981   0.993   3.136   4.368 -0.1919  0.2671 -0.1165
 7841SOL    HW134982   1.071   3.173   4.409 -2.1100  4.5597 -0.3128
 7841SOL    HW234983   1.003   3.045   4.395  0.7086  0.6159  0.7387
 7842SOL     OW34984   0.687   0.790  10.360 -0.0266  0.7232  0.6497
 7842SOL    HW134985   0.727   0.875  10.340 -1.9911  0.8047 -3.0512
 7842SOL    HW234986   0.768   0.744  10.379 -0.6643  0.8688  3.6333
 7843SOL     OW34987   1.567   3.170   3.662  0.0665 -0.1555  0.5531
 7843SOL    HW134988   1.532   3.096   3.612 -0.7924  0.6299  0.0090
 7843SOL    HW234989   1.657   3.172   3.630  0.2299  0.9204  1.0896
 7844SOL     OW34990   2.920   0.467   8.111  0.2000  0.5286 -0.1662
 7844SOL    HW134991   2.995   0.443   8.056 -0.0172  1.1360 -0.7289
 7844SOL    HW234992   2.902   0.387   8.160 -1.4475  2.1268  1.8189
 7845SOL     OW34993   2.612   4.351   5.617  0.5753  0.0324  0.2886
 7845SOL    HW134994   2.691   4.334   5.566  0.8364  3.1341 -0.2825
 7845SOL    HW234995   2.614   4.444   5.637  0.7949 -0.3074  1.9141
 7846SOL     OW34996   0.213   3.665   3.702 -0.2579  0.1047 -0.2362
 7846SOL    HW134997   0.149   3.702   3.642 -0.9355 -1.8072 -0.6682
 7846SOL    HW234998   0.278   3.733   3.683  0.1589 -0.0628  0.6063
 7847SOL     OW34999   3.099   3.196   9.580  0.1891  0.5039  0.1071
 7847SOL    HW135000   3.190   3.220   9.563  0.6502  0.5162  2.5806
 7847SOL    HW235001   3.046   3.275   9.576  0.5078  0.6952 -0.2864
 7848SOL     OW35002   0.930   4.456   7.809 -0.8177  0.5354 -0.1059
 7848SOL    HW135003   0.877   4.485   7.735  0.0017  2.4234  0.0562
 7848SOL    HW235004   0.933   4.540   7.856  0.7137 -0.6182  1.8733
 7849SOL     OW35005   4.293   0.038  10.978  0.1840 -0.3547 -0.6212
 7849SOL    HW135006   4.276   0.126  10.945 -0.3683  0.2777  1.3464
 7849SOL    HW235007   4.353   0.061  11.050 -1.7894 -0.5248  1.0744
 7850SOL     OW35008   3.716   3.256   7.067 -0.4627 -0.1183  0.0492
 7850SOL    HW135009   3.690   3.276   6.977 -0.7823 -0.1205  0.1412
 7850SOL    HW235010   3.763   3.332   7.101 -0.8926  0.1657  0.0031
 7851SOL     OW35011   0.750   2.478  16.405 -0.3990 -0.2960  0.5346
 7851SOL    HW135012   0.721   2.516  16.488  0.1128  0.7393  0.2362
 7851SOL    HW235013   0.674   2.483  16.348  0.6885 -0.5159 -0.9255
 7852SOL     OW35014   1.711   0.928   2.232  0.5042 -0.5563 -0.3333
 7852SOL    HW135015   1.743   0.974   2.154 -0.1321  0.5877  0.0698
 7852SOL    HW235016   1.735   0.987   2.304  0.4501 -0.1139 -0.6727
 7853SOL     OW35017   3.076   1.982  10.435 -0.2627 -0.3710 -0.2698
 7853SOL    HW135018   3.046   2.071  10.416  1.8254 -0.0319 -1.9634
 7853SOL    HW235019   3.086   1.977  10.530 -2.7191  0.5563  0.0384
 7854SOL     OW35020   3.983   1.403  12.371  0.3365 -0.3430 -0.0718
 7854SOL    HW135021   3.922   1.475  12.359  1.0654  0.1135 -1.0391
 7854SOL    HW235022   3.999   1.369  12.283 -1.8515 -0.1885 -0.5198
 7855SOL     OW35023   1.664   0.463   4.632  0.0702 -0.1910 -0.5387
 7855SOL    HW135024   1.626   0.393   4.579  0.3830 -1.5725  1.0699
 7855SOL    HW235025   1.705   0.519   4.566  0.3968  0.5329  0.2851
 7856SOL     OW35026   3.418   1.573   8.878  0.1273  0.0350 -0.1308
 7856SOL    HW135027   3.428   1.573   8.783 -1.5512 -1.2170 -0.3106
 7856SOL    HW235028   3.461   1.655   8.901  1.6856 -0.9925  0.7083
 7857SOL     OW35029   4.424   2.994   5.477 -0.5882 -0.5462  0.2204
 7857SOL    HW135030   4.359   3.034   5.534 -0.0348 -0.4965  0.8133
 7857SOL    HW235031   4.439   2.915   5.529 -0.3932  1.7572  3.6719
 7858SOL     OW35032   4.260   2.912  16.626  0.1679 -0.8342  0.3102
 7858SOL    HW135033   4.275   2.925  16.720  0.8830 -0.8460  0.1954
 7858SOL    HW235034   4.309   2.979  16.580 -1.0323 -1.6026 -2.0956
 7859SOL     OW35035   0.096   3.770   5.032  0.1212  0.2744  0.2680
 7859SOL    HW135036   0.080   3.755   5.126  0.9792  1.4637  0.6113
 7859SOL    HW235037   0.191   3.781   5.041  0.4567 -1.6100 -1.0236
 7860SOL     OW35038   0.634   3.605  10.431 -0.4039 -0.2366  0.0953
 7860SOL    HW135039   0.723   3.595  10.395  0.0769  2.1259  0.6944
 7860SOL    HW235040   0.618   3.514  10.457  1.6365 -0.4268  0.6788
 7861SOL     OW35041   3.689   0.021   8.716 -0.5115  0.1796 -0.2503
 7861SOL    HW135042   3.658   0.107   8.690 -0.4308  0.6689  1.2707
 7861SOL    HW235043   3.679   4.691   8.635 -1.4304 -0.1260  0.0640
 7862SOL     OW35044   3.421   3.351   2.242  0.4572  0.2446  0.2713
 7862SOL    HW135045   3.430   3.259   2.217 -2.1411  0.2762 -0.7769
 7862SOL    HW235046   3.367   3.340   2.320 -0.0235 -1.3163 -0.2785
 7863SOL     OW35047   4.133   2.696   1.362 -0.1172 -0.1769 -0.4763
 7863SOL    HW135048   4.219   2.691   1.404 -0.6237  0.5684  0.6641
 7863SOL    HW235049   4.080   2.722   1.438 -0.6505  0.1773 -0.9717
 7864SOL     OW35050   0.228   0.151  11.758 -0.3703 -0.0931  0.2162
 7864SOL    HW135051   0.145   0.113  11.731  0.1930  0.5703 -2.4564
 7864SOL    HW235052   0.284   0.072  11.757 -1.2411 -0.7176  0.9004
 7865SOL     OW35053   3.612   0.056  15.394  0.0396 -0.1608  0.3154
 7865SOL    HW135054   3.577   0.131  15.442 -0.8081 -0.7825  0.6685
 7865SOL    HW235055   3.597   0.094  15.307 -0.9615  0.6838  0.8529
 7866SOL     OW35056   4.134   2.632  14.739  0.5073 -0.1073  0.0639
 7866SOL    HW135057   4.221   2.670  14.731  0.4524  0.1045  0.4485
 7866SOL    HW235058   4.104   2.632  14.648 -1.0545  3.1353  0.5735
 7867SOL     OW35059   4.715   2.835   0.521 -0.1809 -0.2249 -0.1179
 7867SOL    HW135060   4.708   2.831   0.425 -0.4426  0.4276 -0.1275
 7867SOL    HW235061   0.078   2.879   0.534 -0.2281  0.7700 -3.0758
 7868SOL     OW35062   0.737   3.971   1.512 -0.2006 -0.2238  0.0242
 7868SOL    HW135063   0.783   3.887   1.514 -2.4048 -1.4264  0.7596
 7868SOL    HW235064   0.804   4.037   1.529 -0.1484  0.2870 -2.2237
 7869SOL     OW35065   1.557   3.838   0.532  0.0473  0.2794 -0.4786
 7869SOL    HW135066   1.590   3.920   0.494  0.1412  0.6767  0.4482
 7869SOL    HW235067   1.586   3.855   0.622 -0.8573  0.7928 -0.2851
 7870SOL     OW35068   4.669   0.034   8.331  0.1658  0.1960  0.0278
 7870SOL    HW135069   4.584   4.712   8.337  0.3752  0.0330  1.7394
 7870SOL    HW235070   4.699   4.712   8.410  1.7631  1.3415  0.0416
 7871SOL     OW35071   4.020   3.249   4.903  0.2287 -0.7542 -0.6546
 7871SOL    HW135072   3.927   3.246   4.924  0.8698 -0.5722  2.1851
 7871SOL    HW235073   4.049   3.322   4.958 -1.9623 -1.0880  0.9339
 7872SOL     OW35074   0.740   1.610   1.597  0.0915 -0.2379  0.0357
 7872SOL    HW135075   0.665   1.598   1.655  0.5585 -1.6847  0.3372
 7872SOL    HW235076   0.702   1.573   1.517 -2.2624 -0.1367  1.1230
 7873SOL     OW35077   0.745   1.755   7.651 -1.0242 -0.1389 -0.3791
 7873SOL    HW135078   0.815   1.818   7.670 -0.1069 -1.7409  1.5271
 7873SOL    HW235079   0.678   1.805   7.698 -1.2231 -0.2635 -0.5319
 7874SOL     OW35080   3.360   2.871   2.342 -0.2356 -0.2828  0.3427
 7874SOL    HW135081   3.340   2.790   2.389 -0.3016  0.4809  1.6256
 7874SOL    HW235082   3.337   2.923   2.419 -1.2794 -0.5303  0.1967
 7875SOL     OW35083   2.215   3.331   9.255 -0.3402  0.4762  0.2695
 7875SOL    HW135084   2.294   3.279   9.269  0.2722  1.0690 -0.9738
 7875SOL    HW235085   2.219   3.407   9.312  1.9017 -1.4599  2.6680
 7876SOL     OW35086   3.909   1.571  15.754  0.3366  0.0206  0.4012
 7876SOL    HW135087   3.855   1.648  15.737  1.6806  0.8423 -0.1279
 7876SOL    HW235088   3.874   1.543  15.839 -1.0394  0.2976 -0.0723
 7877SOL     OW35089   4.491   4.320   1.583  0.2786  0.8021  0.0695
 7877SOL    HW135090   4.422   4.358   1.638  1.5252  2.1967  0.6659
 7877SOL    HW235091   4.565   4.362   1.627  0.9957  0.3224 -0.6838
 7878SOL     OW35092   3.783   1.960   7.052  0.4757  0.4513  0.1030
 7878SOL    HW135093   3.823   1.917   7.128 -1.1816  0.0887  0.7927
 7878SOL    HW235094   3.703   1.912   7.030  1.0318 -0.7856  0.7393
 7879SOL     OW35095   4.515   1.969  17.618  0.5154 -0.1638  0.3176
 7879SOL    HW135096   4.557   1.942   0.013  0.3288 -1.5035 -0.0361
 7879SOL    HW235097   4.482   1.886  17.583  0.8854 -0.6353  1.0798
 7880SOL     OW35098   1.222   0.221   7.859  0.1618  0.2515 -0.2406
 7880SOL    HW135099   1.227   0.181   7.773  2.9721  1.0846 -0.4649
 7880SOL    HW235100   1.160   0.292   7.842  0.2574  0.3934  0.0014
 7881SOL     OW35101   2.307   4.133   9.667 -0.4700  0.1092  0.1386
 7881SOL    HW135102   2.348   4.112   9.583  0.6734  1.7171  0.2986
 7881SOL    HW235103   2.263   4.049   9.681  0.4642 -0.4726 -0.4397
 7882SOL     OW35104   3.526   2.693   7.087 -0.0003  0.2144  0.3752
 7882SOL    HW135105   3.558   2.745   7.161  0.3183  1.8713 -0.9258
 7882SOL    HW235106   3.515   2.763   7.023 -0.3157 -0.8211 -0.7011
 7883SOL     OW35107   3.160   3.295   7.153 -0.0736 -0.0199 -0.2861
 7883SOL    HW135108   3.210   3.376   7.164  0.4520 -0.2573 -0.9821
 7883SOL    HW235109   3.074   3.321   7.186  0.1981  0.9524 -0.3624
 7884SOL     OW35110   4.399   2.337  13.039 -0.5670 -0.0300 -0.6494
 7884SOL    HW135111   4.491   2.362  13.035 -0.7778  1.2184  2.8220
 7884SOL    HW235112   4.406   2.248  13.072 -2.0447  0.2751  0.4708
 7885SOL     OW35113   4.027   0.493   5.499  0.0187  0.0856 -0.0536
 7885SOL    HW135114   4.057   0.402   5.501  1.2193  0.4549 -1.7894
 7885SOL    HW235115   4.026   0.512   5.593  2.5309  0.5387 -0.1132
 7886SOL     OW35116   3.003   1.756   8.209  0.3622  0.0286  0.3626
 7886SOL    HW135117   2.944   1.695   8.166  2.1119 -0.9226 -0.7142
 7886SOL    HW235118   2.988   1.831   8.151  1.9534 -0.4370 -0.6568
 7887SOL     OW35119   4.440   1.966  10.960  0.3568  0.1796 -0.5838
 7887SOL    HW135120   4.529   1.929  10.961  0.7297  1.0401 -2.9217
 7887SOL    HW235121   4.392   1.885  10.978 -0.7390  0.8154 -0.6616
 7888SOL     OW35122   2.904   1.692  10.820 -0.5567 -0.3835 -0.1160
 7888SOL    HW135123   2.847   1.735  10.883 -0.2820  0.5150 -0.4737
 7888SOL    HW235124   2.844   1.647  10.761 -1.0272 -2.6520  2.1260
 7889SOL     OW35125   1.110   3.434   8.518 -0.2564 -0.2199 -0.4180
 7889SOL    HW135126   1.063   3.392   8.590 -0.9062  1.1741 -0.0308
 7889SOL    HW235127   1.044   3.444   8.450  0.3175 -0.2844 -0.9869
 7890SOL     OW35128   2.324   4.180  13.620 -0.7154 -0.2037  0.7418
 7890SOL    HW135129   2.297   4.267  13.651 -0.7654 -0.0831  0.3655
 7890SOL    HW235130   2.267   4.174  13.542 -0.0715  0.2001  0.2446
 7891SOL     OW35131   2.266   1.072  14.362 -0.1475  0.0352  0.0763
 7891SOL    HW135132   2.308   1.151  14.397 -1.6102  0.6325  0.5053
 7891SOL    HW235133   2.341   1.013  14.372 -0.3576  0.2383  2.8716
 7892SOL     OW35134   2.251   3.151   5.060 -1.0683 -0.5703  0.1658
 7892SOL    HW135135   2.180   3.206   5.028  0.6014  0.0313 -2.4010
 7892SOL    HW235136   2.231   3.144   5.154  0.1264 -1.5066  0.3573
 7893SOL     OW35137   3.963   4.155   1.146 -0.2855 -0.0986  0.5401
 7893SOL    HW135138   4.005   4.237   1.171  2.1312 -1.4523  0.8987
 7893SOL    HW235139   3.948   4.170   1.052 -1.3502 -0.8211  0.5931
 7894SOL     OW35140   0.871   3.044   7.985 -0.4110  0.6668  0.3748
 7894SOL    HW135141   0.812   2.979   8.022  0.3564 -0.4357 -0.3494
 7894SOL    HW235142   0.941   3.018   8.044  0.2722 -2.1617 -1.6963
 7895SOL     OW35143   4.299   3.706  14.392 -0.1186  0.4040  0.5390
 7895SOL    HW135144   4.208   3.711  14.363 -0.7789  2.4303  2.9015
 7895SOL    HW235145   4.332   3.788  14.357 -0.9268 -0.8220 -3.1069
 7896SOL     OW35146   4.118   3.023   1.931  0.0209 -0.0910 -0.5441
 7896SOL    HW135147   4.098   3.112   1.960  1.3733  0.0147  0.0782
 7896SOL    HW235148   4.111   3.042   1.838  0.6472 -0.5119 -0.6790
 7897SOL     OW35149   3.043   0.099   9.064  0.2861 -0.0748  0.1801
 7897SOL    HW135150   2.987   0.022   9.070  0.3362 -0.1857 -0.7920
 7897SOL    HW235151   3.066   0.095   8.971 -2.5119 -0.0951 -0.5133
 7898SOL     OW35152   0.242   2.466   7.478 -0.0761  0.1523 -0.0565
 7898SOL    HW135153   0.297   2.458   7.400  0.2452 -0.7007  0.2488
 7898SOL    HW235154   0.159   2.436   7.441  1.2753 -0.7317 -2.3520
 7899SOL     OW35155   1.316   2.135   5.253 -0.0597  0.4252 -0.1494
 7899SOL    HW135156   1.379   2.120   5.323 -0.5568 -1.1112 -0.0426
 7899SOL    HW235157   1.356   2.208   5.204 -0.3763  1.0356  0.5132
 7900SOL     OW35158   3.597   1.849  11.027 -0.5778  0.0551 -0.5497
 7900SOL    HW135159   3.568   1.798  10.951 -1.0832  1.6869 -1.4659
 7900SOL    HW235160   3.660   1.915  10.998 -1.1726  0.5591 -0.7000
 7901SOL     OW35161   1.961   3.035   3.258  0.1256 -0.3010 -0.7049
 7901SOL    HW135162   2.026   2.973   3.225  0.1468 -1.5775  1.7726
 7901SOL    HW235163   2.023   3.102   3.286  4.9205 -3.8339 -2.9468
 7902SOL     OW35164   2.069   2.926  15.197 -0.2615  0.2055  0.5128
 7902SOL    HW135165   2.051   2.873  15.275  0.3611 -2.1649 -0.9808
 7902SOL    HW235166   2.026   3.009  15.217  0.8538  1.0046 -0.4000
 7903SOL     OW35167   3.839   0.352   0.955 -0.0829  0.3470 -0.1262
 7903SOL    HW135168   3.776   0.336   1.025  0.6729  1.1486  0.7436
 7903SOL    HW235169   3.796   0.335   0.872  1.9038  1.2858 -1.3598
 7904SOL     OW35170   3.278   1.267   7.600 -0.3519  0.2526 -0.2592
 7904SOL    HW135171   3.309   1.333   7.538  2.6625 -0.2286  0.6998
 7904SOL    HW235172   3.336   1.192   7.584  1.0494  1.5289 -1.2329
 7905SOL     OW35173   4.288   3.205   8.208 -0.3351  0.0997  0.6726
 7905SOL    HW135174   4.325   3.256   8.280  0.9601 -1.1584  0.8906
 7905SOL    HW235175   4.294   3.114   8.235  1.3960  0.7781  2.5519
 7906SOL     OW35176   1.291   4.106   9.344  0.1584  0.0170  0.4549
 7906SOL    HW135177   1.380   4.091   9.374  0.3411  4.2716  2.1153
 7906SOL    HW235178   1.236   4.037   9.382 -1.0952  1.5020  1.3628
 7907SOL     OW35179   3.043   3.984   1.656 -0.4457  0.1820 -0.0629
 7907SOL    HW135180   3.097   4.036   1.596 -0.2690  0.6208  0.4774
 7907SOL    HW235181   2.971   4.044   1.674 -0.6453 -0.5206  1.4620
 7908SOL     OW35182   4.169   4.568   7.979  0.3742  0.2546 -0.1394
 7908SOL    HW135183   4.132   4.654   7.957  0.5812  0.4951  0.4749
 7908SOL    HW235184   4.116   4.536   8.052 -0.1168 -0.7764 -0.9451
 7909SOL     OW35185   0.396   3.764   9.383 -0.3477  0.8385  0.0288
 7909SOL    HW135186   0.364   3.817   9.310  2.6395  2.4302 -0.1378
 7909SOL    HW235187   0.372   3.673   9.366  0.9103  0.5653 -0.3526
 7910SOL     OW35188   1.022   3.830   4.711 -0.3135  0.2746  0.0794
 7910SOL    HW135189   1.003   3.910   4.661  0.6557  0.9375  0.7661
 7910SOL    HW235190   0.935   3.797   4.734  0.8901 -1.1005  2.6492
 7911SOL     OW35191   0.575   2.227   3.763 -0.3522  0.5927 -0.1235
 7911SOL    HW135192   0.659   2.196   3.728 -1.3740 -1.0026 -1.1522
 7911SOL    HW235193   0.594   2.302   3.820  2.2269 -1.4242  1.6840
 7912SOL     OW35194   2.083   0.279   7.144  0.0683 -0.0981 -0.1623
 7912SOL    HW135195   2.130   0.280   7.227 -0.1471 -2.9533 -0.0017
 7912SOL    HW235196   2.156   0.278   7.082 -1.2602 -1.8443 -1.6797
 7913SOL     OW35197   4.324   4.323  12.766  0.0532  0.1785 -0.2486
 7913SOL    HW135198   4.357   4.236  12.744 -0.3370  0.1497 -0.7341
 7913SOL    HW235199   4.382   4.353  12.836  1.0333 -0.6155 -0.7232
 7914SOL     OW35200   4.223   0.833   7.719 -0.5584  0.4529 -0.3544
 7914SOL    HW135201   4.303   0.876   7.687  0.2995 -0.3348  0.7497
 7914SOL    HW235202   4.232   0.844   7.813 -0.3222 -1.3532 -0.1601
 7915SOL     OW35203   2.082   4.416  12.074  0.2066  0.4430 -0.4662
 7915SOL    HW135204   2.069   4.424  11.979  1.1637 -0.8436 -0.7108
 7915SOL    HW235205   1.990   4.403  12.096 -0.0152  0.9510 -1.1044
 7916SOL     OW35206   1.127   0.310   4.843 -0.4240 -0.1323  0.0060
 7916SOL    HW135207   1.067   0.262   4.900 -0.1785 -0.6701 -0.1921
 7916SOL    HW235208   1.162   0.372   4.908 -1.4072 -0.2555  0.6639
 7917SOL     OW35209   4.121   0.646   7.523  0.2385  0.6061  0.0731
 7917SOL    HW135210   4.192   0.582   7.523 -0.4438 -0.1470 -1.4262
 7917SOL    HW235211   4.174   0.719   7.556  0.0079  1.5170 -1.5913
 7918SOL     OW35212   0.156   0.227   2.765 -0.5726  0.3461  0.2540
 7918SOL    HW135213   0.241   0.264   2.741 -0.5355 -0.7340 -1.3252
 7918SOL    HW235214   0.113   0.208   2.681  0.2142  1.8130 -0.4833
 7919SOL     OW35215   1.493   0.626   5.836  0.7819 -0.5982  0.0725
 7919SOL    HW135216   1.406   0.596   5.863 -1.1320  4.5115 -0.5047
 7919SOL    HW235217   1.463   0.679   5.762  0.3654 -2.9555 -1.4423
 7920SOL     OW35218   0.544   1.861   7.772 -0.4173 -0.1467  0.0524
 7920SOL    HW135219   0.522   1.948   7.806 -0.1718 -0.7052  1.6585
 7920SOL    HW235220   0.464   1.853   7.720 -0.3412  1.7548 -0.3567
 7921SOL     OW35221   0.878   3.130   4.095 -0.0243 -0.7351  0.5159
 7921SOL    HW135222   0.873   3.034   4.097  1.8179 -0.8760 -1.2752
 7921SOL    HW235223   0.925   3.153   4.175 -0.6283 -0.3456  0.7558
 7922SOL     OW35224   0.935   2.988  12.892  0.4052  0.1652 -0.1894
 7922SOL    HW135225   0.842   3.003  12.877  0.5629  1.2008 -0.1538
 7922SOL    HW235226   0.957   3.003  12.800 -1.6669  2.4355 -0.3066
 7923SOL     OW35227   0.802   4.699   5.091 -0.0006 -0.5129  0.2654
 7923SOL    HW135228   0.860   4.720   5.164 -0.2826  1.8029 -0.1726
 7923SOL    HW235229   0.829   4.608   5.076  2.1872  0.2594 -0.4836
 7924SOL     OW35230   4.222   2.662   6.230 -0.1116  0.2765 -0.1063
 7924SOL    HW135231   4.271   2.673   6.148  2.0349 -2.1018  0.8558
 7924SOL    HW235232   4.167   2.739   6.227 -0.7996 -0.2513 -1.1517
 7925SOL     OW35233   0.701   4.407   7.220 -0.2321  0.1820 -0.6126
 7925SOL    HW135234   0.624   4.442   7.174 -0.1059 -1.2841 -1.9602
 7925SOL    HW235235   0.703   4.313   7.201  3.1224  0.1476  0.0150
 7926SOL     OW35236   3.214   2.339  12.308 -0.1320  0.2398  0.0322
 7926SOL    HW135237   3.161   2.378  12.378 -0.3481  0.9625 -0.5255
 7926SOL    HW235238   3.196   2.401  12.237 -1.1396 -0.7349 -0.5662
 7927SOL     OW35239   3.850   2.276  14.252 -0.2893 -0.4022  0.3299
 7927SOL    HW135240   3.803   2.250  14.331  0.2996  1.2427  1.2094
 7927SOL    HW235241   3.866   2.193  14.206 -2.0481 -0.5566  0.0267
 7928SOL     OW35242   0.539   3.287   6.063  0.1026  0.8625 -0.2697
 7928SOL    HW135243   0.544   3.194   6.042  0.1551  0.8601 -0.2462
 7928SOL    HW235244   0.589   3.320   5.988  0.8533 -0.2283 -0.2467
 7929SOL     OW35245   4.650   1.312   5.174 -0.2309 -0.0724 -0.5470
 7929SOL    HW135246   4.703   1.279   5.246  0.3322  2.0023  0.0027
 7929SOL    HW235247   4.635   1.403   5.201  1.2224  0.1797 -0.6079
 7930SOL     OW35248   2.572   2.767   8.297  0.4729  0.2963  0.2876
 7930SOL    HW135249   2.651   2.802   8.339  2.1723  0.9158 -3.4690
 7930SOL    HW235250   2.514   2.766   8.373 -0.9835 -0.5352 -0.8510
 7931SOL     OW35251   1.213   2.694   5.641  0.7773 -0.3842 -1.1062
 7931SOL    HW135252   1.292   2.734   5.678  2.3797 -3.3655 -1.3272
 7931SOL    HW235253   1.185   2.644   5.718 -1.3745  1.1903 -0.8673
 7932SOL     OW35254   4.589   4.400  14.210  0.2218  0.0306  0.3776
 7932SOL    HW135255   4.636   4.323  14.177  0.8052  0.0557  1.1510
 7932SOL    HW235256   4.495   4.386  14.197  0.4757  1.2442 -2.6924
 7933SOL     OW35257   3.422   2.687   5.076  0.4103 -0.4488 -0.0228
 7933SOL    HW135258   3.419   2.629   5.152 -1.0236 -3.1156 -2.1377
 7933SOL    HW235259   3.447   2.627   5.006 -1.7741 -2.1962  0.7027
 7934SOL     OW35260   1.748   3.124   1.319  0.5184  0.2006 -0.1130
 7934SOL    HW135261   1.658   3.094   1.332 -0.1057  1.7899 -0.6821
 7934SOL    HW235262   1.761   3.184   1.393 -0.1803 -0.6944  0.7278
 7935SOL     OW35263   1.280   0.451   5.309  0.4299  0.2694 -0.3973
 7935SOL    HW135264   1.240   0.472   5.225 -2.0943  0.2021  0.7900
 7935SOL    HW235265   1.217   0.385   5.337  1.7645 -1.1981 -0.8236
 7936SOL     OW35266   3.534   0.118  12.421  0.1703 -0.2021  0.0819
 7936SOL    HW135267   3.454   0.070  12.399  1.0254 -0.5707 -2.2340
 7936SOL    HW235268   3.499   0.203  12.446  2.0044  0.4230  0.5062
 7937SOL     OW35269   3.559   4.217  17.455  0.1374  0.6811 -0.0102
 7937SOL    HW135270   3.615   4.246  17.383 -1.4456  0.4521 -1.3332
 7937SOL    HW235271   3.544   4.304  17.493  1.5271  0.1912  1.6663
 7938SOL     OW35272   4.698   1.630   7.251 -1.0807  0.2865 -0.5635
 7938SOL    HW135273   4.710   1.558   7.189  0.6704  0.0445  0.0810
 7938SOL    HW235274   4.603   1.623   7.263 -0.7346 -0.4435  1.7484
 7939SOL     OW35275   0.541   0.847   3.111 -0.4097  0.3008 -0.3839
 7939SOL    HW135276   0.614   0.788   3.090 -1.9920 -0.9775 -2.1897
 7939SOL    HW235277   0.588   0.931   3.114  0.4654 -0.1790 -0.7689
 7940SOL     OW35278   0.711   4.571   8.196  0.1249 -0.1261 -0.0443
 7940SOL    HW135279   0.735   4.660   8.223 -0.0919 -0.9780  2.9948
 7940SOL    HW235280   0.794   4.541   8.160 -0.2357  1.1484 -1.9097
 7941SOL     OW35281   2.288   0.847  11.099 -0.3383 -0.6177  0.1785
 7941SOL    HW135282   2.229   0.821  11.029  1.2042 -1.5761 -0.7712
 7941SOL    HW235283   2.326   0.928  11.065 -0.5023 -0.4124  0.4831
 7942SOL     OW35284   3.324   3.542   4.114  0.0130 -0.2082 -0.0370
 7942SOL    HW135285   3.368   3.459   4.097  1.1016 -0.3350  3.3907
 7942SOL    HW235286   3.290   3.562   4.026 -0.1874  1.0975  0.3358
 7943SOL     OW35287   0.748   1.501  13.899  0.4096 -0.0664  0.6601
 7943SOL    HW135288   0.748   1.438  13.972  0.2905  0.3175  0.9924
 7943SOL    HW235289   0.756   1.584  13.947 -0.0223  0.0460  0.5368
 7944SOL     OW35290   0.416   1.524   7.548  0.2898 -0.0622 -0.3529
 7944SOL    HW135291   0.402   1.602   7.494  0.8339 -1.3434 -2.3598
 7944SOL    HW235292   0.341   1.471   7.520  0.7706 -0.0203 -1.7437
 7945SOL     OW35293   0.775   3.069   0.894  0.2568  0.2213  0.3538
 7945SOL    HW135294   0.686   3.038   0.911  0.6954 -0.7038  0.9558
 7945SOL    HW235295   0.811   2.988   0.859 -1.3074  0.0402 -0.8294
 7946SOL     OW35296   3.310   4.503   2.367  0.1231 -0.3695 -0.2781
 7946SOL    HW135297   3.348   4.424   2.328 -0.0304 -0.7154  0.2674
 7946SOL    HW235298   3.328   4.474   2.457  0.3453 -1.1980 -0.5869
 7947SOL     OW35299   4.042   2.515   3.333 -0.1552 -0.0714 -0.1598
 7947SOL    HW135300   3.974   2.455   3.301 -0.3935 -0.3277  0.8429
 7947SOL    HW235301   4.084   2.449   3.388  1.2871 -0.6025 -1.8810
 7948SOL     OW35302   2.587   4.615   3.399  0.0041 -0.1455  0.2526
 7948SOL    HW135303   2.664   4.558   3.405 -1.3898 -2.0026  0.7240
 7948SOL    HW235304   2.628   4.695   3.367  2.0828 -1.4415 -0.3140
 7949SOL     OW35305   3.843   4.278   7.508 -0.5043 -0.2602 -0.5937
 7949SOL    HW135306   3.876   4.353   7.556 -0.3614  0.3998 -1.7177
 7949SOL    HW235307   3.774   4.255   7.570 -0.5219 -2.6105 -1.4863
 7950SOL     OW35308   2.192   3.002   9.572  0.3232  0.1053  0.2899
 7950SOL    HW135309   2.122   3.045   9.523  1.7827  1.4523 -0.6514
 7950SOL    HW235310   2.267   3.059   9.557 -0.1506  0.7567  0.4057
 7951SOL     OW35311   2.731   0.262  14.697 -0.2591 -0.5827 -0.1931
 7951SOL    HW135312   2.647   0.247  14.654 -0.8104  0.3625  0.5625
 7951SOL    HW235313   2.710   0.267  14.790  0.2931  1.6081 -0.2009
 7952SOL     OW35314   4.349   2.250   5.933 -0.2562  0.0878  0.0730
 7952SOL    HW135315   4.329   2.292   6.016 -2.8030 -2.2031  0.6115
 7952SOL    HW235316   4.425   2.196   5.954 -1.5928 -1.5131  0.7119
 7953SOL     OW35317   2.918   3.965   7.507  0.2035 -0.2256  0.5407
 7953SOL    HW135318   2.851   3.997   7.568 -0.9327 -2.7927  0.6348
 7953SOL    HW235319   2.931   4.043   7.454 -0.3243 -0.7869 -0.4155
 7954SOL     OW35320   1.450   2.776   6.049  0.7494 -0.2393  0.5984
 7954SOL    HW135321   1.532   2.820   6.071 -0.6795  2.5443  0.2823
 7954SOL    HW235322   1.418   2.761   6.138  1.9475  2.8664  1.5462
 7955SOL     OW35323   3.888   2.712   7.959 -0.7431  0.3355  0.6810
 7955SOL    HW135324   3.879   2.705   8.054  2.9874 -0.6645  0.9427
 7955SOL    HW235325   3.796   2.736   7.943  0.3485  2.3280 -2.7063
 7956SOL     OW35326   0.485   2.904  16.431  0.0205 -0.0655  0.6210
 7956SOL    HW135327   0.495   2.995  16.455  0.0769  0.1466 -0.1890
 7956SOL    HW235328   0.395   2.907  16.397  0.0370  0.3359  0.6214
 7957SOL     OW35329   1.288   1.350  15.104  0.1409  0.4401 -0.2213
 7957SOL    HW135330   1.265   1.443  15.110 -1.9834 -0.0581 -0.3950
 7957SOL    HW235331   1.241   1.309  15.177 -0.6539  2.1328  0.2184
 7958SOL     OW35332   1.444   2.779  16.333  0.3055 -0.5866  0.0565
 7958SOL    HW135333   1.469   2.817  16.249  1.8773  0.6622  1.0978
 7958SOL    HW235334   1.369   2.831  16.362  0.0168 -1.1916  0.3936
 7959SOL     OW35335   0.884   2.755  15.791  0.4287  0.3817 -0.0023
 7959SOL    HW135336   0.937   2.677  15.775  1.3038  0.8922  0.3726
 7959SOL    HW235337   0.869   2.750  15.885 -2.5110  0.7360 -0.4514
 7960SOL     OW35338   2.638   2.532   4.579  0.5077  0.0921 -0.0681
 7960SOL    HW135339   2.724   2.572   4.581  1.1480 -1.3532  1.5559
 7960SOL    HW235340   2.610   2.543   4.488 -2.0174 -0.2462  0.6575
 7961SOL     OW35341   0.657   0.724  12.717 -0.2573 -0.0952  0.5355
 7961SOL    HW135342   0.575   0.723  12.667  2.2441  1.0906 -3.5627
 7961SOL    HW235343   0.728   0.715  12.654 -0.3173 -0.2527  0.4916
 7962SOL     OW35344   4.471   1.936   8.127  0.5695 -0.0782  0.3254
 7962SOL    HW135345   4.458   1.881   8.205 -1.6174 -0.4812 -0.3209
 7962SOL    HW235346   4.540   1.991   8.164  0.4296  0.4435 -0.1943
 7963SOL     OW35347   1.965   2.710  11.390 -0.0418  0.3299 -0.0252
 7963SOL    HW135348   2.024   2.641  11.419  1.4598  1.6580  0.1006
 7963SOL    HW235349   1.996   2.783  11.444 -2.6583  0.6073  1.0698
 7964SOL     OW35350   1.372   0.486  13.951  0.2851 -0.0514  0.3001
 7964SOL    HW135351   1.295   0.429  13.954  0.6191 -0.5388 -0.2059
 7964SOL    HW235352   1.409   0.458  13.867  1.0027 -0.5102  0.7721
 7965SOL     OW35353   2.779   1.619   4.918  0.2727 -0.4497  0.8003
 7965SOL    HW135354   2.804   1.676   4.990  0.6126  0.3356  0.0538
 7965SOL    HW235355   2.870   1.597   4.898  0.3769  2.5054 -2.0006
 7966SOL     OW35356   0.089   2.004  10.039  0.4823  0.1772 -0.5002
 7966SOL    HW135357   0.031   2.078  10.056  0.5526  0.2706 -0.6599
 7966SOL    HW235358   0.111   1.984  10.130  0.0979 -2.3239 -0.9780
 7967SOL     OW35359   0.940   0.499   3.051  0.8883  0.0835  0.5993
 7967SOL    HW135360   0.978   0.435   3.112 -0.5850  0.1708  1.6227
 7967SOL    HW235361   0.905   0.453   2.976  0.3001  0.5422  0.5886
 7968SOL     OW35362   3.912   3.876   5.850  0.1409 -0.1379 -0.0324
 7968SOL    HW135363   3.991   3.873   5.905 -0.5860  1.0195  1.0621
 7968SOL    HW235364   3.944   3.926   5.775  0.7166 -0.9780 -0.3472
 7969SOL     OW35365   3.794   3.667  15.946 -0.5173  0.4693 -0.6867
 7969SOL    HW135366   3.755   3.754  15.954 -3.0421 -0.8705  1.5757
 7969SOL    HW235367   3.881   3.689  15.911 -0.5886  1.2004 -0.3945
 7970SOL     OW35368   2.250   3.432   9.695  0.3020 -0.0799 -0.1783
 7970SOL    HW135369   2.285   3.356   9.741  1.9198  1.7510  1.6108
 7970SOL    HW235370   2.159   3.402   9.702  0.6176 -0.5123  2.1307
 7971SOL     OW35371   0.152   0.100   1.853  0.0695 -0.3193 -0.0456
 7971SOL    HW135372   0.107   0.163   1.909  1.3756  0.5561  0.0235
 7971SOL    HW235373   0.111   0.103   1.767 -0.2452 -1.4381  0.0605
 7972SOL     OW35374   3.070   2.768   2.595  0.1704  0.0812 -0.3494
 7972SOL    HW135375   3.063   2.859   2.625  0.4562  0.1228 -0.4086
 7972SOL    HW235376   3.056   2.778   2.501  0.6897  0.8427 -0.3487
 7973SOL     OW35377   4.484   1.067   9.260 -0.2332  0.3912 -0.6763
 7973SOL    HW135378   4.432   1.034   9.186 -0.4415 -0.3525 -0.1952
 7973SOL    HW235379   4.561   1.011   9.255 -0.0306  0.2611  4.3358
 7974SOL     OW35380   3.050   1.436  16.337 -0.5372 -0.4748  0.1130
 7974SOL    HW135381   3.014   1.470  16.419 -0.5657  0.6263 -0.3604
 7974SOL    HW235382   2.975   1.417  16.282  0.8804 -2.5492 -1.0981
 7975SOL     OW35383   0.949   1.754   8.505  0.0764  0.0430 -0.0743
 7975SOL    HW135384   0.905   1.819   8.451 -0.5353  1.5606  2.2612
 7975SOL    HW235385   1.039   1.767   8.476  0.4140 -1.6210  0.1858
 7976SOL     OW35386   1.122   3.432  12.029 -0.2182 -0.0380 -0.3148
 7976SOL    HW135387   1.144   3.518  11.993  1.5906 -0.4429 -0.1653
 7976SOL    HW235388   1.179   3.429  12.106 -1.9651  1.9105  1.0694
 7977SOL     OW35389   2.024   0.022   5.440 -0.0033 -0.0888 -0.4797
 7977SOL    HW135390   2.036   4.685   5.365  0.2042 -0.1730 -0.3813
 7977SOL    HW235391   2.070   0.101   5.411  0.2083 -0.3863 -0.9597
 7978SOL     OW35392   1.479   4.661   3.341 -0.0577 -0.7068  0.5714
 7978SOL    HW135393   1.455   4.675   3.249 -2.2196 -1.7405  0.9812
 7978SOL    HW235394   1.394   4.679   3.381 -0.1915 -2.6405  1.1807
 7979SOL     OW35395   0.221   1.117   3.490 -0.1626  0.2301 -0.1268
 7979SOL    HW135396   0.164   1.043   3.512  0.2967  0.1532  0.8176
 7979SOL    HW235397   0.256   1.082   3.408  0.0665  0.7574 -0.2506
 7980SOL     OW35398   1.482   4.470   9.727  0.0870 -0.5514 -0.4648
 7980SOL    HW135399   1.447   4.559   9.728 -1.4785 -1.1537 -1.0897
 7980SOL    HW235400   1.540   4.478   9.803 -1.8450  0.8693  0.8559
 7981SOL     OW35401   2.137   2.658   5.341 -0.2547  0.2596  0.0281
 7981SOL    HW135402   2.211   2.637   5.398 -1.4094 -1.2896  0.9753
 7981SOL    HW235403   2.164   2.740   5.300 -0.6778  1.7335  2.7045
 7982SOL     OW35404   1.464   0.999   2.460 -0.1837  0.1022  0.4326
 7982SOL    HW135405   1.515   0.920   2.440 -0.2600 -0.0224  0.7328
 7982SOL    HW235406   1.384   0.957   2.430  0.5607 -2.8599  2.6018
 7983SOL     OW35407   2.378   1.142   6.334  0.3775  0.1035  0.5496
 7983SOL    HW135408   2.469   1.147   6.364  0.9654 -0.2726 -1.1988
 7983SOL    HW235409   2.333   1.119   6.416  1.4477  0.6205  1.2890
 7984SOL     OW35410   1.743   4.679   5.465  0.0013 -0.1100 -0.2791
 7984SOL    HW135411   1.715   0.046   5.443  2.6500  1.0310  0.9476
 7984SOL    HW235412   1.838   4.685   5.465 -0.0665  0.8525 -0.0125
 7985SOL     OW35413   0.871   2.884  11.405 -0.2707 -0.3355  0.4172
 7985SOL    HW135414   0.830   2.807  11.443 -2.8490  1.2642  0.9228
 7985SOL    HW235415   0.960   2.852  11.390 -0.3374 -0.2198 -0.2495
 7986SOL     OW35416   1.005   3.333   6.289 -0.7465  0.2044  0.0438
 7986SOL    HW135417   1.053   3.250   6.298  1.8411  1.7342  0.4577
 7986SOL    HW235418   1.064   3.373   6.226 -2.0719  0.2316 -1.1681
 7987SOL     OW35419   1.670   0.881   3.358 -0.1853 -0.4277 -0.0942
 7987SOL    HW135420   1.743   0.943   3.356 -0.0647 -0.5303  0.7798
 7987SOL    HW235421   1.702   0.805   3.309 -0.9636 -1.0843  0.4126
 7988SOL     OW35422   2.869   1.365   7.188  0.5441 -0.2088 -0.6218
 7988SOL    HW135423   2.959   1.375   7.220 -0.4500 -3.0497  3.0677
 7988SOL    HW235424   2.865   1.440   7.128  0.1429 -1.1196 -1.7184
 7989SOL     OW35425   4.222   3.478  12.386 -0.6130  0.1077  0.4158
 7989SOL    HW135426   4.128   3.467  12.401 -1.1428 -1.4803 -4.0485
 7989SOL    HW235427   4.256   3.403  12.436 -0.2724  1.2503  1.8946
 7990SOL     OW35428   2.660   0.374  14.398 -0.0374  0.5585 -0.2518
 7990SOL    HW135429   2.717   0.426  14.455  0.5517  0.2946 -0.6026
 7990SOL    HW235430   2.572   0.382  14.435  0.7776 -0.5664  1.9971
 7991SOL     OW35431   3.905   0.267   3.327  0.1659  0.1567 -0.7419
 7991SOL    HW135432   3.945   0.270   3.414 -1.1674  3.6231 -0.2461
 7991SOL    HW235433   3.841   0.203   3.358  1.3839 -1.1648 -0.9989
 7992SOL     OW35434   0.780   1.778  10.096 -0.0507  0.1523  0.3614
 7992SOL    HW135435   0.726   1.718  10.044 -0.8143  2.1902 -1.1733
 7992SOL    HW235436   0.785   1.849  10.032  1.8899  0.5664  0.9847
 7993SOL     OW35437   1.819   2.087  10.703  0.3245 -0.2169  0.3794
 7993SOL    HW135438   1.831   2.106  10.796  0.1498  0.2820  0.2984
 7993SOL    HW235439   1.744   2.146  10.694 -1.7185 -2.4394  2.6576
 7994SOL     OW35440   3.210   0.638   4.307  0.1115  0.6280  0.7108
 7994SOL    HW135441   3.302   0.629   4.282  0.2925  1.0457  1.2351
 7994SOL    HW235442   3.169   0.644   4.221  0.6217  1.2680  0.5138
 7995SOL     OW35443   1.168   2.066   8.427 -0.7308  0.4835  0.3898
 7995SOL    HW135444   1.073   2.060   8.434 -0.5920 -2.6945 -0.5535
 7995SOL    HW235445   1.190   2.045   8.336 -2.4196  0.8664 -0.1078
 7996SOL     OW35446   4.524   2.890   5.231  0.0704 -0.0470  0.2040
 7996SOL    HW135447   4.505   2.901   5.325  1.1359 -1.5736  0.5936
 7996SOL    HW235448   4.611   2.928   5.216  0.0572 -0.4883 -0.9909
 7997SOL     OW35449   1.722   0.066   4.604 -0.1658  0.5059 -0.5636
 7997SOL    HW135450   1.664   0.098   4.535  2.7861 -1.2350 -3.8604
 7997SOL    HW235451   1.797   0.061   4.545  1.4089 -0.5202  1.5054
 7998SOL     OW35452   4.323   2.953   8.322  0.1542 -0.7471 -0.0203
 7998SOL    HW135453   4.305   2.859   8.315  0.0633 -0.7811  0.6537
 7998SOL    HW235454   4.293   2.971   8.411 -1.7832  1.6342 -1.1564
 7999SOL     OW35455   1.399   0.844   6.122  0.0478 -0.1951 -0.2565
 7999SOL    HW135456   1.391   0.924   6.174  1.3640  1.1233 -2.0850
 7999SOL    HW235457   1.379   0.879   6.035 -1.2129  1.3474  0.6530
 8000SOL     OW35458   1.534   1.557   9.653  0.0190  0.4691 -0.0141
 8000SOL    HW135459   1.490   1.640   9.671  0.3379  1.5877 -4.4805
 8000SOL    HW235460   1.572   1.570   9.566 -1.2103 -2.2692 -0.9691
 8001SOL     OW35461   1.448   3.217   3.147  0.1730  0.1286  0.3865
 8001SOL    HW135462   1.447   3.312   3.132  0.1808  0.0088 -0.3512
 8001SOL    HW235463   1.356   3.193   3.160  0.0498  1.0373  1.2484
 8002SOL     OW35464   2.403   4.507   3.578  0.0472 -0.3872 -0.3519
 8002SOL    HW135465   2.464   4.545   3.515 -0.0273  0.9945  0.4132
 8002SOL    HW235466   2.474   4.458   3.620 -0.3326 -0.5735  0.0701
 8003SOL     OW35467   2.152   0.323   8.590  0.6157  0.4711 -0.3251
 8003SOL    HW135468   2.114   0.391   8.533 -0.2340  1.8049  1.8299
 8003SOL    HW235469   2.221   0.288   8.534 -1.1290 -1.7539 -1.0947
 8004SOL     OW35470   4.113   2.959   0.880  0.6883  0.1383 -0.1237
 8004SOL    HW135471   4.076   2.924   0.962  0.6153  0.0022 -0.2135
 8004SOL    HW235472   4.199   2.918   0.879 -0.1993 -1.7699  0.1166
 8005SOL     OW35473   3.370   1.506   7.044  0.2738  0.0954  0.2176
 8005SOL    HW135474   3.280   1.505   7.078 -0.0448 -0.3071 -0.6192
 8005SOL    HW235475   3.375   1.430   6.986 -0.1284  0.5925 -0.4666
 8006SOL     OW35476   4.372   0.448   8.762  0.5686  0.1586  0.3918
 8006SOL    HW135477   4.436   0.513   8.791  1.5061 -0.0254 -1.2511
 8006SOL    HW235478   4.305   0.493   8.711 -1.2051 -1.2105  1.5156
 8007SOL     OW35479   1.966   1.537   8.312  0.6900  0.2611 -0.1180
 8007SOL    HW135480   2.024   1.492   8.372  2.9859  2.8811 -0.3377
 8007SOL    HW235481   1.946   1.611   8.370 -4.3044 -1.2017 -0.0043
 8008SOL     OW35482   3.888   0.977   6.726 -0.0681  0.2572 -0.3609
 8008SOL    HW135483   3.855   0.975   6.636  2.9182 -1.0823 -1.3980
 8008SOL    HW235484   3.954   0.908   6.735  0.4369  0.6839 -0.8494
 8009SOL     OW35485   1.092   2.248   6.996 -0.2313 -0.2894 -0.1701
 8009SOL    HW135486   0.997   2.255   6.988  0.3988  4.8522 -2.8391
 8009SOL    HW235487   1.103   2.200   7.078  1.6334  2.0294  0.9612
 8010SOL     OW35488   2.239   2.489  17.687  0.2843  0.7092 -0.1906
 8010SOL    HW135489   2.279   2.418   0.050 -1.6162 -0.0968  0.1984
 8010SOL    HW235490   2.271   2.553   0.063  2.1815 -0.5775  0.1584
 8011SOL     OW35491   2.617   0.353  13.580 -0.3885  0.0405 -0.3674
 8011SOL    HW135492   2.533   0.324  13.616  0.7099  0.5480  2.6414
 8011SOL    HW235493   2.666   0.291  13.634 -0.6630 -1.2729 -1.6473
 8012SOL     OW35494   4.519   4.676   0.297  0.5534  0.6364 -0.1579
 8012SOL    HW135495   4.557   4.615   0.234  2.0971 -1.7660  3.0592
 8012SOL    HW235496   4.596   0.005   0.326  0.5080  0.8434 -0.3966
 8013SOL     OW35497   3.019   0.005   6.611  0.2227 -0.2772  0.3475
 8013SOL    HW135498   2.967   4.663   6.562  0.1385 -0.8963  1.2276
 8013SOL    HW235499   2.966   4.720   6.690  1.5554  0.1318  1.2800
 8014SOL     OW35500   0.671   4.286   8.374 -0.5266 -0.4331  0.1133
 8014SOL    HW135501   0.586   4.278   8.331 -0.7250 -0.2102  0.4555
 8014SOL    HW235502   0.727   4.251   8.305 -1.4052  0.8772 -1.2717
 8015SOL     OW35503   3.750   4.584  12.753 -0.1443  0.3225  0.0951
 8015SOL    HW135504   3.825   4.532  12.785 -0.4525  0.6351  1.3305
 8015SOL    HW235505   3.731   4.533  12.674  0.6576  0.4894 -0.2050
 8016SOL     OW35506   0.388   3.584   5.323 -0.3934  1.4057 -0.2356
 8016SOL    HW135507   0.472   3.550   5.291 -0.7384  0.5370 -0.1898
 8016SOL    HW235508   0.348   3.515   5.375  0.3519 -0.1784 -1.7608
 8017SOL     OW35509   3.458   2.307   2.807  0.8572  0.5162  0.0299
 8017SOL    HW135510   3.519   2.242   2.772 -0.8340 -0.9512 -0.1906
 8017SOL    HW235511   3.400   2.257   2.863  0.5677  1.2930  0.4292
 8018SOL     OW35512   3.344   2.825   2.842 -0.1065 -0.4357 -0.4643
 8018SOL    HW135513   3.329   2.840   2.935  1.9666  0.3422 -0.2390
 8018SOL    HW235514   3.294   2.744   2.836  0.3144 -0.7957  0.8109
 8019SOL     OW35515   0.283   0.127   9.277 -0.0640 -0.6766 -0.2930
 8019SOL    HW135516   0.366   0.080   9.272 -0.3973 -1.1632 -1.2036
 8019SOL    HW235517   0.220   0.072   9.231  1.5222 -1.4639 -1.5228
 8020SOL     OW35518   2.253   3.793   6.647 -0.4692 -0.0271 -0.6077
 8020SOL    HW135519   2.182   3.856   6.635  0.1501  0.7360 -0.2629
 8020SOL    HW235520   2.199   3.715   6.657  0.2429 -0.3181  0.8963
 8021SOL     OW35521   1.963   1.134  11.932  0.2553  0.8224 -0.3526
 8021SOL    HW135522   1.986   1.162  12.021  0.8172 -0.7694  0.0029
 8021SOL    HW235523   1.985   1.209  11.876 -1.3993  0.7586 -1.0959
 8022SOL     OW35524   3.846   3.789   1.873  0.0745 -0.2944  0.1292
 8022SOL    HW135525   3.867   3.880   1.851 -0.2997 -0.2326  0.0375
 8022SOL    HW235526   3.843   3.747   1.787  0.5173  0.2936 -0.1673
 8023SOL     OW35527   0.235   2.178   2.323  0.2167 -0.1009  0.4021
 8023SOL    HW135528   0.261   2.086   2.313  1.4738  0.3531 -0.3851
 8023SOL    HW235529   0.186   2.200   2.244 -0.5373 -3.7790 -0.1533
 8024SOL     OW35530   2.695   1.563   0.297  0.6545 -0.3324  0.1473
 8024SOL    HW135531   2.623   1.612   0.256  0.6509  1.9337  2.9082
 8024SOL    HW235532   2.715   1.497   0.230  0.5040 -0.4290  0.1977
 8025SOL     OW35533   1.462   2.635   4.721  0.3858 -0.1024  0.1606
 8025SOL    HW135534   1.516   2.634   4.642 -1.1861 -1.1532 -0.8718
 8025SOL    HW235535   1.524   2.648   4.793 -1.3854 -0.4689  1.7427
 8026SOL     OW35536   2.741   2.977   9.027 -0.5461  0.5203  0.2068
 8026SOL    HW135537   2.817   2.927   8.995 -0.0758  1.1679  0.3167
 8026SOL    HW235538   2.755   2.949   9.117 -1.1641  0.5854  0.3237
 8027SOL     OW35539   2.497   3.892   1.304 -0.4632 -0.0556  0.2041
 8027SOL    HW135540   2.461   3.807   1.281  0.1005  0.0924 -1.2115
 8027SOL    HW235541   2.539   3.879   1.389 -0.5856  1.2156  0.4626
 8028SOL     OW35542   0.140   2.403   4.699  0.2106  0.0755 -0.5040
 8028SOL    HW135543   0.083   2.450   4.638  1.2017  0.2467 -1.3009
 8028SOL    HW235544   0.131   2.313   4.668 -1.7866  0.5019 -1.2125
 8029SOL     OW35545   2.826   2.762  11.685  0.2378  0.0229 -0.1266
 8029SOL    HW135546   2.916   2.786  11.707 -0.1288  1.3326 -0.0999
 8029SOL    HW235547   2.809   2.837  11.628 -0.0895 -2.2320 -3.0031
 8030SOL     OW35548   3.319   1.124  12.583  0.0134 -0.2631 -0.2503
 8030SOL    HW135549   3.276   1.186  12.524 -0.8641  0.3088  1.0083
 8030SOL    HW235550   3.413   1.136  12.567 -0.4575  2.3815 -0.9878
 8031SOL     OW35551   2.868   1.312   6.569  0.3523 -0.4598  0.3611
 8031SOL    HW135552   2.961   1.332   6.586  0.8621 -2.0503 -0.5848
 8031SOL    HW235553   2.826   1.397   6.559 -1.4292 -1.2340  1.2975
 8032SOL     OW35554   3.201   3.174   5.822  0.0647  0.1704  0.0810
 8032SOL    HW135555   3.214   3.254   5.872 -3.4147  0.6959  0.1688
 8032SOL    HW235556   3.178   3.109   5.888 -1.0401 -0.1816 -0.6462
 8033SOL     OW35557   1.453   4.260  16.994  0.3440  0.4874 -0.5246
 8033SOL    HW135558   1.532   4.280  16.944  1.2484 -0.0142  0.7106
 8033SOL    HW235559   1.491   4.225  17.074  0.8050  2.2258  0.0087
 8034SOL     OW35560   3.282   4.555   8.645 -0.3813 -0.5955 -0.1600
 8034SOL    HW135561   3.315   4.627   8.591 -0.4964 -0.5117 -0.1181
 8034SOL    HW235562   3.332   4.483   8.607  0.7559 -0.1949  0.5560
 8035SOL     OW35563   3.738   0.452   0.493  0.6173 -0.0955 -0.0417
 8035SOL    HW135564   3.684   0.411   0.425 -0.1082 -2.7140  2.1035
 8035SOL    HW235565   3.787   0.517   0.442  2.0509 -0.4260  0.9223
 8036SOL     OW35566   1.950   0.923   4.946 -0.0329  0.6348  0.0456
 8036SOL    HW135567   1.980   0.998   4.895 -2.7788  2.4120  1.0726
 8036SOL    HW235568   2.033   0.892   4.985 -0.3390 -1.1529 -0.7359
 8037SOL     OW35569   3.564   3.433   1.727 -0.4683 -0.2104  0.2537
 8037SOL    HW135570   3.545   3.527   1.730 -1.1779 -0.3147 -1.0818
 8037SOL    HW235571   3.537   3.410   1.638 -0.7470 -1.3964  0.6563
 8038SOL     OW35572   1.345   2.725  11.844  0.0995 -0.1687 -0.2835
 8038SOL    HW135573   1.284   2.676  11.900  2.1099 -2.6525 -0.2275
 8038SOL    HW235574   1.292   2.794  11.805 -2.4503 -1.6967  0.4134
 8039SOL     OW35575   3.576   1.345   4.374 -0.0633 -0.0424  0.2594
 8039SOL    HW135576   3.526   1.411   4.326  0.7175  1.1626  1.1068
 8039SOL    HW235577   3.524   1.265   4.370  1.3492 -0.9805  0.5805
 8040SOL     OW35578   1.152   4.345   7.312  0.0123  0.7015 -0.0853
 8040SOL    HW135579   1.220   4.390   7.363 -1.0939 -0.8199  2.7478
 8040SOL    HW235580   1.201   4.338   7.230 -1.0210 -0.6527 -0.5801
 8041SOL     OW35581   2.258   2.913   5.840  0.0161  0.6897 -1.1621
 8041SOL    HW135582   2.194   2.907   5.769 -0.0125 -2.0068 -0.9157
 8041SOL    HW235583   2.342   2.899   5.797  0.8043 -0.1551  0.6204
 8042SOL     OW35584   1.309   3.326   2.675 -0.2891  0.2850  0.1622
 8042SOL    HW135585   1.266   3.406   2.705  0.2585  0.6556 -0.0224
 8042SOL    HW235586   1.296   3.334   2.580  1.5483 -2.4962 -0.3254
 8043SOL     OW35587   4.622   2.901  14.047 -0.5326  0.0243 -0.2327
 8043SOL    HW135588   4.602   2.901  14.140 -0.0617  0.9782 -0.1402
 8043SOL    HW235589   4.608   2.807  14.030  0.4008 -0.6275  2.5901
 8044SOL     OW35590   0.307   0.912  12.409  0.1855  0.1228  0.6362
 8044SOL    HW135591   0.367   0.910  12.334  0.9710 -1.0703  1.3022
 8044SOL    HW235592   0.248   0.986  12.395 -0.5836 -0.5513  0.2616
 8045SOL     OW35593   3.232   3.590  11.133 -0.7591 -0.6849  0.2919
 8045SOL    HW135594   3.276   3.605  11.049 -1.9048  1.6510  0.0881
 8045SOL    HW235595   3.259   3.501  11.155 -0.2965 -0.1892  1.7230
 8046SOL     OW35596   4.642   4.379  12.049 -0.0522  0.0907  0.0605
 8046SOL    HW135597   4.614   4.394  12.139 -2.1868 -0.5366 -0.4969
 8046SOL    HW235598   4.638   4.283  12.048  1.5854  0.1371 -5.6993
 8047SOL     OW35599   4.126   3.729  14.171 -0.2617 -0.1259  0.7043
 8047SOL    HW135600   4.159   3.818  14.158  1.4739 -1.2227 -2.3479
 8047SOL    HW235601   4.119   3.691  14.083  2.1547  0.8518  0.0794
 8048SOL     OW35602   0.675   1.881   6.940  0.7119 -0.2670 -0.2703
 8048SOL    HW135603   0.603   1.927   6.983  0.9111  0.9557 -1.2439
 8048SOL    HW235604   0.751   1.923   6.979 -0.9377  2.4345 -0.0135
 8049SOL     OW35605   2.951   2.057  15.994 -0.0860 -0.8747  0.0354
 8049SOL    HW135606   3.015   2.111  15.948  0.3000 -2.0931 -0.8516
 8049SOL    HW235607   2.983   2.072  16.083  1.8087  0.1050 -0.8097
 8050SOL     OW35608   2.215   1.883   6.002 -0.0819  0.0460  0.4599
 8050SOL    HW135609   2.173   1.814   6.053 -0.6446 -0.1482 -0.2688
 8050SOL    HW235610   2.162   1.873   5.923  0.2342  0.0989  0.2423
 8051SOL     OW35611   3.838   2.361  12.901 -1.1946  0.4224 -0.0094
 8051SOL    HW135612   3.823   2.430  12.836  3.8258  1.2975 -0.2518
 8051SOL    HW235613   3.895   2.401  12.967 -0.0437  0.2918 -0.9104
 8052SOL     OW35614   2.140   0.252   4.087  0.0525  0.0070  0.4338
 8052SOL    HW135615   2.057   0.251   4.135  0.6225  0.9677  1.4507
 8052SOL    HW235616   2.194   0.205   4.151  1.8309  0.0183 -1.0522
 8053SOL     OW35617   3.080   3.168   6.280 -0.3109  0.2674  0.0195
 8053SOL    HW135618   2.991   3.203   6.275 -0.2258  0.3397 -0.9508
 8053SOL    HW235619   3.120   3.241   6.232  0.5017 -0.5078 -0.4873
 8054SOL     OW35620   0.893   3.716  13.057 -0.2367 -0.3889  0.1508
 8054SOL    HW135621   0.862   3.806  13.051  0.5333 -0.2175 -1.0915
 8054SOL    HW235622   0.967   3.711  12.997 -0.5296  1.9220 -0.4104
 8055SOL     OW35623   0.254   3.775   3.226 -0.1352 -0.0680  0.2821
 8055SOL    HW135624   0.239   3.691   3.270  2.7954 -0.9503 -0.4101
 8055SOL    HW235625   0.186   3.837   3.253 -0.4555 -0.2052 -0.1978
 8056SOL     OW35626   0.440   3.202   7.604 -0.1582  0.4377 -0.5055
 8056SOL    HW135627   0.356   3.231   7.641 -0.3545  0.0007 -0.6175
 8056SOL    HW235628   0.491   3.247   7.671 -0.0119  0.1717 -0.4397
 8057SOL     OW35629   4.644   1.841  16.609  0.1240 -1.0473 -0.0606
 8057SOL    HW135630   4.667   1.748  16.607  1.6388 -0.5979 -2.8366
 8057SOL    HW235631   4.720   1.886  16.574 -0.8538 -0.3509 -1.2575
 8058SOL     OW35632   4.463   1.039   8.906  0.3926  0.1136  0.3239
 8058SOL    HW135633   4.473   1.060   8.813  1.5871 -0.5246  0.3206
 8058SOL    HW235634   4.500   1.119   8.944  0.9486 -0.6007  1.2625
 8059SOL     OW35635   1.573   4.610   2.802  0.2469  0.4888  0.0611
 8059SOL    HW135636   1.541   4.522   2.826 -1.8635  1.6445  1.5427
 8059SOL    HW235637   1.501   4.642   2.748 -1.8191 -3.2188  0.5681
 8060SOL     OW35638   1.081   0.592   7.041  0.5100 -0.6785  0.2030
 8060SOL    HW135639   1.082   0.514   6.985 -1.3329 -1.1477  0.8409
 8060SOL    HW235640   1.060   0.556   7.128  1.0965 -1.2872  0.0975
 8061SOL     OW35641   2.491   1.207  13.097 -0.6512 -0.1535 -0.3679
 8061SOL    HW135642   2.402   1.187  13.065 -1.2708 -2.6758  2.9853
 8061SOL    HW235643   2.524   1.256  13.022  0.1340  0.0440  0.1147
 8062SOL     OW35644   0.221   3.842  17.483  0.2688  0.0771 -0.0393
 8062SOL    HW135645   0.207   3.934  17.459  2.9650  0.4625 -0.1720
 8062SOL    HW235646   0.295   3.822  17.425 -0.2693 -5.6799  1.2731
 8063SOL     OW35647   0.810   0.232   8.883 -0.1130 -0.5120  0.7962
 8063SOL    HW135648   0.741   0.174   8.916 -0.2811 -0.3716  0.6883
 8063SOL    HW235649   0.767   0.317   8.887  0.4277 -0.2257  0.4888
 8064SOL     OW35650   0.280   1.939   2.469 -0.1661 -0.0264  0.1750
 8064SOL    HW135651   0.284   2.029   2.501 -0.8656  0.1427 -0.2119
 8064SOL    HW235652   0.366   1.912   2.499 -0.4191 -0.7320  0.2554
 8065SOL     OW35653   0.063   3.475   2.211 -0.0245  0.1934  0.2095
 8065SOL    HW135654   0.088   3.567   2.217  1.2038 -0.0761 -0.7965
 8065SOL    HW235655   0.102   3.456   2.126  0.6630 -2.2432  1.0595
 8066SOL     OW35656   1.866   1.567  13.810  0.1197  0.3433  0.2452
 8066SOL    HW135657   1.826   1.603  13.731 -1.3490  2.6417  1.9897
 8066SOL    HW235658   1.942   1.516  13.783  1.0504  1.0787  1.4665
 8067SOL     OW35659   3.349   2.521   2.668  0.1381  0.0656  0.3511
 8067SOL    HW135660   3.385   2.447   2.717  0.9836 -0.8006 -1.5649
 8067SOL    HW235661   3.278   2.549   2.726 -0.0935 -2.5626  1.2980
 8068SOL     OW35662   3.413   2.817   1.241  0.4079  0.6418  0.2430
 8068SOL    HW135663   3.321   2.845   1.238  0.0676 -0.4734  0.3077
 8068SOL    HW235664   3.439   2.853   1.156 -1.1009 -2.5884 -1.5653
 8069SOL     OW35665   4.041   3.649  14.570 -0.4236  0.4903  0.3419
 8069SOL    HW135666   3.999   3.650  14.656  0.2386  1.2138  0.6500
 8069SOL    HW235667   4.041   3.557  14.543  0.5310  1.0754 -1.6654
 8070SOL     OW35668   0.217   1.502   9.389 -0.6863  0.3884  0.4577
 8070SOL    HW135669   0.164   1.508   9.469  1.2026  0.6289  1.6922
 8070SOL    HW235670   0.280   1.441   9.426 -0.0844  0.7823  0.0805
 8071SOL     OW35671   2.315   1.603   9.090  0.0002 -0.0415  0.3951
 8071SOL    HW135672   2.374   1.624   9.162  0.2726  1.0805 -0.1577
 8071SOL    HW235673   2.235   1.649   9.115 -0.3650 -0.6507  0.3375
 8072SOL     OW35674   0.616   1.224   4.605  0.0851 -0.3655 -0.1424
 8072SOL    HW135675   0.579   1.145   4.643  1.2821 -1.6907 -1.7343
 8072SOL    HW235676   0.691   1.193   4.555  0.6162  1.8666 -0.7383
 8073SOL     OW35677   0.982   2.772   8.578  0.5587  0.2167  0.1638
 8073SOL    HW135678   0.913   2.720   8.536 -0.2920 -0.0266  1.8801
 8073SOL    HW235679   0.921   2.843   8.597 -1.1488 -2.1673  3.5455
 8074SOL     OW35680   0.962   1.690   3.663 -0.2587  0.5837 -0.2806
 8074SOL    HW135681   1.031   1.624   3.657 -0.2162  0.5374  0.7129
 8074SOL    HW235682   0.894   1.651   3.607 -0.5655 -0.8771  1.1041
 8075SOL     OW35683   0.399   3.428  10.546 -0.0114 -0.1539  0.1673
 8075SOL    HW135684   0.356   3.347  10.573  0.1541 -0.2417  0.1651
 8075SOL    HW235685   0.357   3.480  10.615 -1.1506 -3.1648  1.7753
 8076SOL     OW35686   1.924   3.969   6.881 -0.1056  0.5785 -0.2266
 8076SOL    HW135687   1.856   3.908   6.908  0.4338 -0.3884 -1.0323
 8076SOL    HW235688   1.981   3.969   6.958 -3.3966  0.1224  2.1814
 8077SOL     OW35689   3.336   2.238  15.419  0.0175  0.1346 -0.1520
 8077SOL    HW135690   3.406   2.280  15.368  0.9947 -3.2038 -1.5609
 8077SOL    HW235691   3.269   2.237  15.351 -0.0805 -0.2075 -0.0528
 8078SOL     OW35692   1.029   3.087   8.893 -0.1724  0.6359 -0.2373
 8078SOL    HW135693   0.954   3.039   8.929 -0.3968  0.0278 -1.4828
 8078SOL    HW235694   1.093   3.016   8.895  1.5760  2.2547  0.4646
 8079SOL     OW35695   4.568   3.566   9.203 -0.3954  0.6589  0.1991
 8079SOL    HW135696   4.596   3.507   9.273  0.8988  0.1459 -0.7558
 8079SOL    HW235697   4.475   3.574   9.226 -0.6966 -2.4202  0.0847
 8080SOL     OW35698   0.950   0.187   1.842 -0.0521 -0.6282 -0.3191
 8080SOL    HW135699   1.038   0.155   1.864  0.9841  2.3835 -0.0724
 8080SOL    HW235700   0.973   0.279   1.826 -0.2153 -0.3792  0.8746
 8081SOL     OW35701   4.645   2.166   1.951 -0.4283 -0.4889  0.2898
 8081SOL    HW135702   4.638   2.154   1.857 -2.7262 -2.9571  0.7811
 8081SOL    HW235703   4.553   2.190   1.966 -0.3771 -0.9949  1.4455
 8082SOL     OW35704   3.583   3.934  17.019  0.6142  0.0587 -0.8107
 8082SOL    HW135705   3.645   3.932  16.945  1.2375 -2.9198 -0.2197
 8082SOL    HW235706   3.611   3.866  17.080 -0.5053  0.4054  0.0784
 8083SOL     OW35707   0.347   1.247   3.013  0.0826 -0.5710 -0.1674
 8083SOL    HW135708   0.255   1.265   3.032 -0.2234 -0.9709 -1.2578
 8083SOL    HW235709   0.382   1.258   3.102 -1.6694  0.1752  0.4251
 8084SOL     OW35710   3.930   4.527   6.617 -0.3568  0.6782 -0.2391
 8084SOL    HW135711   3.943   4.446   6.568 -1.6308 -0.1291  0.7576
 8084SOL    HW235712   3.954   4.595   6.554  0.3149  0.8862  0.2392
 8085SOL     OW35713   3.051   1.437  14.792 -0.4869 -0.3727  0.6635
 8085SOL    HW135714   3.029   1.507  14.730 -2.3867 -1.4977  0.0729
 8085SOL    HW235715   2.987   1.462  14.859 -2.3548 -1.9290 -0.5647
 8086SOL     OW35716   0.717   0.203   6.017 -0.7416  0.7764 -0.7589
 8086SOL    HW135717   0.685   0.293   6.007 -0.8060  0.6709 -1.5222
 8086SOL    HW235718   0.637   0.155   5.995 -1.6788  1.5176  1.0459
 8087SOL     OW35719   4.664   0.715  16.072  0.0512 -0.0426  0.4385
 8087SOL    HW135720   4.618   0.729  16.154  1.5532 -1.6713  1.5572
 8087SOL    HW235721   0.021   0.674  16.109  0.7165  1.4371  0.6722
 8088SOL     OW35722   0.550   3.044   8.663 -0.0335 -0.0074 -0.1892
 8088SOL    HW135723   0.585   3.080   8.745  0.8939  1.3465 -1.1689
 8088SOL    HW235724   0.461   3.078   8.670  0.8243  2.0931  0.4722
 8089SOL     OW35725   4.165   0.802  13.312  0.7165 -0.2599 -0.1766
 8089SOL    HW135726   4.194   0.880  13.265 -1.7412  1.0885  0.5671
 8089SOL    HW235727   4.072   0.823  13.323  0.4716  0.0199 -2.6826
 8090SOL     OW35728   0.586   2.527  11.146 -0.5956  0.8273 -0.4203
 8090SOL    HW135729   0.525   2.518  11.072 -0.3027  1.4448 -0.7364
 8090SOL    HW235730   0.527   2.585  11.193  0.5148  2.3148 -0.8707
 8091SOL     OW35731   4.626   2.296   9.451 -0.1886 -0.3823  0.1004
 8091SOL    HW135732   4.675   2.256   9.379  0.5345 -0.1624  0.4745
 8091SOL    HW235733   4.589   2.219   9.493  0.9630 -0.0147  1.7628
 8092SOL     OW35734   1.605   2.078   6.353 -0.2168  0.1884 -0.1863
 8092SOL    HW135735   1.584   2.008   6.415 -2.5238 -0.0454 -1.2442
 8092SOL    HW235736   1.627   2.150   6.411  2.1182 -0.9760  0.3913
 8093SOL     OW35737   4.272   2.038   7.056 -0.9644  0.0966 -0.7526
 8093SOL    HW135738   4.295   1.981   6.983  1.0936  0.4699 -0.4052
 8093SOL    HW235739   4.342   2.017   7.119 -0.2659 -1.0899 -1.9259
 8094SOL     OW35740   0.688   4.375   8.950  0.0582 -0.0268 -0.7181
 8094SOL    HW135741   0.736   4.333   9.021  0.3468  1.3542 -0.1003
 8094SOL    HW235742   0.653   4.452   8.995  0.3271 -0.9246  1.0255
 8095SOL     OW35743   3.589   4.129   4.552  0.1141  0.0936 -0.0966
 8095SOL    HW135744   3.606   4.053   4.608  0.5782 -1.2989 -2.1315
 8095SOL    HW235745   3.575   4.087   4.467  0.3531 -0.6991  0.2572
 8096SOL     OW35746   3.490   2.317   3.718 -0.2760  0.4664  0.1167
 8096SOL    HW135747   3.406   2.271   3.723 -0.0789  0.1125  0.1719
 8096SOL    HW235748   3.452   2.400   3.689  0.9697  0.2310 -2.1530
 8097SOL     OW35749   2.372   3.342   5.419 -0.6489  0.3133 -0.5721
 8097SOL    HW135750   2.374   3.336   5.514  0.7459 -1.4809 -0.7140
 8097SOL    HW235751   2.425   3.422   5.423  2.3548 -1.7106  0.0975
 8098SOL     OW35752   1.474   4.492   6.576  0.1591 -0.7189  0.0566
 8098SOL    HW135753   1.568   4.506   6.564  0.0281  0.5592  0.4603
 8098SOL    HW235754   1.440   4.567   6.527 -2.0197 -0.3161  2.1981
 8099SOL     OW35755   4.146   3.687   5.271  0.3792  0.3622  0.1079
 8099SOL    HW135756   4.112   3.613   5.220  1.5709 -1.6721  2.2212
 8099SOL    HW235757   4.082   3.755   5.252 -0.2139 -0.1491  0.2660
 8100SOL     OW35758   3.937   0.111   2.533  0.2185  0.0863 -0.3736
 8100SOL    HW135759   3.873   0.158   2.587 -0.3501  0.4309 -1.3416
 8100SOL    HW235760   3.975   0.055   2.601  0.5986 -1.1576 -1.5967
 8101SOL     OW35761   1.992   2.829  16.306  0.3285 -1.5082  0.0023
 8101SOL    HW135762   1.935   2.879  16.365  1.0619 -0.8361  0.1421
 8101SOL    HW235763   2.065   2.806  16.363  1.1831 -0.1939 -0.5614
 8102SOL     OW35764   4.641   1.517   3.950  0.5178  0.0263  0.2252
 8102SOL    HW135765   4.629   1.464   3.871  1.6980  1.0520 -0.6399
 8102SOL    HW235766   0.011   1.506   3.976  1.2706  3.0663 -1.1270
 8103SOL     OW35767   0.198   3.066   1.505 -0.3115  0.3130  0.3460
 8103SOL    HW135768   0.259   3.111   1.563  0.4296  0.2025 -0.3562
 8103SOL    HW235769   0.232   2.977   1.506  1.6637  1.0604 -2.0145
 8104SOL     OW35770   2.150   1.655   7.967 -0.3474  0.1759 -0.1709
 8104SOL    HW135771   2.187   1.743   7.963 -0.0293  0.0344 -0.3258
 8104SOL    HW235772   2.223   1.604   7.933 -1.8762 -1.7656 -0.5462
 8105SOL     OW35773   1.559   1.375   4.011 -0.4232 -0.2317  0.1144
 8105SOL    HW135774   1.551   1.440   3.942 -1.2701 -0.2865  0.1540
 8105SOL    HW235775   1.574   1.300   3.953  1.0958 -1.0002  1.5140
 8106SOL     OW35776   2.765   3.611   1.267 -0.4025 -0.6002 -0.7360
 8106SOL    HW135777   2.849   3.657   1.262 -1.1194  0.9197  1.4820
 8106SOL    HW235778   2.780   3.554   1.342 -0.4654  0.6564  0.2307
 8107SOL     OW35779   2.141   2.658   6.326  0.1039  0.0675  0.1174
 8107SOL    HW135780   2.170   2.587   6.269 -2.3281 -0.8830  0.0441
 8107SOL    HW235781   2.052   2.627   6.343 -0.3582  1.5070  0.2666
 8108SOL     OW35782   2.682   1.436   8.422  0.2014  0.4074 -0.0573
 8108SOL    HW135783   2.616   1.426   8.491 -0.9788 -1.4312 -1.4253
 8108SOL    HW235784   2.689   1.531   8.419  1.1102  0.3207 -0.8842
 8109SOL     OW35785   0.880   1.732  12.647  0.5232 -0.1621  0.3555
 8109SOL    HW135786   0.962   1.780  12.647  1.0825 -1.1182 -0.8870
 8109SOL    HW235787   0.823   1.792  12.600 -1.2753 -0.7262  1.7863
 8110SOL     OW35788   3.468   0.009   3.250 -0.0818 -0.1565 -0.0033
 8110SOL    HW135789   3.555   4.704   3.219  0.9668  2.5117  0.7239
 8110SOL    HW235790   3.463   0.098   3.215 -0.3992 -0.4055 -0.5929
 8111SOL     OW35791   2.149   0.558   9.037 -0.4428  0.0952 -0.2977
 8111SOL    HW135792   2.062   0.568   9.077 -0.3886 -0.4102 -0.0476
 8111SOL    HW235793   2.190   0.639   9.067 -2.2242  1.1833 -0.7540
 8112SOL     OW35794   4.134   2.417   9.199 -0.1489  0.3588  0.1304
 8112SOL    HW135795   4.222   2.432   9.235  0.1113  0.1857 -0.4412
 8112SOL    HW235796   4.080   2.450   9.271  0.6680 -0.4572  1.1126
 8113SOL     OW35797   4.102   1.870   8.689  0.3960  0.0488 -0.7634
 8113SOL    HW135798   4.131   1.883   8.780  0.0224  0.0241 -0.6443
 8113SOL    HW235799   4.097   1.775   8.683 -2.7242  0.1867 -0.2156
 8114SOL     OW35800   2.069   4.285   2.788  0.1482 -0.2348 -0.6224
 8114SOL    HW135801   2.153   4.265   2.745 -0.5339 -0.7112 -1.7289
 8114SOL    HW235802   2.105   4.305   2.874 -0.5414 -3.7518  0.4480
 8115SOL     OW35803   4.475   4.608   5.492  0.1212 -0.6219  0.3002
 8115SOL    HW135804   4.417   4.617   5.567  2.3665 -0.3801  2.0281
 8115SOL    HW235805   4.532   4.531   5.502 -1.8382 -2.0863  0.1914
 8116SOL     OW35806   4.511   2.062   3.003  0.1241 -0.4820  0.3075
 8116SOL    HW135807   4.428   2.015   3.009 -0.0990 -0.0449  0.6501
 8116SOL    HW235808   4.477   2.151   3.008 -1.0962 -0.9010 -0.5518
 8117SOL     OW35809   1.079   4.592   3.742 -0.3544 -0.8126  0.4931
 8117SOL    HW135810   1.065   4.606   3.836  0.5249 -0.3842  0.5584
 8117SOL    HW235811   1.168   4.626   3.730 -0.4188 -1.0828 -0.8011
 8118SOL     OW35812   0.552   1.148   0.444  0.2325 -0.0059  0.0888
 8118SOL    HW135813   0.496   1.126   0.518 -1.7173 -2.1175 -2.0083
 8118SOL    HW235814   0.569   1.057   0.421 -0.6633 -0.3975  1.0060
 8119SOL     OW35815   0.509   2.520   6.882 -0.4788 -0.0233  0.1532
 8119SOL    HW135816   0.535   2.600   6.927  1.9963 -0.4920 -0.4642
 8119SOL    HW235817   0.566   2.514   6.805 -0.6758  1.2498 -0.0963
 8120SOL     OW35818   2.917   0.294   6.916  0.2289 -0.4073  0.4785
 8120SOL    HW135819   2.937   0.209   6.876  1.4324 -0.6818  1.6620
 8120SOL    HW235820   2.960   0.363   6.865  1.5017  0.3829  2.6144
 8121SOL     OW35821   3.477   3.153  14.066  0.4679 -0.2650  0.4753
 8121SOL    HW135822   3.550   3.174  14.007 -1.2808 -1.4026 -2.0878
 8121SOL    HW235823   3.445   3.071  14.028 -0.5388  0.0540  0.6318
 8122SOL     OW35824   0.544   0.642   5.733  0.0066  0.0902  0.2373
 8122SOL    HW135825   0.635   0.662   5.708 -0.1162  1.1758  0.6391
 8122SOL    HW235826   0.525   0.711   5.796 -1.7557 -0.1952  0.0178
 8123SOL     OW35827   2.265   3.985   4.163 -1.0917 -0.1676 -0.0388
 8123SOL    HW135828   2.211   4.049   4.209  2.0049  2.4561 -0.0153
 8123SOL    HW235829   2.349   4.032   4.168 -0.6855 -0.7480 -1.3160
 8124SOL     OW35830   1.272   1.774   4.884  0.0707 -0.3198 -0.1180
 8124SOL    HW135831   1.337   1.822   4.832 -0.3336  0.4273  0.0633
 8124SOL    HW235832   1.321   1.693   4.899  0.8729  0.1145 -0.3892
 8125SOL     OW35833   3.610   0.128   6.671  0.7889 -0.9492  0.1630
 8125SOL    HW135834   3.605   0.033   6.679  0.5804 -0.9508  0.0016
 8125SOL    HW235835   3.704   0.136   6.651  1.0498 -2.7832  0.6817
 8126SOL     OW35836   1.004   1.366  13.543  0.0855 -0.2598 -0.1839
 8126SOL    HW135837   0.937   1.395  13.605  2.2229  3.5716  0.3324
 8126SOL    HW235838   0.983   1.415  13.463  1.3563  0.5091 -0.0437
 8127SOL     OW35839   0.287   0.685   9.242  0.3510  0.0907  0.4691
 8127SOL    HW135840   0.351   0.675   9.173  1.0032  0.0514  1.0804
 8127SOL    HW235841   0.340   0.715   9.316  3.2920 -0.0120 -1.5964
 8128SOL     OW35842   4.090   3.952   9.362  0.1019  0.4632  0.2874
 8128SOL    HW135843   4.179   3.938   9.395  0.0158 -1.2169 -0.1547
 8128SOL    HW235844   4.091   4.032   9.310 -0.5523  0.7530  0.7191
 8129SOL     OW35845   2.272   1.925  10.479  1.0014  0.0821 -0.1301
 8129SOL    HW135846   2.281   1.979  10.558  0.6850 -1.1284  0.7414
 8129SOL    HW235847   2.342   1.954  10.420  0.7245  0.8714 -0.0830
 8130SOL     OW35848   2.142   0.593   5.771 -0.2541  0.0640  0.2858
 8130SOL    HW135849   2.084   0.577   5.846 -1.9686  1.1867 -0.8093
 8130SOL    HW235850   2.165   0.685   5.783 -1.8315  0.6566 -1.3074
 8131SOL     OW35851   0.989   0.965   4.528 -0.1668  0.0703  0.2806
 8131SOL    HW135852   1.022   0.956   4.618 -0.7638  1.2966  0.6262
 8131SOL    HW235853   0.961   1.057   4.531 -0.2039  0.1434 -2.6684
 8132SOL     OW35854   1.513   3.865   4.977  0.0896 -0.1664 -0.0204
 8132SOL    HW135855   1.506   3.948   5.025  0.8471 -2.0290  3.3314
 8132SOL    HW235856   1.587   3.823   5.020 -0.9911 -1.2242  0.8088
 8133SOL     OW35857   4.165   4.417   5.977 -0.1562  0.0131  0.0516
 8133SOL    HW135858   4.185   4.485   6.041 -0.2276  0.3897 -0.3271
 8133SOL    HW235859   4.102   4.468   5.926  0.3743 -0.9282 -1.5418
 8134SOL     OW35860   2.687   2.977   9.327 -0.0411 -0.3195  0.7103
 8134SOL    HW135861   2.612   2.970   9.268  0.2755 -0.7303  0.3554
 8134SOL    HW235862   2.687   2.894   9.375 -0.6086 -0.0678  1.1445
 8135SOL     OW35863   1.183   1.306   2.609 -0.3962  0.1488 -0.4825
 8135SOL    HW135864   1.107   1.321   2.553 -0.7952 -0.8982 -0.2258
 8135SOL    HW235865   1.143   1.280   2.692 -0.7763  0.9100 -0.4257
 8136SOL     OW35866   0.080   3.113   7.956  0.2123 -0.0773  0.7214
 8136SOL    HW135867   0.042   3.119   7.868  1.0606 -0.5545  0.3227
 8136SOL    HW235868   0.005   3.136   8.011 -1.0430 -1.6351 -0.3271
 8137SOL     OW35869   1.165   1.352   0.116 -0.5960  0.2158 -0.0839
 8137SOL    HW135870   1.178   1.445   0.134 -0.1937  0.2873 -0.7554
 8137SOL    HW235871   1.069   1.354   0.120 -0.6344  1.3780 -2.1670
 8138SOL     OW35872   1.914   4.421   7.204  0.2547 -0.3596  0.0602
 8138SOL    HW135873   1.973   4.471   7.260  0.9680  0.6306 -1.5645
 8138SOL    HW235874   1.981   4.386   7.145  0.2280 -0.5633  0.1502
 8139SOL     OW35875   4.021   0.249   1.214  0.2566 -0.2810  0.5576
 8139SOL    HW135876   4.020   0.287   1.126 -0.4852 -1.4291  0.0688
 8139SOL    HW235877   4.094   0.299   1.248 -0.1330 -0.9626  2.3915
 8140SOL     OW35878   1.225   4.567   1.213  0.3394 -0.4654 -0.4036
 8140SOL    HW135879   1.214   4.602   1.125  0.2279  0.2688 -0.1070
 8140SOL    HW235880   1.298   4.625   1.237 -0.0949  1.1115 -2.8574
 8141SOL     OW35881   4.600   4.387   5.479  0.5661  0.2008 -0.0820
 8141SOL    HW135882   4.596   4.319   5.546  0.4624  0.2453 -0.0434
 8141SOL    HW235883   4.566   4.338   5.404  3.1723  0.4996 -1.4816
 8142SOL     OW35884   4.374   4.634   3.343 -0.2506  0.2988 -0.6548
 8142SOL    HW135885   4.342   4.551   3.379  0.0466  0.5466  0.1796
 8142SOL    HW235886   4.386   4.613   3.250  0.5331 -0.1272 -0.4627
 8143SOL     OW35887   2.789   0.715   5.481  0.4144 -0.2366 -0.3262
 8143SOL    HW135888   2.772   0.803   5.447  1.1899 -0.0962 -0.3622
 8143SOL    HW235889   2.739   0.660   5.421 -0.2415  1.1459 -1.0503
 8144SOL     OW35890   3.781   2.781   4.524 -0.0176  0.5470 -0.1909
 8144SOL    HW135891   3.726   2.777   4.603  1.1654 -3.6755  0.4397
 8144SOL    HW235892   3.849   2.719   4.552 -1.1861 -1.1459 -1.0972
 8145SOL     OW35893   0.970   2.194   4.125 -0.1343  0.2159 -0.4574
 8145SOL    HW135894   0.922   2.196   4.207 -1.0463  0.7241 -0.9993
 8145SOL    HW235895   0.927   2.119   4.085  2.7251 -0.8826 -1.4846
 8146SOL     OW35896   1.405   3.096   1.858  0.0368  0.2116 -0.9387
 8146SOL    HW135897   1.405   3.141   1.942 -1.2066 -0.2775 -0.6776
 8146SOL    HW235898   1.477   3.139   1.812 -2.0116  2.0459 -2.4389
 8147SOL     OW35899   2.769   3.791   2.220  0.4084 -0.2452 -0.4127
 8147SOL    HW135900   2.840   3.758   2.275  1.2288  0.4151 -1.0766
 8147SOL    HW235901   2.824   3.845   2.163 -2.3787  2.4005 -0.5861
 8148SOL     OW35902   3.797   0.462   1.983  0.2471 -0.5186 -0.3688
 8148SOL    HW135903   3.831   0.534   1.929 -1.1105 -0.1615 -0.7342
 8148SOL    HW235904   3.703   0.473   1.971 -0.1005 -4.7732 -1.3901
 8149SOL     OW35905   3.652   3.162   8.610  0.3638  0.1204  0.0332
 8149SOL    HW135906   3.654   3.255   8.588 -0.8238  0.4684  1.3594
 8149SOL    HW235907   3.732   3.126   8.571  0.1128 -0.5659  0.1469
 8150SOL     OW35908   2.331   3.343  10.374 -0.8274  0.0667 -0.4310
 8150SOL    HW135909   2.399   3.360  10.308 -0.2404  1.5946  0.5710
 8150SOL    HW235910   2.358   3.380  10.458  1.1538 -0.0648 -1.0130
 8151SOL     OW35911   1.423   3.672   8.227  0.5582 -0.4981  0.0174
 8151SOL    HW135912   1.389   3.734   8.162  0.4437 -1.0904 -0.4880
 8151SOL    HW235913   1.515   3.672   8.204  0.7935 -1.4411  0.9404
 8152SOL     OW35914   1.321   4.041   6.257 -0.4109 -0.3539  0.1369
 8152SOL    HW135915   1.328   4.132   6.230  0.3884  0.2705  2.4028
 8152SOL    HW235916   1.250   4.004   6.204  0.5352 -0.9967 -0.6818
 8153SOL     OW35917   1.047   0.001  14.149  0.1327  0.1912  0.5650
 8153SOL    HW135918   1.076   4.632  14.158  2.2370  0.8180  0.1043
 8153SOL    HW235919   1.070   0.013  14.057 -0.0453 -2.8803  0.1427
 8154SOL     OW35920   3.792   3.153   7.416 -0.2350  1.0961 -0.0282
 8154SOL    HW135921   3.869   3.130   7.364 -2.6434 -2.0501 -2.1873
 8154SOL    HW235922   3.821   3.134   7.505  2.3149 -2.1469 -1.5650
 8155SOL     OW35923   2.038   2.355   2.628  0.7519 -0.1197  0.3393
 8155SOL    HW135924   1.965   2.319   2.577  1.7390  0.1943 -1.3302
 8155SOL    HW235925   2.026   2.446   2.603  0.7940 -0.1245  0.3012
 8156SOL     OW35926   4.506   1.213  11.637  0.1235 -0.7010 -0.2189
 8156SOL    HW135927   4.443   1.176  11.575 -2.3538  2.5842  0.3536
 8156SOL    HW235928   4.538   1.289  11.589  0.0936 -0.7425 -0.3053
 8157SOL     OW35929   0.658   4.122   3.038  0.1100 -0.4501  0.1272
 8157SOL    HW135930   0.643   4.207   3.080 -0.1552 -0.3712 -0.1298
 8157SOL    HW235931   0.584   4.124   2.977  1.3245 -0.3461 -1.3348
 8158SOL     OW35932   3.802   2.786  16.298  0.1671  0.4889 -0.3269
 8158SOL    HW135933   3.784   2.877  16.320 -0.2965  0.5732 -1.0872
 8158SOL    HW235934   3.748   2.739  16.362 -0.5761 -1.8762 -2.6910
 8159SOL     OW35935   3.500   1.947   9.677  0.4771 -0.3943  0.1536
 8159SOL    HW135936   3.425   1.934   9.735  1.1245 -2.7569  0.4956
 8159SOL    HW235937   3.546   2.014   9.727  0.0111  0.7940 -1.0268
 8160SOL     OW35938   4.158   0.270   5.498 -0.0703  0.0666  0.4323
 8160SOL    HW135939   4.222   0.254   5.567  0.9469  0.8395 -0.3379
 8160SOL    HW235940   4.107   0.189   5.503  1.5134 -0.9691 -0.1837
 8161SOL     OW35941   4.188   4.495   1.983 -0.4488  0.5011  0.1569
 8161SOL    HW135942   4.117   4.471   2.042 -3.5088  2.6995 -2.6303
 8161SOL    HW235943   4.195   4.588   2.004 -2.8857  0.6719  0.2778
 8162SOL     OW35944   0.612   2.541   8.935 -0.0485  0.0931  0.5214
 8162SOL    HW135945   0.586   2.534   8.843  0.6867  0.8711  0.2615
 8162SOL    HW235946   0.567   2.625   8.948  0.5484  0.7043 -1.3319
 8163SOL     OW35947   3.487   3.531   5.712 -0.0547 -0.2906  0.3085
 8163SOL    HW135948   3.404   3.579   5.722 -0.0396 -0.9115  3.3329
 8163SOL    HW235949   3.476   3.472   5.638  0.1772  2.4829 -1.9513
 8164SOL     OW35950   2.370   0.114   9.303 -0.1078  0.5997  0.1003
 8164SOL    HW135951   2.345   0.184   9.242 -0.2359  0.4422 -0.0252
 8164SOL    HW235952   2.459   0.145   9.322  0.4252 -0.2322 -1.0367
 8165SOL     OW35953   1.505   2.462   2.782 -0.0931  0.2444 -0.1227
 8165SOL    HW135954   1.467   2.543   2.749  2.1125  1.2684 -0.1288
 8165SOL    HW235955   1.473   2.402   2.714  2.4295 -0.5725 -0.5982
 8166SOL     OW35956   3.672   4.180   6.730 -0.1906  0.0858 -0.0712
 8166SOL    HW135957   3.696   4.120   6.801  1.5120  1.7064  0.7146
 8166SOL    HW235958   3.678   4.264   6.775  2.0655  0.3248 -0.8018
 8167SOL     OW35959   3.589   1.209   6.741  0.0450 -0.0429  0.5578
 8167SOL    HW135960   3.683   1.220   6.755  0.2462 -1.0271  0.0037
 8167SOL    HW235961   3.587   1.121   6.703  1.3503 -0.6075  1.7977
 8168SOL     OW35962   1.517   0.462  14.184 -0.0983 -0.1388 -0.7460
 8168SOL    HW135963   1.484   0.545  14.220  1.1276 -1.3445  3.1779
 8168SOL    HW235964   1.483   0.465  14.094  0.8979  1.0302 -1.0679
 8169SOL     OW35965   3.991   0.009  12.247  0.4488 -0.3448  0.5901
 8169SOL    HW135966   3.920   0.073  12.238  0.8957 -0.0639 -0.8760
 8169SOL    HW235967   3.961   4.671  12.316 -1.1914  0.6404  0.7337
 8170SOL     OW35968   4.430   1.838  10.605  0.3454  0.0406 -0.1387
 8170SOL    HW135969   4.378   1.759  10.593 -0.3446  0.6601 -1.2211
 8170SOL    HW235970   4.366   1.909  10.610  0.5434  0.1650  0.6133
 8171SOL     OW35971   4.591   0.531  10.097  0.0521 -0.0009 -0.3767
 8171SOL    HW135972   4.498   0.515  10.079 -0.0467  0.8646 -0.6275
 8171SOL    HW235973   4.591   0.538  10.193 -0.2571  0.9507 -0.4516
 8172SOL     OW35974   2.693   1.164   8.136 -0.0323 -0.4115  0.1200
 8172SOL    HW135975   2.694   1.179   8.231  0.1896  0.9023 -0.0848
 8172SOL    HW235976   2.688   1.257   8.114 -1.2166 -0.0919  1.7468
 8173SOL     OW35977   0.802   4.701   4.258 -0.1014 -0.0032  0.1716
 8173SOL    HW135978   0.851   4.630   4.216 -0.2465  1.2058 -2.0320
 8173SOL    HW235979   0.738   4.658   4.314  1.4650 -0.6735  1.4281
 8174SOL     OW35980   0.062   3.720   6.496 -0.0632  0.4744 -0.4921
 8174SOL    HW135981   0.104   3.675   6.570  0.9534 -1.5357 -2.2779
 8174SOL    HW235982   0.126   3.705   6.427 -0.2966 -3.6298  0.1419
 8175SOL     OW35983   3.127   1.177   6.328  0.2590  0.2965 -0.2230
 8175SOL    HW135984   3.141   1.270   6.346 -1.8656  0.5558  0.1074
 8175SOL    HW235985   3.127   1.176   6.232  1.5435  1.5254 -0.2369
 8176SOL     OW35986   1.632   3.197   1.741  0.2794 -0.0415 -0.0556
 8176SOL    HW135987   1.693   3.149   1.797 -0.0541  0.4853  0.7686
 8176SOL    HW235988   1.688   3.205   1.664  0.5395 -0.4424  0.0932
 8177SOL     OW35989   4.487   4.478   0.550  0.1385  0.3013  0.1819
 8177SOL    HW135990   4.535   4.511   0.626  1.0080 -2.5498  0.8742
 8177SOL    HW235991   4.549   4.427   0.498  0.3681  1.2436 -0.4814
 8178SOL     OW35992   3.521   3.521  13.795  0.2595  0.0639 -0.0733
 8178SOL    HW135993   3.554   3.514  13.705 -2.1260 -0.7491 -0.9131
 8178SOL    HW235994   3.550   3.440  13.837 -1.6310  1.1092  3.2749
 8179SOL     OW35995   2.795   1.358  13.737 -0.4558  0.2091 -0.1866
 8179SOL    HW135996   2.769   1.366  13.645  0.7739  1.9224 -0.3943
 8179SOL    HW235997   2.711   1.357  13.783  1.1418  1.3609  2.7744
 8180SOL     OW35998   4.055   3.373   5.459  0.3757  0.0913  0.0177
 8180SOL    HW135999   3.978   3.428   5.472  0.4047 -0.1579  1.1771
 8180SOL    HW236000   4.014   3.293   5.491  1.3147 -1.0154 -1.5090
 8181SOL     OW36001   3.348   4.170   3.769 -0.0468 -0.3338 -0.0587
 8181SOL    HW136002   3.428   4.223   3.774 -0.0520 -0.2342 -0.9736
 8181SOL    HW236003   3.279   4.236   3.764  0.7363  0.5027  0.2121
 8182SOL     OW36004   2.170   3.252   7.914 -0.1407  0.2826 -0.7643
 8182SOL    HW136005   2.133   3.219   7.832 -0.9056 -2.1472  0.5442
 8182SOL    HW236006   2.111   3.326   7.929  1.2820  1.8545 -2.9266
 8183SOL     OW36007   0.177   4.465   8.722 -0.0235 -0.3713 -0.3637
 8183SOL    HW136008   0.264   4.459   8.761 -0.6613  0.4789  1.1986
 8183SOL    HW236009   0.191   4.391   8.663  0.0210 -0.8732  0.2712
 8184SOL     OW36010   3.540   1.010   2.195 -0.1395  0.3806 -0.3047
 8184SOL    HW136011   3.564   1.100   2.217  0.7086  0.6263 -2.2542
 8184SOL    HW236012   3.499   1.026   2.110 -1.7553  1.5896  0.6852
 8185SOL     OW36013   2.949   2.549  11.457  0.3359 -0.5522  0.7222
 8185SOL    HW136014   2.947   2.457  11.428  3.6210  0.7616 -3.6998
 8185SOL    HW236015   2.950   2.603  11.378 -0.4545 -0.4488  0.7849
 8186SOL     OW36016   2.829   2.703   0.588 -1.0559 -0.0562  0.4808
 8186SOL    HW136017   2.892   2.636   0.560  1.4187  2.2285  0.5436
 8186SOL    HW236018   2.878   2.733   0.665  0.8714  0.4229 -0.9095
 8187SOL     OW36019   3.264   2.976   5.122  0.6416 -0.0312 -0.1154
 8187SOL    HW136020   3.203   2.921   5.071 -1.9072  0.7703  2.0327
 8187SOL    HW236021   3.238   3.062   5.090 -1.9725 -0.9301 -0.4660
 8188SOL     OW36022   2.443   1.953   5.836  0.3547 -0.4896  0.0139
 8188SOL    HW136023   2.367   1.958   5.895  0.9137 -0.9285  0.7715
 8188SOL    HW236024   2.474   1.866   5.859  0.2941 -1.1219 -2.3480
 8189SOL     OW36025   1.192   1.877   6.389 -0.1019  0.1839 -0.0241
 8189SOL    HW136026   1.243   1.874   6.308 -0.2539  3.4042 -0.2385
 8189SOL    HW236027   1.151   1.960   6.363  0.6633  0.7420  0.5389
 8190SOL     OW36028   0.902   2.647   6.491  0.4137  0.2528 -0.1668
 8190SOL    HW136029   0.933   2.700   6.564 -0.7335  0.4375  0.1858
 8190SOL    HW236030   0.906   2.563   6.538 -0.0814 -0.6454 -1.7230
 8191SOL     OW36031   1.199   4.189  11.135  0.0259  0.1740  0.8842
 8191SOL    HW136032   1.140   4.189  11.211 -0.2957  0.7951  0.6286
 8191SOL    HW236033   1.140   4.149  11.072  0.7739  0.8129 -0.2184
 8192SOL     OW36034   2.163   3.894  17.362 -0.4489 -0.2058 -0.4327
 8192SOL    HW136035   2.077   3.935  17.368  0.3407  0.9623  2.6535
 8192SOL    HW236036   2.185   3.944  17.284 -1.6783  0.9274 -0.0569
 8193SOL     OW36037   4.052   4.089   7.454  0.3576 -0.2355  0.4560
 8193SOL    HW136038   4.009   4.156   7.506 -1.4492 -0.6630 -0.4819
 8193SOL    HW236039   3.975   4.033   7.443 -0.0550 -0.0165  2.3236
 8194SOL     OW36040   2.775   4.225   2.661 -0.2211  0.1729  0.4096
 8194SOL    HW136041   2.735   4.300   2.618 -0.3387 -0.4530 -0.5764
 8194SOL    HW236042   2.785   4.261   2.750  0.5206 -0.9755  0.7972
 8195SOL     OW36043   1.637   4.058   6.665  0.5754  0.2337 -0.2197
 8195SOL    HW136044   1.553   4.036   6.625 -0.0777 -0.9716  1.8325
 8195SOL    HW236045   1.610   4.070   6.756 -2.8789 -0.5717 -1.1589
 8196SOL     OW36046   3.249   0.486  11.648  0.5899 -0.1279 -0.1802
 8196SOL    HW136047   3.206   0.410  11.687 -1.2491  0.7621 -0.4555
 8196SOL    HW236048   3.264   0.449  11.561 -0.9463 -2.2662  0.4631
 8197SOL     OW36049   1.120   3.271   8.121 -0.0788  0.1368  0.3324
 8197SOL    HW136050   1.053   3.329   8.157 -0.5431  0.7892 -1.5815
 8197SOL    HW236051   1.136   3.310   8.036  0.5219  0.7142  0.7106
 8198SOL     OW36052   2.147   2.961   3.615  0.3482 -0.6010  0.4610
 8198SOL    HW136053   2.061   2.920   3.601 -0.5304  2.1640 -2.2875
 8198SOL    HW236054   2.149   3.029   3.547  0.5096 -2.1283 -1.0814
 8199SOL     OW36055   4.355   3.064  17.552 -0.9446  0.1834  0.0579
 8199SOL    HW136056   4.385   3.004  17.620  0.9932  0.1447 -0.8365
 8199SOL    HW236057   4.348   3.147  17.598  0.5239  0.7850 -0.8192
 8200SOL     OW36058   4.355   3.904   9.456 -0.2309 -0.4563  0.1996
 8200SOL    HW136059   4.399   3.976   9.501 -0.7125  0.5310 -0.8922
 8200SOL    HW236060   4.365   3.829   9.514 -1.8217 -0.8450 -0.0245
 8201SOL     OW36061   2.032   2.784   5.056  0.8031  0.2361  0.0075
 8201SOL    HW136062   1.975   2.848   5.100 -0.4440 -2.3594  2.1641
 8201SOL    HW236063   2.020   2.710   5.115 -1.6719 -1.6597 -2.8541
 8202SOL     OW36064   0.776   2.028  16.461  0.0058  0.0502  0.2131
 8202SOL    HW136065   0.746   1.953  16.411 -0.0191  1.3574 -1.7103
 8202SOL    HW236066   0.725   2.027  16.543 -1.0781 -0.3656 -0.4696
 8203SOL     OW36067   1.019   1.147  17.488 -0.2268 -0.0362 -0.3019
 8203SOL    HW136068   0.985   1.218  17.543 -0.8075  2.1878 -3.4890
 8203SOL    HW236069   1.086   1.192  17.437  0.0648 -1.9117 -1.5448
 8204SOL     OW36070   2.444   2.797   2.197  0.0070 -0.1250 -0.4151
 8204SOL    HW136071   2.447   2.884   2.236 -0.5628  0.7609 -2.3315
 8204SOL    HW236072   2.412   2.743   2.269 -0.1374 -0.1131 -0.4704
 8205SOL     OW36073   3.018   1.355   4.504  0.0721  0.6835  0.0183
 8205SOL    HW136074   2.947   1.291   4.494  0.3023  0.5907 -1.0370
 8205SOL    HW236075   2.986   1.440   4.475  0.2467  1.1264  1.1044
 8206SOL     OW36076   2.817   0.238  16.434 -0.1500  0.2422 -0.3573
 8206SOL    HW136077   2.769   0.317  16.459  2.1969  1.4437  0.4055
 8206SOL    HW236078   2.868   0.262  16.356 -1.5731  2.0982 -0.7167
 8207SOL     OW36079   3.996   3.888   5.164  0.2871 -0.1063  0.3294
 8207SOL    HW136080   3.957   3.903   5.078  1.8981  0.4802 -0.2979
 8207SOL    HW236081   4.077   3.937   5.154 -0.2694  0.9463  1.0462
 8208SOL     OW36082   0.791   1.291   8.920 -0.6575  0.3244  0.1872
 8208SOL    HW136083   0.874   1.336   8.906  0.0080 -1.3611 -1.2740
 8208SOL    HW236084   0.741   1.371   8.934  0.2396  0.9625 -0.2743
 8209SOL     OW36085   1.163   2.489  10.616  0.2441  0.0505  0.0458
 8209SOL    HW136086   1.193   2.570  10.574  0.6221  0.2213  0.6388
 8209SOL    HW236087   1.116   2.443  10.547 -1.3413 -1.0747  1.8942
 8210SOL     OW36088   2.291   4.003   7.751  0.6674  0.5489  0.0661
 8210SOL    HW136089   2.233   4.071   7.785 -0.2834 -0.2188 -0.0231
 8210SOL    HW236090   2.259   3.922   7.789 -0.4356  0.8422 -0.2411
 8211SOL     OW36091   0.268   3.200  16.311  0.0923 -0.0697 -0.2403
 8211SOL    HW136092   0.331   3.206  16.239  1.4624 -3.7172  0.6647
 8211SOL    HW236093   0.316   3.246  16.380 -0.7950 -2.4005  1.9425
 8212SOL     OW36094   2.630   2.599   8.775 -0.0988  0.6161 -0.2469
 8212SOL    HW136095   2.558   2.551   8.735  1.0685 -1.0526 -0.3656
 8212SOL    HW236096   2.696   2.559   8.718 -1.2288 -0.5036 -0.7508
 8213SOL     OW36097   3.963   2.938   2.140  0.4294 -0.3336  0.3577
 8213SOL    HW136098   4.032   2.954   2.075  0.5938 -1.2455  0.3107
 8213SOL    HW236099   3.903   2.882   2.090  0.4072  0.5407 -0.6126
 8214SOL     OW36100   1.372   4.201   5.993 -0.2370 -0.9705 -0.1930
 8214SOL    HW136101   1.335   4.265   5.933 -0.1722 -0.8649 -0.1192
 8214SOL    HW236102   1.344   4.238   6.076  0.3710 -1.2024  0.1171
 8215SOL     OW36103   0.396   4.299  17.556 -0.2100 -0.0796  0.8314
 8215SOL    HW136104   0.361   4.244  17.626  0.7106 -0.0367  1.3194
 8215SOL    HW236105   0.323   4.358  17.535  0.5013 -0.7798 -3.5541
 8216SOL     OW36106   4.614   0.264   7.607 -0.3121 -0.9498 -0.0043
 8216SOL    HW136107   4.709   0.251   7.605  0.0070  1.1892  1.6375
 8216SOL    HW236108   4.591   0.272   7.700  0.6355  0.0176  0.1494
 8217SOL     OW36109   2.246   0.504   8.786  0.5996 -0.1642  0.1416
 8217SOL    HW136110   2.221   0.417   8.754  2.9323 -0.5758 -0.5510
 8217SOL    HW236111   2.191   0.519   8.863 -0.3115  0.7501 -0.6870
 8218SOL     OW36112   4.236   1.718   7.835 -0.7206 -0.0015 -0.1432
 8218SOL    HW136113   4.204   1.646   7.890 -0.5331  0.9447  1.1712
 8218SOL    HW236114   4.205   1.686   7.749  0.4988 -1.1163 -0.1773
 8219SOL     OW36115   1.954   0.773  14.536  0.5123 -0.2358 -0.3950
 8219SOL    HW136116   1.966   0.799  14.445 -0.0144 -0.9179 -0.6534
 8219SOL    HW236117   1.948   0.679  14.517 -0.5347 -0.4003  0.7388
 8220SOL     OW36118   2.438   3.483   9.961  0.5644 -0.1056  0.2072
 8220SOL    HW136119   2.531   3.505   9.953  0.7749 -0.9298  0.4497
 8220SOL    HW236120   2.422   3.396   9.926 -2.1545  0.0584  1.0092
 8221SOL     OW36121   4.094   1.145   7.703  0.2384 -0.3667 -0.2322
 8221SOL    HW136122   4.172   1.193   7.731  0.5140 -2.3105  2.3861
 8221SOL    HW236123   4.026   1.209   7.685 -1.1105 -2.1199 -1.4310
 8222SOL     OW36124   1.742   3.455   5.683 -0.2844  0.2930  0.5410
 8222SOL    HW136125   1.668   3.399   5.660  0.6157  0.2419 -2.2950
 8222SOL    HW236126   1.791   3.407   5.750  0.6520 -0.4776 -0.6883
 8223SOL     OW36127   0.136   2.167   6.593  0.1194  0.0386 -0.3085
 8223SOL    HW136128   0.104   2.123   6.672 -0.6381  1.4532  0.1656
 8223SOL    HW236129   0.078   2.242   6.600  0.1992  0.3215 -2.5777
 8224SOL     OW36130   0.154   0.351   4.468  0.2309  0.0228  0.3373
 8224SOL    HW136131   0.247   0.367   4.483  0.2303  1.6443 -1.3928
 8224SOL    HW236132   0.154   0.262   4.434 -1.2488 -0.5233  1.7751
 8225SOL     OW36133   1.637   1.337   5.184  0.1887 -0.0129 -0.3650
 8225SOL    HW136134   1.639   1.391   5.263  0.0830  2.6266 -2.1703
 8225SOL    HW236135   1.568   1.381   5.136  0.8188 -1.5086 -2.6622
 8226SOL     OW36136   1.586   0.189   9.608  0.0206 -0.1949  0.1117
 8226SOL    HW136137   1.539   0.272   9.607 -0.6386 -0.5656 -0.2990
 8226SOL    HW236138   1.675   0.221   9.592 -0.7524  2.3316  0.9342
 8227SOL     OW36139   1.126   0.987   4.790 -0.3857  0.1245 -0.1222
 8227SOL    HW136140   1.067   1.047   4.836 -0.7292 -1.4582  1.4673
 8227SOL    HW236141   1.194   1.053   4.774  1.2967 -1.7057 -0.4817
 8228SOL     OW36142   0.712   4.720   6.640 -0.0267  1.1070  0.3218
 8228SOL    HW136143   0.637   0.035   6.592 -0.8657  0.1933  0.9311
 8228SOL    HW236144   0.740   4.644   6.589  0.2031  1.7383 -0.4953
 8229SOL     OW36145   3.753   3.714   7.985  0.3098 -0.5493 -0.7819
 8229SOL    HW136146   3.808   3.635   7.989 -0.8775 -1.3996 -1.2596
 8229SOL    HW236147   3.674   3.689   7.937 -0.1366  1.0864 -0.8840
 8230SOL     OW36148   3.201   0.641   5.262 -0.1926  0.2983 -0.7697
 8230SOL    HW136149   3.142   0.705   5.221  1.3655  2.3574  0.1553
 8230SOL    HW236150   3.197   0.677   5.351  1.8567 -0.0540 -0.5387
 8231SOL     OW36151   1.428   1.601  14.920  0.3247 -0.3520  0.0147
 8231SOL    HW136152   1.482   1.600  14.841  1.8835 -0.7540  1.0834
 8231SOL    HW236153   1.349   1.643  14.885  0.1491  0.9832  1.9881
 8232SOL     OW36154   3.745   0.799   4.051 -0.0229 -0.0197 -0.1416
 8232SOL    HW136155   3.650   0.801   4.056  0.0236 -0.1923  0.9159
 8232SOL    HW236156   3.762   0.891   4.067  0.1315  0.2424 -1.8371
 8233SOL     OW36157   2.625   1.597   1.454 -0.0861 -0.3696  0.4355
 8233SOL    HW136158   2.573   1.516   1.456  1.6928 -1.5356  0.1483
 8233SOL    HW236159   2.714   1.573   1.425  0.7949  1.3019  1.7774
 8234SOL     OW36160   3.515   2.945   0.370  0.1179  0.0524 -0.0386
 8234SOL    HW136161   3.447   2.878   0.360 -1.8263  1.8738  1.0956
 8234SOL    HW236162   3.513   2.992   0.287 -2.2591 -0.4467 -0.2694
 8235SOL     OW36163   1.510   0.271   4.937  0.1256 -0.1434 -0.1783
 8235SOL    HW136164   1.503   0.366   4.940  1.6834  0.0524 -2.4052
 8235SOL    HW236165   1.589   0.256   4.884 -1.7081  0.3328 -3.0654
 8236SOL     OW36166   3.593   2.389  13.588  0.0351 -0.1238  0.0668
 8236SOL    HW136167   3.619   2.472  13.548 -1.0840  0.9907  1.6705
 8236SOL    HW236168   3.500   2.387  13.565  0.2883 -0.9554 -0.9312
 8237SOL     OW36169   4.003   0.159   3.862 -0.2626 -0.0198 -0.2086
 8237SOL    HW136170   3.937   0.210   3.909  0.0891  0.0732  0.1785
 8237SOL    HW236171   4.086   0.206   3.868 -0.3786 -0.3673  3.8963
 8238SOL     OW36172   2.344   2.815   1.495  0.3054 -0.0086  0.0333
 8238SOL    HW136173   2.274   2.752   1.479  1.9883 -1.7094 -0.5945
 8238SOL    HW236174   2.423   2.771   1.465 -1.0017 -2.0555 -0.4141
 8239SOL     OW36175   0.271   0.819   8.254  0.5722 -0.4031  0.2152
 8239SOL    HW136176   0.179   0.813   8.282 -0.5942  0.9986 -3.2485
 8239SOL    HW236177   0.325   0.834   8.331  1.0487  1.8369 -0.5475
 8240SOL     OW36178   2.275   0.569   9.885 -0.0811  0.0641  0.4510
 8240SOL    HW136179   2.222   0.491   9.902  0.0808  0.0867  1.0785
 8240SOL    HW236180   2.366   0.539   9.891 -0.6110 -1.7181 -0.7158
 8241SOL     OW36181   0.386   0.552   8.325  0.3688 -0.1272  0.3051
 8241SOL    HW136182   0.381   0.645   8.300  1.6606 -0.0132  0.4893
 8241SOL    HW236183   0.316   0.509   8.275 -0.0822  1.1998 -0.2093
 8242SOL     OW36184   2.647   1.194   2.719 -0.0036 -0.1623 -0.3212
 8242SOL    HW136185   2.597   1.113   2.728  0.4188 -0.4557 -0.6214
 8242SOL    HW236186   2.724   1.156   2.678  0.0867 -1.9257  1.4780
 8243SOL     OW36187   4.443   1.306   9.072 -0.1536  0.1926  0.6472
 8243SOL    HW136188   4.527   1.330   9.113  0.5329  0.9396 -1.2002
 8243SOL    HW236189   4.394   1.290   9.153  0.0817 -0.0231  0.7504
 8244SOL     OW36190   2.104   4.675   0.177 -0.2412 -0.1046 -0.1492
 8244SOL    HW136191   2.066   4.636   0.255 -2.1945 -0.0781 -1.0871
 8244SOL    HW236192   2.189   4.630   0.180  0.1785  0.6856 -0.2013
 8245SOL     OW36193   2.431   1.566   9.348  0.1814  0.3760 -0.7521
 8245SOL    HW136194   2.460   1.475   9.357 -2.0522 -0.4844 -2.2380
 8245SOL    HW236195   2.483   1.621   9.407  0.0197 -2.0236  1.6051
 8246SOL     OW36196   4.470   0.179   3.430  0.1322  0.4542 -0.1508
 8246SOL    HW136197   4.468   0.178   3.334  0.9156  1.0928 -0.1783
 8246SOL    HW236198   4.481   0.086   3.447 -1.1117  0.1555 -1.0026
 8247SOL     OW36199   2.979   3.922   1.097 -0.3941 -0.4972  0.2148
 8247SOL    HW136200   2.888   3.891   1.097 -0.8385  0.8219  0.7774
 8247SOL    HW236201   3.018   3.854   1.152 -0.0585 -0.1989  0.3426
 8248SOL     OW36202   4.497   0.133  10.420  0.0244  0.0325  0.4140
 8248SOL    HW136203   4.445   0.114  10.342  0.5033  1.3490 -0.2244
 8248SOL    HW236204   4.437   0.121  10.494 -0.5612 -1.5799 -0.3331
 8249SOL     OW36205   3.120   4.182   5.699 -0.0710 -0.5583 -1.0391
 8249SOL    HW136206   3.179   4.257   5.699 -0.5894 -0.1515  1.8424
 8249SOL    HW236207   3.055   4.223   5.756  0.6323  2.1072 -2.1859
 8250SOL     OW36208   4.256   0.824   8.689 -0.2330 -0.2442  0.2133
 8250SOL    HW136209   4.278   0.831   8.782 -1.0508  1.0294  0.3118
 8250SOL    HW236210   4.192   0.754   8.683  0.2403 -0.7945  1.6477
 8251SOL     OW36211   1.888   2.492   9.925 -0.1198  0.3742 -0.3464
 8251SOL    HW136212   1.949   2.541   9.871  0.9324 -0.2894  0.2511
 8251SOL    HW236213   1.944   2.441   9.984 -1.7203  1.7708  2.4016
 8252SOL     OW36214   3.010   2.533  16.932  0.1043 -0.0294 -0.0046
 8252SOL    HW136215   3.094   2.572  16.911  0.9136 -1.9246 -0.2633
 8252SOL    HW236216   2.966   2.563  16.852 -0.1672  0.3457  0.2813
 8253SOL     OW36217   2.886   4.520   3.139 -0.6765 -0.2811  0.0182
 8253SOL    HW136218   2.977   4.491   3.138 -1.3979 -2.5794  2.5079
 8253SOL    HW236219   2.859   4.444   3.190  1.1418 -0.7561  0.2869
 8254SOL     OW36220   4.507   2.434   3.512  0.2588  0.4560  0.0027
 8254SOL    HW136221   4.555   2.363   3.554  0.8517  1.2664  0.6934
 8254SOL    HW236222   4.525   2.413   3.421  3.1206  3.2177 -0.0845
 8255SOL     OW36223   1.762   1.382   2.533 -0.1436  0.4476 -0.4297
 8255SOL    HW136224   1.743   1.464   2.578  1.4097  1.8085 -2.2733
 8255SOL    HW236225   1.674   1.351   2.550  1.1132 -2.1999  1.3291
 8256SOL     OW36226   0.439   3.193   3.778  0.5011 -0.9805 -0.0854
 8256SOL    HW136227   0.501   3.264   3.767 -0.8273  0.0327 -0.9701
 8256SOL    HW236228   0.372   3.246   3.822 -0.7348 -0.4880 -2.5761
 8257SOL     OW36229   3.779   0.977   8.925  0.6741  0.2466  0.4778
 8257SOL    HW136230   3.735   0.976   9.010 -1.6356 -0.6122 -0.7275
 8257SOL    HW236231   3.839   0.902   8.936  0.7577  0.2041 -0.2722
 8258SOL     OW36232   0.506   2.343  11.637 -0.0331 -0.4376 -0.1913
 8258SOL    HW136233   0.465   2.259  11.620 -2.7834  1.2324 -1.8059
 8258SOL    HW236234   0.539   2.352  11.548  0.8309  0.3171  0.2023
 8259SOL     OW36235   1.094   0.243  12.374  0.1076  0.3656  0.3925
 8259SOL    HW136236   1.181   0.238  12.333 -0.7341  1.6540 -1.5489
 8259SOL    HW236237   1.097   0.195  12.457 -1.8081 -0.7106 -0.1751
 8260SOL     OW36238   2.144   3.536   9.054 -0.2773 -0.0939 -0.0266
 8260SOL    HW136239   2.051   3.542   9.076  0.0458  1.1504  1.0325
 8260SOL    HW236240   2.181   3.481   9.122  0.6536  0.1339 -0.3549
 8261SOL     OW36241   3.472   4.085   5.647 -0.0226  0.3608 -0.5173
 8261SOL    HW136242   3.489   3.991   5.652 -0.5286  0.4441  2.6539
 8261SOL    HW236243   3.413   4.098   5.721 -0.0358 -1.7269 -0.1772
 8262SOL     OW36244   4.278   3.189   9.791  0.2954 -0.2488  0.1502
 8262SOL    HW136245   4.256   3.096   9.782  2.8443 -0.7867 -0.4715
 8262SOL    HW236246   4.195   3.231   9.767 -0.3261 -0.2542  2.3131
 8263SOL     OW36247   3.290   4.330  16.526 -0.0564  0.2957  0.1681
 8263SOL    HW136248   3.332   4.331  16.440  1.2465  0.1153  0.8050
 8263SOL    HW236249   3.223   4.267  16.499  0.2272 -0.2086  0.6472
 8264SOL     OW36250   3.821   2.687  15.850 -0.1720  0.1826  0.6471
 8264SOL    HW136251   3.894   2.666  15.907  0.0293  2.1340  1.1252
 8264SOL    HW236252   3.850   2.749  15.782  0.1980  1.0747  1.6216
 8265SOL     OW36253   3.087   1.893   6.797  0.2591  0.2124 -0.1207
 8265SOL    HW136254   3.160   1.834   6.812  1.5315  1.7208 -0.3866
 8265SOL    HW236255   3.112   1.953   6.726 -0.4287  1.3495  0.5947
 8266SOL     OW36256   0.248   0.510   6.494  0.3476  0.0851  0.4624
 8266SOL    HW136257   0.274   0.497   6.403 -0.2802  0.8738  0.1663
 8266SOL    HW236258   0.326   0.479   6.539  0.8320 -0.5204 -0.7868
 8267SOL     OW36259   2.072   0.446   1.645 -0.3263  0.4883 -0.1601
 8267SOL    HW136260   2.062   0.464   1.738 -1.8872  0.6826 -0.3554
 8267SOL    HW236261   1.988   0.404   1.627 -0.2749  0.2868  0.0815
 8268SOL     OW36262   0.157   4.162  15.281  0.0875 -0.4898 -0.0350
 8268SOL    HW136263   0.061   4.162  15.281  0.0818  0.1500 -1.6016
 8268SOL    HW236264   0.186   4.182  15.370 -2.4464 -1.3280  0.9857
 8269SOL     OW36265   2.789   1.030  15.935  0.0133 -0.6044  0.4668
 8269SOL    HW136266   2.748   1.104  15.979  0.2008  0.0635 -0.5037
 8269SOL    HW236267   2.868   1.083  15.920 -0.1460 -0.7096 -0.7131
 8270SOL     OW36268   2.136   1.513   8.855  0.1100  0.6117 -0.9888
 8270SOL    HW136269   2.111   1.439   8.909 -0.3884  0.1832 -1.8018
 8270SOL    HW236270   2.181   1.565   8.922 -0.6311  0.7949 -0.6314
 8271SOL     OW36271   3.895   0.304   6.389 -0.2742  0.2313  0.9020
 8271SOL    HW136272   3.902   0.269   6.478  0.7685 -1.8681  0.0024
 8271SOL    HW236273   3.983   0.293   6.351  0.0170  1.6913  1.1633
 8272SOL     OW36274   0.824   4.520   6.482 -0.0005  0.2046  0.7277
 8272SOL    HW136275   0.849   4.429   6.502  3.0422  0.4300 -2.0464
 8272SOL    HW236276   0.774   4.498   6.404 -0.2255  0.6479  0.7498
 8273SOL     OW36277   1.054   2.517   8.284 -0.2244 -0.3329  0.2726
 8273SOL    HW136278   1.073   2.607   8.256 -0.7507  0.0122  1.0349
 8273SOL    HW236279   0.963   2.526   8.313 -0.8444 -0.5954 -1.5750
 8274SOL     OW36280   2.023   1.195  13.261 -0.3932  0.0623 -0.3635
 8274SOL    HW136281   1.991   1.117  13.217  0.0648 -0.8393  0.8969
 8274SOL    HW236282   2.063   1.143  13.331  1.6299  0.6572 -1.0828
 8275SOL     OW36283   1.596   1.114  15.343 -0.3733 -0.5892 -0.4987
 8275SOL    HW136284   1.677   1.145  15.383 -0.3547 -1.2703  0.0004
 8275SOL    HW236285   1.540   1.106  15.420  0.6190  2.2782  0.4890
 8276SOL     OW36286   3.529   0.553   8.165 -0.2012 -0.0036  0.4873
 8276SOL    HW136287   3.605   0.611   8.157  0.4086 -0.7516  0.7595
 8276SOL    HW236288   3.490   0.560   8.078 -0.9634 -1.1266  0.7392
 8277SOL     OW36289   3.982   0.658  17.371  0.0564 -0.4436 -0.4210
 8277SOL    HW136290   4.076   0.650  17.353  0.1704  0.5753 -0.2538
 8277SOL    HW236291   3.947   0.629  17.286  0.5271 -3.1461  0.3169
 8278SOL     OW36292   3.281   2.013  16.703 -0.1728  0.1682 -1.0051
 8278SOL    HW136293   3.366   1.974  16.680 -0.1061  0.1245 -0.6904
 8278SOL    HW236294   3.310   2.102  16.721 -0.9714 -0.0636  1.5088
 8279SOL     OW36295   0.721   2.376   0.428 -0.4220 -0.2686  0.3053
 8279SOL    HW136296   0.677   2.423   0.357 -2.0531 -1.1490  0.7216
 8279SOL    HW236297   0.750   2.301   0.376  0.1344  0.6406 -0.7026
 8280SOL     OW36298   0.325   0.800  10.135 -0.0710 -0.2305 -0.3131
 8280SOL    HW136299   0.295   0.744  10.064 -0.4484 -2.8993  1.9865
 8280SOL    HW236300   0.236   0.816  10.168  0.9644  1.2006  1.7549
 8281SOL     OW36301   2.270   4.472   3.832 -0.8565 -0.3604  0.2306
 8281SOL    HW136302   2.283   4.378   3.838  0.4935 -0.1111  1.1849
 8281SOL    HW236303   2.304   4.492   3.744  1.4353 -2.0181  0.7485
 8282SOL     OW36304   1.753   4.557   5.731  0.3623  0.3356  0.0217
 8282SOL    HW136305   1.816   4.490   5.704  0.9640  1.4174 -1.2597
 8282SOL    HW236306   1.749   4.597   5.644 -2.1649  1.7029  0.7764
 8283SOL     OW36307   1.609   4.045  16.622  0.9746 -0.2740  0.9769
 8283SOL    HW136308   1.615   3.950  16.613 -0.7315 -0.4113  1.2130
 8283SOL    HW236309   1.674   4.069  16.556  0.4893 -0.3414  0.4758
 8284SOL     OW36310   2.969   2.082  11.557 -0.4671 -0.0543  0.4399
 8284SOL    HW136311   3.052   2.084  11.603  0.1325  1.5680 -0.7150
 8284SOL    HW236312   2.938   1.991  11.564 -3.0783  0.7840 -0.2731
 8285SOL     OW36313   3.352   3.496   9.745  0.2532  0.1939 -0.1766
 8285SOL    HW136314   3.299   3.568   9.711  0.8149  1.0674  0.8127
 8285SOL    HW236315   3.437   3.514   9.706  1.3994 -0.1627  2.1612
 8286SOL     OW36316   1.997   0.581   7.298  0.1224 -0.4307  0.2654
 8286SOL    HW136317   1.995   0.523   7.375  0.0263  0.3771  0.8718
 8286SOL    HW236318   2.030   0.654   7.349  2.9915  0.8004 -3.4102
 8287SOL     OW36319   2.135   0.979   6.230 -0.6238  0.2807 -0.3367
 8287SOL    HW136320   2.169   1.010   6.314  0.0541  0.7075 -0.7701
 8287SOL    HW236321   2.080   1.049   6.195 -0.5371  0.5714  0.1165
 8288SOL     OW36322   3.466   2.672  10.348  0.3988  0.2506  0.6284
 8288SOL    HW136323   3.406   2.693  10.276  1.8953 -1.5146 -1.1603
 8288SOL    HW236324   3.392   2.645  10.403 -0.4858  0.2309 -0.5599
 8289SOL     OW36325   2.771   1.500   3.288 -0.0035 -0.2386 -0.0253
 8289SOL    HW136326   2.701   1.504   3.222 -0.5047  0.7131  0.5618
 8289SOL    HW236327   2.723   1.507   3.371 -1.5738 -3.8558 -0.6275
 8290SOL     OW36328   0.593   2.983   3.667  0.3361 -0.4199 -0.2113
 8290SOL    HW136329   0.654   3.013   3.735  1.3962 -1.1871 -0.8276
 8290SOL    HW236330   0.519   3.041   3.687  2.3607  2.6326 -1.5565
 8291SOL     OW36331   4.681   1.071  13.646  0.8563  0.3172  0.0171
 8291SOL    HW136332   4.595   1.095  13.610  0.5686  1.2432  1.3345
 8291SOL    HW236333   4.670   0.980  13.673  0.0072  0.4996  0.2989
 8292SOL     OW36334   2.717   1.738   0.866  0.1645 -0.8583  0.1665
 8292SOL    HW136335   2.766   1.797   0.923 -1.2772 -0.3799  0.9225
 8292SOL    HW236336   2.783   1.671   0.847  1.1240  0.2652 -0.4447
 8293SOL     OW36337   3.075   4.380   2.775 -0.6714 -0.7927 -0.1983
 8293SOL    HW136338   3.008   4.436   2.814 -0.4160  0.3307 -1.3499
 8293SOL    HW236339   3.071   4.408   2.683 -1.4331  0.3384  0.1667
 8294SOL     OW36340   4.039   3.392  17.192  0.5322  0.1443  0.3116
 8294SOL    HW136341   4.049   3.429  17.105 -1.1695  1.0483  0.5000
 8294SOL    HW236342   4.122   3.344  17.194  1.7903  2.2544 -1.0017
 8295SOL     OW36343   4.125   3.594   1.590  0.0283  0.5247 -0.7707
 8295SOL    HW136344   4.156   3.574   1.502 -0.7641 -1.0453 -0.6957
 8295SOL    HW236345   4.031   3.588   1.572 -0.5657  1.9609  1.8266
 8296SOL     OW36346   0.815   3.629   3.248 -0.2963 -0.3527 -0.1918
 8296SOL    HW136347   0.812   3.693   3.318  0.9775  1.9272 -2.2342
 8296SOL    HW236348   0.732   3.582   3.257  0.9264 -2.3893  0.4671
 8297SOL     OW36349   3.832   1.145   2.137  0.6744 -0.3014 -0.1483
 8297SOL    HW136350   3.876   1.102   2.064 -0.1704 -2.6467  0.7113
 8297SOL    HW236351   3.896   1.207   2.172  1.8756 -1.4834 -0.2479
 8298SOL     OW36352   2.244   3.178   2.495  0.1273  0.4035  0.3462
 8298SOL    HW136353   2.222   3.222   2.577  2.2939  3.5125 -0.6890
 8298SOL    HW236354   2.233   3.260   2.446  0.8387  0.3736  0.1366
 8299SOL     OW36355   2.725   1.763   2.639 -0.1877  0.0909  0.7190
 8299SOL    HW136356   2.640   1.777   2.597 -1.0293 -2.4868  1.5867
 8299SOL    HW236357   2.751   1.671   2.645  2.2475  0.9039  2.6978
 8300SOL     OW36358   0.149   2.046   1.082  0.0051  0.6056  0.7071
 8300SOL    HW136359   0.092   2.009   1.014  0.8860 -0.8926  0.7783
 8300SOL    HW236360   0.154   2.138   1.057 -0.0421  0.5575  0.5223
 8301SOL     OW36361   3.745   2.613   4.804  0.1144 -0.3406 -0.2830
 8301SOL    HW136362   3.696   2.539   4.770 -2.0961  1.0657 -0.1881
 8301SOL    HW236363   3.833   2.579   4.790 -0.2626 -0.0544 -3.2279
 8302SOL     OW36364   3.387   3.936   7.633 -0.1178 -0.3713  0.1609
 8302SOL    HW136365   3.350   4.007   7.580  2.6505  0.5046 -0.6346
 8302SOL    HW236366   3.376   3.961   7.724 -3.3397  1.4284 -0.7265
 8303SOL     OW36367   3.673   3.036   4.279  0.0723  0.0558 -0.1315
 8303SOL    HW136368   3.762   3.013   4.305  0.1351 -0.8096 -1.1044
 8303SOL    HW236369   3.658   2.970   4.212  1.7990  0.2537 -0.7134
 8304SOL     OW36370   4.194   3.581   9.486 -0.0862  0.0780 -0.3889
 8304SOL    HW136371   4.241   3.626   9.557  0.8079 -0.5198 -0.5974
 8304SOL    HW236372   4.109   3.575   9.530  0.2860  0.1533  0.3490
 8305SOL     OW36373   2.019   3.071  11.526 -0.0163  0.5866  0.4791
 8305SOL    HW136374   1.981   3.130  11.461  1.8367  0.1232 -1.0116
 8305SOL    HW236375   2.112   3.085  11.506 -0.3309  0.7865 -0.7983
 8306SOL     OW36376   2.902   3.691   8.194 -0.2969 -0.0292 -0.0630
 8306SOL    HW136377   2.924   3.758   8.129  2.7507  1.7862  2.8381
 8306SOL    HW236378   2.986   3.684   8.240 -0.0111  1.0884 -0.4268
 8307SOL     OW36379   2.669   4.064   9.343 -0.1589 -0.2037  0.0628
 8307SOL    HW136380   2.737   3.997   9.356  0.1219  0.3408  1.4062
 8307SOL    HW236381   2.684   4.088   9.252 -1.2169 -1.4938 -0.4449
 8308SOL     OW36382   3.601   1.749  11.277 -0.0541 -0.7998  0.4064
 8308SOL    HW136383   3.605   1.768  11.183  1.0607 -1.4848  0.3145
 8308SOL    HW236384   3.550   1.821  11.314  4.4542  2.2409  0.6115
 8309SOL     OW36385   0.345   0.952   3.793 -0.0951  0.1384 -0.2294
 8309SOL    HW136386   0.276   0.931   3.730  0.8198  2.7668 -2.1215
 8309SOL    HW236387   0.420   0.914   3.747  1.2744  1.6073  0.7893
 8310SOL     OW36388   3.308   3.713   1.259 -0.1534 -0.0686 -0.9435
 8310SOL    HW136389   3.337   3.774   1.327 -1.3518  0.9371 -1.3341
 8310SOL    HW236390   3.359   3.765   1.197 -0.6219  0.8721 -0.5319
 8311SOL     OW36391   3.154   2.755   4.541  0.4976 -0.1464  0.2253
 8311SOL    HW136392   3.188   2.692   4.605  0.9931 -1.0859 -0.9551
 8311SOL    HW236393   3.193   2.719   4.461 -1.7875 -1.7856 -0.1468
 8312SOL     OW36394   4.283   4.707   7.704 -0.1944  0.4079 -0.4225
 8312SOL    HW136395   4.191   4.720   7.726 -0.8544 -1.2360 -2.1799
 8312SOL    HW236396   4.277   4.639   7.637  1.1852 -1.2578  1.1405
 8313SOL     OW36397   1.070   3.210   4.700  0.0512  0.0589  0.2931
 8313SOL    HW136398   1.028   3.295   4.708  0.2685 -0.0501  2.6756
 8313SOL    HW236399   1.123   3.230   4.622  0.1204 -1.6693 -0.0918
 8314SOL     OW36400   0.562   3.393   5.596  0.0064  0.3204 -0.0772
 8314SOL    HW136401   0.485   3.367   5.547  0.3673 -0.9810  0.0292
 8314SOL    HW236402   0.617   3.320   5.568  0.5707 -0.5769  3.2685
 8315SOL     OW36403   0.347   0.154   3.606 -0.3531 -0.4195 -0.1926
 8315SOL    HW136404   0.318   0.113   3.525  0.8063  1.3337 -1.4927
 8315SOL    HW236405   0.430   0.184   3.569 -0.8738  2.4216  0.9107
 8316SOL     OW36406   3.025   1.437   4.173 -0.3837  0.1784  0.0782
 8316SOL    HW136407   3.015   1.530   4.150  0.6972 -0.1248 -1.5778
 8316SOL    HW236408   2.997   1.431   4.264 -1.4220 -1.3971 -0.3389
 8317SOL     OW36409   2.179   1.982   2.309  0.5530 -0.3728 -0.6616
 8317SOL    HW136410   2.158   1.942   2.394 -1.1584  0.2833 -0.7775
 8317SOL    HW236411   2.114   1.951   2.246  0.7092 -2.0894  0.0129
 8318SOL     OW36412   0.604   0.417   2.263  0.1908  0.0301  0.3313
 8318SOL    HW136413   0.645   0.411   2.176  1.9980 -0.6113  1.2332
 8318SOL    HW236414   0.680   0.393   2.315 -1.1682  1.7664  3.1052
 8319SOL     OW36415   3.309   2.544   5.997  0.1781  0.4063  0.0831
 8319SOL    HW136416   3.332   2.490   5.921  0.0706  0.2899  0.1327
 8319SOL    HW236417   3.227   2.505   6.028 -0.2560 -0.3007 -1.9757
 8320SOL     OW36418   3.224   3.213   1.168 -0.0442  0.2080 -0.3534
 8320SOL    HW136419   3.317   3.214   1.144  1.1576  0.7541  4.4146
 8320SOL    HW236420   3.207   3.121   1.146 -0.1688 -0.0430  0.7943
 8321SOL     OW36421   2.800   2.866   8.411  0.7329  0.0819  0.3660
 8321SOL    HW136422   2.892   2.890   8.412  0.9058 -0.5575 -0.3760
 8321SOL    HW236423   2.768   2.874   8.501  0.9139 -0.2284  0.4562
 8322SOL     OW36424   1.003   0.645   5.525 -0.0006 -0.3674 -0.3507
 8322SOL    HW136425   0.975   0.657   5.616  1.8387  0.1582  0.1361
 8322SOL    HW236426   1.049   0.561   5.530  1.1249  0.2914  0.4196
 8323SOL     OW36427   1.241   1.630   8.067 -0.5021 -0.7465  0.5071
 8323SOL    HW136428   1.328   1.621   8.106  0.4144  1.4118 -1.0318
 8323SOL    HW236429   1.253   1.596   7.978  1.2337  1.1733  0.0042
 8324SOL     OW36430   1.330   4.315  15.585 -0.2219 -0.1967  0.7630
 8324SOL    HW136431   1.336   4.349  15.674 -3.2225  2.3282 -0.0136
 8324SOL    HW236432   1.244   4.273  15.583 -1.4838  2.5615 -2.6738
 8325SOL     OW36433   2.744   0.055   3.973  0.0459  0.5606 -0.0417
 8325SOL    HW136434   2.766   0.031   3.883 -0.9747  0.3946 -0.2476
 8325SOL    HW236435   2.704   4.698   4.011  0.5661  0.7407  0.8866
 8326SOL     OW36436   3.887   2.475  13.723  0.1191 -0.3424 -0.2205
 8326SOL    HW136437   3.896   2.401  13.783  2.0848  0.1291  0.0587
 8326SOL    HW236438   3.962   2.454  13.668 -0.4319  2.1192 -1.9042
 8327SOL     OW36439   2.900   4.650   6.197 -0.3499 -0.2895 -0.3874
 8327SOL    HW136440   2.836   4.656   6.126  0.1046  0.9827 -0.6968
 8327SOL    HW236441   2.949   4.570   6.179  1.3738  0.0440  2.7606
 8328SOL     OW36442   1.448   3.698  10.194  0.1997  0.1890  0.1815
 8328SOL    HW136443   1.517   3.722  10.132  0.1116 -0.9475 -0.3614
 8328SOL    HW236444   1.391   3.775  10.187 -1.2548 -0.9107 -0.1336
 8329SOL     OW36445   2.335   0.373   7.091 -0.6855  0.0116  0.1039
 8329SOL    HW136446   2.305   0.393   7.003  1.6735 -0.0144 -0.7067
 8329SOL    HW236447   2.421   0.415   7.091 -0.5972 -0.1531  1.7941
 8330SOL     OW36448   1.942   1.912  13.171 -0.3983  0.1236 -0.0387
 8330SOL    HW136449   1.998   1.872  13.103  0.1627  0.8636 -0.0062
 8330SOL    HW236450   1.880   1.952  13.110 -0.4528 -1.4812 -1.0657
 8331SOL     OW36451   2.674   2.132   0.371  0.2559  0.2001 -0.0999
 8331SOL    HW136452   2.699   2.045   0.340 -0.7583  0.0392 -0.4595
 8331SOL    HW236453   2.588   2.112   0.408  1.1805 -0.3859  1.7540
 8332SOL     OW36454   4.523   4.368   7.671  0.4130 -0.6713 -0.2397
 8332SOL    HW136455   4.467   4.360   7.748  0.1055  0.6599 -0.3106
 8332SOL    HW236456   4.534   4.463   7.677  1.1550 -0.7521 -0.3459
 8333SOL     OW36457   4.573   1.730  14.980  0.0885 -0.2075  0.2910
 8333SOL    HW136458   4.589   1.819  15.012 -1.8724  0.1261  0.3455
 8333SOL    HW236459   4.636   1.672  15.022 -1.6564 -0.4510  2.5617
 8334SOL     OW36460   0.086   4.504   5.318 -0.3043  0.4132  0.1384
 8334SOL    HW136461   0.036   4.537   5.243  1.6394 -0.2753 -1.4605
 8334SOL    HW236462   0.019   4.472   5.377 -0.1775  0.3924  0.2726
 8335SOL     OW36463   3.714   0.209   1.550 -0.4911 -0.3411 -0.3297
 8335SOL    HW136464   3.734   0.291   1.505 -2.5455  1.1077  1.3796
 8335SOL    HW236465   3.673   0.235   1.633  1.1150 -2.5062  1.1377
 8336SOL     OW36466   2.815   1.374   5.225  0.5229 -0.1540  0.4619
 8336SOL    HW136467   2.745   1.310   5.213 -1.3398  1.7894  0.9437
 8336SOL    HW236468   2.889   1.325   5.259 -0.2181 -0.6658  1.3099
 8337SOL     OW36469   3.271   0.388   7.319  0.6677  0.3346 -0.1736
 8337SOL    HW136470   3.201   0.397   7.255  0.1540  3.6760  0.8313
 8337SOL    HW236471   3.342   0.417   7.263  0.8577  0.1398 -0.0327
 8338SOL     OW36472   0.657   3.338   5.843 -0.0190  0.0195 -0.2298
 8338SOL    HW136473   0.609   3.389   5.778  0.9297  1.4691  0.1841
 8338SOL    HW236474   0.690   3.267   5.789 -0.7413 -0.9608  0.6045
 8339SOL     OW36475   1.626   1.222   3.461 -0.3659  0.0870 -0.0764
 8339SOL    HW136476   1.673   1.266   3.532 -2.4365 -0.9245  1.9059
 8339SOL    HW236477   1.690   1.176   3.407  0.5909  2.4492 -0.9437
 8340SOL     OW36478   0.362   1.328   6.419 -0.1462  0.1506  0.6138
 8340SOL    HW136479   0.374   1.410   6.371 -1.1775  0.0510  0.1807
 8340SOL    HW236480   0.411   1.350   6.498 -2.9624  0.6321  2.2502
 8341SOL     OW36481   1.708   2.918   2.843 -0.2044  0.1740  0.3300
 8341SOL    HW136482   1.722   2.944   2.752  2.7883  1.5977  1.1931
 8341SOL    HW236483   1.689   3.005   2.879  0.0709  1.7512 -3.2464
 8342SOL     OW36484   4.691   4.170   7.662  0.2086 -0.2033  0.6552
 8342SOL    HW136485   4.702   4.166   7.567  2.4224  2.0320  0.8172
 8342SOL    HW236486   4.646   4.252   7.684 -0.4275 -0.3556 -0.1076
 8343SOL     OW36487   3.990   4.150   8.416  0.1528  0.5718 -0.2631
 8343SOL    HW136488   4.084   4.129   8.414  0.0278 -0.0279  0.1730
 8343SOL    HW236489   3.967   4.162   8.323  1.4613  1.4897 -0.4695
 8344SOL     OW36490   4.174   2.916   7.984  0.3213  0.1332  0.3958
 8344SOL    HW136491   4.268   2.900   7.992  0.4957  0.9833  0.0653
 8344SOL    HW236492   4.150   2.843   7.927 -1.5980  0.5313  0.7147
 8345SOL     OW36493   3.896   2.184  12.609 -0.0640 -0.4921  0.1888
 8345SOL    HW136494   3.870   2.226  12.691  0.4422 -0.4194  0.3127
 8345SOL    HW236495   3.850   2.246  12.552 -0.7038 -1.8944 -0.8217
 8346SOL     OW36496   3.971   3.343   6.906 -0.8759  0.0978  0.3045
 8346SOL    HW136497   3.945   3.435   6.915 -1.1078 -0.0045  0.6637
 8346SOL    HW236498   3.891   3.299   6.879 -0.0612 -0.1829 -1.6952
 8347SOL     OW36499   1.426   0.414   4.387  0.0345 -0.4438  0.0071
 8347SOL    HW136500   1.385   0.436   4.471 -0.0114 -2.3911  0.5155
 8347SOL    HW236501   1.482   0.491   4.380  2.1304 -1.9572  0.1991
 8348SOL     OW36502   3.059   3.118   6.689  0.1497  0.0890 -0.3002
 8348SOL    HW136503   3.060   3.213   6.705 -0.1542 -0.0440  0.4970
 8348SOL    HW236504   3.133   3.108   6.628 -0.9838 -0.4797 -1.5714
 8349SOL     OW36505   0.893   3.840  11.354  0.5883 -0.9462  0.0870
 8349SOL    HW136506   0.927   3.891  11.428 -2.2218  0.2205  0.5913
 8349SOL    HW236507   0.949   3.764  11.366  1.8350 -0.3417 -1.9022
 8350SOL     OW36508   1.504   4.628   6.869 -0.7586 -0.4981  0.1001
 8350SOL    HW136509   1.543   4.548   6.833 -3.1990 -0.4479 -2.6641
 8350SOL    HW236510   1.559   4.692   6.824 -1.1388  0.7504  1.4460
 8351SOL     OW36511   4.131   3.228   6.713 -0.4999 -0.1891  0.2600
 8351SOL    HW136512   4.142   3.151   6.768 -4.3905 -1.1242 -0.2897
 8351SOL    HW236513   4.095   3.290   6.776  1.9584  0.7554  0.7701
 8352SOL     OW36514   2.807   3.390   3.149  1.0166  0.0455 -0.5549
 8352SOL    HW136515   2.747   3.449   3.103  2.6270  1.8387 -0.3888
 8352SOL    HW236516   2.820   3.316   3.091 -0.2223  0.0235 -0.8138
 8353SOL     OW36517   2.917   4.710   7.274 -0.2134 -0.3488  0.3149
 8353SOL    HW136518   2.917   4.679   7.364 -0.8882 -0.3086  0.3279
 8353SOL    HW236519   3.011   0.002   7.261 -1.0023  2.7441 -2.4583
 8354SOL     OW36520   3.330   1.504   1.716  0.2842  0.5415  0.4979
 8354SOL    HW136521   3.403   1.446   1.738 -1.3332 -1.6885 -0.0411
 8354SOL    HW236522   3.260   1.446   1.687  2.4895 -1.3731 -0.9942
 8355SOL     OW36523   2.040   3.577  15.766  0.1514  0.8148 -0.2876
 8355SOL    HW136524   2.118   3.535  15.801 -1.0514 -2.1898 -1.1927
 8355SOL    HW236525   2.091   3.644  15.721 -0.7073  0.2413 -2.1581
 8356SOL     OW36526   0.324   2.713   2.244  0.3361  1.0931  0.1164
 8356SOL    HW136527   0.297   2.677   2.329  0.0420  1.7624  0.3060
 8356SOL    HW236528   0.394   2.657   2.209  0.3076  1.4841 -0.5512
 8357SOL     OW36529   3.879   4.108   4.255  0.2998  0.3122 -0.2674
 8357SOL    HW136530   3.965   4.150   4.246  0.2616  0.2291 -0.9752
 8357SOL    HW236531   3.875   4.098   4.350  0.4349  0.1075 -0.2827
 8358SOL     OW36532   0.467   2.188   3.339 -0.4065 -0.0184 -0.5594
 8358SOL    HW136533   0.393   2.128   3.348 -0.4247  0.0067 -0.5395
 8358SOL    HW236534   0.539   2.127   3.321  0.3578  1.1233 -1.3885
 8359SOL     OW36535   4.177   2.822  15.091  0.1253  0.1096 -0.0699
 8359SOL    HW136536   4.139   2.853  15.173 -3.3280  1.5483 -2.2355
 8359SOL    HW236537   4.105   2.777  15.046  0.4561 -0.4875 -0.0011
 8360SOL     OW36538   0.805   2.967   8.621  0.0754 -0.1493 -0.3709
 8360SOL    HW136539   0.711   2.977   8.631 -0.1066 -3.4850  0.9746
 8360SOL    HW236540   0.821   3.042   8.563  0.0417 -1.2638 -1.8077
 8361SOL     OW36541   4.238   0.236   4.278  0.1752  0.1995 -0.1583
 8361SOL    HW136542   4.164   0.223   4.337  0.0471  2.7402  0.2155
 8361SOL    HW236543   4.251   0.151   4.235 -1.6147 -1.2585  2.2289
 8362SOL     OW36544   1.067   1.506   9.392 -0.0617  0.5674 -0.1187
 8362SOL    HW136545   1.020   1.482   9.312 -1.2558 -3.6321  1.8382
 8362SOL    HW236546   1.050   1.436   9.456  2.6327 -0.8667 -0.9939
 8363SOL     OW36547   1.449   2.854  11.145  0.4656 -0.0836 -0.3901
 8363SOL    HW136548   1.397   2.832  11.068 -0.4432  0.2722  0.1250
 8363SOL    HW236549   1.411   2.800  11.214 -0.3911  0.0523 -0.7655
 8364SOL     OW36550   2.574   2.230   9.379  0.7104 -0.3450  0.4065
 8364SOL    HW136551   2.508   2.165   9.402 -0.6606 -0.0759 -2.7593
 8364SOL    HW236552   2.635   2.170   9.335  1.5616  1.4977 -0.9299
 8365SOL     OW36553   2.072   0.419   2.640 -0.4690 -0.0981  0.4874
 8365SOL    HW136554   2.147   0.468   2.674  0.2939 -1.5222  0.8537
 8365SOL    HW236555   2.054   0.368   2.719  1.6543 -1.5552  0.0338
 8366SOL     OW36556   4.327   3.130   0.517 -0.5314  0.2408  0.0236
 8366SOL    HW136557   4.377   3.093   0.590 -2.4011  0.9038  1.6441
 8366SOL    HW236558   4.303   3.214   0.556  3.8703  1.4917  0.0992
 8367SOL     OW36559   1.443   2.951   7.462  0.0870 -0.1654  0.0081
 8367SOL    HW136560   1.495   2.914   7.534  0.7880 -0.3671 -0.5927
 8367SOL    HW236561   1.378   2.881   7.454 -0.7884  0.7006 -0.4567
 8368SOL     OW36562   0.950   4.119   4.655  0.2495 -0.1655  0.1164
 8368SOL    HW136563   0.915   4.089   4.571  2.6922 -1.1328 -0.5311
 8368SOL    HW236564   0.933   4.211   4.636  0.9645  0.0557  0.5560
 8369SOL     OW36565   1.762   3.723   5.055  0.3857  0.6586 -0.1596
 8369SOL    HW136566   1.796   3.668   4.984  0.2935  0.5039 -0.0838
 8369SOL    HW236567   1.762   3.658   5.125 -0.3647  2.5720  1.6126
 8370SOL     OW36568   1.435   0.924   3.739  0.1105 -0.0509  0.5244
 8370SOL    HW136569   1.520   0.884   3.719  0.5617  2.2420 -2.1756
 8370SOL    HW236570   1.417   0.964   3.654 -0.6862  3.2208  2.2172
 8371SOL     OW36571   2.817   0.561  11.870 -0.4426  0.4025 -0.1072
 8371SOL    HW136572   2.737   0.539  11.822 -0.0628 -1.5414  0.1241
 8371SOL    HW236573   2.827   0.490  11.934  1.2464  0.2058 -0.5757
 8372SOL     OW36574   3.278   3.555   4.982  0.0615  0.1209 -0.3174
 8372SOL    HW136575   3.190   3.574   5.015 -0.6647 -0.4135 -1.9268
 8372SOL    HW236576   3.316   3.642   4.998  0.4279 -0.0873 -0.0677
 8373SOL     OW36577   1.523   2.679   3.401 -0.0004  0.1746 -0.5129
 8373SOL    HW136578   1.431   2.655   3.413 -0.0030  0.3128 -0.2474
 8373SOL    HW236579   1.568   2.596   3.419  1.5490  1.2949  0.7596
 8374SOL     OW36580   4.033   0.345   5.007 -0.1308  0.0016  0.5815
 8374SOL    HW136581   4.022   0.436   4.977 -1.9967 -0.2555  0.4937
 8374SOL    HW236582   3.947   0.341   5.049  0.0658 -3.9215  0.5590
 8375SOL     OW36583   4.517   3.840   9.104  0.5068  0.4650  0.1745
 8375SOL    HW136584   4.546   3.750   9.097  0.7315  0.6542 -1.3508
 8375SOL    HW236585   4.595   3.881   9.140  0.6161 -0.1632  0.6353
 8376SOL     OW36586   2.318   2.993   6.091 -0.0232 -0.1438  0.2909
 8376SOL    HW136587   2.289   2.972   6.003 -0.5950  1.2797  0.1425
 8376SOL    HW236588   2.407   2.958   6.096 -1.5106 -4.0248 -0.3300
 8377SOL     OW36589   0.434   1.420   0.887 -0.3346  0.4582 -0.6090
 8377SOL    HW136590   0.407   1.414   0.979  2.5592  0.0636  0.2087
 8377SOL    HW236591   0.426   1.515   0.876  0.1567  0.8021  1.9257
 8378SOL     OW36592   3.421   2.024  13.559 -0.0900 -0.0207 -0.0007
 8378SOL    HW136593   3.452   2.005  13.648 -0.1249 -1.5385 -0.3105
 8378SOL    HW236594   3.394   1.937  13.529  2.4407 -0.6853 -0.2960
 8379SOL     OW36595   0.596   3.180   1.393  0.4495  0.4478  0.4581
 8379SOL    HW136596   0.683   3.211   1.369  0.5477 -0.0837  0.1296
 8379SOL    HW236597   0.596   3.097   1.345 -1.3393  1.3517 -1.0935
 8380SOL     OW36598   4.331   4.368   3.434 -0.6447 -0.6106 -0.2003
 8380SOL    HW136599   4.309   4.367   3.341 -1.2773 -2.2105 -0.0324
 8380SOL    HW236600   4.374   4.282   3.437  0.6714  0.0574 -0.0802
 8381SOL     OW36601   3.251   3.708   0.257 -0.7737 -0.6155  0.1497
 8381SOL    HW136602   3.179   3.646   0.269  1.1694 -2.4303  2.3888
 8381SOL    HW236603   3.316   3.665   0.312 -1.3208 -1.5341  0.0801
 8382SOL     OW36604   1.117   1.111   4.195  0.4133  0.1553  0.3175
 8382SOL    HW136605   1.128   1.024   4.156  0.1566  0.0751  0.4225
 8382SOL    HW236606   1.181   1.104   4.266 -0.9752  0.5530  1.6294
 8383SOL     OW36607   2.122   1.440   4.383 -0.5708  0.2583 -0.1674
 8383SOL    HW136608   2.097   1.437   4.475 -1.3804  1.4319 -0.3532
 8383SOL    HW236609   2.053   1.488   4.337  0.5673  1.3661 -0.7340
 8384SOL     OW36610   2.962   2.630   5.727  0.2103  0.0662  0.3416
 8384SOL    HW136611   3.020   2.571   5.679 -0.7734  0.1623 -0.9642
 8384SOL    HW236612   2.905   2.655   5.654  3.0906 -0.0785 -1.9729
 8385SOL     OW36613   2.109   0.828  16.814 -0.4330 -0.6634 -0.4093
 8385SOL    HW136614   2.077   0.911  16.778  1.0445  0.0287 -0.1130
 8385SOL    HW236615   2.022   0.792  16.834 -0.6299  0.8352  1.4122
 8386SOL     OW36616   0.360   1.364  12.082 -0.0569 -0.1147 -0.2259
 8386SOL    HW136617   0.325   1.278  12.108  0.0572  0.3000  1.2914
 8386SOL    HW236618   0.312   1.377  12.001 -0.9026 -1.4830  0.0426
 8387SOL     OW36619   4.147   0.203  16.203  0.1352  0.2965 -0.0386
 8387SOL    HW136620   4.120   0.236  16.117  0.0738 -1.7177 -0.7821
 8387SOL    HW236621   4.110   0.256  16.274  0.6452 -0.8054  1.0252
 8388SOL     OW36622   3.222   3.806   5.466 -0.6236  0.2279  0.1651
 8388SOL    HW136623   3.308   3.766   5.460 -0.7286  0.0253 -0.0180
 8388SOL    HW236624   3.239   3.900   5.464 -2.0078  0.4562 -1.4518
 8389SOL     OW36625   2.455   0.435   4.052  0.2180  0.1715 -0.2007
 8389SOL    HW136626   2.497   0.497   3.993 -1.5107  3.2612  1.8160
 8389SOL    HW236627   2.489   0.473   4.133 -0.7729  0.6183  0.0052
 8390SOL     OW36628   1.203   0.606   1.746 -0.0226  0.1483  0.3524
 8390SOL    HW136629   1.260   0.531   1.764  2.6733  1.6287 -1.9269
 8390SOL    HW236630   1.268   0.676   1.738 -0.6136  0.4084 -2.1722
 8391SOL     OW36631   1.292   2.684   4.233 -0.4268  0.2762  0.6847
 8391SOL    HW136632   1.198   2.691   4.220 -0.7791 -0.5606  2.7348
 8391SOL    HW236633   1.329   2.718   4.152  0.9556 -2.0096  0.3430
 8392SOL     OW36634   0.362   1.106   9.146 -0.0386 -0.5458  0.1852
 8392SOL    HW136635   0.343   1.064   9.230 -3.4622  1.9851  0.6585
 8392SOL    HW236636   0.379   1.198   9.167 -1.1274 -0.4380  0.5826
 8393SOL     OW36637   4.026   2.067   5.886  0.4875 -0.0490 -0.8696
 8393SOL    HW136638   3.995   2.097   5.801 -1.9767  2.9884  1.1223
 8393SOL    HW236639   4.030   2.142   5.945 -1.1253 -1.5323  1.1461
 8394SOL     OW36640   1.321   2.603   6.255 -0.0031 -0.2707 -0.2548
 8394SOL    HW136641   1.294   2.526   6.305 -1.5077 -0.6903 -1.7179
 8394SOL    HW236642   1.369   2.564   6.182 -0.8305 -0.6766 -0.5872
 8395SOL     OW36643   0.647   3.700  10.168 -0.5106  0.2086 -0.0036
 8395SOL    HW136644   0.743   3.691  10.169 -0.4825  0.4112 -1.3584
 8395SOL    HW236645   0.626   3.692  10.261 -0.1705  1.6660  0.1944
 8396SOL     OW36646   4.095   1.940   7.793  0.1346  0.0664  0.2814
 8396SOL    HW136647   4.021   1.881   7.782 -0.8623  1.4698 -0.5940
 8396SOL    HW236648   4.161   1.875   7.817  1.2586  1.7518  1.7967
 8397SOL     OW36649   4.239   3.066   0.172  0.1548  0.3266 -0.1029
 8397SOL    HW136650   4.185   2.990   0.149  2.8329 -2.0671  1.6402
 8397SOL    HW236651   4.285   3.033   0.249  1.8775 -1.7272 -2.0153
 8398SOL     OW36652   0.625   4.330   4.781  0.2643  0.0313 -0.6746
 8398SOL    HW136653   0.654   4.257   4.835 -1.6542  1.0857  1.7880
 8398SOL    HW236654   0.676   4.403   4.816  1.7780 -1.5020  0.3670
 8399SOL     OW36655   2.077   0.791  10.616  0.1050 -0.0735 -0.2035
 8399SOL    HW136656   2.097   0.758  10.528  0.3551 -0.9463  0.1770
 8399SOL    HW236657   2.003   0.736  10.642  0.0651  0.7433  1.3941
 8400SOL     OW36658   2.922   0.536   6.459 -0.4991  0.5496 -0.1764
 8400SOL    HW136659   2.947   0.443   6.462 -0.0598  0.7378  2.1580
 8400SOL    HW236660   2.990   0.577   6.406 -0.3781 -0.2750 -0.6727
 8401SOL     OW36661   4.556   3.143   3.842  0.4806  0.3639  0.2188
 8401SOL    HW136662   4.539   3.072   3.781  1.1244  0.1858  0.2479
 8401SOL    HW236663   4.650   3.151   3.822  0.5590 -0.5871  0.2150
 8402SOL     OW36664   1.849   0.193  17.072  0.4120 -0.1674  0.4306
 8402SOL    HW136665   1.786   0.246  17.024  1.1346  0.6483  0.3985
 8402SOL    HW236666   1.792   0.117  17.086  0.7010 -0.3756  0.4705
 8403SOL     OW36667   0.854   4.713  17.330  0.0894  0.2597 -0.2545
 8403SOL    HW136668   0.762   4.710  17.303  0.2007  0.2671 -0.6235
 8403SOL    HW236669   0.857   4.639  17.391 -1.2135  2.1272  2.1071
 8404SOL     OW36670   3.543   1.609  11.747 -0.0623  0.1864  0.1715
 8404SOL    HW136671   3.592   1.609  11.666  0.0848 -0.6577  0.2526
 8404SOL    HW236672   3.474   1.543  11.736 -0.3614  0.1710  2.1181
 8405SOL     OW36673   2.408   0.951   3.298 -0.9324  0.2002  0.1061
 8405SOL    HW136674   2.381   0.891   3.228 -0.6528 -0.1039  0.2616
 8405SOL    HW236675   2.328   0.978   3.343 -1.2822 -2.5784  1.1705
 8406SOL     OW36676   4.057   0.034   2.070 -0.5659 -0.0744  0.2307
 8406SOL    HW136677   4.044   0.124   2.039  0.7797  0.3253  0.8169
 8406SOL    HW236678   4.149   0.052   2.090  0.2056 -3.1214 -0.6227
 8407SOL     OW36679   4.386   0.539   1.141 -0.1728  0.0247 -0.1818
 8407SOL    HW136680   4.344   0.622   1.164  0.3494  0.1359  0.3617
 8407SOL    HW236681   4.392   0.554   1.046  1.6716  3.0245  0.4090
 8408SOL     OW36682   2.234   2.283  10.430 -0.1764  0.0467 -0.3951
 8408SOL    HW136683   2.152   2.325  10.405 -0.2475  0.3439  0.3462
 8408SOL    HW236684   2.203   2.202  10.471  0.7823 -0.7487 -1.2458
 8409SOL     OW36685   0.434   2.814   6.045  0.2975  0.1762 -0.2648
 8409SOL    HW136686   0.338   2.811   6.051  0.1991  2.2309 -0.8322
 8409SOL    HW236687   0.457   2.724   6.069 -1.2927 -0.1868 -0.0421
 8410SOL     OW36688   1.434   4.160  12.991  0.3712 -0.4409  0.0341
 8410SOL    HW136689   1.354   4.109  13.009 -0.0254  0.6865  1.4846
 8410SOL    HW236690   1.441   4.224  13.062  0.7634 -0.0519 -0.3583
 8411SOL     OW36691   4.265   3.210   8.752 -0.5593 -0.1462 -0.3169
 8411SOL    HW136692   4.177   3.235   8.724 -0.8490  1.5156  2.0849
 8411SOL    HW236693   4.311   3.172   8.677  0.1280 -2.8131  1.4529
 8412SOL     OW36694   0.988   4.082   3.885  0.1687 -0.4370  0.1977
 8412SOL    HW136695   1.080   4.066   3.907 -0.1976 -1.3371  1.0657
 8412SOL    HW236696   0.957   4.003   3.929 -1.5229  0.6334  0.9158
 8413SOL     OW36697   2.529   4.034  15.475 -0.0093 -0.4971 -0.2783
 8413SOL    HW136698   2.458   3.971  15.465 -0.0691 -0.4079 -0.4163
 8413SOL    HW236699   2.571   3.991  15.550  0.6277 -1.7088 -1.3413
 8414SOL     OW36700   4.302   3.615   9.237  0.0645 -0.0544  0.0232
 8414SOL    HW136701   4.257   3.601   9.321  1.0943 -0.9574  0.4253
 8414SOL    HW236702   4.274   3.705   9.223 -0.6858 -0.2454  0.2701
 8415SOL     OW36703   3.285   3.109   0.073 -0.3113 -0.2961 -0.4825
 8415SOL    HW136704   3.362   3.158   0.046 -1.9696  2.0352 -0.9879
 8415SOL    HW236705   3.255   3.061  17.682 -2.7189 -0.3203  0.4617
 8416SOL     OW36706   0.925   0.782  15.811 -0.6872 -0.0387  0.2844
 8416SOL    HW136707   1.000   0.815  15.861 -2.2361  1.7173  1.4252
 8416SOL    HW236708   0.871   0.859  15.828  2.8243  2.9267 -1.8510
 8417SOL     OW36709   2.954   0.179   4.904  0.6619 -0.2906 -0.5351
 8417SOL    HW136710   2.988   0.131   4.828  1.7394  0.2889 -0.4306
 8417SOL    HW236711   2.861   0.161   4.908  0.2300  1.5311 -2.1606
 8418SOL     OW36712   3.825   1.265  14.609  0.3652 -0.1232 -0.5827
 8418SOL    HW136713   3.899   1.242  14.553  0.6293 -2.4091  0.6939
 8418SOL    HW236714   3.763   1.200  14.576  3.8533 -2.1714 -3.1794
 8419SOL     OW36715   2.358   0.533   9.454  0.0839 -0.6690 -0.2300
 8419SOL    HW136716   2.416   0.472   9.408  1.1552  1.8234 -2.1942
 8419SOL    HW236717   2.308   0.470   9.506  1.3748 -0.4590  1.2635
 8420SOL     OW36718   4.498   4.487  12.277  0.4530 -0.4881 -0.0543
 8420SOL    HW136719   4.488   4.579  12.254  0.2684 -0.8741 -1.5154
 8420SOL    HW236720   4.440   4.478  12.352  0.3213 -1.5211 -0.2802
 8421SOL     OW36721   0.930   2.005   7.402 -0.0075 -0.2697 -0.2858
 8421SOL    HW136722   0.981   1.925   7.417 -0.4890 -0.4256  0.5215
 8421SOL    HW236723   0.874   2.003   7.480 -0.3039  1.3069 -0.4535
 8422SOL     OW36724   0.283   3.142  10.358  0.5608  0.3657  0.9393
 8422SOL    HW136725   0.203   3.158  10.306  0.4172 -1.8508  0.4832
 8422SOL    HW236726   0.356   3.183  10.312  0.3526  1.0603  1.2259
 8423SOL     OW36727   0.545   3.454   4.413  0.1931  0.5991 -0.3944
 8423SOL    HW136728   0.634   3.450   4.449  1.6720 -0.2269 -4.1630
 8423SOL    HW236729   0.526   3.363   4.391  0.4798  0.3415  0.4009
 8424SOL     OW36730   2.749   2.540   9.107 -0.2641 -0.5374 -0.4393
 8424SOL    HW136731   2.793   2.586   9.179  0.5687 -2.2436  0.1469
 8424SOL    HW236732   2.658   2.527   9.134 -0.7884  1.0109 -1.4223
 8425SOL     OW36733   4.690   3.161   6.032  0.0036 -0.2225  0.5003
 8425SOL    HW136734   4.664   3.129   5.946 -0.9972  2.7067 -0.3132
 8425SOL    HW236735   4.694   3.088   6.093  0.8725 -0.0805  0.6208
 8426SOL     OW36736   1.166   1.686  16.685  0.0209  0.0381  0.2058
 8426SOL    HW136737   1.084   1.732  16.700 -1.0468 -1.4826 -0.8331
 8426SOL    HW236738   1.158   1.650  16.596  3.7654  1.1380 -0.5995
 8427SOL     OW36739   2.396   4.248   9.131 -0.4704 -0.6572 -0.2365
 8427SOL    HW136740   2.372   4.232   9.040  0.5283 -3.9692  0.0938
 8427SOL    HW236741   2.378   4.342   9.138 -2.2831 -1.1330  1.4206
 8428SOL     OW36742   4.082   3.120   8.483  0.3191 -0.0714  0.0362
 8428SOL    HW136743   4.054   3.086   8.398 -0.8583  0.9615  0.0083
 8428SOL    HW236744   4.014   3.079   8.537 -1.2103 -0.0470 -1.8362
 8429SOL     OW36745   3.332   0.087  11.865 -0.1117  0.4473 -0.4182
 8429SOL    HW136746   3.285   0.021  11.814  0.8948 -0.7200  0.1912
 8429SOL    HW236747   3.382   0.122  11.791  0.2767 -0.2455 -0.4794
 8430SOL     OW36748   2.078   3.296   4.007  0.3456 -0.3756  0.5913
 8430SOL    HW136749   2.129   3.221   3.977  1.1323 -0.5488  2.3318
 8430SOL    HW236750   2.141   3.365   3.984 -3.8108  3.1769 -0.0238
 8431SOL     OW36751   1.426   4.527   4.698  0.0272  0.1256 -0.4007
 8431SOL    HW136752   1.498   4.560   4.752 -0.7269 -0.2272  0.8281
 8431SOL    HW236753   1.348   4.549   4.749 -0.0603 -2.1272  0.4440
 8432SOL     OW36754   0.570   0.454   5.970  0.3261  0.4088  0.0375
 8432SOL    HW136755   0.636   0.523   5.965 -1.2846  1.8768 -1.2957
 8432SOL    HW236756   0.549   0.464   5.877  0.2342  1.7034  0.1939
 8433SOL     OW36757   3.875   0.370  16.517  0.0965  0.1422  0.4424
 8433SOL    HW136758   3.922   0.362  16.434  0.0944  2.9448  0.1599
 8433SOL    HW236759   3.949   0.380  16.577  1.0286  1.5477 -0.9212
 8434SOL     OW36760   2.769   1.626   0.017 -0.1875 -0.2485 -0.2139
 8434SOL    HW136761   2.717   1.551  17.674 -2.4542  1.0731  0.3678
 8434SOL    HW236762   2.838   1.586   0.070  1.4565  0.1915 -2.0348
 8435SOL     OW36763   4.448   0.430  13.626  0.1351  0.3237  0.2765
 8435SOL    HW136764   4.375   0.489  13.607  0.4354  0.5557 -0.1546
 8435SOL    HW236765   4.475   0.417  13.535  2.7521 -0.5499  1.1716
 8436SOL     OW36766   0.422   3.286  11.746  0.1280 -0.1144  0.2956
 8436SOL    HW136767   0.405   3.301  11.839  0.4008 -0.2649  0.3698
 8436SOL    HW236768   0.490   3.349  11.721  0.2542 -0.1154  0.6427
 8437SOL     OW36769   2.217   3.128   5.324  0.6667  0.3299  0.0152
 8437SOL    HW136770   2.289   3.190   5.337  1.2024 -0.1245 -0.7685
 8437SOL    HW236771   2.257   3.049   5.361  1.4694  2.0840  2.8891
 8438SOL     OW36772   0.509   0.213  15.560 -0.2328 -0.0067 -0.4816
 8438SOL    HW136773   0.439   0.148  15.569  1.4209 -1.5782  0.9442
 8438SOL    HW236774   0.454   0.290  15.575 -0.5289 -0.7190  1.9675
 8439SOL     OW36775   3.854   1.883   2.014 -0.3915 -0.5243 -0.2040
 8439SOL    HW136776   3.823   1.808   2.065 -1.1916  0.7464  1.1798
 8439SOL    HW236777   3.813   1.879   1.928  0.3313  2.4813 -0.7067
 8440SOL     OW36778   0.831   1.252   5.349  0.2652  0.6580  0.3484
 8440SOL    HW136779   0.781   1.289   5.276 -0.7439 -0.6435  0.3954
 8440SOL    HW236780   0.832   1.158   5.332 -1.2307  0.3905  1.7604
 8441SOL     OW36781   0.663   0.165   9.218 -0.2506 -0.0134 -0.1923
 8441SOL    HW136782   0.622   0.218   9.287  0.0580  1.5828 -1.2520
 8441SOL    HW236783   0.601   0.092   9.209  1.8050 -1.8318  0.1557
 8442SOL     OW36784   2.191   1.519   3.448 -0.1435 -0.4046 -0.5525
 8442SOL    HW136785   2.184   1.613   3.433  0.9000 -0.0038  1.4422
 8442SOL    HW236786   2.234   1.523   3.534  0.2277 -0.1805 -0.7490
 8443SOL     OW36787   1.503   2.713   8.634 -0.5913  0.0204  0.5193
 8443SOL    HW136788   1.448   2.763   8.695 -2.4869 -0.6627 -0.6201
 8443SOL    HW236789   1.430   2.680   8.582 -0.5822  3.6604 -1.8259
 8444SOL     OW36790   2.044   4.575  14.634 -0.6258 -0.4128  0.1816
 8444SOL    HW136791   2.040   4.498  14.691  1.7072 -0.6492  0.0246
 8444SOL    HW236792   1.953   4.602  14.621 -0.7457 -1.1544 -0.4629
 8445SOL     OW36793   3.050   2.298  11.971 -0.0290  0.8191  0.0174
 8445SOL    HW136794   3.097   2.218  11.992 -1.9536 -0.5629 -0.9763
 8445SOL    HW236795   3.119   2.361  11.993  0.0006  0.1254  1.8905
 8446SOL     OW36796   2.383   3.941   5.644  0.0709 -0.3832 -0.7037
 8446SOL    HW136797   2.427   3.987   5.715  1.1711  1.4949 -2.6038
 8446SOL    HW236798   2.419   3.853   5.657  0.1232 -0.9365 -4.5314
 8447SOL     OW36799   3.883   4.703  15.357 -0.0210  0.3656 -0.1986
 8447SOL    HW136800   3.793   4.716  15.384 -0.1604 -0.3156 -0.3252
 8447SOL    HW236801   3.942   0.000  15.431  1.7959  1.8316 -2.0011
 8448SOL     OW36802   1.085   4.328   4.020  0.3875  0.6251  0.2839
 8448SOL    HW136803   1.041   4.250   3.986  3.2402 -0.7475 -0.2571
 8448SOL    HW236804   1.082   4.309   4.114 -0.6871  0.6361  0.2561
 8449SOL     OW36805   1.757   4.071   6.027 -0.1657 -0.2785  0.0178
 8449SOL    HW136806   1.685   4.052   6.087 -0.5933  3.4468  0.7364
 8449SOL    HW236807   1.824   4.097   6.091 -0.8868  1.0714  0.2374
 8450SOL     OW36808   0.563   2.566   5.447  0.0918  0.5462 -0.3504
 8450SOL    HW136809   0.539   2.560   5.355 -0.5657 -0.6874 -0.0952
 8450SOL    HW236810   0.566   2.662   5.453  1.6679  0.4124  0.9561
 8451SOL     OW36811   2.664   0.305   6.464 -0.0074  0.0083 -0.3591
 8451SOL    HW136812   2.759   0.311   6.476  0.2696 -0.1899 -2.3351
 8451SOL    HW236813   2.628   0.314   6.552  2.3315 -1.5962  0.7758
 8452SOL     OW36814   1.021   3.854   3.151 -0.6599  0.0393  0.2044
 8452SOL    HW136815   1.029   3.759   3.143  0.0436  0.0566  0.6370
 8452SOL    HW236816   0.926   3.865   3.149 -0.4745  1.3707 -0.5129
 8453SOL     OW36817   3.526   1.525   5.310  0.2742  0.5122 -0.4518
 8453SOL    HW136818   3.512   1.464   5.237  0.4324 -0.3862  0.2744
 8453SOL    HW236819   3.590   1.587   5.274  0.2419 -0.7163 -2.6306
 8454SOL     OW36820   2.050   2.489   1.149  0.3119 -0.1497 -0.3041
 8454SOL    HW136821   2.006   2.438   1.081  0.1718 -1.1492  0.5530
 8454SOL    HW236822   1.998   2.570   1.145 -0.3424 -0.6123 -0.9831
 8455SOL     OW36823   0.880   3.803   5.972 -0.2484 -0.5013  0.6617
 8455SOL    HW136824   0.877   3.710   5.998  0.5568 -0.3168  1.4218
 8455SOL    HW236825   0.971   3.818   5.944 -0.6450  3.0652  1.3772
 8456SOL     OW36826   1.555   3.528  14.095 -0.9092  0.1798 -0.1342
 8456SOL    HW136827   1.646   3.537  14.123 -0.4592  0.5814 -1.7299
 8456SOL    HW236828   1.541   3.434  14.107 -3.0408  0.4687 -0.4271
 8457SOL     OW36829   1.983   3.655  15.375 -0.0523 -0.3258 -0.0623
 8457SOL    HW136830   1.930   3.650  15.296  0.6870  3.8443 -0.8302
 8457SOL    HW236831   2.061   3.602  15.361  2.3713  3.0401  0.6456
 8458SOL     OW36832   3.437   2.301  17.246  0.3627 -0.5903  0.4085
 8458SOL    HW136833   3.435   2.362  17.320 -1.4860 -1.7561  1.3165
 8458SOL    HW236834   3.418   2.361  17.175  1.4194 -0.9331 -0.1533
 8459SOL     OW36835   1.686   0.246   7.909 -0.2641  0.1219  0.0662
 8459SOL    HW136836   1.593   0.257   7.931  0.9670  2.1321  4.2921
 8459SOL    HW236837   1.701   0.175   7.971  1.9539  0.9896  0.5401
 8460SOL     OW36838   1.310   2.246  10.421  0.0059  0.2229  0.3181
 8460SOL    HW136839   1.298   2.151  10.420  3.4026 -0.1841 -0.7709
 8460SOL    HW236840   1.248   2.277  10.355  0.6919  2.1125  0.5490
 8461SOL     OW36841   0.879   4.261   2.936 -0.3920  0.7286 -0.2104
 8461SOL    HW136842   0.791   4.229   2.958 -0.0207 -0.6006 -0.6517
 8461SOL    HW236843   0.942   4.215   2.990  0.8549  1.6602 -0.8771
 8462SOL     OW36844   3.936   4.420   2.118  0.0153  0.6152  0.3511
 8462SOL    HW136845   3.841   4.408   2.119  0.0892  0.0996  0.8471
 8462SOL    HW236846   3.943   4.502   2.168  2.0385 -1.4919  3.4760
 8463SOL     OW36847   2.300   3.500   6.485 -0.2654 -0.2336 -0.2437
 8463SOL    HW136848   2.212   3.478   6.514  0.0622  0.0223  0.9238
 8463SOL    HW236849   2.278   3.574   6.429  1.8699  0.1134 -0.6350
 8464SOL     OW36850   4.429   1.716   8.301 -0.0972  0.3542 -0.1552
 8464SOL    HW136851   4.426   1.661   8.223  1.9211 -0.0442  0.0592
 8464SOL    HW236852   4.364   1.675   8.357  0.8716 -0.3812  0.4120
 8465SOL     OW36853   1.819   3.224   4.516 -0.1505  0.4835  0.1397
 8465SOL    HW136854   1.860   3.145   4.479 -1.2749 -0.6323  1.2526
 8465SOL    HW236855   1.865   3.221   4.600 -2.4660  0.5017  1.3994
 8466SOL     OW36856   3.922   1.601   6.063  0.2336  0.2572 -0.2217
 8466SOL    HW136857   3.896   1.562   5.980  2.7358 -0.2746 -0.7628
 8466SOL    HW236858   3.839   1.627   6.102  0.7833  1.0237  0.4549
 8467SOL     OW36859   3.111   0.522   5.844 -0.3171  0.4073 -0.1911
 8467SOL    HW136860   3.025   0.513   5.804 -0.6598 -0.3949  0.7241
 8467SOL    HW236861   3.087   0.499   5.934  2.5587 -1.5871  0.0839
 8468SOL     OW36862   3.999   4.442   1.077  0.3700 -0.4779 -0.1501
 8468SOL    HW136863   3.975   4.532   1.056 -0.5104 -0.5560  0.5140
 8468SOL    HW236864   4.093   4.462   1.081  0.4151 -0.9282  0.9850
 8469SOL     OW36865   3.312   1.838  16.995  0.6630  0.2415  0.4529
 8469SOL    HW136866   3.281   1.759  17.038 -1.5109  1.2857  0.7900
 8469SOL    HW236867   3.227   1.871  16.967  0.9870  0.3884 -0.3409
 8470SOL     OW36868   3.550   0.896  15.910  0.2490 -0.2462  0.0236
 8470SOL    HW136869   3.469   0.894  15.859 -0.3017  1.6785  0.8141
 8470SOL    HW236870   3.576   0.986  15.888 -0.5431  0.1321  0.6310
 8471SOL     OW36871   4.150   3.611  17.044 -0.0857 -0.1590  0.6700
 8471SOL    HW136872   4.202   3.566  16.978 -0.5962  1.6283 -0.9527
 8471SOL    HW236873   4.215   3.663  17.093  0.4370  1.7922 -2.1014
 8472SOL     OW36874   1.781   1.624   9.186  0.5405  0.1830  0.9509
 8472SOL    HW136875   1.722   1.678   9.239  1.3314  0.9755  1.0147
 8472SOL    HW236876   1.721   1.583   9.124  1.2508  2.4705 -1.2467
 8473SOL     OW36877   4.302   2.321   2.779 -0.9393  0.0283 -0.5214
 8473SOL    HW136878   4.393   2.315   2.750 -0.8499  0.0131 -0.2343
 8473SOL    HW236879   4.271   2.234   2.753 -0.1061 -0.8163  1.3589
 8474SOL     OW36880   0.832   1.294   7.253 -0.5775  0.3520 -0.4016
 8474SOL    HW136881   0.844   1.284   7.158 -0.1330  2.5305 -0.5716
 8474SOL    HW236882   0.776   1.218   7.272 -0.8462  0.1819 -1.8776
 8475SOL     OW36883   0.802   2.430   3.113  0.3880 -0.0747  0.3171
 8475SOL    HW136884   0.771   2.517   3.139  3.2583  1.1173 -0.2714
 8475SOL    HW236885   0.726   2.408   3.059  0.0432 -0.0892  0.8113
 8476SOL     OW36886   3.141   4.394   3.125 -0.1771 -0.0502 -0.1862
 8476SOL    HW136887   3.199   4.417   3.198  0.0133  0.5184 -0.5196
 8476SOL    HW236888   3.207   4.365   3.063 -1.2842 -2.2447 -0.3458
 8477SOL     OW36889   3.359   4.568   4.633  0.0317 -0.4701 -0.5341
 8477SOL    HW136890   3.438   4.621   4.623 -0.3348  0.4090  1.1150
 8477SOL    HW236891   3.394   4.493   4.682  2.0379 -0.4311 -1.9089
 8478SOL     OW36892   2.401   3.064   4.770  0.0756  0.3219  0.5824
 8478SOL    HW136893   2.328   3.075   4.831  0.8497  0.6199  1.4504
 8478SOL    HW236894   2.365   3.118   4.700 -0.1337  0.5001  0.8249
 8479SOL     OW36895   4.189   1.850   2.807 -0.0908 -0.4914  0.7174
 8479SOL    HW136896   4.105   1.896   2.800  0.1818 -0.1333 -0.1941
 8479SOL    HW236897   4.246   1.901   2.749 -1.4822  0.5114  0.2247
 8480SOL     OW36898   3.821   4.231   3.691  0.0786 -0.2039  1.0881
 8480SOL    HW136899   3.811   4.211   3.598 -0.5698 -1.6129  1.4517
 8480SOL    HW236900   3.735   4.268   3.707 -0.8118 -2.3285  1.2012
 8481SOL     OW36901   0.010   0.790   8.376  0.4403  0.6910  0.2001
 8481SOL    HW136902   4.650   0.829   8.344 -1.1085 -0.8877  2.2548
 8481SOL    HW236903   4.697   0.739   8.449  0.6389  1.1579  0.6281
 8482SOL     OW36904   2.386   0.692   7.938  0.3683  0.6658  0.0630
 8482SOL    HW136905   2.394   0.760   8.005  1.0134 -0.5776  1.2600
 8482SOL    HW236906   2.316   0.632   7.964  1.0201  0.0555  0.4306
 8483SOL     OW36907   4.437   3.894   8.828  0.4475 -0.3586 -0.1671
 8483SOL    HW136908   4.470   3.904   8.917  0.7996  0.1006 -0.3522
 8483SOL    HW236909   4.432   3.798   8.829  2.3454 -0.4543 -0.8897
 8484SOL     OW36910   4.474   3.932  15.542  0.2141 -0.1306 -0.3329
 8484SOL    HW136911   4.395   3.986  15.536 -0.6723 -1.4981 -1.0564
 8484SOL    HW236912   4.458   3.893  15.628 -0.8786 -1.9529 -1.3548
 8485SOL     OW36913   4.381   3.173  14.175  0.5118  0.4077 -0.1322
 8485SOL    HW136914   4.466   3.162  14.217  0.4779  1.6765  0.2605
 8485SOL    HW236915   4.382   3.268  14.162  1.4802  0.6095  1.4564
 8486SOL     OW36916   0.603   4.646   3.252  0.1715  0.5807  0.8479
 8486SOL    HW136917   0.672   4.706   3.281  2.8685 -2.1390  0.0583
 8486SOL    HW236918   0.620   4.579   3.319 -0.4632  0.0697  0.4910
 8487SOL     OW36919   2.349   0.463   6.108  0.0950 -0.3546 -0.2980
 8487SOL    HW136920   2.371   0.538   6.164 -0.1836 -1.0023  0.6634
 8487SOL    HW236921   2.264   0.497   6.079 -0.3786 -2.5986 -1.5559
 8488SOL     OW36922   3.686   1.690   5.184  0.4415  0.6552 -0.4431
 8488SOL    HW136923   3.768   1.682   5.135  0.1549 -0.4448 -0.7524
 8488SOL    HW236924   3.634   1.720   5.110 -1.0369  2.4078  1.3177
 8489SOL     OW36925   1.879   2.796   8.897  0.1950 -0.7780 -0.7127
 8489SOL    HW136926   1.841   2.838   8.974 -1.8726 -1.2501 -1.4731
 8489SOL    HW236927   1.818   2.826   8.830 -1.3696 -0.4892  0.8279
 8490SOL     OW36928   1.515   1.956   4.319  0.0109 -0.0088  0.2281
 8490SOL    HW136929   1.502   2.018   4.248  0.0171  0.5391  0.7085
 8490SOL    HW236930   1.432   1.969   4.365  0.7174  1.2654  1.1486
 8491SOL     OW36931   4.053   2.197   4.522 -0.9798 -0.1873  0.6869
 8491SOL    HW136932   4.084   2.268   4.465 -1.3101 -0.6665 -0.0834
 8491SOL    HW236933   4.132   2.177   4.572 -1.5095 -0.7049  1.3139
 8492SOL     OW36934   0.738   0.559   7.887 -0.0115 -0.1691 -0.1129
 8492SOL    HW136935   0.832   0.579   7.891 -0.8659  3.5254  1.8138
 8492SOL    HW236936   0.718   0.548   7.794  0.2045 -2.5418  0.1226
 8493SOL     OW36937   2.624   2.546   3.703  0.0267 -0.4609  0.0091
 8493SOL    HW136938   2.652   2.603   3.776 -0.7201  1.0898 -0.9313
 8493SOL    HW236939   2.638   2.456   3.735 -1.5281  0.6232  3.7870
 8494SOL     OW36940   4.222   1.419   9.490  0.3614 -0.7025  0.2867
 8494SOL    HW136941   4.262   1.487   9.436  0.5027 -0.9129  0.1264
 8494SOL    HW236942   4.300   1.368   9.509  0.7288  0.5877  2.1971
 8495SOL     OW36943   3.041   0.728  12.673  0.2148 -0.2885  0.4401
 8495SOL    HW136944   2.945   0.730  12.670  0.2062 -3.8463 -0.5427
 8495SOL    HW236945   3.059   0.798  12.610  1.8677 -0.2230  0.9816
 8496SOL     OW36946   4.660   3.911   4.350 -0.9655 -0.4179  0.1481
 8496SOL    HW136947   4.592   3.936   4.287 -0.5960 -1.5043 -0.6708
 8496SOL    HW236948   4.683   3.991   4.397 -0.0358 -0.7072  0.1731
 8497SOL     OW36949   4.067   3.744  15.967  0.0807 -0.0563  0.1274
 8497SOL    HW136950   4.121   3.665  15.961 -1.0369 -0.6290 -2.3938
 8497SOL    HW236951   4.119   3.794  16.029  1.8038 -2.8346  0.9315
 8498SOL     OW36952   1.536   2.851  10.722 -0.0604 -0.0287  0.7549
 8498SOL    HW136953   1.492   2.820  10.801 -4.1410 -0.0857 -1.5348
 8498SOL    HW236954   1.589   2.919  10.763 -1.0350  2.4579 -2.0783
 8499SOL     OW36955   2.283   2.671   6.044  0.3798 -0.7984 -0.0702
 8499SOL    HW136956   2.336   2.750   6.046 -1.4189  0.4031 -0.8186
 8499SOL    HW236957   2.214   2.710   5.991 -0.1533 -1.4131  0.1626
 8500SOL     OW36958   0.047   1.197   5.369  0.4883  0.2857 -0.5712
 8500SOL    HW136959   0.127   1.146   5.358  0.9335  1.0106 -0.7110
 8500SOL    HW236960   0.075   1.238   5.451 -2.2421  0.0198  0.4761
 8501SOL     OW36961   2.920   4.455   3.994  0.5204  0.5487 -0.3527
 8501SOL    HW136962   2.939   4.486   3.906  0.6043  1.7797  0.0932
 8501SOL    HW236963   2.983   4.500   4.051 -0.0469  2.5519 -1.3189
 8502SOL     OW36964   4.657   0.832  15.328 -0.1777  0.1640  0.2693
 8502SOL    HW136965   4.714   0.888  15.381  1.1355  1.0136 -2.0610
 8502SOL    HW236966   4.670   0.863  15.239 -1.0045  1.7161  0.6779
 8503SOL     OW36967   4.344   0.760  12.930  0.3603  0.0560 -0.1384
 8503SOL    HW136968   4.429   0.760  12.975  0.4431  0.6073 -0.2935
 8503SOL    HW236969   4.330   0.667  12.945  3.2428 -0.3107  0.3618
 8504SOL     OW36970   3.573   2.293  15.628 -0.3784 -0.0237 -0.4515
 8504SOL    HW136971   3.523   2.350  15.687  0.1297 -1.2631  1.1856
 8504SOL    HW236972   3.604   2.356  15.563  0.7262  0.2812  0.3786
 8505SOL     OW36973   1.432   2.649   5.801  0.4885 -0.3299  0.0687
 8505SOL    HW136974   1.432   2.682   5.891 -0.6199 -1.5344  0.5124
 8505SOL    HW236975   1.423   2.554   5.811  0.5147 -0.5940 -2.4456
 8506SOL     OW36976   4.152   0.538  11.079 -0.2584 -0.2136  0.2139
 8506SOL    HW136977   4.230   0.550  11.134 -1.9514  0.4758  2.4549
 8506SOL    HW236978   4.175   0.598  11.009 -1.8872  0.6095  0.3878
 8507SOL     OW36979   0.602   0.061  17.208 -0.0412  0.2673 -0.3905
 8507SOL    HW136980   0.618   0.143  17.161  2.3865 -0.1568 -0.3120
 8507SOL    HW236981   0.538   0.007  17.161  0.5739 -1.5861  0.9154
 8508SOL     OW36982   1.754   3.406   8.812  0.8503  0.2745 -0.0442
 8508SOL    HW136983   1.682   3.418   8.750  0.9993  1.0712 -0.0712
 8508SOL    HW236984   1.803   3.336   8.769 -2.5485 -2.9953  1.4859
 8509SOL     OW36985   3.325   0.178   4.959 -0.1576  0.2549  0.2000
 8509SOL    HW136986   3.276   0.162   4.878  0.0137  0.3924  0.0692
 8509SOL    HW236987   3.282   0.126   5.027 -0.3938 -1.1147 -0.9798
 8510SOL     OW36988   1.387   2.296   7.314 -0.2934 -0.2513  0.1882
 8510SOL    HW136989   1.332   2.229   7.354 -0.3639  0.0448  0.5761
 8510SOL    HW236990   1.406   2.350   7.390  0.5428  0.9594 -0.8699
 8511SOL     OW36991   0.131   3.914  15.183  0.0899 -0.1108  0.1734
 8511SOL    HW136992   0.131   4.009  15.197 -0.1001 -0.0649 -0.1499
 8511SOL    HW236993   0.047   3.894  15.142 -0.1691 -0.2622  0.7797
 8512SOL     OW36994   0.233   2.709  17.402 -0.0393 -0.2323  0.2578
 8512SOL    HW136995   0.275   2.729  17.486  0.0799 -0.7708  0.3210
 8512SOL    HW236996   0.247   2.615  17.392  1.9253  0.0012  0.8286
 8513SOL     OW36997   3.630   2.530  15.815 -0.1534 -0.0697 -0.8977
 8513SOL    HW136998   3.702   2.473  15.841 -0.7167  0.2620  1.3991
 8513SOL    HW236999   3.686   2.604  15.839 -0.1101 -0.5900  0.5954
 8514SOL     OW37000   2.584   2.917  11.134 -0.0310  0.5195 -0.0435
 8514SOL    HW137001   2.576   3.008  11.105  0.9169  0.5865 -0.0850
 8514SOL    HW237002   2.610   2.925  11.226  0.5878 -2.5504  0.0502
 8515SOL     OW37003   4.242   3.061   3.270 -0.3066 -0.6487 -0.0234
 8515SOL    HW137004   4.155   3.021   3.275 -0.1172 -0.7455  2.5395
 8515SOL    HW237005   4.275   3.020   3.350 -1.1256  0.9513  1.1407
 8516SOL     OW37006   4.493   2.994  16.486 -0.2897 -0.0045 -0.4461
 8516SOL    HW137007   4.546   3.069  16.513 -0.9353  0.0324  0.6919
 8516SOL    HW237008   4.551   2.949  16.424 -0.5237 -0.4696 -0.3227
 8517SOL     OW37009   1.950   2.826  11.895  0.5814 -0.6343 -0.0352
 8517SOL    HW137010   1.919   2.841  11.806  0.3784 -0.0430  0.1330
 8517SOL    HW237011   1.955   2.914  11.932 -0.0593 -0.8629  0.6045
 8518SOL     OW37012   3.711   4.360   6.929 -0.2850 -0.2190  0.4648
 8518SOL    HW137013   3.678   4.303   6.999 -0.1820  0.3989  1.0233
 8518SOL    HW237014   3.764   4.419   6.983 -1.9977  0.7957  1.0429
 8519SOL     OW37015   4.181   2.103   9.754 -0.4703 -0.2032 -0.3616
 8519SOL    HW137016   4.161   2.101   9.847  2.5002 -0.6051  0.2371
 8519SOL    HW237017   4.243   2.030   9.755  0.1162  0.3115  0.0889
 8520SOL     OW37018   4.145   3.248   7.116  0.0404  0.2763 -0.2586
 8520SOL    HW137019   4.112   3.297   7.041  1.3183 -0.0766 -1.0512
 8520SOL    HW237020   4.110   3.307   7.183  0.1069  0.8933 -0.7698
 8521SOL     OW37021   4.354   2.810   7.382 -0.0632  0.0765 -0.4083
 8521SOL    HW137022   4.442   2.800   7.419  0.3210  2.2312 -0.7396
 8521SOL    HW237023   4.355   2.906   7.376 -0.4177  0.0389 -1.0254
 8522SOL     OW37024   0.213   3.652   7.916 -0.0370 -0.7382 -0.3058
 8522SOL    HW137025   0.143   3.595   7.885 -1.0963  0.8868 -0.8973
 8522SOL    HW237026   0.184   3.736   7.879 -0.6773 -0.3612  1.0684
 8523SOL     OW37027   0.252   4.189   6.778  0.1981 -0.1812  0.2461
 8523SOL    HW137028   0.339   4.165   6.746 -0.0171 -0.5882 -0.0343
 8523SOL    HW237029   0.239   4.132   6.854 -1.9929 -0.2751 -0.1853
 8524SOL     OW37030   1.800   3.780  16.780 -0.2523  0.0389  0.0408
 8524SOL    HW137031   1.837   3.865  16.806  0.2178  0.1861 -1.0978
 8524SOL    HW237032   1.749   3.807  16.704  2.1491 -0.5238 -1.7705
 8525SOL     OW37033   2.612   3.657  16.368 -0.1516  0.4498 -0.0927
 8525SOL    HW137034   2.698   3.628  16.398 -1.1015 -1.9156  0.2646
 8525SOL    HW237035   2.614   3.748  16.399 -0.3886 -0.1884  1.7671
 8526SOL     OW37036   1.574   1.127  10.907 -0.5767 -0.6048  0.5013
 8526SOL    HW137037   1.632   1.162  10.840 -1.2354 -1.1235 -0.3490
 8526SOL    HW237038   1.517   1.202  10.924 -0.7814 -1.4534  3.6034
 8527SOL     OW37039   0.798   2.670  13.910  0.0396 -0.1014  0.4302
 8527SOL    HW137040   0.802   2.580  13.942  0.2543 -0.2195  0.0769
 8527SOL    HW237041   0.809   2.716  13.993  0.2375 -0.1873  0.4515
 8528SOL     OW37042   1.046   0.113  11.594 -0.0386 -0.1786  0.3574
 8528SOL    HW137043   0.984   0.046  11.622  0.7425 -0.4487  1.4141
 8528SOL    HW237044   0.999   0.165  11.528  0.6690  1.3497  1.0809
 8529SOL     OW37045   2.412   3.135   7.387  0.2313 -0.7235  0.3435
 8529SOL    HW137046   2.363   3.116   7.467  0.0947 -3.6092 -0.4454
 8529SOL    HW237047   2.505   3.128   7.411  0.2559 -0.1339  0.4240
 8530SOL     OW37048   4.358   1.528   8.118  0.1347  0.1707 -0.1070
 8530SOL    HW137049   4.273   1.502   8.084  1.5228 -0.8722 -2.7792
 8530SOL    HW237050   4.363   1.478   8.200 -0.4985  0.1929 -0.0534
 8531SOL     OW37051   3.471   1.598  13.602 -0.0520 -0.0954  0.5972
 8531SOL    HW137052   3.462   1.674  13.544 -0.4357 -0.9911 -0.5251
 8531SOL    HW237053   3.392   1.594  13.656 -0.0625 -0.5359  0.5470
 8532SOL     OW37054   1.770   2.821   6.390  0.2786  0.0902  0.0580
 8532SOL    HW137055   1.820   2.740   6.377 -0.9698 -0.7796  0.6632
 8532SOL    HW237056   1.829   2.857   6.456  0.4625 -1.1469  0.5808
 8533SOL     OW37057   4.032   0.296   1.905 -0.4379 -0.3156  0.5300
 8533SOL    HW137058   4.019   0.242   1.827 -1.0907 -0.0614  0.4579
 8533SOL    HW237059   3.944   0.329   1.925 -1.2942 -3.1703  1.5347
 8534SOL     OW37060   0.551   2.949   1.245 -0.9338 -0.1643 -0.2938
 8534SOL    HW137061   0.592   2.948   1.159 -0.1237 -2.7998  0.1473
 8534SOL    HW237062   0.467   2.907   1.229 -0.5595 -0.3349 -1.7805
 8535SOL     OW37063   1.096   2.763   6.266 -0.8244  0.2766  0.2068
 8535SOL    HW137064   1.177   2.712   6.265 -2.9883 -3.1817  1.3492
 8535SOL    HW237065   1.039   2.724   6.333 -1.3608  2.4495  1.0209
 8536SOL     OW37066   3.359   3.479   1.502 -0.2998 -0.0121  0.2067
 8536SOL    HW137067   3.335   3.387   1.505 -2.4424  0.5235 -0.7955
 8536SOL    HW237068   3.274   3.519   1.519 -0.2399 -0.3630  1.3235
 8537SOL     OW37069   2.928   0.592   5.157 -0.0304  0.1763  0.3917
 8537SOL    HW137070   2.983   0.517   5.181  1.1959  0.9974  0.1611
 8537SOL    HW237071   2.850   0.580   5.211  0.0771  1.5429  0.8364
 8538SOL     OW37072   1.617   2.937   6.206 -0.4011 -0.2088 -0.4839
 8538SOL    HW137073   1.656   2.884   6.276 -0.1215  1.3297  0.5242
 8538SOL    HW237074   1.622   3.030   6.225 -3.1311  0.0930 -1.2050
 8539SOL     OW37075   3.986   2.637   9.694  0.4873  0.6970 -0.3510
 8539SOL    HW137076   3.996   2.732   9.709 -0.2080  0.6872  0.1629
 8539SOL    HW237077   3.893   2.617   9.686  0.9006 -1.7697  1.0360
 8540SOL     OW37078   1.196   1.266  15.353  0.1504  0.2996  0.5280
 8540SOL    HW137079   1.254   1.338  15.377  0.6729 -1.0785  3.3684
 8540SOL    HW237080   1.112   1.311  15.360  0.1224  0.6749 -2.2124
 8541SOL     OW37081   3.166   0.571   2.784  0.0424  0.5209  0.7843
 8541SOL    HW137082   3.116   0.627   2.725 -0.1082 -0.2482  0.1737
 8541SOL    HW237083   3.130   0.483   2.769  0.7059  0.5905 -1.1866
 8542SOL     OW37084   4.175   1.046  12.338  0.0998 -0.3468 -0.0845
 8542SOL    HW137085   4.247   1.075  12.282 -0.1222  1.0144  0.3355
 8542SOL    HW237086   4.197   1.096  12.416 -1.5712  0.9693 -0.4372
 8543SOL     OW37087   0.392   0.845   8.504 -0.1040  0.3775  0.3294
 8543SOL    HW137088   0.320   0.794   8.543 -0.8648  1.6737  0.6088
 8543SOL    HW237089   0.442   0.853   8.585  0.7129 -0.3291 -0.0981
 8544SOL     OW37090   1.201   0.132   1.975 -0.2093  0.2863  0.2537
 8544SOL    HW137091   1.276   0.073   1.967 -0.8081 -0.4964  0.4472
 8544SOL    HW237092   1.218   0.176   2.058  0.5100  0.0709  0.2201
 8545SOL     OW37093   0.588   1.969   2.511 -0.3053  0.0955 -0.5871
 8545SOL    HW137094   0.609   2.039   2.448 -0.3414  1.6212  1.0969
 8545SOL    HW237095   0.641   1.993   2.587  0.2419  0.1803 -0.9910
 8546SOL     OW37096   4.293   2.034  15.321  0.3397  0.8229 -0.4476
 8546SOL    HW137097   4.360   1.969  15.301 -0.5476 -0.8235  2.0055
 8546SOL    HW237098   4.242   1.983  15.384  1.3883 -0.9349 -1.0183
 8547SOL     OW37099   2.545   0.338   1.788 -0.1315 -0.1273  0.0184
 8547SOL    HW137100   2.581   0.344   1.876  0.8609  0.7227 -0.4333
 8547SOL    HW237101   2.573   0.425   1.758  1.0416 -0.7800 -0.7781
 8548SOL     OW37102   1.222   1.048   3.887  0.4524 -0.0446 -0.1387
 8548SOL    HW137103   1.169   0.989   3.940 -0.8385  0.9917 -0.2578
 8548SOL    HW237104   1.307   1.004   3.883 -0.8154 -2.5225 -0.0251
 8549SOL     OW37105   4.651   1.938   9.303  0.2470 -0.5783  0.3106
 8549SOL    HW137106   4.721   1.893   9.255 -1.1763 -3.1057  0.6105
 8549SOL    HW237107   4.716   1.970   9.366 -1.1142  1.4231  0.6717
 8550SOL     OW37108   3.343   1.713   6.359  0.0016 -0.0979  0.1821
 8550SOL    HW137109   3.283   1.701   6.285 -1.6464  1.1369  1.3191
 8550SOL    HW237110   3.378   1.800   6.342 -2.1944  1.0837  1.8232
 8551SOL     OW37111   0.620   2.737   3.154  0.6538 -0.1013 -0.0362
 8551SOL    HW137112   0.710   2.750   3.183  1.3447 -0.5110 -2.0202
 8551SOL    HW237113   0.584   2.824   3.169  1.7663  0.4683 -0.6904
 8552SOL     OW37114   1.625   3.019   4.949 -0.0491 -0.2403  0.0154
 8552SOL    HW137115   1.678   2.940   4.946  0.4208  0.2065 -3.4665
 8552SOL    HW237116   1.693   3.080   4.919  1.0189 -1.0989  0.7006
 8553SOL     OW37117   3.592   2.860   9.450 -0.3172 -0.2803 -0.8888
 8553SOL    HW137118   3.562   2.950   9.441 -0.4982 -0.2752 -0.2718
 8553SOL    HW237119   3.638   2.858   9.534  0.6454  2.2011 -1.3798
 8554SOL     OW37120   1.687   0.214   5.410  0.7595  0.2335  0.1242
 8554SOL    HW137121   1.620   0.219   5.342  2.1504 -1.0728 -1.3593
 8554SOL    HW237122   1.730   0.295   5.382  2.1320 -0.2437  0.8019
 8555SOL     OW37123   4.469   2.823   4.500  0.5045 -0.7872  0.4467
 8555SOL    HW137124   4.457   2.916   4.521 -0.3411 -0.8014  0.0112
 8555SOL    HW237125   4.564   2.826   4.487  0.4166  2.5004  0.4977
 8556SOL     OW37126   2.945   4.525  13.607 -0.1341 -0.3941  0.1355
 8556SOL    HW137127   2.925   4.489  13.521  1.5478  0.3292 -0.5800
 8556SOL    HW237128   2.887   4.478  13.666  1.0785 -0.1688  1.5169
 8557SOL     OW37129   2.449   1.945  16.220  0.6230  0.6634  0.4673
 8557SOL    HW137130   2.521   1.972  16.163  1.0284  0.8561  1.0826
 8557SOL    HW237131   2.494   1.876  16.268  1.2876 -0.4288 -1.7013
 8558SOL     OW37132   2.934   0.378  15.298  0.1205  0.0420 -0.0072
 8558SOL    HW137133   2.930   0.415  15.386 -0.8141 -1.6824  0.6863
 8558SOL    HW237134   2.986   0.445  15.254 -3.3086  1.4547 -1.9390
 8559SOL     OW37135   4.236   0.383   2.072  0.3069 -0.5707  0.2807
 8559SOL    HW137136   4.162   0.359   2.015 -1.6563 -0.9362  2.9781
 8559SOL    HW237137   4.180   0.434   2.131 -0.3096 -0.9375  0.0155
 8560SOL     OW37138   4.710   2.982   8.897 -0.3748 -0.0611  1.0206
 8560SOL    HW137139   0.014   3.042   8.967 -2.8566  2.5584 -0.3228
 8560SOL    HW237140   4.617   2.993   8.874  0.1074  1.7695 -0.0076
 8561SOL     OW37141   4.419   4.004   4.562  0.4208 -0.0678 -0.1263
 8561SOL    HW137142   4.327   3.985   4.584  0.6532 -0.3083  0.6340
 8561SOL    HW237143   4.408   4.024   4.469 -0.3987 -1.2778 -0.2947
 8562SOL     OW37144   1.436   1.759   0.844  0.3154  0.0279  0.3764
 8562SOL    HW137145   1.462   1.848   0.870 -0.1495  0.2011  0.2484
 8562SOL    HW237146   1.519   1.714   0.856  0.6239  0.5745  0.3046
 8563SOL     OW37147   2.943   1.605   4.393 -0.3224 -0.0599  0.0332
 8563SOL    HW137148   2.857   1.636   4.423  0.5824  4.6975 -2.2526
 8563SOL    HW237149   2.984   1.690   4.378 -1.5614 -0.0576 -3.4242
 8564SOL     OW37150   4.588   0.254   5.086 -0.4906 -0.4966  0.2572
 8564SOL    HW137151   4.602   0.161   5.104 -1.0270 -1.2021 -2.9432
 8564SOL    HW237152   4.677   0.284   5.066 -0.3102 -0.6313  0.8756
 8565SOL     OW37153   3.125   3.246   9.198 -0.0723 -0.5107  0.1454
 8565SOL    HW137154   3.033   3.265   9.183  0.2896  0.9463 -0.2240
 8565SOL    HW237155   3.158   3.266   9.111 -0.8531  1.7607  0.3873
 8566SOL     OW37156   2.638   3.649   7.578  0.0486  0.2970 -0.2151
 8566SOL    HW137157   2.619   3.663   7.671 -1.1131  0.5065 -0.4828
 8566SOL    HW237158   2.560   3.599   7.553 -0.8681  1.6474 -0.0559
 8567SOL     OW37159   2.529   2.681  11.388  0.0516 -0.7602  0.5779
 8567SOL    HW137160   2.599   2.745  11.380 -0.1479 -0.6218 -0.0647
 8567SOL    HW237161   2.555   2.642  11.471  1.0703 -0.0178  0.6028
 8568SOL     OW37162   3.670   1.555   1.368 -0.6693  0.1759 -0.1168
 8568SOL    HW137163   3.668   1.639   1.323 -0.3340  0.9683  1.3399
 8568SOL    HW237164   3.695   1.585   1.456  1.4224 -1.4814 -0.1491
 8569SOL     OW37165   4.553   3.677   8.192  0.4199  0.2152  0.2724
 8569SOL    HW137166   4.548   3.588   8.157  1.9580 -0.6620  2.3070
 8569SOL    HW237167   4.545   3.660   8.285  0.2421  1.1555  0.4237
 8570SOL     OW37168   1.273   1.139   8.821 -0.1741 -0.0780 -0.2421
 8570SOL    HW137169   1.177   1.143   8.822 -0.1143  2.6674 -3.4360
 8570SOL    HW237170   1.292   1.053   8.858 -2.0706 -1.0043 -1.4234
 8571SOL     OW37171   4.704   4.247   4.207  0.3584  0.4052 -0.4746
 8571SOL    HW137172   4.684   4.323   4.153 -0.0263 -0.5190 -1.6259
 8571SOL    HW237173   0.048   4.197   4.157 -0.6600 -0.1420 -1.2596
 8572SOL     OW37174   3.443   1.043   5.746 -0.8350 -0.4307  0.0823
 8572SOL    HW137175   3.505   1.058   5.674 -0.7051 -1.1328  0.0467
 8572SOL    HW237176   3.371   0.988   5.716 -0.1373 -1.5714  0.5098
 8573SOL     OW37177   1.878   2.200   7.904 -0.5030  0.7677  0.0082
 8573SOL    HW137178   1.847   2.224   7.817  1.3995  2.0926 -0.3084
 8573SOL    HW237179   1.890   2.106   7.892  0.2588  0.7331  0.9951
 8574SOL     OW37180   0.420   2.306  10.969 -0.5710  0.1584  0.3440
 8574SOL    HW137181   0.432   2.211  10.971  0.6892  0.2853 -0.9568
 8574SOL    HW237182   0.451   2.332  10.882 -0.5736  2.8198  1.1560
 8575SOL     OW37183   2.407   2.784   0.948  0.5465  0.1150  0.5868
 8575SOL    HW137184   2.342   2.827   0.893  1.2125 -1.5191 -1.4920
 8575SOL    HW237185   2.484   2.796   0.891  1.4771  2.9461  2.4667
 8576SOL     OW37186   0.321   2.844   4.244 -0.0777  0.1807 -0.3467
 8576SOL    HW137187   0.326   2.766   4.190  0.3253 -0.4949  0.6664
 8576SOL    HW237188   0.317   2.809   4.333  1.9491 -0.8904 -0.6937
 8577SOL     OW37189   2.124   4.046   3.518 -0.3398 -0.5222  0.5946
 8577SOL    HW137190   2.121   4.007   3.605 -1.1805 -1.4624  0.1390
 8577SOL    HW237191   2.164   3.977   3.466  1.9988  0.0282  1.6691
 8578SOL     OW37192   4.709   1.120  13.196 -0.0212  0.2720  0.1143
 8578SOL    HW137193   0.047   1.117  13.272  1.6991  1.6801 -1.1721
 8578SOL    HW237194   0.053   1.133  13.127 -0.0530  0.5571  0.1362
 8579SOL     OW37195   4.322   2.475   3.041 -0.5011  0.0084 -0.2176
 8579SOL    HW137196   4.292   2.389   3.070  0.5045  0.3921  2.0368
 8579SOL    HW237197   4.333   2.445   2.951 -1.8249  0.4651 -0.5434
 8580SOL     OW37198   2.288   2.818  16.381 -0.2404  0.1745 -0.0966
 8580SOL    HW137199   2.304   2.747  16.319 -1.9998 -0.6928  0.4644
 8580SOL    HW237200   2.289   2.891  16.319 -1.6622  0.6249  0.4121
 8581SOL     OW37201   2.744   4.209   6.256  0.1686 -0.1274  0.0890
 8581SOL    HW137202   2.716   4.277   6.316 -0.2500 -0.5813  0.4077
 8581SOL    HW237203   2.833   4.199   6.291 -1.0718 -0.6786  3.0760
 8582SOL     OW37204   2.146   4.148   6.201 -0.2157 -0.0484 -0.5658
 8582SOL    HW137205   2.057   4.183   6.210 -0.7905 -1.1758 -1.9486
 8582SOL    HW237206   2.205   4.203   6.252  2.4776 -2.6660 -0.8753
 8583SOL     OW37207   4.130   2.293   1.175  0.4106 -0.3146 -0.2001
 8583SOL    HW137208   4.179   2.363   1.132 -1.1742  0.8887 -0.0500
 8583SOL    HW237209   4.195   2.245   1.225  1.2851 -1.2147 -2.2174
 8584SOL     OW37210   4.478   0.401   6.169 -0.7546 -0.0792 -0.2178
 8584SOL    HW137211   4.438   0.318   6.196 -0.6114 -0.5164 -1.3100
 8584SOL    HW237212   4.433   0.408   6.084 -1.1293 -0.4535 -0.0499
 8585SOL     OW37213   3.524   2.381  15.257  0.0205 -0.1591 -0.3388
 8585SOL    HW137214   3.609   2.419  15.234  0.3609 -1.0821 -0.5871
 8585SOL    HW237215   3.473   2.404  15.180  0.8051 -0.2088 -0.8686
 8586SOL     OW37216   0.304   1.243   8.719  0.3317 -0.5058  0.3933
 8586SOL    HW137217   0.310   1.227   8.625 -1.3736  2.5949 -0.2381
 8586SOL    HW237218   0.288   1.153   8.750  3.6246 -0.7146  1.4226
 8587SOL     OW37219   0.446   3.584  12.579  0.8333 -0.0026  0.1460
 8587SOL    HW137220   0.375   3.524  12.602  0.1728  0.2922 -1.1066
 8587SOL    HW237221   0.509   3.562  12.648 -2.3075 -0.8191  2.7585
 8588SOL     OW37222   3.103   2.545   3.506 -0.0876 -0.2615  0.8161
 8588SOL    HW137223   3.102   2.626   3.455 -0.6801 -0.2857  0.7895
 8588SOL    HW237224   3.176   2.495   3.468 -1.3664 -0.2842 -1.6766
 8589SOL     OW37225   3.325   2.356   8.422  0.8817  0.5925 -0.2312
 8589SOL    HW137226   3.270   2.398   8.356  2.1091  0.0369 -1.6110
 8589SOL    HW237227   3.366   2.300   8.356 -0.5243  0.3679 -0.9122
 8590SOL     OW37228   3.306   3.210   1.449  0.1826  0.2327 -0.0967
 8590SOL    HW137229   3.291   3.216   1.355  0.5035  1.4415 -0.0664
 8590SOL    HW237230   3.334   3.119   1.459 -0.8089 -0.2707 -1.9015
 8591SOL     OW37231   4.468   4.159   5.844 -0.5607 -0.3149  0.1322
 8591SOL    HW137232   4.451   4.177   5.937 -0.3949 -0.6635  0.2330
 8591SOL    HW237233   4.441   4.069   5.828 -3.5244  0.8878 -1.4903
 8592SOL     OW37234   1.547   3.007   3.940  0.0597  0.0785  0.5540
 8592SOL    HW137235   1.588   3.093   3.944  1.4601 -0.5500 -0.2987
 8592SOL    HW237236   1.456   3.033   3.954 -0.5088 -1.4701 -0.2648
 8593SOL     OW37237   0.737   3.003   4.356 -0.1668  0.5212  0.3478
 8593SOL    HW137238   0.817   3.055   4.351  0.2531  0.0952  2.5087
 8593SOL    HW237239   0.766   2.914   4.334 -0.5990  0.8068 -1.3560
 8594SOL     OW37240   1.501   4.276   2.339 -0.4403  0.6734  0.1197
 8594SOL    HW137241   1.475   4.232   2.258 -0.6387  2.6839 -0.9034
 8594SOL    HW237242   1.445   4.226   2.398 -0.7394 -0.5392 -1.1944
 8595SOL     OW37243   0.360   3.554   8.156 -0.1147 -0.3071  0.0350
 8595SOL    HW137244   0.283   3.567   8.212  0.0900  0.7149  0.0880
 8595SOL    HW237245   0.325   3.557   8.067  0.0389  0.5093 -0.0051
 8596SOL     OW37246   3.303   0.190   4.415 -0.2750 -0.1611  0.7158
 8596SOL    HW137247   3.386   0.145   4.429  0.1125  0.8214  1.5410
 8596SOL    HW237248   3.322   0.276   4.377  1.5956 -0.8029  0.2093
 8597SOL     OW37249   0.748   0.290   0.763  0.0998 -0.1369  0.1175
 8597SOL    HW137250   0.700   0.250   0.836 -0.5190  1.4515  0.5750
 8597SOL    HW237251   0.764   0.219   0.701 -0.9384 -1.3623  1.2271
 8598SOL     OW37252   2.742   4.627   2.431 -0.5493 -0.2511  0.0209
 8598SOL    HW137253   2.717   4.646   2.340  0.5395 -0.4518 -0.3283
 8598SOL    HW237254   2.837   4.618   2.424 -0.4366  1.9306 -1.1505
 8599SOL     OW37255   3.334   0.875  10.133  0.3130 -0.2940 -0.3092
 8599SOL    HW137256   3.287   0.792  10.146 -1.1070  0.7548  1.3246
 8599SOL    HW237257   3.423   0.848  10.109  0.6777  0.1940  0.4891
 8600SOL     OW37258   2.700   2.830   8.662 -0.2830  0.1285 -0.4290
 8600SOL    HW137259   2.779   2.811   8.713  1.1312  1.0315 -2.2773
 8600SOL    HW237260   2.629   2.773   8.690  0.2758 -0.4641 -0.2058
 8601SOL     OW37261   2.659   0.582  14.860  0.6224 -0.1547 -0.0745
 8601SOL    HW137262   2.579   0.593  14.809  1.9080  1.4021 -1.7586
 8601SOL    HW237263   2.646   0.492  14.890 -2.1697  0.0367 -0.7196
 8602SOL     OW37264   1.728   0.912   6.398  0.7464 -0.0583  0.3415
 8602SOL    HW137265   1.795   0.875   6.455  1.1674  1.6605  0.9710
 8602SOL    HW237266   1.659   0.846   6.399 -0.4255  1.1457 -0.6935
 8603SOL     OW37267   0.032   3.402   5.693  0.5623  0.3678  0.3128
 8603SOL    HW137268   0.009   3.463   5.763  1.9068 -1.4498  2.3199
 8603SOL    HW237269   4.686   3.420   5.627  2.5142 -0.3845 -1.8915
 8604SOL     OW37270   3.700   1.067   4.354  0.0412 -0.3031  0.5863
 8604SOL    HW137271   3.612   1.096   4.330  0.7524  1.0127 -0.4644
 8604SOL    HW237272   3.735   1.048   4.266  1.5368  1.3489  0.8292
 8605SOL     OW37273   3.676   1.970  11.849  0.8559 -0.1740 -0.2931
 8605SOL    HW137274   3.664   2.065  11.850  2.0256 -0.0392  0.4124
 8605SOL    HW237275   3.587   1.935  11.842 -0.1131  2.3969 -0.6995
 8606SOL     OW37276   2.253   4.236   8.828 -0.1034  0.3158  0.1198
 8606SOL    HW137277   2.173   4.195   8.861  0.3062 -1.5752 -1.2377
 8606SOL    HW237278   2.216   4.323   8.820 -1.1906  0.0414  2.1724
 8607SOL     OW37279   2.596   1.794  16.942 -0.2843  0.0122 -0.0202
 8607SOL    HW137280   2.554   1.785  17.027  0.1325 -2.2020 -0.0482
 8607SOL    HW237281   2.646   1.876  16.945 -2.4077  1.2973  0.1497
 8608SOL     OW37282   4.284   0.608  12.334  0.2033 -0.6569  0.0033
 8608SOL    HW137283   4.283   0.557  12.415 -0.9430  0.6515  0.8020
 8608SOL    HW237284   4.264   0.533  12.277 -1.3233 -1.7874  2.0463
 8609SOL     OW37285   2.451   3.493   0.650  0.3762 -0.0547  0.3338
 8609SOL    HW137286   2.545   3.489   0.664  0.7121  1.7299 -1.3282
 8609SOL    HW237287   2.429   3.400   0.639 -1.0485  0.4753 -1.3534
 8610SOL     OW37288   3.562   4.457   5.465 -0.1228 -0.7223  0.4586
 8610SOL    HW137289   3.575   4.530   5.525 -1.1489 -0.0802 -0.0933
 8610SOL    HW237290   3.466   4.450   5.472  0.1549 -3.5145  1.6931
 8611SOL     OW37291   3.547   4.670   7.975 -0.2761 -0.1061  0.1157
 8611SOL    HW137292   3.625   4.713   8.012  0.6357 -0.1454 -1.7687
 8611SOL    HW237293   3.496   0.023   7.943 -0.9728 -0.0471  1.3593
 8612SOL     OW37294   0.334   1.165  13.917  0.8492 -0.7748  0.3073
 8612SOL    HW137295   0.376   1.245  13.949 -2.1759 -0.2565  2.9891
 8612SOL    HW237296   0.372   1.101  13.978 -1.7733 -1.1597  1.5268
 8613SOL     OW37297   3.356   4.642  16.378  0.2230  0.7880 -0.2955
 8613SOL    HW137298   3.434   4.661  16.431  0.0681 -2.3342  1.0509
 8613SOL    HW237299   3.315   4.587  16.444  1.3658 -0.8594 -0.9469
 8614SOL     OW37300   0.849   2.407   9.011 -0.4763 -0.3821 -0.0387
 8614SOL    HW137301   0.826   2.324   9.052  0.3663 -0.6850 -0.1843
 8614SOL    HW237302   0.770   2.458   8.997 -0.8133 -0.9752 -0.2950
 8615SOL     OW37303   1.219   1.627   3.884 -0.2437 -0.5129 -0.5627
 8615SOL    HW137304   1.176   1.552   3.926  2.1716 -2.3322 -1.3485
 8615SOL    HW237305   1.229   1.595   3.794 -0.1805  0.6448 -0.9616
 8616SOL     OW37306   1.318   1.016   6.992 -0.6042 -0.2512  0.4721
 8616SOL    HW137307   1.357   0.966   7.063 -1.4409 -1.1810  0.2749
 8616SOL    HW237308   1.232   0.974   6.984  0.2609 -2.1678  1.4690
 8617SOL     OW37309   0.904   3.997   5.527  0.3251 -0.3438 -0.0080
 8617SOL    HW137310   0.989   4.000   5.570 -0.4471 -1.1197  1.5658
 8617SOL    HW237311   0.928   3.961   5.441 -2.1086  0.8333 -1.2079
 8618SOL     OW37312   2.038   3.601   5.859  0.2411 -0.0902  0.3570
 8618SOL    HW137313   1.989   3.546   5.920 -2.2166  1.1487 -0.4864
 8618SOL    HW237314   1.962   3.655   5.834  0.6471  0.1241 -0.4116
 8619SOL     OW37315   1.437   4.069   6.842  0.2580 -0.3408  0.4150
 8619SOL    HW137316   1.365   4.034   6.894  0.1502 -2.4926 -1.1443
 8619SOL    HW237317   1.396   4.148   6.806  2.7095  2.0609  2.9204
 8620SOL     OW37318   3.230   0.051  10.044  0.0887 -0.1792 -0.2326
 8620SOL    HW137319   3.240   0.097   9.960  1.5331 -0.0889 -0.0019
 8620SOL    HW237320   3.295   4.702  10.041 -0.6989 -0.8571 -1.4249
 8621SOL     OW37321   1.219   2.799   2.448 -0.0298  0.1694  1.0292
 8621SOL    HW137322   1.175   2.726   2.404 -3.0065  1.7033  1.4667
 8621SOL    HW237323   1.152   2.867   2.437 -1.1377 -1.5438 -2.9713
 8622SOL     OW37324   4.671   2.255   9.015  0.0837 -0.0084  0.1147
 8622SOL    HW137325   4.714   2.339   9.032  0.0076 -0.4142  2.3134
 8622SOL    HW237326   0.028   2.201   9.008 -0.5188 -0.9881  0.9151
 8623SOL     OW37327   2.995   1.286   5.496  0.5745  0.2008  0.3699
 8623SOL    HW137328   2.997   1.249   5.408  1.0853  2.7647 -0.7158
 8623SOL    HW237329   2.906   1.259   5.519  0.8457  0.1328  1.3144
 8624SOL     OW37330   0.890   1.329   0.097  0.2649 -0.2323  0.5313
 8624SOL    HW137331   0.885   1.382   0.018 -1.2289 -0.8448  0.2147
 8624SOL    HW237332   0.797   1.305   0.104  0.2182  0.1890  1.3708
 8625SOL     OW37333   4.192   0.759   5.164 -0.0852 -0.1278  0.8989
 8625SOL    HW137334   4.120   0.711   5.204  1.1657 -1.9757  0.9296
 8625SOL    HW237335   4.245   0.684   5.138 -0.3340 -0.4699  1.3701
 8626SOL     OW37336   2.587   4.554   4.939 -0.1900  0.2815  0.2875
 8626SOL    HW137337   2.565   4.465   4.968  1.8812  0.2398  1.7409
 8626SOL    HW237338   2.585   4.551   4.843  1.6371 -1.5054  0.2951
 8627SOL     OW37339   3.573   4.639   5.654  0.0118  0.1197  0.1036
 8627SOL    HW137340   3.507   4.685   5.705  2.4618  0.0567  3.3040
 8627SOL    HW237341   3.649   4.695   5.638 -1.9158  2.5167 -0.6453
 8628SOL     OW37342   1.994   2.757   4.768  0.1027 -0.1030 -0.4861
 8628SOL    HW137343   2.021   2.792   4.852  1.6683 -0.9096 -0.6549
 8628SOL    HW237344   2.083   2.745   4.734  1.5376  0.1061  3.2737
 8629SOL     OW37345   4.489   2.646   0.167 -0.1682 -0.6895 -0.0529
 8629SOL    HW137346   4.456   2.608   0.085  0.5449 -2.3324  0.4295
 8629SOL    HW237347   4.464   2.574   0.224 -1.1674 -0.7582 -0.5736
 8630SOL     OW37348   0.473   1.366   7.309 -0.4619 -0.1228 -0.5766
 8630SOL    HW137349   0.503   1.276   7.307  0.4366  0.2111 -1.7669
 8630SOL    HW237350   0.392   1.365   7.360  0.4541 -1.8377  0.8262
 8631SOL     OW37351   0.541   3.346   7.816  0.0232  0.2722  0.4529
 8631SOL    HW137352   0.531   3.439   7.838  0.6393  0.1773  1.1274
 8631SOL    HW237353   0.496   3.312   7.892  0.3252  2.7320  1.7325
 8632SOL     OW37354   4.368   0.417   0.859  0.2680 -0.0829 -0.8739
 8632SOL    HW137355   4.279   0.386   0.870  0.1339  0.8079  0.4647
 8632SOL    HW237356   4.403   0.351   0.799  3.8300  0.2879  0.8054
 8633SOL     OW37357   0.269   1.867   1.333  0.9014 -0.4496  0.6085
 8633SOL    HW137358   0.260   1.944   1.277  2.2455  0.2335  1.3193
 8633SOL    HW237359   0.357   1.889   1.363  0.6920  1.3930 -0.0989
 8634SOL     OW37360   1.687   0.552   8.623  0.4591 -0.7559  0.2942
 8634SOL    HW137361   1.646   0.568   8.708  1.2251  0.9389  0.3409
 8634SOL    HW237362   1.727   0.634   8.597  3.4462 -1.8743  1.4199
 8635SOL     OW37363   1.682   0.306  15.608 -0.5021 -0.1617 -0.2364
 8635SOL    HW137364   1.737   0.293  15.531  1.6134 -0.7593  1.3808
 8635SOL    HW237365   1.683   0.220  15.650 -0.7381  0.2326  0.5814
 8636SOL     OW37366   2.881   2.668   4.616 -0.3083  0.4948 -0.1548
 8636SOL    HW137367   2.838   2.734   4.669 -1.9843 -1.0057  0.3362
 8636SOL    HW237368   2.961   2.714   4.590  0.6886 -0.8763  0.4949
 8637SOL     OW37369   4.071   1.289   2.583  0.1962  0.3845 -0.3208
 8637SOL    HW137370   4.108   1.250   2.662  0.0315  0.2610 -0.3051
 8637SOL    HW237371   4.039   1.373   2.615  1.5036  1.1420 -0.9805
 8638SOL     OW37372   3.891   2.095   3.820  0.0074 -0.1653 -0.6255
 8638SOL    HW137373   3.802   2.118   3.847  0.2222 -0.6312  0.4868
 8638SOL    HW237374   3.892   1.999   3.810 -1.3520 -0.1362 -1.0697
 8639SOL     OW37375   1.832   1.996  10.085  0.0749  0.7000  0.1294
 8639SOL    HW137376   1.826   1.914  10.135 -3.2179  1.1421  0.4990
 8639SOL    HW237377   1.758   2.051  10.111  0.4063  1.8986 -1.4829
 8640SOL     OW37378   1.219   2.349  10.137  0.1655  0.7252  0.3798
 8640SOL    HW137379   1.283   2.388  10.077  1.3456  0.4350  1.4573
 8640SOL    HW237380   1.144   2.408  10.129 -0.6833 -0.1720  1.9097
 8641SOL     OW37381   1.283   4.504   5.454  0.2804  0.0461 -0.4890
 8641SOL    HW137382   1.245   4.591   5.460 -0.3533 -0.3889  1.7461
 8641SOL    HW237383   1.377   4.520   5.453  0.2707  0.1522  0.3948
 8642SOL     OW37384   4.701   0.291   8.291 -0.3228  0.1840  0.4288
 8642SOL    HW137385   4.691   0.324   8.380 -2.1907 -0.5678  0.5007
 8642SOL    HW237386   4.706   0.197   8.306  1.0204  0.0170 -1.0664
 8643SOL     OW37387   3.145   1.648   2.875  0.6662 -0.7251  0.0016
 8643SOL    HW137388   3.149   1.556   2.901  1.6763 -0.9434 -0.9347
 8643SOL    HW237389   3.160   1.636   2.781  1.0369 -2.4071  0.2819
 8644SOL     OW37390   1.942   3.485   9.554 -0.3983 -0.2626  0.2933
 8644SOL    HW137391   1.879   3.470   9.484  1.3988  2.0812 -1.8086
 8644SOL    HW237392   1.953   3.400   9.597  2.1748 -0.2750 -0.4032
 8645SOL     OW37393   4.021   3.587  16.698  0.2382  0.2547  0.1521
 8645SOL    HW137394   4.108   3.549  16.706 -0.3260 -0.7742  1.3287
 8645SOL    HW237395   4.037   3.639  16.619 -0.7196 -0.4502 -0.5030
 8646SOL     OW37396   4.241   4.459   7.337 -0.3113  0.3337 -0.0127
 8646SOL    HW137397   4.321   4.432   7.292 -0.1655 -0.4008  0.6878
 8646SOL    HW237398   4.182   4.415   7.276 -0.1748 -1.2567  1.0090
 8647SOL     OW37399   1.296   3.274   2.385 -0.2095  0.0112 -0.1195
 8647SOL    HW137400   1.294   3.259   2.290 -1.9089  1.4966 -0.3236
 8647SOL    HW237401   1.339   3.192   2.408  1.3414  1.0057  0.5002
 8648SOL     OW37402   3.265   3.014   4.563  0.2949  0.0337  0.4806
 8648SOL    HW137403   3.244   2.921   4.573  4.2676 -0.9069 -0.1176
 8648SOL    HW237404   3.292   3.027   4.472  0.8595 -0.4479  0.5796
 8649SOL     OW37405   4.016   3.979   5.641  0.0255 -0.3507 -0.4277
 8649SOL    HW137406   3.996   4.004   5.551 -0.2929 -0.3465 -0.3564
 8649SOL    HW237407   4.110   3.996   5.645  0.0420 -0.9102  1.8297
 8650SOL     OW37408   4.104   1.818   9.863  0.4930 -0.2896  0.0445
 8650SOL    HW137409   4.153   1.784   9.787  0.0024 -2.3845  0.6771
 8650SOL    HW237410   4.040   1.748   9.873  1.4170 -1.1763 -0.2070
 8651SOL     OW37411   0.299   3.449  10.904  0.2520 -0.0775 -0.7574
 8651SOL    HW137412   0.351   3.409  10.974 -0.1043 -0.9608 -1.0047
 8651SOL    HW237413   0.272   3.527  10.953  2.1130  1.3295 -1.9715
 8652SOL     OW37414   4.657   2.053   7.833 -0.1147 -0.5407 -0.3828
 8652SOL    HW137415   4.642   2.142   7.864 -0.8375 -1.5981  2.3226
 8652SOL    HW237416   4.568   2.021   7.846 -1.1508  2.5807  0.1771
 8653SOL     OW37417   1.458   2.395   6.105 -0.0418  0.3290  0.8723
 8653SOL    HW137418   1.493   2.333   6.041 -0.4960 -0.6223  1.5520
 8653SOL    HW237419   1.386   2.432   6.055 -0.9382 -0.5758  1.5034
 8654SOL     OW37420   4.352   3.511   1.692 -0.0961 -0.8149 -0.2449
 8654SOL    HW137421   4.271   3.550   1.657 -1.1911 -1.7784  1.2073
 8654SOL    HW237422   4.412   3.534   1.621  0.3186  1.8483  0.9608
 8655SOL     OW37423   4.305   4.417   1.749  0.0481  0.9877 -0.4836
 8655SOL    HW137424   4.246   4.435   1.823  1.5298  0.5783  0.8058
 8655SOL    HW237425   4.285   4.324   1.739  1.9812  0.5113  0.1137
 8656SOL     OW37426   0.024   2.432   4.941  0.7746  0.7160  0.0146
 8656SOL    HW137427   4.705   2.350   4.967  0.7716  0.2562 -1.4255
 8656SOL    HW237428   0.071   2.405   4.862 -1.5006 -0.5177 -0.9274
 8657SOL     OW37429   0.104   4.151  11.783 -0.2847 -0.6195 -0.2553
 8657SOL    HW137430   0.169   4.179  11.718 -2.0509  1.4392 -1.1559
 8657SOL    HW237431   0.031   4.212  11.769  0.6131  1.1533  2.8626
 8658SOL     OW37432   3.880   1.407  11.443  0.1223  0.2370  0.2631
 8658SOL    HW137433   3.814   1.457  11.492  2.0852  0.7834  2.3681
 8658SOL    HW237434   3.884   1.447  11.357 -0.4396  0.4674  0.3429
 8659SOL     OW37435   0.012   1.517  15.195 -0.7143  0.0361 -0.2137
 8659SOL    HW137436   4.651   1.471  15.211 -0.9779  0.9544  1.1352
 8659SOL    HW237437   4.719   1.597  15.246 -0.6989 -0.1434  0.0707
 8660SOL     OW37438   2.649   1.041   4.353  0.2394  0.0757 -0.6346
 8660SOL    HW137439   2.609   1.067   4.270  1.5212 -0.2343 -1.3433
 8660SOL    HW237440   2.573   1.011   4.402  0.1994  1.3526  0.0948
 8661SOL     OW37441   1.034   1.491   5.141 -0.6292 -0.4154 -0.8611
 8661SOL    HW137442   1.096   1.482   5.069  0.9840 -1.3327  0.6375
 8661SOL    HW237443   0.953   1.454   5.104  0.0361 -1.4987 -1.2414
 8662SOL     OW37444   4.228   0.456   5.278  0.2280  0.1859 -0.5883
 8662SOL    HW137445   4.135   0.450   5.297  0.2760 -2.9921 -1.3953
 8662SOL    HW237446   4.222   0.410   5.194  1.2614  3.3866 -2.4229
 8663SOL     OW37447   4.509   2.619   7.782 -0.7892  0.3670 -0.5459
 8663SOL    HW137448   4.465   2.571   7.712 -0.6111 -0.0437 -0.3776
 8663SOL    HW237449   4.503   2.712   7.758  0.9713  0.3656 -0.9941
 8664SOL     OW37450   3.041   4.405   2.541 -0.8274 -0.0598  0.0020
 8664SOL    HW137451   3.063   4.485   2.494  1.8403 -1.9228 -1.9054
 8664SOL    HW237452   2.999   4.352   2.474 -2.3725  0.3346  0.6650
 8665SOL     OW37453   2.596   0.412   7.058 -0.4451  0.3503  0.5431
 8665SOL    HW137454   2.666   0.358   7.095  0.1361  1.1380  0.5854
 8665SOL    HW237455   2.589   0.359   6.979 -0.6009 -0.1947  0.9228
 8666SOL     OW37456   3.580   4.063   4.279  0.4475 -0.3205  0.0834
 8666SOL    HW137457   3.657   4.107   4.242 -0.9160  0.9110 -1.3221
 8666SOL    HW237458   3.555   4.011   4.204  0.3863  0.8974 -0.7491
 8667SOL     OW37459   0.084   2.313   1.013 -0.1515  0.8093 -0.6415
 8667SOL    HW137460   0.075   2.367   0.935 -1.5975 -0.7028 -1.5304
 8667SOL    HW237461   0.008   2.349   1.059 -0.3950  1.0609 -1.2384
 8668SOL     OW37462   1.076   2.612  11.653  0.1557  0.4749 -0.6679
 8668SOL    HW137463   1.136   2.564  11.595 -0.7431  0.2662 -1.4302
 8668SOL    HW237464   1.126   2.691  11.673  1.2733 -0.6246  0.8458
 8669SOL     OW37465   2.606   2.279  16.110  0.0144  0.1586  0.3443
 8669SOL    HW137466   2.692   2.307  16.139  0.1687 -1.0065  1.0088
 8669SOL    HW237467   2.616   2.184  16.120  0.1084  0.3116  1.6176
 8670SOL     OW37468   1.430   4.662   7.634  0.3945 -0.0987  0.5042
 8670SOL    HW137469   1.430   4.702   7.547  0.0414  2.3048  1.6136
 8670SOL    HW237470   1.347   4.701   7.663  0.4867  0.3416  0.1673
 8671SOL     OW37471   3.456   0.831   9.275  0.0020 -0.3628  0.4098
 8671SOL    HW137472   3.523   0.864   9.215  0.1493  2.3532  2.0787
 8671SOL    HW237473   3.424   0.917   9.303 -1.6463 -0.2351 -1.9229
 8672SOL     OW37474   2.217   4.243   7.107 -0.9605  0.3472 -0.5594
 8672SOL    HW137475   2.311   4.226   7.114 -0.7159  1.9644  0.0230
 8672SOL    HW237476   2.180   4.222   7.193  0.2423 -0.7850 -0.3153
 8673SOL     OW37477   3.567   2.514   6.720 -0.5022 -0.2968 -0.0967
 8673SOL    HW137478   3.631   2.527   6.649  0.3193 -1.3121  0.4577
 8673SOL    HW237479   3.609   2.451   6.779 -0.4142 -0.1697 -0.0245
 8674SOL     OW37480   1.348   0.878   1.263 -0.2933  0.1864 -0.3231
 8674SOL    HW137481   1.372   0.849   1.175  0.3584 -3.7029  1.1236
 8674SOL    HW237482   1.281   0.943   1.244 -1.7964 -0.4617  2.8156
 8675SOL     OW37483   1.313   1.490   4.221 -0.2932  0.5266 -0.6134
 8675SOL    HW137484   1.253   1.564   4.213 -2.1605 -0.5044  3.8155
 8675SOL    HW237485   1.303   1.444   4.138 -0.2881 -2.6402  1.1687
 8676SOL     OW37486   1.227   1.983  16.441 -0.6257 -0.3466 -0.8956
 8676SOL    HW137487   1.311   1.951  16.409 -1.1961 -2.3293 -0.4265
 8676SOL    HW237488   1.237   2.067  16.398  1.3256 -1.2722 -2.2243
 8677SOL     OW37489   1.369   0.434   6.167  0.4174  0.1702  0.0812
 8677SOL    HW137490   1.436   0.390   6.115  1.5850  0.9905  0.9270
 8677SOL    HW237491   1.296   0.377   6.142 -0.0546  0.7491  0.1299
 8678SOL     OW37492   4.467   4.094   3.488 -0.1260 -0.1970 -0.5546
 8678SOL    HW137493   4.437   4.019   3.436  0.3028 -1.6724  1.3352
 8678SOL    HW237494   4.559   4.075   3.466  0.3877 -1.1229  2.4821
 8679SOL     OW37495   0.702   2.823   8.010  0.3710 -0.1586 -0.5954
 8679SOL    HW137496   0.734   2.742   7.969 -0.0747 -0.9794  0.6911
 8679SOL    HW237497   0.613   2.829   7.975 -0.6534 -0.7410  1.9201
 8680SOL     OW37498   3.976   0.295   7.856  0.5264 -0.5282  0.0859
 8680SOL    HW137499   4.004   0.338   7.775  0.1274  0.5716  0.5376
 8680SOL    HW237500   3.895   0.347   7.857  1.8343  1.6116 -4.3395
 8681SOL     OW37501   3.995   2.171   2.954 -0.4157 -0.0011  0.2625
 8681SOL    HW137502   3.965   2.104   2.892 -0.4920 -1.3542  1.7651
 8681SOL    HW237503   3.935   2.246   2.950 -0.8798 -0.4987 -2.2373
 8682SOL     OW37504   4.697   3.973   6.473  0.0193 -0.0519 -0.0716
 8682SOL    HW137505   4.705   3.881   6.500  1.0309  0.4536  1.3302
 8682SOL    HW237506   4.646   4.006   6.547 -0.6284 -0.6626 -0.2475
 8683SOL     OW37507   4.540   0.475   8.171  0.0219 -0.1940 -0.4187
 8683SOL    HW137508   4.599   0.518   8.109  0.5295 -1.6035 -0.9197
 8683SOL    HW237509   4.586   0.397   8.203 -1.2621 -0.6471  0.3215
 8684SOL     OW37510   3.315   2.602   2.423  0.0639 -0.0913 -0.1328
 8684SOL    HW137511   3.327   2.579   2.515 -2.2462 -3.0496 -0.6014
 8684SOL    HW237512   3.237   2.548   2.411 -0.7597  1.4599 -1.7497
 8685SOL     OW37513   0.492   3.993   7.559  0.2482 -0.4748 -0.2429
 8685SOL    HW137514   0.398   3.974   7.562 -0.2183  2.1584  2.3927
 8685SOL    HW237515   0.514   3.910   7.518 -0.3362  0.1618 -1.8492
 8686SOL     OW37516   3.746   0.012   5.912 -0.1201  0.1459 -0.3060
 8686SOL    HW137517   3.699   4.685   5.844  1.2971 -3.3420  1.1366
 8686SOL    HW237518   3.733   0.105   5.893 -0.7010 -0.5490 -3.3375
 8687SOL     OW37519   1.496   2.904   3.551  0.4249  0.3825 -0.1925
 8687SOL    HW137520   1.424   2.948   3.507 -0.7203 -1.3272 -0.0105
 8687SOL    HW237521   1.511   2.832   3.491  0.1655 -0.9663  1.3602
 8688SOL     OW37522   3.538   0.921  12.150  0.3807 -0.3943  0.2737
 8688SOL    HW137523   3.566   0.843  12.198 -0.4345 -0.0586  1.2850
 8688SOL    HW237524   3.524   0.877  12.066 -1.6803 -2.7703  1.8671
 8689SOL     OW37525   0.889   4.286   5.255  0.4927  0.0501 -0.2412
 8689SOL    HW137526   0.897   4.193   5.232 -1.9981 -0.3526  0.5979
 8689SOL    HW237527   0.800   4.286   5.290  0.3629  1.8627 -0.5821
 8690SOL     OW37528   1.716   1.762   1.932 -0.7682 -0.0664 -0.4928
 8690SOL    HW137529   1.655   1.804   1.994 -1.5371  0.0694 -1.3422
 8690SOL    HW237530   1.766   1.834   1.893 -0.7256  0.3107  0.2592
 8691SOL     OW37531   3.986   1.543   2.687  0.7097  0.7494 -0.1209
 8691SOL    HW137532   4.056   1.569   2.747  1.6622 -0.8232 -0.5362
 8691SOL    HW237533   3.908   1.568   2.737  1.5179  0.4705  1.2688
 8692SOL     OW37534   3.197   1.342  15.935  0.5422  0.5318 -0.7414
 8692SOL    HW137535   3.288   1.354  15.960  0.1234 -1.2004  1.7386
 8692SOL    HW237536   3.161   1.429  15.948 -0.3200  0.0300  0.2882
 8693SOL     OW37537   1.842   3.510  13.980 -0.7016 -0.1590 -0.2038
 8693SOL    HW137538   1.883   3.563  14.049 -0.0443  0.1854 -0.8593
 8693SOL    HW237539   1.920   3.487  13.931 -1.1644 -0.6004 -0.7309
 8694SOL     OW37540   2.562   0.620  10.194 -0.1165 -0.3404 -0.1268
 8694SOL    HW137541   2.627   0.690  10.195 -0.0726 -0.3871  0.2804
 8694SOL    HW237542   2.620   0.545  10.189 -0.7760 -0.8844  0.4064
 8695SOL     OW37543   3.200   1.601   2.626  0.3722  0.4913 -0.1863
 8695SOL    HW137544   3.219   1.647   2.544 -0.0054  0.3508 -0.3531
 8695SOL    HW237545   3.258   1.527   2.608 -1.3424 -0.6137 -1.1906
 8696SOL     OW37546   1.035   4.644   4.690 -0.0132 -0.6775  0.1994
 8696SOL    HW137547   1.053   4.583   4.762  2.2784  1.2674  1.3146
 8696SOL    HW237548   0.942   4.632   4.674 -0.3886  0.8252  1.2155
 8697SOL     OW37549   1.365   3.082  15.228 -0.3790 -0.0864 -0.0366
 8697SOL    HW137550   1.348   2.999  15.185  0.9261  0.5586 -1.7717
 8697SOL    HW237551   1.448   3.064  15.271  1.3224 -0.4516 -3.5036
 8698SOL     OW37552   0.908   2.962   7.284 -0.1495 -0.1590  0.1201
 8698SOL    HW137553   1.001   2.971   7.263  0.0752 -1.7429  0.4254
 8698SOL    HW237554   0.921   2.978   7.377 -0.5616  0.7092  0.0324
 8699SOL     OW37555   3.046   3.850   4.254  0.2961 -0.2990 -0.0410
 8699SOL    HW137556   3.123   3.905   4.241  0.4582 -1.1481 -2.7509
 8699SOL    HW237557   2.988   3.893   4.192 -1.1697 -0.5006  1.1965
 8700SOL     OW37558   1.233   1.646  13.684 -0.7844 -0.0580 -0.4676
 8700SOL    HW137559   1.175   1.711  13.645 -2.2680 -0.3444  1.2965
 8700SOL    HW237560   1.303   1.704  13.714  0.7375 -0.8327 -2.4487
 8701SOL     OW37561   0.535   2.987   3.202 -0.1017 -0.2075 -0.0066
 8701SOL    HW137562   0.584   3.035   3.135  1.2851  0.6408  1.6273
 8701SOL    HW237563   0.518   3.052   3.270 -0.0237 -0.3236  0.1221
 8702SOL     OW37564   3.156   0.140   4.711  0.3960 -0.4806 -0.0952
 8702SOL    HW137565   3.149   0.076   4.639  0.1696 -0.3731 -0.1699
 8702SOL    HW237566   3.115   0.219   4.676 -1.1020 -0.5453  1.4856
 8703SOL     OW37567   1.185   1.953   9.660 -0.4515 -0.0060  0.3124
 8703SOL    HW137568   1.097   1.943   9.624 -0.1118 -0.9841 -0.2349
 8703SOL    HW237569   1.208   1.861   9.669 -2.8621 -0.9400 -2.9222
 8704SOL     OW37570   0.539   2.701   8.421  0.1329  0.0777  0.2520
 8704SOL    HW137571   0.500   2.677   8.505 -1.9570  0.9923 -0.4647
 8704SOL    HW237572   0.461   2.735   8.377 -0.1410  0.0633  0.7170
 8705SOL     OW37573   0.292   4.382  10.640  0.5633  0.6121 -0.3471
 8705SOL    HW137574   0.364   4.320  10.653  0.8101  1.2640  1.4792
 8705SOL    HW237575   0.310   4.434  10.562  2.3453 -2.4317 -1.9676
 8706SOL     OW37576   4.710   3.998   3.336 -0.0417  0.5178 -0.1839
 8706SOL    HW137577   0.021   4.041   3.415  0.6609 -0.7020  0.2032
 8706SOL    HW237578   0.005   4.070   3.275 -1.1238 -1.6551 -3.0428
 8707SOL     OW37579   1.444   2.741   1.426 -0.3133  0.0644  0.0852
 8707SOL    HW137580   1.351   2.739   1.406 -0.4612  1.4418  0.6113
 8707SOL    HW237581   1.442   2.692   1.508 -1.7731  0.7098  0.4341
 8708SOL     OW37582   4.258   2.948  14.777 -0.5911 -0.1737  0.2325
 8708SOL    HW137583   4.176   2.965  14.730 -0.0577 -2.4998 -1.5134
 8708SOL    HW237584   4.293   2.865  14.746 -1.5873 -0.8928  1.0381
 8709SOL     OW37585   3.690   2.081  16.807  0.0191  0.2342 -0.4750
 8709SOL    HW137586   3.672   2.038  16.890 -2.7076 -1.7184 -2.0584
 8709SOL    HW237587   3.717   2.171  16.825 -0.1175  0.0475  0.6322
 8710SOL     OW37588   1.981   2.439   6.003  0.7899 -0.1585 -0.2680
 8710SOL    HW137589   2.003   2.429   5.910  0.4586  1.1722 -0.4845
 8710SOL    HW237590   1.898   2.393   6.008 -0.6296  2.4284 -0.2219
 8711SOL     OW37591   0.552   0.167   3.863  0.4535  0.2642  0.1074
 8711SOL    HW137592   0.506   0.125   3.790  2.3452 -1.2296 -0.2397
 8711SOL    HW237593   0.493   0.237   3.892 -1.8254 -1.9122  0.7557
 8712SOL     OW37594   3.641   2.826  12.374 -0.0565 -0.1571  0.2106
 8712SOL    HW137595   3.663   2.912  12.409 -2.2585  0.1312  0.8846
 8712SOL    HW237596   3.590   2.851  12.296 -0.2266 -1.2518 -0.0281
 8713SOL     OW37597   0.048   2.461  13.895 -0.3642 -0.6404  0.5249
 8713SOL    HW137598   0.104   2.531  13.928 -3.7560  1.7643  1.2367
 8713SOL    HW237599   0.036   2.405  13.972  0.5918 -2.4855 -0.6569
 8714SOL     OW37600   1.877   0.754   5.207 -0.4750  0.1249  0.0542
 8714SOL    HW137601   1.915   0.667   5.223 -0.8410 -0.0715 -0.1386
 8714SOL    HW237602   1.843   0.740   5.119 -0.5308  0.0408  0.0891
 8715SOL     OW37603   1.706   2.513   5.506  0.8386  0.3174  0.0468
 8715SOL    HW137604   1.772   2.444   5.498 -2.4118 -2.7599 -0.6547
 8715SOL    HW237605   1.712   2.537   5.598  1.1454  2.0598 -0.4416
 8716SOL     OW37606   1.628   3.779  16.547 -0.4363 -0.0318  0.3100
 8716SOL    HW137607   1.555   3.718  16.535 -0.9657  0.7154 -0.2856
 8716SOL    HW237608   1.657   3.780  16.456 -1.7327  1.6772 -0.0920
 8717SOL     OW37609   4.359   4.182   2.554  0.3136 -0.4474  0.0804
 8717SOL    HW137610   4.434   4.152   2.605 -0.8811 -1.5449  1.1792
 8717SOL    HW237611   4.311   4.238   2.615 -0.8834  0.5521 -1.7901
 8718SOL     OW37612   1.240   2.138   5.898  0.3237  0.2057 -0.0439
 8718SOL    HW137613   1.191   2.158   5.818 -0.2020 -1.2475 -0.0758
 8718SOL    HW237614   1.176   2.152   5.968  1.5147  0.2277  1.0391
 8719SOL     OW37615   4.029   2.735   3.988  0.1092 -0.1004  0.0501
 8719SOL    HW137616   3.988   2.791   3.923 -0.8231 -0.7448  0.0843
 8719SOL    HW237617   4.050   2.655   3.940  2.3596 -0.1972  1.1840
 8720SOL     OW37618   2.611   4.330   4.702  0.2752 -0.9301  0.1209
 8720SOL    HW137619   2.585   4.312   4.612  0.2622  1.0474 -0.2714
 8720SOL    HW237620   2.705   4.348   4.701  0.0648 -0.0449 -3.8411
 8721SOL     OW37621   3.392   3.109   2.120  0.0655  0.5178  0.5345
 8721SOL    HW137622   3.444   3.099   2.039  1.0000  0.3856  1.1495
 8721SOL    HW237623   3.412   3.036   2.178  0.4509  0.8326  0.7982
 8722SOL     OW37624   2.587   0.355   7.371 -0.6736 -0.0084 -0.5420
 8722SOL    HW137625   2.551   0.438   7.342 -0.1852  0.0868 -0.8714
 8722SOL    HW237626   2.634   0.324   7.294  0.2821  2.0268 -0.7755
 8723SOL     OW37627   2.183   2.226   6.596 -0.3683  0.5744 -0.2091
 8723SOL    HW137628   2.207   2.165   6.665 -0.8886  1.3257  0.6482
 8723SOL    HW237629   2.189   2.310   6.642  0.2336 -0.1518  1.0284
 8724SOL     OW37630   1.881   1.371   0.867 -0.1723 -0.0969 -0.7750
 8724SOL    HW137631   1.860   1.326   0.949 -0.1003  0.0601 -0.6688
 8724SOL    HW237632   1.813   1.334   0.811  0.1518 -0.8681 -0.6536
 8725SOL     OW37633   0.086   0.601   5.244 -0.0004  0.3682 -0.2998
 8725SOL    HW137634   4.712   0.599   5.250 -0.0394  1.8199 -0.4368
 8725SOL    HW237635   0.123   0.513   5.242  0.8469  0.7433 -1.0702
 8726SOL     OW37636   2.111   1.752   4.559  0.0022  0.2820  0.0652
 8726SOL    HW137637   2.173   1.815   4.596  0.5581 -0.6269  0.7176
 8726SOL    HW237638   2.159   1.718   4.484  2.4697 -1.4622  2.4076
 8727SOL     OW37639   2.590   3.589  14.192  0.6481 -0.4966  0.3301
 8727SOL    HW137640   2.664   3.559  14.138  0.9837 -2.7528  2.0678
 8727SOL    HW237641   2.534   3.515  14.169 -1.8396  1.4651  0.2106
 8728SOL     OW37642   3.185   4.483   5.176 -0.5429 -0.2675 -0.3822
 8728SOL    HW137643   3.205   4.444   5.091  0.2244  0.0008 -0.3220
 8728SOL    HW237644   3.247   4.439   5.234  0.6329  2.2124  0.2631
 8729SOL     OW37645   1.581   1.075  17.683  0.2697  0.5406  0.4039
 8729SOL    HW137646   1.510   1.134  17.657 -1.7251 -2.7883 -1.6976
 8729SOL    HW237647   1.525   1.021   0.052  0.3031  1.2810  1.1611
 8730SOL     OW37648   1.971   1.877  16.542  0.4995  0.4832 -0.0047
 8730SOL    HW137649   2.049   1.822  16.532  0.4969  0.1357  1.9280
 8730SOL    HW237650   1.973   1.896  16.636 -1.1913 -1.3206  0.3992
 8731SOL     OW37651   1.009   2.643   1.152  0.0195 -0.1742 -0.4158
 8731SOL    HW137652   1.064   2.676   1.080  1.9092  1.0907  1.5886
 8731SOL    HW237653   0.933   2.701   1.144 -0.0452 -0.0831  0.8728
 8732SOL     OW37654   2.498   0.066  10.925 -0.2386 -0.1487  0.0789
 8732SOL    HW137655   2.522   0.152  10.958  1.4741 -0.6908  0.2153
 8732SOL    HW237656   2.532   0.066  10.836  0.2617 -0.1473  0.2694
 8733SOL     OW37657   3.870   1.609   2.455  0.1323 -0.6819 -0.3454
 8733SOL    HW137658   3.907   1.559   2.528  1.1015 -0.5991 -0.7762
 8733SOL    HW237659   3.940   1.658   2.412  0.2813  0.9889  1.8112
 8734SOL     OW37660   0.319   2.852  10.432 -0.1449 -0.3565  0.3074
 8734SOL    HW137661   0.377   2.880  10.502  0.6094  0.1407 -0.5165
 8734SOL    HW237662   0.315   2.932  10.379 -0.3735  0.6873  1.8939
 8735SOL     OW37663   3.300   0.029   2.893 -0.1176  0.1324 -0.1152
 8735SOL    HW137664   3.223   0.085   2.910 -1.4802 -1.6913 -0.3129
 8735SOL    HW237665   3.375   0.081   2.923  0.3429 -0.1847 -0.7179
 8736SOL     OW37666   1.117   3.176  16.236  0.6310 -0.1161  0.0040
 8736SOL    HW137667   1.089   3.094  16.194  1.6970 -0.7106  0.4599
 8736SOL    HW237668   1.144   3.230  16.162 -0.2773 -0.5980 -0.6912
 8737SOL     OW37669   3.478   0.203   7.893 -0.2147  0.0729  0.3669
 8737SOL    HW137670   3.465   0.297   7.888  0.9677  0.0366 -3.0588
 8737SOL    HW237671   3.404   0.171   7.841 -0.2232 -0.5963  0.7866
 8738SOL     OW37672   0.475   2.240   6.018  0.4190 -0.0185 -0.0349
 8738SOL    HW137673   0.488   2.299   5.944 -0.2328  0.4812  0.2550
 8738SOL    HW237674   0.507   2.156   5.985 -1.0392 -0.8691  0.7192
 8739SOL     OW37675   2.382   2.453   1.098  0.0812 -0.2863 -0.0611
 8739SOL    HW137676   2.476   2.463   1.109  0.7110 -2.6419 -3.1537
 8739SOL    HW237677   2.350   2.541   1.117  1.3522  0.2509 -0.4512
 8740SOL     OW37678   3.114   4.356   7.585  0.7079 -0.1180 -0.3995
 8740SOL    HW137679   3.060   4.292   7.632  1.1187 -0.0008  0.2329
 8740SOL    HW237680   3.054   4.422   7.551 -0.8615 -1.8125 -0.9420
 8741SOL     OW37681   1.659   4.024   9.570 -0.4786 -0.0493 -0.4852
 8741SOL    HW137682   1.635   3.931   9.566 -1.6538  0.2377 -0.3257
 8741SOL    HW237683   1.627   4.058   9.653  0.2592  2.0070 -1.0553
 8742SOL     OW37684   1.623   3.595   4.552 -0.0239 -0.6554 -0.2563
 8742SOL    HW137685   1.552   3.561   4.497 -2.1198  1.5779  1.0471
 8742SOL    HW237686   1.614   3.686   4.524 -1.1644 -1.5006 -2.6519
 8743SOL     OW37687   2.193   2.555   4.272 -0.0947  0.4375  0.0581
 8743SOL    HW137688   2.136   2.510   4.210  0.9045 -1.8317  0.7837
 8743SOL    HW237689   2.125   2.584   4.333  0.0860  1.4103 -0.2026
 8744SOL     OW37690   2.883   2.396   3.027 -0.5056 -0.4101 -0.7856
 8744SOL    HW137691   2.863   2.355   2.943 -1.1542 -0.0957 -0.7848
 8744SOL    HW237692   2.861   2.333   3.096 -1.4208 -0.6255 -1.2679
 8745SOL     OW37693   1.901   1.856   5.364 -0.0899  0.1325 -0.1082
 8745SOL    HW137694   1.992   1.862   5.332  0.2847  1.9725  1.2832
 8745SOL    HW237695   1.864   1.779   5.322 -1.5413  0.2630  0.9395
 8746SOL     OW37696   1.411   4.084   0.741  0.4897  0.1059 -0.3777
 8746SOL    HW137697   1.396   4.051   0.652 -0.1205 -0.1655 -0.1761
 8746SOL    HW237698   1.361   4.022   0.794  0.5598  0.4980  0.1432
 8747SOL     OW37699   2.760   4.198   9.572  0.4931  0.0122 -0.1377
 8747SOL    HW137700   2.849   4.164   9.578  0.9438  1.2380  0.1122
 8747SOL    HW237701   2.727   4.153   9.495  0.6410  1.2509 -0.9180
 8748SOL     OW37702   3.305   1.202   0.422 -0.4720 -0.1916 -0.2104
 8748SOL    HW137703   3.348   1.132   0.372 -0.0564 -0.5160  0.5980
 8748SOL    HW237704   3.380   1.239   0.470  0.0362  1.8666 -2.5818
 8749SOL     OW37705   3.496   2.558   1.189 -0.0032  0.4375  0.1623
 8749SOL    HW137706   3.469   2.643   1.224  0.4117  0.4785  0.3855
 8749SOL    HW237707   3.591   2.556   1.188 -0.0796 -3.5863 -0.5447
 8750SOL     OW37708   1.800   2.784   3.164  0.6064  0.1701  0.0605
 8750SOL    HW137709   1.813   2.870   3.203  1.4630  0.5239 -0.9912
 8750SOL    HW237710   1.872   2.780   3.100  0.3565 -0.3668 -0.1880
 8751SOL     OW37711   0.014   4.347   1.681  0.4841  0.2894 -0.1662
 8751SOL    HW137712   4.715   4.306   1.765  0.3408 -2.7527 -1.6907
 8751SOL    HW237713   0.094   4.305   1.649 -0.7000 -1.3670 -0.9441
 8752SOL     OW37714   2.084   0.171  16.898  1.1906 -0.1035 -0.1177
 8752SOL    HW137715   2.003   0.197  16.942  0.0923 -0.4674 -1.9783
 8752SOL    HW237716   2.116   0.256  16.868 -1.8920  1.4564  0.9633
 8753SOL     OW37717   4.499   2.892   3.698  0.0207  0.3910  0.2992
 8753SOL    HW137718   4.594   2.876   3.695 -0.0504 -0.1366  0.8484
 8753SOL    HW237719   4.472   2.802   3.717  2.5623 -0.0395  2.0000
 8754SOL     OW37720   3.486   0.032   1.245 -0.2938 -0.3729 -0.2140
 8754SOL    HW137721   3.563   4.705   1.216  0.0602  0.6416 -0.9688
 8754SOL    HW237722   3.473   4.709   1.328  0.6946 -0.0282  0.1184
 8755SOL     OW37723   0.955   1.507  10.140 -0.2895  0.0770  0.6576
 8755SOL    HW137724   0.977   1.591  10.181  0.1148 -0.2038  1.0128
 8755SOL    HW237725   0.895   1.538  10.071  0.6703 -1.0076 -0.6601
 8756SOL     OW37726   4.630   1.452  11.553  0.0497 -0.2219 -0.0297
 8756SOL    HW137727   4.714   1.407  11.546 -0.2605 -1.0615  1.4694
 8756SOL    HW237728   4.632   1.491  11.640 -1.3213  0.3625 -0.2593
 8757SOL     OW37729   2.630   2.486   2.424  0.0472  0.3340 -0.2076
 8757SOL    HW137730   2.706   2.536   2.452  1.6867 -0.5742 -3.0374
 8757SOL    HW237731   2.569   2.558   2.407 -1.4198 -0.8115  0.1719
 8758SOL     OW37732   0.067   0.716   5.587 -0.7123  0.2419 -0.4373
 8758SOL    HW137733   0.097   0.704   5.677 -0.5130 -2.1029 -0.8211
 8758SOL    HW237734   4.708   0.665   5.588 -1.2558  1.1503  1.2388
 8759SOL     OW37735   1.918   2.039   8.399 -0.2475  0.1689 -0.1607
 8759SOL    HW137736   1.952   2.127   8.385  1.2888 -0.4406 -0.2843
 8759SOL    HW237737   1.976   1.985   8.345 -0.8812  1.4639 -2.1209
 8760SOL     OW37738   1.000   1.435   4.722 -0.3126 -0.2260 -0.6208
 8760SOL    HW137739   0.940   1.507   4.742  2.1672  0.9050  2.7081
 8760SOL    HW237740   1.083   1.481   4.707  0.0862 -1.1519 -1.2455
 8761SOL     OW37741   0.442   3.708   0.904  0.2343  0.3118 -0.4315
 8761SOL    HW137742   0.451   3.686   0.811  2.8655  2.1199 -0.5867
 8761SOL    HW237743   0.533   3.731   0.921  0.4731  0.1147 -1.4689
 8762SOL     OW37744   3.017   1.237   7.741 -0.2410 -0.5096 -0.4010
 8762SOL    HW137745   3.094   1.280   7.704 -0.9170  0.3418 -0.8094
 8762SOL    HW237746   2.948   1.270   7.683  0.8561 -0.7202 -1.8395
 8763SOL     OW37747   0.577   2.242   6.292  0.4456  0.1327  0.6864
 8763SOL    HW137748   0.634   2.319   6.298  0.5539  0.1705 -0.7021
 8763SOL    HW237749   0.539   2.249   6.204  2.3706  0.6130 -0.1199
 8764SOL     OW37750   1.891   0.939   7.360 -0.5902 -0.3703 -0.2207
 8764SOL    HW137751   1.869   0.945   7.267 -0.6232 -1.2633 -0.2725
 8764SOL    HW237752   1.985   0.952   7.352 -0.4903 -0.2307  1.2989
 8765SOL     OW37753   0.354   1.112  10.879 -0.2270  0.2440 -0.2684
 8765SOL    HW137754   0.311   1.146  10.801  0.5323 -1.8745 -1.5844
 8765SOL    HW237755   0.341   1.018  10.867  1.5632  0.1472 -1.3807
 8766SOL     OW37756   0.080   3.044  16.449 -0.1418  0.5522 -0.2007
 8766SOL    HW137757   0.132   3.078  16.376 -1.5053  0.7260 -1.0848
 8766SOL    HW237758   0.035   3.127  16.468 -0.1284  0.5934 -0.3441
 8767SOL     OW37759   4.356   4.280   2.295 -0.2906  0.4623 -0.1214
 8767SOL    HW137760   4.370   4.241   2.381  0.6116 -2.9115 -1.8185
 8767SOL    HW237761   4.303   4.354   2.324  1.7462  0.5393  3.5132
 8768SOL     OW37762   0.652   3.140  11.567 -0.0581 -0.0981  0.4306
 8768SOL    HW137763   0.662   3.225  11.611 -0.5823 -0.4256  1.1875
 8768SOL    HW237764   0.609   3.163  11.484  0.4740  1.2300  0.5134
 8769SOL     OW37765   1.068   2.220   5.712  0.0207 -0.3106  0.2014
 8769SOL    HW137766   1.000   2.276   5.751 -0.9186 -1.3844  0.1182
 8769SOL    HW237767   1.015   2.178   5.644 -1.5657  1.7183  0.1942
 8770SOL     OW37768   1.675   3.381   8.280 -0.6393  0.8146 -0.3076
 8770SOL    HW137769   1.671   3.374   8.375  1.0796  0.7092 -0.2460
 8770SOL    HW237770   1.583   3.368   8.259 -0.3384 -2.8621  0.6570
 8771SOL     OW37771   2.392   4.416  12.172  0.0133  0.4924 -0.2090
 8771SOL    HW137772   2.449   4.398  12.098 -0.9004  0.9809 -1.0356
 8771SOL    HW237773   2.319   4.365  12.139 -0.9309  1.1230  0.8681
 8772SOL     OW37774   4.585   2.945   2.363 -0.1415 -0.4031  0.4999
 8772SOL    HW137775   4.675   2.977   2.358 -0.1527 -0.1881  1.5267
 8772SOL    HW237776   4.589   2.887   2.287  1.9964  1.1475 -0.5598
 8773SOL     OW37777   1.511   2.706   7.709  0.1779 -0.0307  0.2430
 8773SOL    HW137778   1.596   2.749   7.720 -1.0149  1.9048  1.8961
 8773SOL    HW237779   1.466   2.712   7.793 -1.3245  0.3811 -0.5933
 8774SOL     OW37780   1.058   0.850   9.880 -0.0931 -0.0326 -0.1614
 8774SOL    HW137781   1.103   0.856   9.795  1.0160  0.7525  0.4721
 8774SOL    HW237782   1.105   0.785   9.931  0.5529  1.4117  1.0949
 8775SOL     OW37783   4.101   1.271   6.058 -0.4645  0.3182  0.3377
 8775SOL    HW137784   4.152   1.335   6.108  1.8943 -0.3026 -1.2693
 8775SOL    HW237785   4.023   1.285   6.111 -0.4216  0.9874  0.2160
 8776SOL     OW37786   1.156   0.456  11.077  0.1141  0.6894 -0.0038
 8776SOL    HW137787   1.248   0.448  11.105  1.1430  1.6739 -3.0442
 8776SOL    HW237788   1.139   0.376  11.027 -0.9327  1.0920 -0.2870
 8777SOL     OW37789   0.481   3.186   4.355 -0.7950  0.2701 -0.0209
 8777SOL    HW137790   0.565   3.142   4.366 -1.4703 -0.5402  2.0350
 8777SOL    HW237791   0.452   3.163   4.267 -2.0345  3.6222 -0.4791
 8778SOL     OW37792   3.473   2.777   5.492  0.5361 -0.1257 -0.0102
 8778SOL    HW137793   3.395   2.753   5.542  1.0168 -1.6351  0.0304
 8778SOL    HW237794   3.445   2.859   5.452 -1.1551 -1.2528 -1.1630
 8779SOL     OW37795   4.338   2.478   7.617  0.2407 -0.2021 -0.2386
 8779SOL    HW137796   4.380   2.428   7.546  0.2093  1.7725 -1.6310
 8779SOL    HW237797   4.260   2.521   7.582  1.9989  1.9762 -1.4502
 8780SOL     OW37798   3.312   2.352  15.709 -0.1594  0.3789 -0.3830
 8780SOL    HW137799   3.250   2.410  15.754 -1.6762 -3.0162  1.9342
 8780SOL    HW237800   3.375   2.407  15.663  0.6070 -0.6196 -0.5320
 8781SOL     OW37801   1.783   2.906   1.092  0.2785 -0.0971  0.6854
 8781SOL    HW137802   1.739   2.896   1.007 -1.4984  0.0392  1.5826
 8781SOL    HW237803   1.715   2.939   1.150 -0.1241 -0.0431  0.1856
 8782SOL     OW37804   2.833   2.794   2.164  0.3926 -0.5825 -0.5687
 8782SOL    HW137805   2.779   2.795   2.243  1.4419  0.1507  0.1346
 8782SOL    HW237806   2.791   2.728   2.110  0.7464  0.9889 -2.7485
 8783SOL     OW37807   4.609   2.172   1.671  0.4670  0.5404 -0.0296
 8783SOL    HW137808   4.580   2.243   1.614 -1.3543 -0.4076 -0.2858
 8783SOL    HW237809   4.682   2.131   1.623 -0.8284 -1.0226 -0.6771
 8784SOL     OW37810   2.288   4.399  10.506 -0.3531  0.3772 -0.2221
 8784SOL    HW137811   2.331   4.478  10.537 -0.1636 -0.8426  2.5443
 8784SOL    HW237812   2.213   4.400  10.565 -0.1467 -1.5054  0.0849
 8785SOL     OW37813   0.383   3.824   4.112  0.0359 -0.4379  0.0778
 8785SOL    HW137814   0.383   3.737   4.152  1.1268 -0.6028 -0.2828
 8785SOL    HW237815   0.313   3.808   4.049  0.8349  2.9742 -1.6734
 8786SOL     OW37816   3.891   0.448   2.877 -0.8732 -0.3695  0.4187
 8786SOL    HW137817   3.902   0.360   2.842 -2.9936 -1.1544  1.7430
 8786SOL    HW237818   3.805   0.449   2.919 -0.3652  1.0402  1.4469
 8787SOL     OW37819   2.374   1.428   8.179  0.3006  0.0671  0.0353
 8787SOL    HW137820   2.350   1.339   8.204  2.2656 -0.4099  0.2600
 8787SOL    HW237821   2.428   1.414   8.101 -1.0552 -0.0500 -0.8727
 8788SOL     OW37822   2.740   3.650   9.226  0.0079 -0.0048 -0.6446
 8788SOL    HW137823   2.759   3.671   9.134  0.4389 -0.4502 -0.6586
 8788SOL    HW237824   2.646   3.668   9.223 -0.3827 -2.0793 -1.0674
 8789SOL     OW37825   4.569   1.228   8.009 -0.4680  1.0885 -0.4899
 8789SOL    HW137826   4.612   1.166   7.951  0.1073  1.7323 -0.7581
 8789SOL    HW237827   4.550   1.296   7.945 -0.9480  1.0754 -0.3608
 8790SOL     OW37828   3.900   1.393   5.380  0.3541 -0.4216  0.1801
 8790SOL    HW137829   3.902   1.343   5.299 -0.0175 -1.3943  0.7830
 8790SOL    HW237830   3.852   1.335   5.438  2.2142  0.5351  2.6841
 8791SOL     OW37831   3.751   2.195   2.276 -0.1691 -0.1051  0.5244
 8791SOL    HW137832   3.838   2.187   2.236 -0.2658 -0.1081  0.3152
 8791SOL    HW237833   3.757   2.279   2.321  2.4087 -0.7872  1.4326
 8792SOL     OW37834   3.213   1.771   5.050 -0.1053 -0.3044 -0.2035
 8792SOL    HW137835   3.138   1.711   5.058  0.9227 -1.7989 -1.6084
 8792SOL    HW237836   3.281   1.723   5.097 -0.9147 -0.8051  0.4557
 8793SOL     OW37837   2.170   1.627   9.532 -0.1654 -0.5464  0.2095
 8793SOL    HW137838   2.174   1.546   9.583  1.6337 -1.7979 -1.8927
 8793SOL    HW237839   2.212   1.606   9.449 -1.2049 -1.2699 -0.1221
 8794SOL     OW37840   1.006   2.951   5.800 -0.6707  0.1554  0.0682
 8794SOL    HW137841   1.074   2.929   5.864  1.3860  1.5339 -1.6302
 8794SOL    HW237842   0.933   2.894   5.824  0.8103 -2.3921 -1.4737
 8795SOL     OW37843   2.808   2.403  14.434  0.3349  0.5708  0.2278
 8795SOL    HW137844   2.812   2.318  14.478 -1.7269  1.5282  2.2722
 8795SOL    HW237845   2.738   2.455  14.473  0.6339 -0.2826  1.8898
 8796SOL     OW37846   1.345   0.775   9.147 -0.2985  0.3497  0.2034
 8796SOL    HW137847   1.410   0.707   9.131  0.9531  1.8187 -0.9790
 8796SOL    HW237848   1.330   0.765   9.241  1.4576  1.1993  0.5797
 8797SOL     OW37849   4.429   2.108   9.213  0.3030  0.0852  0.0564
 8797SOL    HW137850   4.358   2.049   9.185  0.9122 -0.5691 -0.1130
 8797SOL    HW237851   4.505   2.050   9.217  1.6472  1.8842  0.6171
 8798SOL     OW37852   4.137   4.203   2.974 -0.2424  0.0326  0.1672
 8798SOL    HW137853   4.116   4.161   2.890  0.7964 -1.0610  0.4595
 8798SOL    HW237854   4.215   4.153   2.996 -0.2135  0.6348  1.3962
 8799SOL     OW37855   3.947   0.599  12.446  0.2220  0.1381 -0.2067
 8799SOL    HW137856   3.909   0.541  12.381  0.4668 -0.0887 -0.1466
 8799SOL    HW237857   3.967   0.541  12.519  2.0689  1.2168  0.1487
 8800SOL     OW37858   3.224   0.315   5.728 -0.1393 -0.0440  0.0432
 8800SOL    HW137859   3.210   0.381   5.660  0.0690 -0.1111 -0.0631
 8800SOL    HW237860   3.215   0.371   5.806  1.2141  0.2931 -0.0525
 8801SOL     OW37861   1.493   1.302   2.512 -0.1811  0.3828  0.1958
 8801SOL    HW137862   1.423   1.306   2.577  0.3805 -1.1870  0.8970
 8801SOL    HW237863   1.460   1.235   2.453  1.6568 -1.6578  1.4692
 8802SOL     OW37864   3.502   0.692   4.548 -0.0859  0.0812  0.5513
 8802SOL    HW137865   3.490   0.784   4.571  1.1116 -0.1178  1.9940
 8802SOL    HW237866   3.423   0.651   4.583 -0.2153 -1.1377 -1.1540
 8803SOL     OW37867   0.311   4.203   0.117  0.1152 -0.1010  0.0615
 8803SOL    HW137868   0.267   4.135   0.168 -0.3521  0.2410  0.1116
 8803SOL    HW237869   0.387   4.224   0.172 -1.1203  0.8317  1.3923
 8804SOL     OW37870   0.937   4.692   7.924 -0.1421 -0.1434 -0.0951
 8804SOL    HW137871   0.964   0.062   7.911  0.2048 -0.3144 -0.6049
 8804SOL    HW237872   0.881   4.698   8.001 -0.3441  0.0136 -0.2551
 8805SOL     OW37873   3.342   1.713   2.399  0.4588  0.3121 -0.1211
 8805SOL    HW137874   3.297   1.750   2.323  1.0906  0.6744 -0.3202
 8805SOL    HW237875   3.432   1.709   2.365  0.3316 -0.3438 -0.3743
 8806SOL     OW37876   4.146   2.346  16.882  0.4231 -0.5888  0.0390
 8806SOL    HW137877   4.238   2.348  16.910  1.0444 -2.4488 -1.8849
 8806SOL    HW237878   4.132   2.260  16.921 -1.6091  0.3019  1.2989
 8807SOL     OW37879   1.455   0.348   2.548 -0.3596 -0.2937 -0.5620
 8807SOL    HW137880   1.431   0.266   2.504 -0.5454 -0.4079 -0.2435
 8807SOL    HW237881   1.410   0.418   2.500 -0.3167  0.3739  0.3861
 8808SOL     OW37882   3.632   1.114  11.221  0.0783  0.0344 -0.5813
 8808SOL    HW137883   3.721   1.140  11.197  0.4334 -0.2464  0.4216
 8808SOL    HW237884   3.641   1.101  11.315  1.7618 -0.7615 -0.8617
 8809SOL     OW37885   3.305   3.113   3.957  0.2393  0.0848 -0.6581
 8809SOL    HW137886   3.373   3.177   3.975 -2.2453  2.6067 -0.2556
 8809SOL    HW237887   3.348   3.027   3.958 -0.2688 -0.1425  1.0054
 8810SOL     OW37888   2.846   1.540   6.238 -0.1674 -0.4608  0.1450
 8810SOL    HW137889   2.909   1.482   6.195  0.0861 -0.0305 -0.0655
 8810SOL    HW237890   2.774   1.520   6.178 -1.9209 -0.3604  2.1894
 8811SOL     OW37891   2.958   2.952   8.027  0.2466  0.6681 -0.2792
 8811SOL    HW137892   2.988   3.022   8.086  0.9843 -0.2728  0.4805
 8811SOL    HW237893   3.039   2.902   8.018  0.3686  0.8818 -0.3617
 8812SOL     OW37894   1.909   2.335  10.180 -0.2326  0.9656 -0.0695
 8812SOL    HW137895   1.865   2.392  10.244 -0.2741  0.3401  0.4527
 8812SOL    HW237896   1.843   2.266  10.177 -0.2367  0.8706  2.4901
 8813SOL     OW37897   3.840   2.319  15.887  0.4975  0.1694 -0.4942
 8813SOL    HW137898   3.935   2.332  15.888  0.4487  0.5255 -0.9572
 8813SOL    HW237899   3.805   2.361  15.966  0.5712 -0.0763 -0.3288
 8814SOL     OW37900   3.729   1.651   4.655  0.1336  0.3566  0.3765
 8814SOL    HW137901   3.749   1.689   4.570  0.8858  1.8739  1.2297
 8814SOL    HW237902   3.642   1.615   4.636  0.2598 -0.0465  0.5555
 8815SOL     OW37903   2.209   0.116   2.829 -0.2672  0.1354  0.1062
 8815SOL    HW137904   2.177   0.044   2.774 -0.7446 -0.8150  1.6151
 8815SOL    HW237905   2.136   0.134   2.889  0.7625  1.0201  1.0892
 8816SOL     OW37906   0.683   3.714   6.575 -0.6629 -0.1293 -0.1344
 8816SOL    HW137907   0.657   3.624   6.554 -0.8667  0.3662 -1.9214
 8816SOL    HW237908   0.777   3.701   6.564 -0.7430 -0.7988 -0.0633
 8817SOL     OW37909   0.176   4.452   0.136  0.4544  0.1312 -0.8005
 8817SOL    HW137910   0.234   4.488   0.068  1.6013 -1.0790 -0.4629
 8817SOL    HW237911   0.208   4.362   0.136  0.8359  0.2605 -1.5377
 8818SOL     OW37912   0.594   1.538   2.665  0.1777  0.1933 -0.4211
 8818SOL    HW137913   0.552   1.571   2.586 -0.7049 -0.1543 -0.0994
 8818SOL    HW237914   0.631   1.456   2.633 -1.8446 -1.8919  2.5177
 8819SOL     OW37915   4.360   3.853  15.177  0.2388 -0.1801 -0.5792
 8819SOL    HW137916   4.304   3.808  15.113  0.5840  1.9485 -2.3800
 8819SOL    HW237917   4.371   3.793  15.250 -0.7817  0.6179  0.2411
 8820SOL     OW37918   0.444   0.152  10.762  0.1282  0.3468 -0.3972
 8820SOL    HW137919   0.368   0.159  10.819 -0.9484 -1.2820 -1.6482
 8820SOL    HW237920   0.460   0.244  10.740  1.2534  0.0371 -0.9157
 8821SOL     OW37921   3.255   1.596  11.097  0.0746  0.1331  0.2185
 8821SOL    HW137922   3.220   1.585  11.185 -1.7531 -1.1256 -0.6589
 8821SOL    HW237923   3.301   1.677  11.121  1.8148 -0.9427  0.4531
 8822SOL     OW37924   2.116   0.717   4.039  0.3926  0.7517 -0.2260
 8822SOL    HW137925   2.089   0.738   3.950 -1.8843 -0.7543  0.1097
 8822SOL    HW237926   2.148   0.628   4.024 -0.1701  0.8733 -2.0239
 8823SOL     OW37927   1.078   0.143   9.758 -0.4844  0.0440 -0.3202
 8823SOL    HW137928   1.026   0.207   9.710  0.3856  0.0652 -1.2406
 8823SOL    HW237929   1.136   0.208   9.799 -0.8235 -0.2719  0.6472
 8824SOL     OW37930   2.349   1.362  11.966  0.7282  0.0444  0.1536
 8824SOL    HW137931   2.427   1.326  12.009  1.3535  2.4324  1.0276
 8824SOL    HW237932   2.390   1.408  11.893 -0.2948  0.7493  0.0310
 8825SOL     OW37933   1.347   2.980   4.840 -0.0030  0.4132  0.6938
 8825SOL    HW137934   1.432   3.002   4.879  1.1622 -0.9246 -1.0788
 8825SOL    HW237935   1.370   2.969   4.748  0.0951  0.0165  0.7655
 8826SOL     OW37936   2.145   1.635   9.882 -0.3906 -0.3108 -0.2460
 8826SOL    HW137937   2.148   1.656   9.976 -0.1672 -1.0400 -0.0803
 8826SOL    HW237938   2.050   1.631   9.876 -0.5189  2.2026  0.4013
 8827SOL     OW37939   2.209   4.143   4.820 -0.1834 -0.3017  0.6449
 8827SOL    HW137940   2.202   4.205   4.893  2.1968  1.7698 -0.9115
 8827SOL    HW237941   2.116   4.121   4.818 -0.3154  0.5666 -2.2346
 8828SOL     OW37942   3.460   1.907   4.241 -0.0520  0.2573 -0.5828
 8828SOL    HW137943   3.477   1.897   4.147  2.5758 -0.7627  0.0070
 8828SOL    HW237944   3.365   1.918   4.245  0.1815  1.9923 -0.0114
 8829SOL     OW37945   4.264   4.561   2.385  0.5344 -0.1734 -0.2687
 8829SOL    HW137946   4.315   4.641   2.394  2.1927 -1.4043  1.3725
 8829SOL    HW237947   4.176   4.591   2.409  0.9249  1.3712 -0.7626
 8830SOL     OW37948   0.577   0.540  13.454 -0.2957  0.0083 -0.2990
 8830SOL    HW137949   0.616   0.517  13.538  1.8265  1.7281 -0.8033
 8830SOL    HW237950   0.636   0.492  13.396 -1.6173 -1.6512 -0.2367
 8831SOL     OW37951   2.011   1.336   7.237 -0.5824  0.1902 -0.0278
 8831SOL    HW137952   2.033   1.250   7.199 -0.3355  0.5940 -0.7886
 8831SOL    HW237953   2.099   1.372   7.248  0.9153 -2.9313 -1.5758
 8832SOL     OW37954   1.635   3.791  12.788 -0.2435  0.4813  0.5197
 8832SOL    HW137955   1.654   3.713  12.839  1.1099 -1.1601 -2.4707
 8832SOL    HW237956   1.713   3.786  12.733 -1.0045  2.2337 -0.7223
 8833SOL     OW37957   0.981   3.446   5.461 -0.6277 -0.4648 -0.6462
 8833SOL    HW137958   0.969   3.369   5.517 -1.8661  1.2764  1.4869
 8833SOL    HW237959   0.927   3.509   5.509 -1.1243 -0.0671 -1.7172
 8834SOL     OW37960   4.373   4.098   3.035  0.5323  0.2741 -0.2549
 8834SOL    HW137961   4.380   4.006   3.009 -0.3236 -0.2027  1.2261
 8834SOL    HW237962   4.462   4.127   3.011  2.0040 -3.1008  1.2131
 8835SOL     OW37963   4.456   2.022   2.405 -0.4956 -0.6131  0.0824
 8835SOL    HW137964   4.514   2.073   2.349 -0.6263 -1.8333 -1.1738
 8835SOL    HW237965   4.456   1.940   2.355  1.7102  1.0866 -2.6817
 8836SOL     OW37966   1.632   1.589  16.954  0.0361 -0.1967  0.2727
 8836SOL    HW137967   1.550   1.608  16.907  0.5677 -1.4518 -1.1493
 8836SOL    HW237968   1.628   1.494  16.959 -5.3830  0.0724  0.8885
 8837SOL     OW37969   4.642   2.169   4.477 -0.0631 -0.2496  0.2420
 8837SOL    HW137970   4.609   2.233   4.539  2.5525 -0.4013  1.7775
 8837SOL    HW237971   4.704   2.129   4.537 -0.1413  0.2068  0.6247
 8838SOL     OW37972   2.415   2.299   3.704 -0.1401  0.0887  0.0439
 8838SOL    HW137973   2.333   2.265   3.740  0.1219 -0.0856  0.4620
 8838SOL    HW237974   2.393   2.298   3.611  0.0064  1.4026 -0.0161
 8839SOL     OW37975   0.597   0.071   1.524 -0.2223  0.2812  0.8772
 8839SOL    HW137976   0.542   4.715   1.534  2.0169 -1.2090  1.9737
 8839SOL    HW237977   0.677   0.035   1.564  0.4040  2.3167  1.4692
 8840SOL     OW37978   2.197   4.717   9.757 -0.3552 -0.2009 -0.1038
 8840SOL    HW137979   2.209   4.720   9.662  1.1840 -0.2369  0.0931
 8840SOL    HW237980   2.119   0.047   9.781  0.8185  0.7459  1.7309
 8841SOL     OW37981   1.900   0.347   5.636 -0.3244 -0.1767 -0.3159
 8841SOL    HW137982   1.840   0.308   5.699  2.2221 -0.6468  1.8321
 8841SOL    HW237983   1.985   0.313   5.664 -0.7412  0.9720  2.3220
 8842SOL     OW37984   0.068   3.620  15.210 -0.1529 -0.2094 -0.2776
 8842SOL    HW137985   0.003   3.619  15.280  1.2207  0.4857  1.0062
 8842SOL    HW237986   0.054   3.707  15.172 -0.1836  0.0084  0.2409
 8843SOL     OW37987   0.306   2.810   0.810  0.0931 -0.1801 -0.4078
 8843SOL    HW137988   0.293   2.715   0.817  0.6308 -0.1604  0.9836
 8843SOL    HW237989   0.319   2.812   0.716  0.2371 -1.8451 -0.4256
 8844SOL     OW37990   0.525   0.856   9.047  0.2871 -0.2151 -0.2373
 8844SOL    HW137991   0.588   0.918   9.011 -1.2484  3.1865  2.9712
 8844SOL    HW237992   0.454   0.918   9.062 -0.7114 -1.5427  0.5970
 8845SOL     OW37993   4.152   2.057   6.696 -0.1786  0.1781 -0.1841
 8845SOL    HW137994   4.093   2.070   6.770 -1.1190  1.0151 -1.0762
 8845SOL    HW237995   4.210   1.991   6.732 -1.8522 -1.3685 -0.2997
 8846SOL     OW37996   0.032   2.744   1.095 -0.0787  0.4707 -0.0589
 8846SOL    HW137997   0.057   2.731   1.187 -3.2416 -3.2006  0.2629
 8846SOL    HW237998   4.659   2.749   1.113 -0.2567 -0.8787 -0.6138
 8847SOL     OW37999   2.418   0.653   5.213 -0.1170  0.5553 -0.0640
 8847SOL    HW138000   2.369   0.625   5.291  3.3837 -1.7258  1.3140
 8847SOL    HW238001   2.353   0.631   5.146  1.2881 -2.8423 -0.3111
 8848SOL     OW38002   3.356   3.354  12.763  0.1605 -0.1943  0.5731
 8848SOL    HW138003   3.362   3.407  12.684  2.3924  0.3732  1.1081
 8848SOL    HW238004   3.263   3.352  12.787  0.4628 -0.7866  1.6952
 8849SOL     OW38005   4.455   4.376   7.236 -0.4268  0.4431  0.3710
 8849SOL    HW138006   4.429   4.321   7.163 -1.8963 -0.1672  1.3645
 8849SOL    HW238007   4.529   4.418   7.192  1.2771 -0.3034  2.5339
 8850SOL     OW38008   0.624   1.809   5.633  0.4835  0.1569 -0.0157
 8850SOL    HW138009   0.598   1.736   5.577 -0.5101 -1.3364  2.4148
 8850SOL    HW238010   0.540   1.849   5.654 -0.8436 -1.6216 -1.9393
 8851SOL     OW38011   1.022   0.438   2.424  0.2049 -0.4911 -0.0627
 8851SOL    HW138012   0.947   0.398   2.469 -0.0807  0.8976  0.6909
 8851SOL    HW238013   1.087   0.382   2.467  0.4224  0.1207  0.4066
 8852SOL     OW38014   0.437   2.399   7.771 -0.4603 -0.2148  0.0826
 8852SOL    HW138015   0.406   2.453   7.844  0.5746 -0.8262  0.9709
 8852SOL    HW238016   0.445   2.461   7.698 -0.4323 -0.7643 -0.3799
 8853SOL     OW38017   4.236   0.997   3.000 -0.0819 -0.1127 -0.2126
 8853SOL    HW138018   4.175   0.928   3.030  0.3312  0.0176  0.9195
 8853SOL    HW238019   4.311   0.942   2.979  1.1668  1.7361 -0.5248
 8854SOL     OW38020   1.865   1.386  10.222 -0.1944 -0.0329  0.0068
 8854SOL    HW138021   1.786   1.342  10.254 -1.7010  3.0180  0.4770
 8854SOL    HW238022   1.851   1.384  10.127 -1.4895  1.7728  0.1681
 8855SOL     OW38023   3.060   2.842   2.335  0.4128  0.2280 -0.2991
 8855SOL    HW138024   3.148   2.849   2.297 -1.0232  0.0306 -3.6724
 8855SOL    HW238025   3.008   2.789   2.274  0.2152  0.1210 -0.0341
 8856SOL     OW38026   1.955   0.144   9.781  0.2625 -0.2592 -0.5939
 8856SOL    HW138027   1.886   0.078   9.781  0.1161 -0.0976 -0.1148
 8856SOL    HW238028   1.943   0.181   9.694 -0.9508 -0.2175 -0.3990
 8857SOL     OW38029   3.999   4.540  10.360  0.4839 -0.0716 -0.0252
 8857SOL    HW138030   4.077   4.487  10.339  2.7428  2.9194  0.8392
 8857SOL    HW238031   3.943   4.505  10.291 -1.1398 -0.6343  1.5748
 8858SOL     OW38032   4.346   2.772   1.712  0.1738  0.0761  0.1582
 8858SOL    HW138033   4.377   2.822   1.787  1.2768 -0.1749 -0.1378
 8858SOL    HW238034   4.332   2.839   1.645 -0.7079  0.6816  0.9474
 8859SOL     OW38035   3.265   1.925   2.888  0.4344  0.1836 -0.7715
 8859SOL    HW138036   3.277   1.932   2.794 -0.9066  0.5720 -0.9187
 8859SOL    HW238037   3.227   1.836   2.890 -2.0142  1.2897  2.7027
 8860SOL     OW38038   2.359   3.884   3.441 -0.1336  0.0001  0.6077
 8860SOL    HW138039   2.386   3.910   3.353 -1.2730  1.1430  0.5958
 8860SOL    HW238040   2.407   3.802   3.450  0.0226 -0.1860 -2.0150
 8861SOL     OW38041   0.251   0.714   8.717  0.3445 -0.2427 -0.3360
 8861SOL    HW138042   0.322   0.663   8.757  0.8219  2.8501  2.7232
 8861SOL    HW238043   0.212   0.748   8.798 -1.2510 -1.0345 -0.7646
 8862SOL     OW38044   3.787   0.116   4.818  0.1294  0.0748 -0.3076
 8862SOL    HW138045   3.854   0.170   4.775  1.0652 -0.7259  0.1608
 8862SOL    HW238046   3.722   0.185   4.831 -0.1051 -0.1062 -0.5375
 8863SOL     OW38047   3.454   1.080   3.443 -0.8742  0.1892 -0.2010
 8863SOL    HW138048   3.389   1.016   3.414 -0.1955 -0.8656  0.5844
 8863SOL    HW238049   3.538   1.034   3.453 -1.0189  0.5747  2.7689
 8864SOL     OW38050   3.149   1.408   1.056 -0.2796  0.0168  0.3900
 8864SOL    HW138051   3.188   1.336   1.006  0.1112 -0.8376  1.9411
 8864SOL    HW238052   3.160   1.365   1.141 -1.8457 -0.2154  0.4743
 8865SOL     OW38053   3.349   3.980  13.646  0.2362 -0.1605 -0.0045
 8865SOL    HW138054   3.358   3.891  13.679 -3.3230 -1.4176 -2.4776
 8865SOL    HW238055   3.414   4.031  13.695 -0.5988 -1.1741  2.1457
 8866SOL     OW38056   3.609   3.930   3.488 -0.6628  0.5313  0.7068
 8866SOL    HW138057   3.702   3.953   3.494 -1.2136  3.4089 -1.6419
 8866SOL    HW238058   3.558   4.009   3.474 -0.6341  0.6914  1.5264
 8867SOL     OW38059   1.442   1.349   0.155  0.5150  0.0046  0.0999
 8867SOL    HW138060   1.448   1.323   0.063 -0.0123 -0.0543  0.0782
 8867SOL    HW238061   1.347   1.343   0.169  0.2339  0.3478 -1.6182
 8868SOL     OW38062   1.494   0.678   0.163  0.3283 -0.1335  0.0711
 8868SOL    HW138063   1.548   0.728   0.225 -1.0547  0.8458  0.4839
 8868SOL    HW238064   1.462   0.749   0.107  0.1165  0.5508  1.0534
 8869SOL     OW38065   2.705   1.497   2.109 -0.4584  0.3435  0.3408
 8869SOL    HW138066   2.698   1.586   2.073  0.8010  0.3373  0.0594
 8869SOL    HW238067   2.724   1.456   2.025  0.0610 -1.4094  1.3173
 8870SOL     OW38068   0.300   1.585   9.052 -0.3161  0.2282  0.2934
 8870SOL    HW138069   0.378   1.587   9.107 -0.3586 -2.2646  0.4156
 8870SOL    HW238070   0.294   1.491   9.037 -0.8245  0.2454  0.3735
 8871SOL     OW38071   1.258   2.107   7.482 -0.0115  0.0545  0.0207
 8871SOL    HW138072   1.324   2.044   7.514 -2.5311 -2.6393 -0.1003
 8871SOL    HW238073   1.214   2.120   7.566  0.6217 -0.2536  0.4075
 8872SOL     OW38074   0.570   2.477   0.243 -0.6562 -0.6594  0.2400
 8872SOL    HW138075   0.487   2.440   0.215 -1.0844  0.8924 -0.5098
 8872SOL    HW238076   0.568   2.558   0.191  3.1268 -1.5019 -1.2393
 8873SOL     OW38077   0.780   3.172  17.358 -0.0808  0.4251 -0.4738
 8873SOL    HW138078   0.764   3.113  17.431 -1.1397  0.1158 -0.9620
 8873SOL    HW238079   0.871   3.152  17.339 -0.1850 -0.4949  0.0269
 8874SOL     OW38080   3.866   1.817   3.721 -0.0457  0.1401 -0.1122
 8874SOL    HW138081   3.863   1.728   3.684 -2.2665  0.3974 -0.5153
 8874SOL    HW238082   3.881   1.874   3.646 -0.8187  0.5914  0.0833
 8875SOL     OW38083   3.099   2.049   6.389  0.1127 -0.4459  0.0235
 8875SOL    HW138084   3.019   2.049   6.442 -1.2074  1.4042 -1.9270
 8875SOL    HW238085   3.165   1.998   6.436  3.5334  1.5906 -2.5825
 8876SOL     OW38086   1.724   0.231   5.853  0.0750 -0.4511 -0.0769
 8876SOL    HW138087   1.678   0.217   5.935  1.2970  0.7276  0.8064
 8876SOL    HW238088   1.777   0.151   5.854  1.6662  0.6619  3.2012
 8877SOL     OW38089   0.210   3.863  15.460  0.1552 -0.5976  0.8548
 8877SOL    HW138090   0.161   3.851  15.378  1.0583 -0.6894  0.3251
 8877SOL    HW238091   0.147   3.913  15.512 -0.5105 -1.2724  0.6919
 8878SOL     OW38092   0.771   3.136   6.282  0.5420 -0.2806  0.2245
 8878SOL    HW138093   0.718   3.106   6.208  0.9396 -1.2785  0.3477
 8878SOL    HW238094   0.846   3.179   6.239  0.4516 -0.9275 -0.5858
 8879SOL     OW38095   3.746   2.084   1.297 -0.1302 -0.0275 -0.7384
 8879SOL    HW138096   3.835   2.077   1.332  0.1116 -0.3028 -1.4108
 8879SOL    HW238097   3.719   2.160   1.349  1.0197 -0.2902  0.2307
 8880SOL     OW38098   0.314   3.259   3.400 -0.0802 -0.0320 -0.3488
 8880SOL    HW138099   0.274   3.219   3.322  0.3620 -0.2234 -0.4764
 8880SOL    HW238100   0.257   3.236   3.474 -0.2834  0.8584 -0.2325
 8881SOL     OW38101   1.278   0.348   8.918  0.2179 -0.3538 -0.9504
 8881SOL    HW138102   1.298   0.260   8.950  1.9367 -0.6638 -2.8744
 8881SOL    HW238103   1.275   0.335   8.823  1.6781 -1.8017 -0.8062
 8882SOL     OW38104   2.921   0.283   8.343  0.5385  0.0274 -0.1037
 8882SOL    HW138105   3.010   0.316   8.345  0.5616 -0.0297 -0.1719
 8882SOL    HW238106   2.915   0.248   8.432 -0.3859  1.5223  0.4122
 8883SOL     OW38107   0.759   3.897   5.750  0.0390 -0.3487  0.0901
 8883SOL    HW138108   0.813   3.904   5.672 -1.0021 -1.4109 -0.7307
 8883SOL    HW238109   0.804   3.834   5.807  0.6383 -0.9278 -1.0046
 8884SOL     OW38110   3.753   1.027   6.432  0.2056 -0.3390 -0.4174
 8884SOL    HW138111   3.706   0.944   6.440 -0.0907  0.0149  1.5774
 8884SOL    HW238112   3.688   1.072   6.378 -0.1067  1.9658  1.9013
 8885SOL     OW38113   3.837   1.740   4.404  0.4143  0.4089 -0.5158
 8885SOL    HW138114   3.869   1.817   4.450 -3.5646  0.1633  2.6610
 8885SOL    HW238115   3.818   1.775   4.317 -0.6542 -0.8740 -0.8004
 8886SOL     OW38116   4.256   1.747   9.647  0.5914 -0.3532 -0.2389
 8886SOL    HW138117   4.310   1.813   9.604  1.7101 -0.7238  0.5946
 8886SOL    HW238118   4.326   1.683   9.659  2.3770  1.6694  0.3013
 8887SOL     OW38119   4.542   3.445   8.060  0.4815 -0.2983 -0.1080
 8887SOL    HW138120   4.533   3.391   8.138 -1.7628  0.4880  0.1905
 8887SOL    HW238121   4.464   3.435   8.005 -1.2030  1.2488  2.0518
 8888SOL     OW38122   2.434   1.233  10.731  0.3296 -0.1159  0.3397
 8888SOL    HW138123   2.492   1.292  10.683  0.7060  0.5206  1.5705
 8888SOL    HW238124   2.404   1.296  10.797  1.7132 -1.1657  1.9795
 8889SOL     OW38125   0.415   2.673   1.905  0.3056  0.4912 -0.4021
 8889SOL    HW138126   0.484   2.655   1.969 -0.1551 -0.8617 -0.2987
 8889SOL    HW238127   0.366   2.592   1.920 -0.0378  0.9261  0.8123
 8890SOL     OW38128   1.229   3.301  15.128 -0.3762  0.4328 -0.0544
 8890SOL    HW138129   1.259   3.213  15.153 -2.3564 -0.1345  0.3418
 8890SOL    HW238130   1.269   3.354  15.197 -1.8327 -0.4178  1.4629
 8891SOL     OW38131   2.690   2.034   0.958 -0.3744 -0.2185 -0.0691
 8891SOL    HW138132   2.621   2.094   0.930  1.8389  2.0546 -0.6519
 8891SOL    HW238133   2.642   1.951   0.965 -1.6054  0.5606  0.6806
 8892SOL     OW38134   2.648   1.216   7.343 -0.0649 -0.3823  0.3613
 8892SOL    HW138135   2.595   1.222   7.423 -0.3357  1.5681  0.0298
 8892SOL    HW238136   2.716   1.277   7.371 -1.9132  2.0147 -0.4044
 8893SOL     OW38137   3.861   1.686  11.845 -0.0994  0.0404  0.6593
 8893SOL    HW138138   3.796   1.646  11.903 -0.1018 -1.3143 -0.2676
 8893SOL    HW238139   3.871   1.614  11.783  1.5379  1.4947 -0.7486
 8894SOL     OW38140   0.818   1.756   1.845 -0.6350  0.3099  0.2046
 8894SOL    HW138141   0.815   1.670   1.887  0.4782  0.6039  0.8895
 8894SOL    HW238142   0.763   1.740   1.769 -1.2463 -2.6625  1.2814
 8895SOL     OW38143   4.596   3.248  16.509 -0.0914 -0.0243  0.0013
 8895SOL    HW138144   4.632   3.277  16.592 -1.5091 -2.1346  1.3413
 8895SOL    HW238145   4.560   3.323  16.462 -1.0667 -0.6154 -0.1947
 8896SOL     OW38146   2.694   1.038   3.411  0.0844  0.4114  0.6153
 8896SOL    HW138147   2.616   0.988   3.386  1.3081 -0.8974 -0.5756
 8896SOL    HW238148   2.765   0.993   3.366 -0.3675  1.3003 -1.0099
 8897SOL     OW38149   2.559   1.987   6.811 -0.0066 -0.2818 -0.2706
 8897SOL    HW138150   2.528   1.982   6.720 -1.8603  0.5270  0.3056
 8897SOL    HW238151   2.633   2.046   6.795  0.6766 -1.0045  0.2774
 8898SOL     OW38152   3.648   3.102   8.944  0.2631 -0.1488 -0.1358
 8898SOL    HW138153   3.732   3.063   8.920  0.0222 -1.7955  1.7434
 8898SOL    HW238154   3.586   3.062   8.884 -1.1448  1.6195  0.1395
 8899SOL     OW38155   2.278   3.997  17.140 -0.4473 -0.1641 -0.4210
 8899SOL    HW138156   2.348   4.062  17.131 -0.1546 -0.5071 -0.5826
 8899SOL    HW238157   2.243   3.994  17.051 -1.9980 -1.4469  0.2305
 8900SOL     OW38158   4.373   3.945   5.390  0.1973 -0.2459 -0.3469
 8900SOL    HW138159   4.317   4.011   5.349 -1.3105 -0.2781  1.6379
 8900SOL    HW238160   4.341   3.861   5.358 -0.9875 -0.3350  1.0707
 8901SOL     OW38161   0.791   0.783   4.509  1.1249  0.3901  0.6833
 8901SOL    HW138162   0.870   0.834   4.527  1.9145 -0.4983 -0.2574
 8901SOL    HW238163   0.785   0.723   4.583  1.3254 -0.9347 -0.3840
 8902SOL     OW38164   0.751   0.408   4.016 -0.4166  0.1785  0.7677
 8902SOL    HW138165   0.814   0.354   4.063  1.0916  0.4695 -0.9386
 8902SOL    HW238166   0.686   0.345   3.985 -2.3423  2.5619 -0.0482
 8903SOL     OW38167   0.992   1.696   5.671  0.5176  0.4251  0.2429
 8903SOL    HW138168   1.006   1.611   5.712  1.4599  1.8532  2.9336
 8903SOL    HW238169   0.919   1.668   5.616  0.3974 -0.5278  0.8972
 8904SOL     OW38170   1.993   3.199   6.362 -0.1407 -0.4211 -0.2151
 8904SOL    HW138171   2.026   3.239   6.442  0.4383 -0.9402 -0.1930
 8904SOL    HW238172   2.075   3.204   6.312 -0.3828 -2.0286 -0.7787
 8905SOL     OW38173   1.729   0.669   7.544 -0.5987  0.6417 -0.9084
 8905SOL    HW138174   1.812   0.663   7.590 -0.9172  0.4483 -0.3561
 8905SOL    HW238175   1.673   0.643   7.618  0.0441  0.9323 -0.3258
 8906SOL     OW38176   3.216   2.239   7.679 -0.8002 -0.0222  0.3883
 8906SOL    HW138177   3.310   2.255   7.673 -0.8389  0.6004  1.5401
 8906SOL    HW238178   3.182   2.242   7.589  1.7362  0.1829 -0.5759
 8907SOL     OW38179   4.656   0.609  11.193  0.1675 -0.0767 -0.0223
 8907SOL    HW138180   4.707   0.679  11.235 -2.5936  0.1079  2.9956
 8907SOL    HW238181   4.715   0.540  11.223  0.5283 -0.2203 -1.0452
 8908SOL     OW38182   2.276   4.486   4.767 -0.7546  0.0825 -0.3074
 8908SOL    HW138183   2.296   4.396   4.740 -2.1654 -0.7163  1.3136
 8908SOL    HW238184   2.350   4.531   4.727 -0.1046 -1.5216 -0.9088
 8909SOL     OW38185   0.571   1.185  10.443  0.2891 -0.2072 -0.1619
 8909SOL    HW138186   0.536   1.119  10.501 -3.0624  0.5358 -1.3476
 8909SOL    HW238187   0.574   1.144  10.356 -0.9634 -1.1842  0.2731
 8910SOL     OW38188   3.073   0.710   8.269 -0.3592  0.0646 -0.2507
 8910SOL    HW138189   3.030   0.658   8.201 -3.5088  0.5503  1.3877
 8910SOL    HW238190   3.145   0.746   8.217 -0.7710 -0.1680 -0.9732
 8911SOL     OW38191   2.282   0.439   3.383  0.4927 -0.2977 -0.8243
 8911SOL    HW138192   2.282   0.459   3.477 -1.1931 -0.1623 -0.8565
 8911SOL    HW238193   2.364   0.390   3.377  0.8149  0.6102 -3.7684
 8912SOL     OW38194   2.774   0.082   4.627 -0.2403 -0.1918  0.1290
 8912SOL    HW138195   2.743   0.173   4.620 -3.7699 -1.4975 -0.9614
 8912SOL    HW238196   2.854   0.069   4.576 -1.3360 -0.1686 -1.5808
 8913SOL     OW38197   2.103   3.605   5.437 -0.3213 -0.2354 -0.1983
 8913SOL    HW138198   2.081   3.520   5.399 -0.4440 -0.6554  0.8092
 8913SOL    HW238199   2.147   3.567   5.514  0.4530  0.6912 -0.1812
 8914SOL     OW38200   0.661   2.594   0.679 -0.1920 -0.0742 -0.3245
 8914SOL    HW138201   0.579   2.547   0.692  0.6643 -0.8751  2.2924
 8914SOL    HW238202   0.710   2.530   0.627 -0.0081 -0.3450  0.1817
 8915SOL     OW38203   1.577   1.186   1.750  0.1065 -0.1486 -0.1500
 8915SOL    HW138204   1.664   1.157   1.723  0.0707  0.0953 -0.5237
 8915SOL    HW238205   1.593   1.196   1.844  2.3197  2.1079 -0.7664
 8916SOL     OW38206   1.524   4.676  17.355 -0.0124 -0.1959 -0.4720
 8916SOL    HW138207   1.544   0.039  17.394 -1.1864  0.6967 -1.7754
 8916SOL    HW238208   1.528   4.702  17.263 -0.9972 -0.7932 -0.6880
 8917SOL     OW38209   3.341   3.917   4.375  0.2515 -0.2518  0.5461
 8917SOL    HW138210   3.319   4.006   4.347 -1.5038 -1.3192 -1.4934
 8917SOL    HW238211   3.402   3.900   4.303 -0.0273 -0.8745  0.4551
 8918SOL     OW38212   1.983   2.232   4.971 -0.1125  0.0606  0.0819
 8918SOL    HW138213   2.029   2.211   5.052 -1.1766  0.6347  0.8293
 8918SOL    HW238214   2.047   2.237   4.900 -0.4007 -0.3274 -0.1980
 8919SOL     OW38215   3.826   3.803  17.645  0.2204  0.1101 -0.1716
 8919SOL    HW138216   3.758   3.865  17.619 -0.4117 -0.9491 -1.0793
 8919SOL    HW238217   3.903   3.860  17.651  1.0102 -0.7948 -1.5972
 8920SOL     OW38218   4.263   3.909   1.322  0.2669 -0.4268 -0.3182
 8920SOL    HW138219   4.339   3.959   1.290  0.3774 -1.5489 -1.8224
 8920SOL    HW238220   4.266   3.929   1.416 -0.7915 -4.1799  0.4871
 8921SOL     OW38221   1.637   0.796   0.798 -0.5170 -0.3775 -0.3948
 8921SOL    HW138222   1.638   0.888   0.826 -0.9500 -0.3235 -0.5533
 8921SOL    HW238223   1.732   0.786   0.801 -0.5880 -1.4467 -2.1609
 8922SOL     OW38224   4.181   4.334   4.620  0.3349  0.1887 -0.2575
 8922SOL    HW138225   4.257   4.389   4.601 -0.0031  0.4927 -0.7233
 8922SOL    HW238226   4.125   4.355   4.545  0.1387 -0.4313 -0.2907
 8923SOL     OW38227   0.832   4.199   7.747  0.1702 -0.0476  0.4291
 8923SOL    HW138228   0.871   4.213   7.661 -2.1905  1.2109 -0.4615
 8923SOL    HW238229   0.829   4.292   7.772  0.2044  0.3643 -1.0893
 8924SOL     OW38230   2.930   0.728   7.143 -0.1487  0.0576 -0.0108
 8924SOL    HW138231   2.990   0.803   7.141  0.7126 -0.6659 -1.2293
 8924SOL    HW238232   2.914   0.727   7.237  1.3811  0.2422  0.2528
 8925SOL     OW38233   2.050   1.754   6.168 -0.4134  0.0525  0.5325
 8925SOL    HW138234   1.961   1.784   6.148 -0.4849  0.3879  1.3490
 8925SOL    HW238235   2.043   1.738   6.262 -0.7478  1.0657  0.6790
 8926SOL     OW38236   0.358   4.370   4.259 -0.2814 -0.2473 -0.4968
 8926SOL    HW138237   0.348   4.395   4.351  0.2173 -1.2358 -0.1750
 8926SOL    HW238238   0.412   4.291   4.263 -3.4970 -2.4611 -1.0594
 8927SOL     OW38239   2.828   4.336   5.460 -0.6152  0.1602  0.3489
 8927SOL    HW138240   2.883   4.414   5.466  0.1088 -0.4154  1.2236
 8927SOL    HW238241   2.884   4.260   5.476 -0.8538  0.2179  1.4249
 8928SOL     OW38242   3.266   0.233  16.766  0.8845 -0.2757  0.0870
 8928SOL    HW138243   3.359   0.254  16.754  0.8247  0.4706  0.9757
 8928SOL    HW238244   3.281   0.144  16.798  0.1144  0.4561  2.4634
 8929SOL     OW38245   3.775   0.881   4.547  0.8757  0.4537 -0.1918
 8929SOL    HW138246   3.837   0.825   4.500  1.0629  1.0168 -0.6252
 8929SOL    HW238247   3.748   0.953   4.489 -2.8904  1.3446  2.6830
 8930SOL     OW38248   2.886   2.703  11.203  0.2895 -0.0432  0.3810
 8930SOL    HW138249   2.942   2.747  11.139 -0.7768 -0.8282 -1.0678
 8930SOL    HW238250   2.866   2.620  11.160 -4.3273  0.6040  1.3386
 8931SOL     OW38251   3.447   4.701  14.496  0.2771 -0.3970 -0.1970
 8931SOL    HW138252   3.463   0.044  14.427  0.5137 -2.7250 -2.3441
 8931SOL    HW238253   3.371   4.656  14.458  1.1172 -1.3112 -0.8001
 8932SOL     OW38254   3.904   2.115  10.919 -0.3998  0.1825  0.3912
 8932SOL    HW138255   3.816   2.134  10.950 -0.5460  1.1161 -0.5783
 8932SOL    HW238256   3.966   2.141  10.988 -0.2941 -1.7251  0.9971
 8933SOL     OW38257   3.845   0.025   1.893  0.2172  0.5083  0.3049
 8933SOL    HW138258   3.875   0.063   1.810 -1.6442 -0.1549 -0.6844
 8933SOL    HW238259   3.922   0.024   1.949  0.6272 -0.2282 -0.2622
 8934SOL     OW38260   3.522   0.626   5.161  0.1628 -0.0295  0.6869
 8934SOL    HW138261   3.461   0.571   5.112  2.6522 -0.1970 -2.1980
 8934SOL    HW238262   3.463   0.673   5.220 -1.2878  0.5969 -1.2837
 8935SOL     OW38263   2.757   1.036   2.068  0.0809  0.0435  0.1520
 8935SOL    HW138264   2.703   0.971   2.113 -0.0257  0.9681  1.3725
 8935SOL    HW238265   2.698   1.108   2.087  2.4162  2.6775 -2.6939
 8936SOL     OW38266   3.411   3.796   8.667 -0.1185  0.2966 -0.0140
 8936SOL    HW138267   3.317   3.780   8.668  0.1625 -1.3339  0.9450
 8936SOL    HW238268   3.435   3.772   8.577  0.6587 -2.6749  0.9748
 8937SOL     OW38269   3.729   3.630   6.461 -0.1152 -0.4140 -0.6745
 8937SOL    HW138270   3.718   3.725   6.456 -1.0163 -0.4587  0.4192
 8937SOL    HW238271   3.814   3.623   6.418  0.1538 -0.2799 -0.1611
 8938SOL     OW38272   0.511   0.605   9.122  0.3548 -0.2507 -0.4297
 8938SOL    HW138273   0.530   0.695   9.095 -1.6612  0.9619  2.2304
 8938SOL    HW238274   0.601   0.574   9.113  0.2920 -0.6572  0.3974
 8939SOL     OW38275   0.312   1.186   6.777  0.0180  0.5139  0.4330
 8939SOL    HW138276   0.333   1.279   6.767  0.1990  0.3720 -0.5147
 8939SOL    HW238277   0.370   1.146   6.712 -0.4667 -0.0306  0.3429
 8940SOL     OW38278   0.126   2.755   2.039  0.1675 -0.6655  0.1598
 8940SOL    HW138279   0.206   2.743   2.091 -0.5287 -1.9043  0.9422
 8940SOL    HW238280   0.137   2.849   2.026 -0.9948 -0.6646 -0.7783
 8941SOL     OW38281   3.673   4.417   2.168  0.4025  0.4842 -0.6391
 8941SOL    HW138282   3.610   4.363   2.216  1.9314 -0.8995 -0.2288
 8941SOL    HW238283   3.644   4.505   2.193  1.1243  1.0538 -1.7992
 8942SOL     OW38284   3.895   1.461   8.768  0.0691  0.1409  0.2244
 8942SOL    HW138285   3.865   1.537   8.819 -0.9327 -0.4543  0.5132
 8942SOL    HW238286   3.841   1.393   8.807 -1.3403  1.3241  0.3328
 8943SOL     OW38287   3.753   2.364   4.251 -0.8541  0.2879 -0.2497
 8943SOL    HW138288   3.719   2.362   4.162  1.9720 -0.5392 -1.3269
 8943SOL    HW238289   3.770   2.272   4.275 -1.0790 -0.1104 -1.6154
 8944SOL     OW38290   2.777   2.184   1.540 -1.2366 -0.2233 -0.1463
 8944SOL    HW138291   2.759   2.170   1.633  1.5794 -0.1430  0.4035
 8944SOL    HW238292   2.704   2.241   1.515 -1.5466 -0.7374 -0.4277
 8945SOL     OW38293   3.337   2.384  16.096 -0.1140 -0.6890  0.8733
 8945SOL    HW138294   3.295   2.377  16.181  2.0441 -1.1561  1.9051
 8945SOL    HW238295   3.422   2.353  16.127  1.3384  1.4400 -0.9306
 8946SOL     OW38296   0.563   4.232   2.295 -0.0666 -0.3203 -0.0379
 8946SOL    HW138297   0.601   4.241   2.382 -0.1173 -3.0768  0.2741
 8946SOL    HW238298   0.505   4.155   2.300 -1.3133  0.5989 -0.4367
 8947SOL     OW38299   1.826   2.031   8.864  0.1507 -0.2958 -0.4804
 8947SOL    HW138300   1.835   2.006   8.956  0.4203  1.7185  0.0337
 8947SOL    HW238301   1.735   2.060   8.868  0.0551 -0.4366 -1.7521
 8948SOL     OW38302   4.267   0.369   9.227  0.3020 -0.0937 -0.4440
 8948SOL    HW138303   4.228   0.390   9.142  1.0174  2.0278 -0.2384
 8948SOL    HW238304   4.284   0.462   9.240  1.8746 -0.5787  0.8618
 8949SOL     OW38305   3.301   0.322   6.289 -0.1952  0.2568  0.3913
 8949SOL    HW138306   3.325   0.384   6.358 -1.5471  1.1427  0.0596
 8949SOL    HW238307   3.361   0.248   6.301 -0.5157 -0.4088 -2.1907
 8950SOL     OW38308   0.390   0.151   7.964 -0.0775  0.2616 -0.0115
 8950SOL    HW138309   0.399   0.242   7.991  1.9456 -0.7649  2.7542
 8950SOL    HW238310   0.362   0.121   8.050  0.4869 -3.7606 -1.2153
 8951SOL     OW38311   3.064   0.184   2.994 -0.0329 -0.0547 -0.1262
 8951SOL    HW138312   3.094   0.183   3.085  4.2580 -0.5276 -1.5183
 8951SOL    HW238313   2.983   0.136   3.008 -0.6048  0.9488  0.0093
 8952SOL     OW38314   4.393   0.230   7.828  0.2304 -0.2597 -0.3395
 8952SOL    HW138315   4.432   0.161   7.882  1.1958 -0.6128 -1.4878
 8952SOL    HW238316   4.356   0.168   7.765  0.4386  0.2161 -0.9254
 8953SOL     OW38317   1.845   3.689   6.909 -0.5563  0.8141  0.1282
 8953SOL    HW138318   1.863   3.676   7.002 -1.3944  1.0126  0.3182
 8953SOL    HW238319   1.935   3.694   6.878 -0.6764  1.7193 -0.0748
 8954SOL     OW38320   2.729   4.663   3.734  0.5700  0.4561 -0.1888
 8954SOL    HW138321   2.804   4.626   3.686  0.8058 -1.0494  1.3309
 8954SOL    HW238322   2.673   4.585   3.731 -1.8800  2.2153  0.2216
 8955SOL     OW38323   0.091   4.057   9.236 -0.3390 -0.3175  0.6324
 8955SOL    HW138324   0.077   3.975   9.188 -2.3317  0.1927  0.3358
 8955SOL    HW238325   0.186   4.045   9.241 -0.5593 -2.2654  0.3076
 8956SOL     OW38326   0.778   2.710   4.959 -0.0938 -0.3053 -0.0884
 8956SOL    HW138327   0.829   2.784   4.990  1.8358 -1.4607 -0.5125
 8956SOL    HW238328   0.820   2.639   5.008 -0.2398 -0.6213 -0.4219
 8957SOL     OW38329   4.076   0.519   2.249 -0.3397 -0.4128  0.2944
 8957SOL    HW138330   4.083   0.508   2.343  1.4098  3.0131  0.5653
 8957SOL    HW238331   3.999   0.575   2.244  0.1387  0.1606 -0.7525
 8958SOL     OW38332   0.800   3.778   3.504  0.0142 -0.0011  0.0344
 8958SOL    HW138333   0.735   3.750   3.569 -1.5460 -0.0558 -1.5287
 8958SOL    HW238334   0.877   3.751   3.554  0.6202  1.4550 -0.1025
 8959SOL     OW38335   3.717   4.703  16.839 -0.1559  0.0266 -0.3251
 8959SOL    HW138336   3.802   4.663  16.856  0.0523  0.6307  0.0691
 8959SOL    HW238337   3.734   0.051  16.775  1.8048  1.5947  1.8728
 8960SOL     OW38338   0.226   1.952   8.844 -0.4604  0.4793  0.5518
 8960SOL    HW138339   0.140   1.918   8.821 -0.2423 -0.3580  0.9397
 8960SOL    HW238340   0.282   1.875   8.830  2.0812  1.7892  3.3460
 8961SOL     OW38341   2.943   3.778  17.560  0.1885 -0.1607  0.8337
 8961SOL    HW138342   2.994   3.856  17.537 -0.8039  0.2791  0.1279
 8961SOL    HW238343   2.940   3.733  17.475  0.4127 -1.8456  1.7116
 8962SOL     OW38344   1.642   3.264   9.021  0.2072 -0.0309 -0.0660
 8962SOL    HW138345   1.727   3.264   9.064  1.4646 -0.5995 -2.5621
 8962SOL    HW238346   1.647   3.333   8.954 -0.0992 -3.0638 -3.2101
 8963SOL     OW38347   4.651   2.905   3.153  0.2186  0.1497  0.1706
 8963SOL    HW138348   4.638   2.867   3.066  0.3249  0.8426 -0.1535
 8963SOL    HW238349   4.601   2.986   3.139  1.0755  0.5899 -0.3545
 8964SOL     OW38350   3.398   2.583   8.098  0.0419 -0.2143  0.1449
 8964SOL    HW138351   3.412   2.522   8.026  0.7047 -0.4483  0.4689
 8964SOL    HW238352   3.381   2.535   8.179  0.3572 -1.2953 -0.4319
 8965SOL     OW38353   1.188   2.406   6.412 -0.7750 -0.2857 -0.9144
 8965SOL    HW138354   1.223   2.321   6.440  1.4796 -0.4292 -4.1496
 8965SOL    HW238355   1.112   2.399   6.470  0.3511 -2.1511  0.3411
 8966SOL     OW38356   3.001   3.943   3.694  0.4881  0.2221  0.1765
 8966SOL    HW138357   2.993   4.029   3.654 -0.2489  0.1880  0.2510
 8966SOL    HW238358   3.088   3.947   3.734  0.0986  1.9241  0.8466
 8967SOL     OW38359   0.070   3.345   2.444  0.3810  0.5891  0.0302
 8967SOL    HW138360   0.061   3.393   2.362 -1.3243  0.3465  0.0632
 8967SOL    HW238361   0.135   3.277   2.427 -0.1853 -0.1112  0.6223
 8968SOL     OW38362   0.316   0.307  10.055  0.0100  0.0031 -0.2880
 8968SOL    HW138363   0.279   0.266  10.133  1.5569  1.2519  1.1096
 8968SOL    HW238364   0.257   0.382  10.047 -0.9288 -0.6499  0.7549
 8969SOL     OW38365   3.923   2.602   7.011 -0.1789 -0.1330 -0.0688
 8969SOL    HW138366   3.851   2.659   6.984 -1.2502 -1.4370  0.0230
 8969SOL    HW238367   3.992   2.619   6.947  1.2210 -0.4998  1.3245
 8970SOL     OW38368   1.190   4.039   6.990  0.4177 -0.4554 -0.1051
 8970SOL    HW138369   1.142   3.973   6.940 -0.8870  0.3371  0.0985
 8970SOL    HW238370   1.163   4.017   7.079  0.1226 -0.0865 -0.1037
 8971SOL     OW38371   0.284   4.702  10.945  0.3359 -0.9471 -0.2849
 8971SOL    HW138372   0.222   4.664  10.883 -0.3189 -0.1307 -0.1243
 8971SOL    HW238373   0.366   4.657  10.922  1.0181 -0.1054  0.4563
 8972SOL     OW38374   2.431   1.825   8.539  0.1522  0.4610  0.1007
 8972SOL    HW138375   2.383   1.742   8.548 -0.1405  0.5312 -0.7714
 8972SOL    HW238376   2.509   1.804   8.591  0.7333  0.3580 -0.8089
 8973SOL     OW38377   2.810   3.259  17.357 -0.0168 -0.0260  0.3109
 8973SOL    HW138378   2.775   3.325  17.416  0.3740 -0.6402  1.2291
 8973SOL    HW238379   2.903   3.262  17.380  1.0303  0.0840 -3.8338
 8974SOL     OW38380   2.739   4.700  16.463 -0.0798 -0.3696  0.2267
 8974SOL    HW138381   2.755   0.072  16.449  1.4120 -0.2767  2.4752
 8974SOL    HW238382   2.813   4.689  16.523 -0.1648  0.5882  0.5055
 8975SOL     OW38383   4.262   2.137   1.406  0.3265  0.8116 -0.0914
 8975SOL    HW138384   4.291   2.192   1.478  0.1507  1.2643 -0.3646
 8975SOL    HW238385   4.348   2.107   1.377  0.1583  0.4928 -0.2606
 8976SOL     OW38386   0.585   1.915   4.504  0.4338 -0.2452  0.4901
 8976SOL    HW138387   0.673   1.905   4.539  1.0234  1.6677 -0.4285
 8976SOL    HW238388   0.541   1.930   4.587  0.5064 -3.5506  1.0973
 8977SOL     OW38389   2.240   2.485   2.360 -0.2969 -0.6324  0.2628
 8977SOL    HW138390   2.262   2.391   2.361 -1.5569 -0.9342 -0.5898
 8977SOL    HW238391   2.266   2.511   2.272 -0.1488 -1.1373  0.1532
 8978SOL     OW38392   1.258   0.058   8.672 -0.1727  0.1581 -0.6630
 8978SOL    HW138393   1.281   0.149   8.651 -0.5644  0.2166 -0.8237
 8978SOL    HW238394   1.170   0.070   8.708  0.3350  0.8037  0.3637
 8979SOL     OW38395   2.706   0.260   2.779 -0.4515 -0.3257 -0.3874
 8979SOL    HW138396   2.774   0.227   2.720  0.0081  1.2198 -0.7419
 8979SOL    HW238397   2.643   0.190   2.793 -0.7342 -0.0025 -0.0122
 8980SOL     OW38398   3.805   4.125   5.149  0.4499  0.6682 -0.3701
 8980SOL    HW138399   3.738   4.091   5.090 -1.0963  3.5247 -0.2632
 8980SOL    HW238400   3.882   4.146   5.096  0.3176  0.7570 -0.5302
 8981SOL     OW38401   0.313   4.426   3.026  0.1876  1.0475 -0.1903
 8981SOL    HW138402   0.256   4.493   2.989  1.7965  1.4260 -1.9914
 8981SOL    HW238403   0.285   4.344   2.986  2.5588 -0.6124  1.5501
 8982SOL     OW38404   3.955   0.563  17.632  0.2337  0.3375  0.0338
 8982SOL    HW138405   4.050   0.574  17.639  0.1999  0.8876 -0.3966
 8982SOL    HW238406   3.937   0.541  17.541  1.7651 -2.5293  0.4064
 8983SOL     OW38407   2.577   4.060   7.863 -0.0353  0.2813  0.0781
 8983SOL    HW138408   2.486   4.043   7.840  0.3907 -1.5445 -0.2732
 8983SOL    HW238409   2.565   4.068   7.958  0.2693  3.0159 -0.1083
 8984SOL     OW38410   0.848   0.270   5.467 -0.2275 -0.2183 -0.4118
 8984SOL    HW138411   0.812   0.182   5.465  0.0786 -0.3444 -0.4774
 8984SOL    HW238412   0.777   0.302   5.522 -0.1639 -0.3320 -0.2659
 8985SOL     OW38413   0.227   3.908   7.504 -0.3923  0.2566  0.7158
 8985SOL    HW138414   0.135   3.892   7.524 -0.3139 -0.2423  0.6809
 8985SOL    HW238415   0.221   3.918   7.409 -1.1776  0.5937  0.8052
 8986SOL     OW38416   1.920   4.253   8.034  0.0611  0.1076 -0.6135
 8986SOL    HW138417   1.902   4.338   7.994  0.3818  0.2049 -0.5517
 8986SOL    HW238418   1.946   4.282   8.121  1.0479 -1.2039 -0.4617
 8987SOL     OW38419   0.374   0.281   2.453  0.0187 -0.4324 -0.1542
 8987SOL    HW138420   0.390   0.327   2.535 -0.8798  2.1758 -1.4291
 8987SOL    HW238421   0.280   0.260   2.453 -0.1174  0.1660 -0.6127
 8988SOL     OW38422   1.596   3.695   2.757 -0.1478  0.1376  0.4322
 8988SOL    HW138423   1.605   3.740   2.673 -1.3911  0.0980  0.2709
 8988SOL    HW238424   1.510   3.723   2.787 -0.8865 -2.5272  0.8368
 8989SOL     OW38425   3.813   1.869   7.749  0.5263 -0.3382 -0.3208
 8989SOL    HW138426   3.763   1.950   7.745  0.0439 -0.5812  0.7479
 8989SOL    HW238427   3.776   1.826   7.827  0.9560 -2.4025 -1.2454
 8990SOL     OW38428   3.153   1.527   1.413  0.2698 -0.5358 -0.2577
 8990SOL    HW138429   3.171   1.612   1.452 -1.5353  0.8869 -2.4877
 8990SOL    HW238430   3.243   1.498   1.399  0.2870 -0.3777 -0.4757
 8991SOL     OW38431   2.590   3.721   5.159  0.4791 -0.2037 -1.0145
 8991SOL    HW138432   2.521   3.787   5.166  0.8298  0.2523 -1.8551
 8991SOL    HW238433   2.642   3.735   5.238  1.5514 -0.7760 -1.6193
 8992SOL     OW38434   2.475   0.248  12.791 -0.4332 -0.2688  0.7902
 8992SOL    HW138435   2.521   0.191  12.729 -1.0531  0.5152 -0.3760
 8992SOL    HW238436   2.495   0.189  12.864  0.0012 -0.7610  0.2766
 8993SOL     OW38437   3.671   0.454  17.366  0.1592 -0.2800  0.0073
 8993SOL    HW138438   3.666   0.532  17.311  2.2402 -1.6825 -2.1421
 8993SOL    HW238439   3.601   0.405  17.322 -0.2180 -0.2796  0.6042
 8994SOL     OW38440   4.241   3.384   5.025  0.7541 -0.3242 -0.2017
 8994SOL    HW138441   4.286   3.322   5.083  0.0199  0.1014  0.8232
 8994SOL    HW238442   4.169   3.405   5.084  0.5945 -0.1780 -0.4489
 8995SOL     OW38443   4.433   0.098   7.065 -0.0553  0.3788  0.2541
 8995SOL    HW138444   4.370   0.064   7.129  0.4016  1.0922  1.0937
 8995SOL    HW238445   4.424   0.031   6.997 -1.4817 -0.0723  0.8777
 8996SOL     OW38446   4.575   0.588  12.549 -0.0175 -0.2833 -0.5898
 8996SOL    HW138447   4.494   0.540  12.569 -0.7493  0.5565 -1.5513
 8996SOL    HW238448   4.645   0.523  12.550 -0.2381 -0.5020  1.0433
 8997SOL     OW38449   2.783   2.222  10.456 -0.0242 -0.3457 -0.0805
 8997SOL    HW138450   2.792   2.179  10.541 -0.8005  0.3055  0.3364
 8997SOL    HW238451   2.874   2.226  10.426  0.1281  0.2540  0.4663
 8998SOL     OW38452   3.524   1.121  12.406  0.0774  0.0499  0.7987
 8998SOL    HW138453   3.580   1.044  12.413  1.3849  0.8901 -0.4236
 8998SOL    HW238454   3.505   1.129  12.313  0.8207  0.8911  0.7176
 8999SOL     OW38455   0.550   2.920  11.136  0.0497 -0.7814 -0.1355
 8999SOL    HW138456   0.524   2.955  11.050 -0.5254 -0.2454  0.2528
 8999SOL    HW238457   0.486   2.849  11.143 -0.4796 -0.2356  0.5063
 9000SOL     OW38458   3.033   3.931   7.856  0.3085 -0.1203  0.2491
 9000SOL    HW138459   2.964   3.869   7.831 -0.4512  0.0616  1.9118
 9000SOL    HW238460   3.024   3.946   7.950  1.1585  0.8150  0.1764
 9001SOL     OW38461   0.248   0.900   2.695  0.1726  0.1480  1.2894
 9001SOL    HW138462   0.185   0.960   2.656  1.3210  2.5782  3.2010
 9001SOL    HW238463   0.320   0.914   2.633 -1.3462  3.7380  0.3489
 9002SOL     OW38464   2.840   3.149   3.722  0.1880 -0.0742 -0.5410
 9002SOL    HW138465   2.811   3.179   3.636 -0.8020  2.1373  0.5548
 9002SOL    HW238466   2.935   3.141   3.716  0.4453  1.2626  1.6419
 9003SOL     OW38467   4.212   0.807   8.018 -0.3401  0.5056 -0.3827
 9003SOL    HW138468   4.235   0.753   8.094 -0.6326  1.1332  0.1413
 9003SOL    HW238469   4.212   0.892   8.062  0.5681  0.0735  0.4635
 9004SOL     OW38470   3.036   0.448  13.039  0.0505 -0.3785  0.6302
 9004SOL    HW138471   2.982   0.526  13.040  0.0673 -0.3625  0.2528
 9004SOL    HW238472   3.104   0.464  13.105  0.0713 -2.4413  1.1183
 9005SOL     OW38473   2.845   2.361  16.187 -0.2867  0.2387  0.4882
 9005SOL    HW138474   2.867   2.384  16.097 -1.6947  1.6534  0.4979
 9005SOL    HW238475   2.926   2.316  16.210  0.4143  0.4763 -1.5351
 9006SOL     OW38476   1.327   1.498   9.286 -0.5182  0.3511  0.3450
 9006SOL    HW138477   1.300   1.407   9.274 -0.2168  0.1131  1.5954
 9006SOL    HW238478   1.255   1.538   9.336  0.0752  0.0430  1.4340
 9007SOL     OW38479   2.283   0.088   4.598 -0.8104 -0.3436  0.2998
 9007SOL    HW138480   2.290   4.715   4.617 -1.7537 -0.7066 -1.1293
 9007SOL    HW238481   2.227   0.087   4.521 -0.6955  0.9608  0.2102
 9008SOL     OW38482   3.787   2.418   7.819  0.3167 -0.7649 -0.5954
 9008SOL    HW138483   3.811   2.450   7.906 -1.3446  0.3070 -0.5206
 9008SOL    HW238484   3.804   2.497   7.768  3.4709 -0.4178  0.9940
 9009SOL     OW38485   3.225   3.187  17.132 -0.8241  0.9155  0.5621
 9009SOL    HW138486   3.297   3.163  17.191 -1.1093  0.8858  0.8993
 9009SOL    HW238487   3.154   3.138  17.175 -0.4476 -0.1983 -0.1006
 9010SOL     OW38488   4.535   1.431   7.811  0.1848 -0.1127  0.0243
 9010SOL    HW138489   4.619   1.432   7.765  0.2493  2.3919  0.2288
 9010SOL    HW238490   4.532   1.518   7.850  1.1107 -0.8463  1.7836
 9011SOL     OW38491   0.979   3.292  15.487  0.6123  0.0780  0.1571
 9011SOL    HW138492   1.070   3.273  15.464  0.5422  1.3895 -1.2359
 9011SOL    HW238493   0.990   3.313  15.580 -0.2977 -2.0185  0.7310
 9012SOL     OW38494   0.418   1.653   4.304  0.2679  0.0648  0.4801
 9012SOL    HW138495   0.429   1.559   4.318 -0.7886  0.0884  1.5468
 9012SOL    HW238496   0.375   1.678   4.387  0.1894 -1.3706  0.8646
 9013SOL     OW38497   0.816   4.502   2.549 -0.3280 -0.3601 -0.5100
 9013SOL    HW138498   0.777   4.470   2.631  1.2567 -0.5882  0.1522
 9013SOL    HW238499   0.885   4.438   2.534 -0.6249 -0.8584  0.2545
 9014SOL     OW38500   2.766   1.985   8.387  0.1401  1.0145  0.1259
 9014SOL    HW138501   2.753   1.902   8.341 -0.7359  1.0693  0.2898
 9014SOL    HW238502   2.776   1.944   8.472 -0.0059  0.2740 -0.2128
 9015SOL     OW38503   0.625   1.264   0.167  0.4478  0.0795 -0.1661
 9015SOL    HW138504   0.615   1.170   0.152  2.0698 -0.5416  2.7338
 9015SOL    HW238505   0.591   1.267   0.256  0.9387  3.2020 -0.0641
 9016SOL     OW38506   4.113   4.046   8.971  0.2578  0.2385  0.3853
 9016SOL    HW138507   4.148   4.126   9.011 -0.8294 -0.2188  2.2594
 9016SOL    HW238508   4.177   3.987   9.011  0.7206  1.3015  1.1896
 9017SOL     OW38509   1.484   2.892   3.114 -0.3915 -0.2821  0.0180
 9017SOL    HW138510   1.444   2.979   3.119  1.3555  0.4111  2.4106
 9017SOL    HW238511   1.443   2.864   3.032  1.9901  0.2392 -1.3469
 9018SOL     OW38512   4.578   0.646   7.614 -0.3092  0.2138 -0.2855
 9018SOL    HW138513   4.653   0.592   7.640 -0.2621 -0.5508 -1.9680
 9018SOL    HW238514   4.501   0.606   7.654  0.9176 -1.7962  0.0683
 9019SOL     OW38515   4.186   3.910   5.998 -0.6398 -0.6621 -0.1654
 9019SOL    HW138516   4.171   4.004   5.990 -0.1032 -0.3071  3.1765
 9019SOL    HW238517   4.278   3.894   5.974 -1.0118  0.2993 -2.2219
 9020SOL     OW38518   4.581   2.390  10.474 -0.1002 -0.1032  0.0686
 9020SOL    HW138519   4.609   2.299  10.476  1.4051  0.3905  1.5838
 9020SOL    HW238520   4.654   2.436  10.516 -1.3542  1.0964  0.9575
 9021SOL     OW38521   2.275   0.866  10.754 -0.0217  0.1893 -0.4853
 9021SOL    HW138522   2.210   0.825  10.697 -0.2471  1.7345 -1.3358
 9021SOL    HW238523   2.217   0.874  10.830  1.3680  1.4722  0.4484
 9022SOL     OW38524   3.939   3.260   3.762 -0.2468 -0.0481  0.2232
 9022SOL    HW138525   3.965   3.200   3.692  0.1424 -0.1523  0.4567
 9022SOL    HW238526   4.014   3.254   3.822 -1.8341 -0.0062  2.2259
 9023SOL     OW38527   4.495   2.543   1.720 -0.8670  0.6585  0.0824
 9023SOL    HW138528   4.441   2.622   1.714 -0.2744  0.9264 -1.6079
 9023SOL    HW238529   4.575   2.575   1.762 -2.3492  2.8981  1.1956
 9024SOL     OW38530   1.826   4.629   0.681  0.1224  0.0451 -0.6210
 9024SOL    HW138531   1.772   4.689   0.732 -0.5191  0.5497 -1.9092
 9024SOL    HW238532   1.892   4.686   0.642 -0.1026  1.1569  0.6529
 9025SOL     OW38533   2.886   0.378   7.450  0.7263  0.0337  0.1988
 9025SOL    HW138534   2.961   0.319   7.441  0.2625 -0.0265 -3.2815
 9025SOL    HW238535   2.823   0.315   7.485  0.1741  1.3773  1.6025
 9026SOL     OW38536   3.212   1.570   5.567 -0.4963 -0.2800  0.0515
 9026SOL    HW138537   3.207   1.610   5.654  1.2691  1.2120 -0.5287
 9026SOL    HW238538   3.237   1.484   5.600  1.6223  0.1188 -0.5193
 9027SOL     OW38539   1.691   3.893   9.035  0.1255  0.3816 -0.3521
 9027SOL    HW138540   1.756   3.950   9.076  1.6194 -4.1529  3.6456
 9027SOL    HW238541   1.742   3.859   8.962  1.2748  2.3951 -0.4794
 9028SOL     OW38542   2.165   3.894   9.662 -0.5547 -0.1483 -0.3929
 9028SOL    HW138543   2.152   3.942   9.580 -0.2273 -0.6202 -0.7183
 9028SOL    HW238544   2.077   3.858   9.666 -0.5317 -0.1614 -0.0297
 9029SOL     OW38545   1.747   3.160  11.078 -0.0164  0.4374  0.5125
 9029SOL    HW138546   1.828   3.185  11.122  0.7701 -2.9144  0.9790
 9029SOL    HW238547   1.689   3.224  11.120  0.3219 -0.9145  3.0339
 9030SOL     OW38548   1.322   3.500  16.829  0.2087  0.2812 -0.5144
 9030SOL    HW138549   1.391   3.486  16.894 -1.3615 -0.4837  1.0046
 9030SOL    HW238550   1.369   3.457  16.757  1.4306  1.6986 -0.5479
 9031SOL     OW38551   2.458   1.532  10.601 -0.4367  0.1707 -0.0148
 9031SOL    HW138552   2.541   1.521  10.554 -1.4717 -0.6832 -1.6400
 9031SOL    HW238553   2.489   1.570  10.683  0.6695 -0.7889  0.0089
 9032SOL     OW38554   0.947   1.074   3.252 -0.7478  0.5574 -0.4824
 9032SOL    HW138555   1.001   1.131   3.197 -1.6025  0.8873 -0.9917
 9032SOL    HW238556   1.002   0.999   3.274 -1.3775  0.5784  1.1895
 9033SOL     OW38557   4.332   1.411   2.767 -0.1632 -0.1368 -0.2460
 9033SOL    HW138558   4.370   1.327   2.741 -3.7575 -1.4839 -1.1840
 9033SOL    HW238559   4.284   1.430   2.686  1.7514 -1.6159 -1.7366
 9034SOL     OW38560   3.599   3.232  12.142 -0.4442  0.0383 -0.7015
 9034SOL    HW138561   3.594   3.264  12.232  0.2571  1.5475 -1.1947
 9034SOL    HW238562   3.581   3.138  12.138 -1.3487  0.2025 -0.4100
 9035SOL     OW38563   1.592   1.518   9.003 -0.1414 -0.2113 -0.4076
 9035SOL    HW138564   1.610   1.431   8.969 -1.3292 -0.2283 -0.9942
 9035SOL    HW238565   1.498   1.533   8.997  0.1207  2.1098  1.0745
 9036SOL     OW38566   3.171   0.223  13.711  0.4419 -0.0190  0.2703
 9036SOL    HW138567   3.187   0.162  13.640 -0.6689  1.5104 -1.2909
 9036SOL    HW238568   3.077   0.235  13.697  0.7300  1.4570 -0.3800
 9037SOL     OW38569   1.246   0.671   8.120 -0.7973  0.2272 -0.0744
 9037SOL    HW138570   1.342   0.680   8.123 -0.8885  0.5015  1.8871
 9037SOL    HW238571   1.241   0.578   8.142  0.5153 -0.6566 -3.4582
 9038SOL     OW38572   2.209   2.228   4.800 -0.2036  0.0061  0.0649
 9038SOL    HW138573   2.254   2.162   4.748  0.2123  0.8370 -0.6201
 9038SOL    HW238574   2.264   2.302   4.776  0.5019 -0.3668  0.5255
 9039SOL     OW38575   2.035   4.400   6.614  0.0538  0.0840  0.1947
 9039SOL    HW138576   1.947   4.363   6.623 -0.8810  1.8148 -1.8834
 9039SOL    HW238577   2.074   4.366   6.695  0.9580  1.4576  0.3251
 9040SOL     OW38578   2.630   1.295   9.140 -0.2629 -0.2932  0.0521
 9040SOL    HW138579   2.566   1.342   9.194  0.8339  0.4291  0.7289
 9040SOL    HW238580   2.696   1.268   9.204  1.0991  1.0397 -0.8112
 9041SOL     OW38581   0.793   0.511   8.832 -0.1754 -0.0754 -0.7990
 9041SOL    HW138582   0.752   0.575   8.774 -0.8427 -0.6861 -1.0106
 9041SOL    HW238583   0.881   0.506   8.795 -0.1391 -1.8232 -0.4999
 9042SOL     OW38584   3.604   3.576   9.322 -0.2448 -0.1511 -0.3676
 9042SOL    HW138585   3.595   3.495   9.272  0.4989  0.5915 -1.7057
 9042SOL    HW238586   3.571   3.558   9.410  1.1758  0.7115  0.3443
 9043SOL     OW38587   4.468   3.284   3.375  0.4396  0.1260 -0.4618
 9043SOL    HW138588   4.441   3.310   3.464  1.1459  3.8747 -1.3440
 9043SOL    HW238589   4.476   3.189   3.388  0.8382  0.3413  0.8707
 9044SOL     OW38590   1.874   3.239  11.381  0.6188  0.1359  0.5456
 9044SOL    HW138591   1.849   3.327  11.353  1.2281 -0.2692 -1.3235
 9044SOL    HW238592   1.788   3.209  11.410  0.1570  1.2875  0.3680
 9045SOL     OW38593   3.748   0.168   6.934 -0.1393  0.0471  0.0229
 9045SOL    HW138594   3.668   0.115   6.933  0.6166 -1.0735 -2.7385
 9045SOL    HW238595   3.803   0.107   6.884 -2.2082 -1.5655 -0.2971
 9046SOL     OW38596   3.297   3.271   7.668  0.2091  0.1579  0.0229
 9046SOL    HW138597   3.205   3.272   7.639  0.5045 -2.9260 -1.1199
 9046SOL    HW238598   3.341   3.321   7.599 -1.0309  0.0117 -0.8754
 9047SOL     OW38599   3.406   1.854  13.819  0.0416  0.0042  0.6744
 9047SOL    HW138600   3.426   1.765  13.792 -0.5405 -0.2611  1.1294
 9047SOL    HW238601   3.320   1.836  13.857 -1.0061  1.7919 -0.8489
 9048SOL     OW38602   3.299   1.346   0.788  0.2418  0.1165  0.0582
 9048SOL    HW138603   3.288   1.266   0.838 -0.0888 -0.3600 -0.7822
 9048SOL    HW238604   3.378   1.325   0.738  0.6598  0.1332  0.7152
 9049SOL     OW38605   2.989   2.004   4.703  0.1311 -0.1078  0.0864
 9049SOL    HW138606   2.947   1.986   4.787  0.2930 -0.8405  0.0084
 9049SOL    HW238607   3.071   1.958   4.719  0.4458 -0.9763 -4.0369
 9050SOL     OW38608   3.734   3.196  17.568  0.6043  0.6000 -0.3171
 9050SOL    HW138609   3.774   3.271  17.612  0.0443  0.3259  0.6553
 9050SOL    HW238610   3.803   3.173  17.506  0.3655  0.6933 -0.6180
 9051SOL     OW38611   2.969   0.607  11.085 -0.3179 -0.0040  0.3600
 9051SOL    HW138612   3.064   0.589  11.087 -0.6338 -1.7732  0.0979
 9051SOL    HW238613   2.961   0.663  11.009 -1.3151 -0.7760 -0.0957
 9052SOL     OW38614   1.655   1.386  14.758 -0.5381 -0.2725 -0.2093
 9052SOL    HW138615   1.725   1.336  14.715 -0.2294  1.9202 -2.2975
 9052SOL    HW238616   1.671   1.472  14.720  0.4568  1.0011  3.1436
 9053SOL     OW38617   0.430   4.555   3.859 -0.0880 -0.4457  0.0504
 9053SOL    HW138618   0.345   4.528   3.825  0.3205  0.7369 -1.8982
 9053SOL    HW238619   0.483   4.569   3.781  0.0715 -0.3190  0.1822
 9054SOL     OW38620   0.606   4.050  17.571 -0.4662 -0.2572  0.2450
 9054SOL    HW138621   0.565   4.128  17.534  1.5511  1.0469  0.7453
 9054SOL    HW238622   0.609   3.983  17.503  0.1012 -0.3758  0.3836
 9055SOL     OW38623   3.020   3.084   4.050  0.4357  0.2948 -0.6410
 9055SOL    HW138624   3.109   3.119   4.045  0.5728 -0.1916 -1.4766
 9055SOL    HW238625   3.030   3.016   3.984  1.3238 -1.4071  1.2371
 9056SOL     OW38626   0.009   1.660  11.365 -0.0553 -0.2941  0.2573
 9056SOL    HW138627   4.703   1.592  11.426 -0.7251  0.2968  0.6139
 9056SOL    HW238628   0.018   1.741  11.416  0.0663 -1.4244  2.0288
 9057SOL     OW38629   1.539   2.519  11.897 -0.4336 -0.0851 -0.2449
 9057SOL    HW138630   1.509   2.610  11.897 -3.9738 -1.2243 -0.6963
 9057SOL    HW238631   1.631   2.532  11.920  0.4098 -2.6822 -2.1494
 9058SOL     OW38632   4.283   0.556   7.116  0.3147  0.3059 -0.6452
 9058SOL    HW138633   4.364   0.512   7.089 -1.3328 -2.8602 -0.4048
 9058SOL    HW238634   4.246   0.493   7.178 -0.9021  0.1478 -1.5467
 9059SOL     OW38635   0.494   4.243   3.417  0.1694  0.2654  0.6800
 9059SOL    HW138636   0.423   4.292   3.375  0.4075  1.0046  1.1352
 9059SOL    HW238637   0.486   4.160   3.371 -1.0081  1.4177 -1.2039
 9060SOL     OW38638   2.200   1.803   6.631 -0.0027 -0.4383  0.4601
 9060SOL    HW138639   2.161   1.828   6.715 -3.1075 -0.2043 -1.0384
 9060SOL    HW238640   2.160   1.862   6.566  2.0923 -1.2352 -1.5441
 9061SOL     OW38641   0.245   0.895   6.032 -0.0067  0.0810  0.1129
 9061SOL    HW138642   0.168   0.915   6.085  0.6964  1.3095  0.6522
 9061SOL    HW238643   0.287   0.981   6.027  0.8578 -0.3199  0.5255
 9062SOL     OW38644   1.569   0.716   4.675 -0.0022 -0.5121  0.5343
 9062SOL    HW138645   1.586   0.621   4.677  0.0826 -0.4762  1.4744
 9062SOL    HW238646   1.609   0.741   4.758 -1.0100  0.1586  0.8226
 9063SOL     OW38647   0.932   1.443   6.183 -0.5502  0.0828  0.4538
 9063SOL    HW138648   0.968   1.439   6.271 -2.6951  1.5612  1.3930
 9063SOL    HW238649   0.953   1.533   6.156  0.7567 -0.8148 -1.5191
 9064SOL     OW38650   1.768   3.496  13.385  0.0853 -0.3064 -0.2738
 9064SOL    HW138651   1.721   3.577  13.407  0.3124 -0.2323 -0.0648
 9064SOL    HW238652   1.804   3.466  13.468  0.2714 -1.2714 -0.6976
 9065SOL     OW38653   3.527   3.896   1.189 -0.0131  0.2525  0.1159
 9065SOL    HW138654   3.531   3.942   1.105  0.0287  2.3486  1.2820
 9065SOL    HW238655   3.615   3.859   1.189  0.5090  1.5037  1.3642
 9066SOL     OW38656   1.330   1.284   3.725 -0.5223  0.5849  0.1583
 9066SOL    HW138657   1.269   1.218   3.759 -1.6279  1.0273 -0.9593
 9066SOL    HW238658   1.266   1.347   3.691 -2.3530  0.0694  2.6305
 9067SOL     OW38659   1.298   4.234   3.166  0.2695  0.0001  0.0684
 9067SOL    HW138660   1.349   4.204   3.241 -1.4024 -2.0791  0.3582
 9067SOL    HW238661   1.367   4.277   3.115  0.3290 -0.4410 -0.2221
 9068SOL     OW38662   1.314   2.370   8.830 -0.1622  0.0624 -0.4307
 9068SOL    HW138663   1.231   2.411   8.802 -0.4578  1.0873  1.9077
 9068SOL    HW238664   1.359   2.405   8.753 -0.1128 -1.1232 -0.9346
 9069SOL     OW38665   1.037   2.030  10.946 -0.6318 -0.4021  0.0934
 9069SOL    HW138666   1.063   2.114  10.909  1.5779 -0.7104  0.9360
 9069SOL    HW238667   1.078   1.966  10.887 -0.5083  0.3376 -0.6162
 9070SOL     OW38668   1.274   1.560   2.674 -0.0099 -0.1629  0.2505
 9070SOL    HW138669   1.301   1.582   2.585 -0.5810 -0.1233  0.0811
 9070SOL    HW238670   1.231   1.475   2.663  0.1794 -0.1472 -0.5980
 9071SOL     OW38671   2.109   4.170   7.339  1.1449 -0.3388 -0.3015
 9071SOL    HW138672   2.184   4.147   7.393  0.2690  0.5051  1.2880
 9071SOL    HW238673   2.083   4.241   7.397 -0.8501  0.1267 -1.7454
 9072SOL     OW38674   4.285   3.259   2.478  0.5708  0.3256 -0.1174
 9072SOL    HW138675   4.340   3.245   2.555  2.8868 -0.8091 -1.9692
 9072SOL    HW238676   4.231   3.331   2.510 -0.1581  0.3750 -1.4842
 9073SOL     OW38677   3.544   1.378   3.151 -0.4582 -0.0109 -0.1123
 9073SOL    HW138678   3.606   1.414   3.214  1.9795 -0.6782 -2.1743
 9073SOL    HW238679   3.467   1.412   3.199 -1.2623 -0.4542 -1.0954
 9074SOL     OW38680   2.371   2.536   9.691  0.2873 -0.0747 -0.0876
 9074SOL    HW138681   2.398   2.624   9.718 -0.8975  0.3436 -0.2670
 9074SOL    HW238682   2.417   2.515   9.610  0.8410 -0.4350  0.3214
 9075SOL     OW38683   2.980   0.207  12.907 -0.4168  0.2640  0.0894
 9075SOL    HW138684   2.946   0.178  12.991  2.5172 -0.6255  0.9934
 9075SOL    HW238685   3.017   0.295  12.918 -2.6605  1.0523  1.3250
 9076SOL     OW38686   2.953   3.379   7.333  0.5784 -0.6430 -0.0326
 9076SOL    HW138687   2.866   3.373   7.372  0.2405  2.3405 -0.2560
 9076SOL    HW238688   2.974   3.470   7.356  2.3184 -0.7812 -1.0359
 9077SOL     OW38689   1.169   1.518   3.620 -0.3591 -0.8200 -0.1446
 9077SOL    HW138690   1.228   1.531   3.547  0.2650 -1.8553  0.1786
 9077SOL    HW238691   1.104   1.463   3.576  0.0670 -0.3434 -1.3612
 9078SOL     OW38692   1.880   2.071   5.648 -0.6697  0.1658  0.3531
 9078SOL    HW138693   1.802   2.060   5.594 -0.5336  3.0999 -0.4511
 9078SOL    HW238694   1.837   2.106   5.726 -0.4718 -0.9792  0.9781
 9079SOL     OW38695   4.170   2.506   2.558 -0.4614  0.7572 -0.1101
 9079SOL    HW138696   4.181   2.443   2.630  0.3914 -1.9648 -2.6453
 9079SOL    HW238697   4.078   2.492   2.534 -0.4672  1.2549 -0.3749
 9080SOL     OW38698   2.637   2.345   3.876  0.3877 -0.0881 -0.3233
 9080SOL    HW138699   2.551   2.316   3.847  1.1859 -1.5737 -1.1991
 9080SOL    HW238700   2.669   2.269   3.924 -0.1637  0.4865  0.9555
 9081SOL     OW38701   2.484   1.120  11.833 -0.4578 -0.1559 -0.2985
 9081SOL    HW138702   2.515   1.047  11.780  0.0806  2.1485 -3.2179
 9081SOL    HW238703   2.475   1.196  11.774 -0.5407 -0.3716 -0.5616
 9082SOL     OW38704   1.882   4.494  15.535  0.3281 -0.2998  0.3556
 9082SOL    HW138705   1.856   4.402  15.531 -0.3183 -0.2185  2.9033
 9082SOL    HW238706   1.823   4.524  15.466 -0.0459 -0.5626  0.5647
 9083SOL     OW38707   1.835   2.216   7.635 -0.3577  0.1931  0.5661
 9083SOL    HW138708   1.770   2.177   7.576  1.7209 -1.4264 -0.6365
 9083SOL    HW238709   1.809   2.308   7.627  0.6255  0.2358 -2.2758
 9084SOL     OW38710   0.202   2.449   6.950  0.3016 -0.2597  0.4240
 9084SOL    HW138711   0.168   2.512   6.887 -0.2400  0.9463  1.9394
 9084SOL    HW238712   0.292   2.432   6.922  0.5309 -0.1158  1.0805
 9085SOL     OW38713   4.252   2.600  15.514  0.1685 -0.5605  0.3123
 9085SOL    HW138714   4.296   2.533  15.566 -1.8183  1.1569  4.1520
 9085SOL    HW238715   4.201   2.541  15.458  1.1901  0.7800 -2.0716
 9086SOL     OW38716   1.085   1.716  15.785  0.1369 -0.0811 -0.2977
 9086SOL    HW138717   1.045   1.667  15.713  0.6196 -2.1984  0.8862
 9086SOL    HW238718   1.163   1.746  15.738  0.8636 -0.0910  0.9054
 9087SOL     OW38719   0.551   0.134   4.130  0.4635 -0.3556 -0.1809
 9087SOL    HW138720   0.551   0.042   4.158 -0.8886 -0.3167 -0.0903
 9087SOL    HW238721   0.555   0.123   4.035  0.8272  0.4713 -0.2632
 9088SOL     OW38722   1.815   2.285  17.333 -0.2194 -0.0210  0.0763
 9088SOL    HW138723   1.862   2.204  17.354 -1.7705 -1.3231 -1.4426
 9088SOL    HW238724   1.882   2.335  17.287  0.0272 -1.9567 -1.7196
 9089SOL     OW38725   2.304   3.930   1.943  0.0147  0.3200  0.3813
 9089SOL    HW138726   2.268   3.849   1.979 -1.3537  1.0729  0.7155
 9089SOL    HW238727   2.289   3.992   2.014  2.2445  1.5891 -0.2645
 9090SOL     OW38728   2.212   3.937   6.041  0.8651  0.6752 -0.7660
 9090SOL    HW138729   2.147   3.957   5.974 -1.6554 -1.8011  0.9515
 9090SOL    HW238730   2.209   4.012   6.100  0.4306  0.0784 -0.0249
 9091SOL     OW38731   4.060   2.732  15.663 -0.5343  0.1065 -0.1280
 9091SOL    HW138732   4.119   2.697  15.597 -1.2911 -0.1886 -0.6535
 9091SOL    HW238733   4.078   2.687  15.745 -0.6394 -0.5301 -0.4579
 9092SOL     OW38734   3.530   4.501   9.899  0.4791 -0.2060 -0.2527
 9092SOL    HW138735   3.463   4.433   9.888  0.4747 -0.5015  1.5488
 9092SOL    HW238736   3.550   4.528   9.809  0.7788 -0.6861 -0.3326
 9093SOL     OW38737   2.150   3.608   1.546  0.1175  0.0574 -0.4909
 9093SOL    HW138738   2.146   3.671   1.618  1.7178 -2.3080  1.6902
 9093SOL    HW238739   2.245   3.594   1.544  0.1001  0.1115 -1.8178
 9094SOL     OW38740   1.701   0.879   4.846 -1.1135  0.1818 -0.7351
 9094SOL    HW138741   1.653   0.955   4.879  1.9580  1.8665 -0.2122
 9094SOL    HW238742   1.787   0.910   4.875 -1.4866  1.1667 -0.6912
 9095SOL     OW38743   4.504   1.552  16.062 -0.4228 -0.3750  0.1268
 9095SOL    HW138744   4.464   1.475  16.102 -0.8965  1.5327  3.2570
 9095SOL    HW238745   4.571   1.510  16.007 -2.1949 -2.1791 -0.6350
 9096SOL     OW38746   4.366   2.365   9.347 -0.1363  0.2640 -0.6391
 9096SOL    HW138747   4.454   2.384   9.378 -0.3726  1.6374 -0.7724
 9096SOL    HW238748   4.361   2.270   9.346 -0.9705  0.3105 -1.0563
 9097SOL     OW38749   3.744   3.891   5.378 -0.0240 -0.1029 -0.1703
 9097SOL    HW138750   3.661   3.931   5.352 -0.0694 -0.7813 -1.0894
 9097SOL    HW238751   3.791   3.908   5.297  1.5571  0.4911  0.8652
 9098SOL     OW38752   1.088   2.439  11.159  0.2115  0.1726  0.3076
 9098SOL    HW138753   1.010   2.479  11.198  0.7850  2.4728 -0.8670
 9098SOL    HW238754   1.073   2.445  11.065  1.2004 -0.5711  0.1153
 9099SOL     OW38755   3.829   0.375   7.112 -0.0419 -0.0886 -0.2495
 9099SOL    HW138756   3.836   0.314   7.038 -2.0619 -0.1916 -0.3533
 9099SOL    HW238757   3.735   0.368   7.131 -0.3646 -0.4252 -1.9529
 9100SOL     OW38758   2.915   2.721   9.315 -0.1309  0.4838 -0.0983
 9100SOL    HW138759   2.962   2.795   9.354 -0.1635 -0.4279  1.6789
 9100SOL    HW238760   2.863   2.685   9.387 -2.6221 -1.3379 -2.7935
 9101SOL     OW38761   0.814   4.502  14.634  0.2593 -0.2340 -0.5180
 9101SOL    HW138762   0.906   4.477  14.638 -0.1345 -1.4201  1.2688
 9101SOL    HW238763   0.800   4.475  14.725  0.5604  3.2747  0.5766
 9102SOL     OW38764   4.481   0.647  16.972 -0.1768  0.2096  0.4157
 9102SOL    HW138765   4.524   0.644  17.058 -0.8309  0.5879  0.7623
 9102SOL    HW238766   4.448   0.737  16.967 -3.1376 -0.8440  1.1209
 9103SOL     OW38767   3.066   1.397   8.045 -0.1679  0.1372  0.0133
 9103SOL    HW138768   3.039   1.309   8.019 -0.1547  0.6575 -1.7503
 9103SOL    HW238769   3.040   1.400   8.138  0.8530 -0.9736  0.3373
 9104SOL     OW38770   0.939   2.819   1.524  0.1211 -0.1627  0.0593
 9104SOL    HW138771   0.929   2.739   1.575 -0.3007  1.1344  2.0183
 9104SOL    HW238772   0.970   2.882   1.590  0.7386 -0.2828 -0.1176
 9105SOL     OW38773   0.148   4.691  12.294 -0.4316  0.4594 -0.6276
 9105SOL    HW138774   0.072   4.687  12.352  0.6261 -2.8061  0.5424
 9105SOL    HW238775   0.110   4.684  12.207 -0.0399  1.8316 -0.9064
 9106SOL     OW38776   1.207   3.897  12.758  0.4505  0.0916 -0.4079
 9106SOL    HW138777   1.291   3.940  12.775  1.0786 -1.0925 -0.5151
 9106SOL    HW238778   1.212   3.829  12.825  1.7336  0.8010  0.2252
 9107SOL     OW38779   1.106   4.459  14.169 -0.0355 -0.2924 -0.5550
 9107SOL    HW138780   1.169   4.471  14.240  0.8456 -4.6351 -0.6135
 9107SOL    HW238781   1.031   4.416  14.210 -0.1455 -1.4229 -1.9520
 9108SOL     OW38782   2.275   0.234   7.346 -0.6941 -0.2509 -0.2132
 9108SOL    HW138783   2.278   0.291   7.423 -4.7344 -0.0949 -0.1906
 9108SOL    HW238784   2.316   0.285   7.276  0.9088 -2.5165 -0.9259
 9109SOL     OW38785   1.305   0.239   3.648 -0.4904  0.1493  0.0580
 9109SOL    HW138786   1.360   0.273   3.577 -0.1041 -1.2836 -0.3359
 9109SOL    HW238787   1.304   0.146   3.625 -2.2078 -0.0984  1.1270
 9110SOL     OW38788   3.812   1.728   6.489  0.1989 -0.5869 -0.1594
 9110SOL    HW138789   3.898   1.736   6.448  1.1318  0.8695  2.0330
 9110SOL    HW238790   3.837   1.759   6.576  0.1834  3.6514 -1.6954
 9111SOL     OW38791   1.037   1.121  11.809  0.2756  0.0352 -0.8260
 9111SOL    HW138792   1.014   1.080  11.892  2.9933  1.2051  0.5156
 9111SOL    HW238793   1.133   1.123  11.806  0.3304  0.6438  1.5999
 9112SOL     OW38794   0.871   4.352   6.837 -0.2435 -0.0280  0.0266
 9112SOL    HW138795   0.794   4.313   6.878 -0.8834 -0.0427 -1.1779
 9112SOL    HW238796   0.856   4.435   6.881  0.7666 -0.9193  2.0384
 9113SOL     OW38797   0.866   0.505   0.837  0.5844 -0.3346  0.1321
 9113SOL    HW138798   0.789   0.561   0.837  0.8152 -0.0220  2.5050
 9113SOL    HW238799   0.827   0.424   0.803 -1.3738 -0.2672  2.2772
 9114SOL     OW38800   4.644   1.178   8.708  0.5914 -0.1887 -0.2231
 9114SOL    HW138801   4.704   1.127   8.654 -0.4703  0.3196 -1.8814
 9114SOL    HW238802   4.695   1.203   8.785 -1.6015  1.7566  0.6131
 9115SOL     OW38803   3.290   2.684  14.174  0.2419  0.3587 -0.2098
 9115SOL    HW138804   3.310   2.610  14.117 -2.7941 -1.4280  1.0666
 9115SOL    HW238805   3.373   2.729  14.191  0.9062 -0.3270 -1.6287
 9116SOL     OW38806   2.121   1.949   0.599 -0.2063  0.4756  0.2421
 9116SOL    HW138807   2.129   1.886   0.670  0.6029 -0.1121 -0.3703
 9116SOL    HW238808   2.028   1.972   0.604 -0.3373 -0.1676  0.7221
 9117SOL     OW38809   3.861   1.311   6.182 -1.0003  0.8160  0.1381
 9117SOL    HW138810   3.794   1.361   6.136 -1.7757  0.8341  1.2977
 9117SOL    HW238811   3.834   1.320   6.273  0.3841 -1.6157  0.7890
 9118SOL     OW38812   4.009   3.033   3.613 -1.0756  0.3655 -0.0176
 9118SOL    HW138813   3.955   2.989   3.678 -0.4103 -0.1243  0.1996
 9118SOL    HW238814   3.987   3.000   3.526  0.7667  0.1214 -0.3802
 9119SOL     OW38815   2.368   0.236   8.469 -0.3245  0.2979 -0.5331
 9119SOL    HW138816   2.456   0.229   8.505 -0.3234  0.0834 -0.5747
 9119SOL    HW238817   2.394   0.182   8.394 -0.9455  1.2899 -1.4611
 9120SOL     OW38818   2.204   0.600  16.571 -0.1228  0.1357 -0.1661
 9120SOL    HW138819   2.139   0.533  16.591  0.1907 -0.0474  0.2502
 9120SOL    HW238820   2.147   0.664  16.531 -1.4165 -0.3840  0.8338
 9121SOL     OW38821   1.988   4.385   2.545  0.0658 -0.1824  0.3051
 9121SOL    HW138822   2.000   4.338   2.627  0.0817  0.9534  0.9543
 9121SOL    HW238823   1.894   4.388   2.530 -0.1788  1.6049  2.1905
 9122SOL     OW38824   0.048   1.548  14.191 -0.1088  0.1628  0.2873
 9122SOL    HW138825   0.123   1.507  14.235 -1.0664 -2.2531 -0.3380
 9122SOL    HW238826   0.049   1.623  14.251  0.5947 -1.3003  2.1021
 9123SOL     OW38827   2.158   3.766   8.253  0.1898  0.4706 -0.3608
 9123SOL    HW138828   2.108   3.847   8.249  1.5415  1.2804 -0.6557
 9123SOL    HW238829   2.214   3.800   8.322  1.4443  2.9943 -2.6593
 9124SOL     OW38830   1.806   4.352  12.645 -0.6688 -0.0666  0.0126
 9124SOL    HW138831   1.741   4.402  12.694  1.6094  2.3977  0.5110
 9124SOL    HW238832   1.798   4.267  12.689 -1.3266  0.2822  0.5719
 9125SOL     OW38833   4.266   0.294   8.159  0.4477  0.3117 -0.0371
 9125SOL    HW138834   4.257   0.261   8.249  0.5768 -1.1274 -0.5565
 9125SOL    HW238835   4.298   0.383   8.172  0.8051  0.2634 -0.6021
 9126SOL     OW38836   0.729   1.470   0.964  0.2269 -0.4567 -0.0337
 9126SOL    HW138837   0.794   1.525   1.008 -0.3981  0.3771 -0.1505
 9126SOL    HW238838   0.694   1.427   1.042 -0.8667  2.0358  0.8564
 9127SOL     OW38839   1.182   1.852   8.894  0.5144 -0.2572  0.2434
 9127SOL    HW138840   1.163   1.936   8.851  0.9900  0.0482  0.6363
 9127SOL    HW238841   1.116   1.836   8.962 -0.5122  0.6957 -0.5183
 9128SOL     OW38842   2.707   3.484  12.819 -0.7470  0.1203 -0.4467
 9128SOL    HW138843   2.800   3.502  12.835 -0.1295 -3.7503  0.4213
 9128SOL    HW238844   2.692   3.574  12.791 -0.5432 -0.3896 -2.1538
 9129SOL     OW38845   1.006   1.413   8.792  0.3312 -0.1093 -0.3330
 9129SOL    HW138846   0.966   1.420   8.705 -0.7136  1.1031  0.2491
 9129SOL    HW238847   1.078   1.475   8.804 -0.7890  1.2871 -0.8975
 9130SOL     OW38848   4.529   0.525   5.311  0.5612 -0.4924  0.5224
 9130SOL    HW138849   4.448   0.576   5.308  1.0929  0.3408  0.3706
 9130SOL    HW238850   4.553   0.553   5.400 -0.2826  3.7397 -0.5749
 9131SOL     OW38851   1.913   0.165   8.665  0.9720  0.3254 -0.0645
 9131SOL    HW138852   2.001   0.203   8.658  0.2736  1.5779 -2.1342
 9131SOL    HW238853   1.860   0.228   8.615 -2.5689 -1.4491  1.4432
 9132SOL     OW38854   1.287   0.733  13.887  0.2219  0.4174 -0.2579
 9132SOL    HW138855   1.217   0.699  13.944 -0.5296 -1.1963 -2.1282
 9132SOL    HW238856   1.346   0.658  13.893  2.2869  1.9561 -1.3830
 9133SOL     OW38857   1.793   1.735  12.664  0.2886  0.2052  0.6279
 9133SOL    HW138858   1.749   1.726  12.579  0.5846 -1.6325  0.6667
 9133SOL    HW238859   1.882   1.705  12.648  0.3544  0.8770 -0.2763
 9134SOL     OW38860   1.359   4.333   6.761  0.1588  0.2163  0.0173
 9134SOL    HW138861   1.383   4.407   6.705  1.3225 -0.4665 -0.3745
 9134SOL    HW238862   1.265   4.351   6.750 -0.2425 -3.7829 -3.2652
 9135SOL     OW38863   3.601   4.683  17.082  0.4226  0.5000 -0.1866
 9135SOL    HW138864   3.585   4.589  17.092 -0.1737  0.5323 -0.7993
 9135SOL    HW238865   3.644   4.696  16.997  0.4983 -1.7901 -0.5055
 9136SOL     OW38866   0.238   0.216   9.516 -0.0552  0.3651 -0.0138
 9136SOL    HW138867   0.322   0.262   9.520 -0.0772  0.4269 -0.2503
 9136SOL    HW238868   0.246   0.173   9.431 -0.0856 -1.4675  0.8971
 9137SOL     OW38869   1.393   2.819   1.052 -1.1934 -0.4291 -0.0455
 9137SOL    HW138870   1.444   2.811   0.972  1.2300  0.1971  1.4627
 9137SOL    HW238871   1.316   2.763   1.039 -1.2004 -0.5666  0.5722
 9138SOL     OW38872   2.420   2.680   2.432 -0.1606 -0.2227  0.0538
 9138SOL    HW138873   2.374   2.746   2.484  1.8804  0.5580  0.8658
 9138SOL    HW238874   2.353   2.612   2.431  0.6066 -0.9929  1.4746
 9139SOL     OW38875   2.850   2.502   7.841 -0.1406  0.5257 -0.0783
 9139SOL    HW138876   2.814   2.417   7.867  0.6623  0.2825  0.2542
 9139SOL    HW238877   2.882   2.539   7.923 -1.4097  1.4308  0.0054
 9140SOL     OW38878   2.726   1.551   6.707 -0.0606 -0.0553  0.3185
 9140SOL    HW138879   2.683   1.519   6.787 -0.5125 -1.4300 -0.4689
 9140SOL    HW238880   2.768   1.631   6.737 -1.4355  1.0233 -0.6584
 9141SOL     OW38881   3.457   3.368  13.018  0.1539  0.3731  0.0927
 9141SOL    HW138882   3.401   3.294  13.040  2.5431 -2.0138 -1.9189
 9141SOL    HW238883   3.422   3.387  12.931 -2.8822 -0.6582  1.1134
 9142SOL     OW38884   2.004   2.754  16.814  0.4538  0.1695 -0.2961
 9142SOL    HW138885   2.049   2.672  16.794  0.6647  0.2821 -0.2872
 9142SOL    HW238886   2.042   2.810  16.746 -0.0100 -0.4680 -1.0772
 9143SOL     OW38887   3.997   2.421   4.342  0.2401  0.2884 -0.0126
 9143SOL    HW138888   4.038   2.450   4.260  0.6273 -1.3195 -0.4068
 9143SOL    HW238889   3.910   2.403   4.307  0.0358  0.6715  0.3023
 9144SOL     OW38890   0.354   0.416  15.690 -0.0867  0.3680 -0.1199
 9144SOL    HW138891   0.335   0.469  15.613  0.0396  1.6583  0.7278
 9144SOL    HW238892   0.352   0.479  15.762  0.5665  0.9342 -0.6000
 9145SOL     OW38893   3.917   0.509  17.151  0.7220  0.0962  0.5300
 9145SOL    HW138894   3.994   0.542  17.104  1.6047  0.1769  2.0507
 9145SOL    HW238895   3.878   0.444  17.092 -3.3747  2.5737  0.5938
 9146SOL     OW38896   3.083   3.363   7.986  0.2419  0.0636  0.0829
 9146SOL    HW138897   3.146   3.422   7.944  0.6770 -0.7922 -0.4718
 9146SOL    HW238898   3.125   3.278   7.996 -1.0487 -0.6485 -0.5887
 9147SOL     OW38899   4.343   3.663   5.540  0.0052  0.0879  0.0655
 9147SOL    HW138900   4.265   3.665   5.484  0.8725 -1.1070 -1.1777
 9147SOL    HW238901   4.310   3.647   5.628  0.3349 -1.3155 -0.0643
 9148SOL     OW38902   4.112   4.166   6.049 -0.1697 -0.6086  0.0756
 9148SOL    HW138903   4.146   4.245   6.006 -0.3817 -0.3156  0.4430
 9148SOL    HW238904   4.066   4.212   6.119  0.0015  1.0819 -0.9180
 9149SOL     OW38905   1.207   0.957   5.110  0.0319 -0.2495  0.6303
 9149SOL    HW138906   1.112   0.962   5.097  0.0664  0.8194  0.7288
 9149SOL    HW238907   1.210   0.895   5.183 -0.8818 -3.3974 -2.0063
 9150SOL     OW38908   1.991   0.138   6.503 -0.4763 -0.2894  0.9614
 9150SOL    HW138909   2.080   0.105   6.520 -1.1534 -1.7087  1.7236
 9150SOL    HW238910   1.943   0.071   6.552 -0.0220 -1.3992 -0.0849
 9151SOL     OW38911   3.096   3.203   1.640  0.2784 -0.2876 -0.0851
 9151SOL    HW138912   3.074   3.292   1.611 -2.7827 -1.7869 -2.3071
 9151SOL    HW238913   3.147   3.191   1.560  1.9596  1.6596  0.6983
 9152SOL     OW38914   3.346   3.334   4.836 -0.2678  0.2154 -0.0434
 9152SOL    HW138915   3.331   3.411   4.890 -1.5354 -0.8677  1.1595
 9152SOL    HW238916   3.264   3.309   4.792 -0.2360 -0.0097  0.0251
 9153SOL     OW38917   0.967   1.004   3.599 -0.1797 -0.3850 -0.1757
 9153SOL    HW138918   1.004   0.924   3.635 -0.8598 -1.4094 -1.7669
 9153SOL    HW238919   1.044   1.047   3.561  0.3406  0.7205  2.1313
 9154SOL     OW38920   2.995   2.981   6.941  0.0075  0.6636  0.0831
 9154SOL    HW138921   2.903   3.008   6.938 -0.1032  0.5195  1.9257
 9154SOL    HW238922   3.015   3.014   6.853 -0.4857 -0.5148 -0.4599
 9155SOL     OW38923   0.636   1.913   8.977 -0.4284  0.6227 -0.2419
 9155SOL    HW138924   0.621   1.850   8.907  1.0829 -1.1349  1.0085
 9155SOL    HW238925   0.587   1.868   9.045 -0.7302  1.5456  0.1469
 9156SOL     OW38926   1.799   2.646  11.640  0.2692 -0.0006 -0.0810
 9156SOL    HW138927   1.711   2.683  11.647 -0.2829 -1.8381  2.4560
 9156SOL    HW238928   1.797   2.628  11.546  1.4278 -0.5191 -0.0059
 9157SOL     OW38929   3.497   4.708   6.093  0.5617 -0.1688 -0.0769
 9157SOL    HW138930   3.553   4.719   6.170 -0.1471  1.5676  0.1900
 9157SOL    HW238931   3.528   0.059   6.039  2.0834  0.5594  1.7905
 9158SOL     OW38932   4.371   3.591   8.737  0.3745  0.3565  0.8457
 9158SOL    HW138933   4.333   3.643   8.666 -2.1372 -1.4428  0.8898
 9158SOL    HW238934   4.290   3.579   8.786 -2.0902  1.9535 -2.8936
 9159SOL     OW38935   3.943   1.941   2.743 -0.1060  0.2478  0.3262
 9159SOL    HW138936   3.853   1.909   2.750 -0.3432  1.0782  1.0679
 9159SOL    HW238937   3.934   1.960   2.650  1.0179 -1.8011 -0.1938
 9160SOL     OW38938   3.903   1.711  17.014  0.5195 -0.0087  0.3629
 9160SOL    HW138939   3.927   1.621  17.037  0.2296  0.2854  1.7973
 9160SOL    HW238940   3.862   1.684  16.932 -4.8565  1.3208  2.6564
 9161SOL     OW38941   1.225   3.620   3.158 -0.8239 -0.0310  0.2874
 9161SOL    HW138942   1.307   3.582   3.124 -0.4139 -1.0658  2.3861
 9161SOL    HW238943   1.164   3.548   3.174  0.7971 -1.5343 -0.2271
 9162SOL     OW38944   0.004   0.910  17.002 -0.2238 -0.3355  0.1340
 9162SOL    HW138945   0.036   0.922  17.092  1.0180  0.5672 -0.4254
 9162SOL    HW238946   0.079   0.950  16.958 -1.2311  0.8522 -0.4821
 9163SOL     OW38947   2.727   3.141   5.837 -0.3747  0.5094 -0.4416
 9163SOL    HW138948   2.648   3.130   5.890  0.0353 -0.9110 -0.1195
 9163SOL    HW238949   2.694   3.139   5.748  0.4664 -0.5354 -0.7257
 9164SOL     OW38950   4.645   3.559   8.741  0.1300  0.3698  0.0934
 9164SOL    HW138951   4.549   3.565   8.748  0.0268  0.7251 -1.6071
 9164SOL    HW238952   4.668   3.538   8.832 -0.6670 -1.6327 -0.1548
 9165SOL     OW38953   0.648   3.338  10.525  0.1993 -0.0167  0.5010
 9165SOL    HW138954   0.669   3.327  10.618  0.4182  0.6615  0.5287
 9165SOL    HW238955   0.554   3.354  10.519  0.6599  1.7955 -1.7435
 9166SOL     OW38956   2.749   4.011   6.455 -0.4146  0.6777  0.6319
 9166SOL    HW138957   2.719   4.066   6.382  1.0299  0.3449 -0.2103
 9166SOL    HW238958   2.736   4.068   6.531 -1.0915 -2.5946  3.0027
 9167SOL     OW38959   1.922   0.846  11.870  0.0121 -0.2690  0.1350
 9167SOL    HW138960   2.009   0.826  11.905 -0.7727 -0.4668  2.0118
 9167SOL    HW238961   1.911   0.939  11.889 -0.6033 -0.2034 -0.5502
 9168SOL     OW38962   4.454   1.080  16.518 -0.0568  0.3813  0.2257
 9168SOL    HW138963   4.529   1.020  16.522 -0.8050 -0.7915 -3.2299
 9168SOL    HW238964   4.414   1.044  16.597  1.6329 -3.3355 -0.5617
 9169SOL     OW38965   2.500   3.414   6.290  0.1902  0.0620  0.2109
 9169SOL    HW138966   2.553   3.453   6.360  0.2047  1.3060 -0.4957
 9169SOL    HW238967   2.414   3.414   6.332 -0.0652 -1.7211 -0.3211
 9170SOL     OW38968   2.586   4.395  12.386 -0.0628 -0.0014 -0.3322
 9170SOL    HW138969   2.543   4.393  12.301 -1.6207 -0.7447  0.4819
 9170SOL    HW238970   2.580   4.305  12.416 -2.1928  0.7144  1.4114
 9171SOL     OW38971   2.925   1.283   3.292  0.3467 -0.2089 -0.1332
 9171SOL    HW138972   2.878   1.222   3.234 -0.5763 -0.7498  1.1934
 9171SOL    HW238973   2.869   1.360   3.293 -0.4791 -0.7556 -2.5696
 9172SOL     OW38974   3.777   1.320  10.141 -0.3305 -0.1609  0.1218
 9172SOL    HW138975   3.684   1.300  10.141 -0.0739 -1.3242  0.3480
 9172SOL    HW238976   3.786   1.415  10.126 -0.2884  0.0407  1.4322
 9173SOL     OW38977   1.322   1.012   4.474 -0.2714  0.3877 -0.8486
 9173SOL    HW138978   1.307   0.919   4.490  3.4978  0.4010  2.7824
 9173SOL    HW238979   1.273   1.051   4.546  0.7947 -0.8369  0.5384
 9174SOL     OW38980   0.536   0.594  10.227  0.6261 -0.1568  0.2112
 9174SOL    HW138981   0.599   0.650  10.273  0.3757  0.4463 -0.1797
 9174SOL    HW238982   0.468   0.662  10.227  0.0276 -0.7617 -0.9331
 9175SOL     OW38983   2.672   2.992   5.101 -0.1440  0.4224 -0.0366
 9175SOL    HW138984   2.640   2.946   5.023 -1.4480  1.6139 -0.2287
 9175SOL    HW238985   2.634   3.080   5.089  0.8556  0.9991  1.0751
 9176SOL     OW38986   0.485   0.596   2.728  0.2873  0.0898 -0.2437
 9176SOL    HW138987   0.447   0.664   2.783  0.5740  0.8921 -1.0333
 9176SOL    HW238988   0.486   0.633   2.640  0.6770  1.6113  0.3993
 9177SOL     OW38989   0.728   2.892   2.514 -0.0227  0.3596  0.0981
 9177SOL    HW138990   0.763   2.869   2.428 -0.3936 -0.7903  0.2656
 9177SOL    HW238991   0.643   2.928   2.487 -0.2993 -0.2339  0.1880
 9178SOL     OW38992   4.162   2.659   0.748 -0.4371  0.2720  0.5157
 9178SOL    HW138993   4.137   2.679   0.658 -0.7937 -2.2404  0.0821
 9178SOL    HW238994   4.240   2.713   0.764  0.2184 -1.3114  2.6689
 9179SOL     OW38995   1.912   4.547   6.287  0.3850 -0.1771 -0.3905
 9179SOL    HW138996   1.934   4.610   6.218 -1.1355  0.8465  0.0596
 9179SOL    HW238997   2.001   4.532   6.317 -1.1491  0.4928  4.5435
 9180SOL     OW38998   2.845   1.784   6.757  0.5274 -0.4394  0.4380
 9180SOL    HW138999   2.849   1.837   6.677 -1.0972  2.0930  2.0189
 9180SOL    HW239000   2.924   1.829   6.788  0.2013  0.1516  0.4272
 9181SOL     OW39001   3.844   4.627   2.953 -0.2333  0.4387  0.1378
 9181SOL    HW139002   3.779   4.607   2.886  0.4037 -0.4969 -0.2044
 9181SOL    HW239003   3.888   4.543   2.942  0.1217  0.7951 -1.1456
 9182SOL     OW39004   4.507   1.483  14.872  0.0075 -0.0286 -0.1516
 9182SOL    HW139005   4.527   1.570  14.907  0.2630 -0.0860 -0.1552
 9182SOL    HW239006   4.422   1.469  14.912  0.1959  0.0388  0.2743
 9183SOL     OW39007   4.235   1.181   3.207 -0.0327  0.0733 -0.1205
 9183SOL    HW139008   4.251   1.128   3.129  0.1233 -1.1172  0.7253
 9183SOL    HW239009   4.199   1.260   3.166 -0.4374 -0.8161 -1.4581
 9184SOL     OW39010   3.072   4.532   3.445 -0.0331 -0.1496 -0.2082
 9184SOL    HW139011   3.090   4.438   3.450  0.6933 -0.0640 -1.1006
 9184SOL    HW239012   3.141   4.566   3.389 -1.8943  2.0116 -1.2067
 9185SOL     OW39013   2.081   4.454   8.838  0.0356  0.3555 -0.0543
 9185SOL    HW139014   2.003   4.502   8.813 -0.9003  1.1236  4.2815
 9185SOL    HW239015   2.077   4.453   8.934 -1.1539  0.2385 -0.1022
 9186SOL     OW39016   3.348   2.079   0.991 -0.3163 -0.6415  0.3436
 9186SOL    HW139017   3.259   2.057   1.018 -0.4668  0.0468  0.4080
 9186SOL    HW239018   3.379   1.989   1.001 -1.0579 -0.6431  2.8551
 9187SOL     OW39019   3.646   3.078  14.518 -0.2200 -0.1103  0.2110
 9187SOL    HW139020   3.716   3.139  14.540 -0.9019  0.5768  0.4860
 9187SOL    HW239021   3.626   3.119  14.434  0.9744  1.8489  0.8768
 9188SOL     OW39022   0.249   3.703   2.190  0.4863  0.1564  0.3488
 9188SOL    HW139023   0.251   3.748   2.106 -0.5225 -2.0230 -0.8545
 9188SOL    HW239024   0.255   3.780   2.246 -1.7163 -0.8465  1.9965
 9189SOL     OW39025   2.611   2.176   6.168  0.4698  0.8326  0.0292
 9189SOL    HW139026   2.545   2.214   6.225  0.3612  2.4356 -1.1680
 9189SOL    HW239027   2.561   2.168   6.087  0.9342  2.7055 -0.4519
 9190SOL     OW39028   1.238   1.853   3.124 -0.5173  0.3071  0.3630
 9190SOL    HW139029   1.147   1.882   3.113 -0.4532  0.3090 -0.1992
 9190SOL    HW239030   1.260   1.794   3.052  0.3486  0.1444  0.7590
 9191SOL     OW39031   3.849   3.136   5.212 -0.0279 -0.6127 -0.0041
 9191SOL    HW139032   3.868   3.206   5.150  0.3604 -0.9051 -0.2116
 9191SOL    HW239033   3.927   3.150   5.266  1.0993 -2.6007 -1.1150
 9192SOL     OW39034   2.930   2.458  15.913  0.2135  0.1778 -0.4211
 9192SOL    HW139035   3.017   2.418  15.926  0.7791  1.8061  0.7200
 9192SOL    HW239036   2.959   2.546  15.891 -0.1404  0.7885  1.5309
 9193SOL     OW39037   3.066   1.941   0.995  0.5212  0.1652  0.2464
 9193SOL    HW139038   3.087   1.861   1.044 -0.0371 -0.5133 -0.6230
 9193SOL    HW239039   3.104   1.929   0.908  0.2256 -0.6976  0.2314
 9194SOL     OW39040   4.009   0.668   9.211  0.1493 -0.4953 -1.2894
 9194SOL    HW139041   4.099   0.645   9.191  1.3851  3.4835 -0.4277
 9194SOL    HW239042   3.965   0.587   9.186  0.2344 -0.7324 -0.6791
 9195SOL     OW39043   1.772   2.145   9.481  0.1224 -0.1841 -0.7962
 9195SOL    HW139044   1.846   2.085   9.479  0.1411 -0.1728 -0.4378
 9195SOL    HW239045   1.694   2.098   9.453 -1.2442  0.9326  1.1275
 9196SOL     OW39046   2.223   1.886   9.295  0.4366 -0.3401  0.5938
 9196SOL    HW139047   2.185   1.946   9.231  0.9598  0.5901  1.1506
 9196SOL    HW239048   2.227   1.804   9.246  1.5908 -0.8623  1.5671
 9197SOL     OW39049   1.483   0.218   1.928  0.0425 -0.4303  0.0467
 9197SOL    HW139050   1.568   0.225   1.970 -0.1397  1.9549  0.0035
 9197SOL    HW239051   1.458   0.129   1.952  0.1587 -0.0764  1.5085
 9198SOL     OW39052   3.490   1.425   8.389  0.2398  0.0378 -0.2330
 9198SOL    HW139053   3.478   1.382   8.304  1.9301 -1.5822  0.3624
 9198SOL    HW239054   3.513   1.346   8.436 -1.2274  0.6265  1.4588
 9199SOL     OW39055   4.092   2.119  15.706 -0.0472 -0.3811 -0.7454
 9199SOL    HW139056   4.110   2.053  15.640  0.2089 -1.6625  0.5950
 9199SOL    HW239057   3.999   2.130  15.686 -0.3049 -0.4856  0.3960
 9200SOL     OW39058   0.759   4.595   4.612  0.0987  0.6269  0.0027
 9200SOL    HW139059   0.690   4.598   4.546  0.4459 -1.2695 -0.4488
 9200SOL    HW239060   0.705   4.616   4.688  0.0309  0.1537  0.0871
 9201SOL     OW39061   0.422   3.481   7.113  0.3971  0.6950  0.1398
 9201SOL    HW139062   0.337   3.450   7.144  0.1082  0.2032 -1.1559
 9201SOL    HW239063   0.468   3.399   7.125 -3.4027 -1.3263  0.9567
 9202SOL     OW39064   1.675   3.032   5.656 -0.6230 -0.1246  0.3138
 9202SOL    HW139065   1.698   3.022   5.749 -0.6743 -0.9261  0.2372
 9202SOL    HW239066   1.580   3.041   5.662 -1.0133 -4.6102  1.2755
 9203SOL     OW39067   2.807   0.586   4.889  0.1199  0.3149  0.2384
 9203SOL    HW139068   2.826   0.572   4.982 -0.3318  0.7123  0.3897
 9203SOL    HW239069   2.877   0.533   4.851  1.5908  0.5616  2.6311
 9204SOL     OW39070   0.877   1.507  16.482 -0.4617 -0.7673  0.4924
 9204SOL    HW139071   0.892   1.458  16.402  2.4267 -0.5106  0.8769
 9204SOL    HW239072   0.800   1.456  16.506 -0.2393 -1.2041  0.2770
 9205SOL     OW39073   2.327   3.494   8.205 -0.8866 -0.0208  0.0905
 9205SOL    HW139074   2.409   3.507   8.157 -0.4972  4.8020  2.0637
 9205SOL    HW239075   2.355   3.434   8.274  0.5220 -1.1555 -1.4439
 9206SOL     OW39076   3.718   4.115   1.564 -0.3570 -0.0564 -0.4830
 9206SOL    HW139077   3.784   4.070   1.512  1.4049  1.5089  0.3945
 9206SOL    HW239078   3.764   4.115   1.648  2.9714  1.0986 -2.3179
 9207SOL     OW39079   2.878   4.326  13.420 -0.2842 -0.3759  0.2073
 9207SOL    HW139080   2.882   4.230  13.425  1.8556 -0.4009 -1.7381
 9207SOL    HW239081   2.830   4.338  13.339  0.3730  0.7052 -0.0208
 9208SOL     OW39082   0.403   4.127   8.029 -0.1454  0.1203  0.0720
 9208SOL    HW139083   0.469   4.123   7.961 -0.7251 -1.9144 -0.3760
 9208SOL    HW239084   0.324   4.137   7.976  1.5877  0.3640 -2.4313
 9209SOL     OW39085   1.262   3.657   8.806  0.3009 -0.0041 -0.1257
 9209SOL    HW139086   1.333   3.703   8.762  1.8342 -0.9519  1.3724
 9209SOL    HW239087   1.290   3.653   8.897 -2.2819 -1.8011  0.6063
 9210SOL     OW39088   4.360   1.451   8.834 -0.0953 -0.0392  0.1150
 9210SOL    HW139089   4.411   1.420   8.760  0.1407 -1.3229  0.8145
 9210SOL    HW239090   4.392   1.398   8.907 -1.0785 -0.9977 -0.1593
 9211SOL     OW39091   1.422   2.244  10.878  0.1134 -0.2773  0.5134
 9211SOL    HW139092   1.333   2.209  10.888 -0.5789  0.6350 -2.2335
 9211SOL    HW239093   1.412   2.319  10.937 -0.0272 -0.3409  0.5706
 9212SOL     OW39094   1.480   4.613   7.138  0.0753  0.2147  0.3740
 9212SOL    HW139095   1.512   4.524   7.153 -2.2075 -0.3967  1.6092
 9212SOL    HW239096   1.488   4.601   7.043  1.1569  1.4327  0.3163
 9213SOL     OW39097   4.013   2.048   2.148  0.3329 -0.3427 -0.2329
 9213SOL    HW139098   3.934   1.997   2.130  0.3421  0.0070 -1.2684
 9213SOL    HW239099   4.083   2.006   2.098 -0.8185 -1.5549 -0.8474
 9214SOL     OW39100   1.220   3.165  13.340  0.5156 -0.3890  0.0783
 9214SOL    HW139101   1.202   3.073  13.320 -1.2239  0.0308 -0.2999
 9214SOL    HW239102   1.134   3.183  13.378 -0.4320 -0.1448 -2.1564
 9215SOL     OW39103   4.145   2.325  15.890  0.6404 -0.1227 -0.0491
 9215SOL    HW139104   4.236   2.302  15.906  1.6611  3.2560 -1.0095
 9215SOL    HW239105   4.123   2.249  15.835 -0.1933 -1.6853  2.4475
 9216SOL     OW39106   2.669   2.449  15.209 -0.4362 -0.2865  0.2619
 9216SOL    HW139107   2.694   2.542  15.212 -2.8486  0.3629  0.0254
 9216SOL    HW239108   2.690   2.424  15.299 -0.8597 -0.5184  0.2927
 9217SOL     OW39109   0.600   1.169   2.932  0.1346 -0.5144 -0.1641
 9217SOL    HW139110   0.628   1.210   2.850  0.2095  0.2946  0.2709
 9217SOL    HW239111   0.506   1.188   2.929 -0.4088 -3.1632  0.2611
 9218SOL     OW39112   4.694   4.501   7.148  0.1118  0.1042 -0.3718
 9218SOL    HW139113   4.709   4.571   7.211  2.5485  0.0994 -0.9435
 9218SOL    HW239114   0.062   4.472   7.129 -1.6293 -5.4413 -0.1996
 9219SOL     OW39115   1.523   2.853   1.931 -0.4799  0.4707  0.0920
 9219SOL    HW139116   1.456   2.836   1.997 -0.9963 -0.0672 -0.5675
 9219SOL    HW239117   1.502   2.943   1.905 -1.4958  0.4751  0.8995
 9220SOL     OW39118   2.114   2.613   8.584 -0.0413 -0.2984 -0.1206
 9220SOL    HW139119   2.071   2.571   8.658  0.3027 -0.4117  0.0168
 9220SOL    HW239120   2.042   2.670   8.560  1.6422  0.7574 -2.6085
 9221SOL     OW39121   2.265   2.195  12.086  0.3243  0.1931  0.1627
 9221SOL    HW139122   2.264   2.102  12.066  2.5305 -0.4341  3.0355
 9221SOL    HW239123   2.173   2.210  12.106  0.6834  2.1388  0.4179
 9222SOL     OW39124   4.471   3.864   3.334  0.2072  0.1540 -0.0957
 9222SOL    HW139125   4.474   3.769   3.349 -0.7401  0.1783  0.2785
 9222SOL    HW239126   4.555   3.891   3.298 -0.8456 -0.7806 -3.2546
 9223SOL     OW39127   3.230   2.269   3.012 -0.0487 -0.1963 -0.0476
 9223SOL    HW139128   3.184   2.328   3.072 -0.6506 -1.2017  0.4908
 9223SOL    HW239129   3.183   2.282   2.930  0.2610  1.9194  0.1123
 9224SOL     OW39130   4.252   0.508   4.364 -0.5394 -0.0543 -0.6079
 9224SOL    HW139131   4.258   0.416   4.339  1.0472  0.1241 -0.8753
 9224SOL    HW239132   4.160   0.529   4.351 -0.6389 -1.0161 -1.4386
 9225SOL     OW39133   1.925   1.228   5.426  0.1045  0.2348  0.5854
 9225SOL    HW139134   1.906   1.145   5.382 -1.2546  1.2512 -0.7580
 9225SOL    HW239135   1.853   1.281   5.392  0.5441  1.2593  1.2618
 9226SOL     OW39136   0.691   2.745   3.707 -0.3036  0.5162 -0.1082
 9226SOL    HW139137   0.640   2.815   3.668  0.2106  1.6398  1.2397
 9226SOL    HW239138   0.732   2.797   3.777  2.3582 -2.8645  0.8586
 9227SOL     OW39139   0.706   1.366   5.106 -0.0326  0.1783 -0.4100
 9227SOL    HW139140   0.680   1.405   5.022  0.7542  1.7548  0.0726
 9227SOL    HW239141   0.621   1.356   5.149 -0.4040  0.3278 -1.0987
 9228SOL     OW39142   4.189   1.224   7.034 -0.6854  0.1728  0.0226
 9228SOL    HW139143   4.137   1.146   7.054  0.6702 -0.9770 -1.0006
 9228SOL    HW239144   4.191   1.233   6.939  2.1238 -0.0811  0.0638
 9229SOL     OW39145   0.261   0.073  10.523  0.0685 -0.8013 -0.4176
 9229SOL    HW139146   0.175   0.033  10.510 -0.0571 -0.1467 -1.5982
 9229SOL    HW239147   0.237   0.135  10.592  0.7823  0.0990 -0.9735
 9230SOL     OW39148   3.571   1.358   1.625  0.3465 -0.2529  0.4750
 9230SOL    HW139149   3.650   1.405   1.652 -0.3078  0.6205  0.8424
 9230SOL    HW239150   3.576   1.274   1.670  0.2890  0.7900  2.4489
 9231SOL     OW39151   2.470   3.639   2.244  0.1139  0.2570 -0.8390
 9231SOL    HW139152   2.532   3.613   2.177  1.5054  1.8245 -0.1560
 9231SOL    HW239153   2.391   3.600   2.207 -1.9216  2.1694  1.4983
 9232SOL     OW39154   0.272   4.073   4.340  0.1328  0.0475  0.6426
 9232SOL    HW139155   0.281   4.063   4.245  1.0615 -0.4550  0.7856
 9232SOL    HW239156   0.303   3.990   4.376 -0.3281  0.0149  0.9572
 9233SOL     OW39157   2.205   4.717   6.572  0.0922  0.3343 -0.3347
 9233SOL    HW139158   2.280   4.693   6.627 -0.1389  0.0417 -0.1457
 9233SOL    HW239159   2.189   4.640   6.518 -0.1325 -0.1060  0.3544
 9234SOL     OW39160   1.671   1.173   7.232  0.2196 -0.0055  0.6120
 9234SOL    HW139161   1.707   1.094   7.191  0.9253 -0.0297  1.2824
 9234SOL    HW239162   1.581   1.165   7.200  0.7995  0.1439 -1.1017
 9235SOL     OW39163   3.409   2.870   3.304  0.1521 -0.3983 -0.3186
 9235SOL    HW139164   3.362   2.907   3.379 -0.1895  1.8795 -1.6835
 9235SOL    HW239165   3.496   2.908   3.302 -0.9421  1.9646 -1.8746
 9236SOL     OW39166   3.340   2.418   9.267 -0.4516 -0.3000 -0.7164
 9236SOL    HW139167   3.393   2.494   9.290  0.2734 -0.7923 -0.7565
 9236SOL    HW239168   3.268   2.452   9.213  0.7057  2.2910 -0.5897
 9237SOL     OW39169   3.533   1.446   3.874 -0.3333  0.2322  0.6621
 9237SOL    HW139170   3.576   1.422   3.793  0.0339 -1.2324  1.2907
 9237SOL    HW239171   3.594   1.505   3.917 -1.4241  1.8835 -0.0519
 9238SOL     OW39172   4.052   1.345   6.461 -0.2748  0.8772  0.5860
 9238SOL    HW139173   4.114   1.417   6.472  1.3889 -0.2195 -1.3640
 9238SOL    HW239174   3.968   1.389   6.455 -1.3338 -1.2104  0.1376
 9239SOL     OW39175   3.569   2.038   2.347  0.1154 -0.1210  0.3667
 9239SOL    HW139176   3.624   2.108   2.312  1.3702 -1.3368 -0.0774
 9239SOL    HW239177   3.596   2.057   2.437  3.1394 -3.2826  0.1244
 9240SOL     OW39178   2.656   4.517   4.055  0.2763 -0.2752 -0.0602
 9240SOL    HW139179   2.744   4.489   4.029  0.4759 -2.1344  2.5826
 9240SOL    HW239180   2.609   4.435   4.070 -0.2194  0.0090 -0.0612
 9241SOL     OW39181   3.126   4.633   1.797 -0.5469 -0.0755  1.0251
 9241SOL    HW139182   3.154   4.554   1.749 -3.1905  0.0472 -0.6806
 9241SOL    HW239183   3.199   4.693   1.782 -0.6081  0.2093  1.9109
 9242SOL     OW39184   1.883   2.192   2.056 -0.1896 -0.0841 -0.7375
 9242SOL    HW139185   1.897   2.132   2.129 -0.7117  1.6627  0.7848
 9242SOL    HW239186   1.787   2.194   2.060 -0.1842  0.1125 -0.7064
 9243SOL     OW39187   4.639   4.526   4.715 -0.0535 -0.2093 -0.2297
 9243SOL    HW139188   4.608   4.441   4.686  1.2719 -0.8128  0.1186
 9243SOL    HW239189   4.618   4.564   4.630 -0.8598 -0.9026 -0.3367
 9244SOL     OW39190   0.192   4.673   9.062  0.2483  0.0883  0.1869
 9244SOL    HW139191   0.126   4.618   9.020 -0.0535  0.5017  0.1197
 9244SOL    HW239192   0.206   0.015   8.992  3.1086 -2.0136 -1.1100
 9245SOL     OW39193   0.329   2.433   2.761 -0.0008 -0.2845 -0.6352
 9245SOL    HW139194   0.346   2.502   2.696  0.3521  0.3031  0.0865
 9245SOL    HW239195   0.324   2.356   2.704 -0.5387 -0.5260 -0.2633
 9246SOL     OW39196   1.524   0.202   6.036  0.0087 -0.0670  1.1004
 9246SOL    HW139197   1.538   0.107   6.030  0.0461  0.0376 -0.3436
 9246SOL    HW239198   1.449   0.196   5.978 -0.1831 -2.1053  1.5527
 9247SOL     OW39199   3.758   1.168   2.514  0.0209  0.0722 -0.1605
 9247SOL    HW139200   3.840   1.217   2.515 -0.5299  1.0135 -0.4470
 9247SOL    HW239201   3.706   1.217   2.578  1.3941 -1.1119  1.8510
 9248SOL     OW39202   3.479   0.230   2.987  0.7425  0.1665  1.3621
 9248SOL    HW139203   3.474   0.285   2.909 -1.0020 -2.9414 -0.7271
 9248SOL    HW239204   3.570   0.252   3.011  0.9367  1.4327 -0.5418
 9249SOL     OW39205   3.013   3.696   2.319 -0.0267  0.2059  0.1727
 9249SOL    HW139206   2.980   3.610   2.345 -0.2974 -0.0016 -0.8236
 9249SOL    HW239207   3.106   3.682   2.303  0.1694  1.7756 -0.0658
 9250SOL     OW39208   4.544   2.441   7.022 -0.2759 -0.0655 -0.3823
 9250SOL    HW139209   4.618   2.383   7.036  2.1089  2.6452 -1.8821
 9250SOL    HW239210   4.518   2.480   7.106  0.9338 -1.2588  0.5420
 9251SOL     OW39211   1.582   0.768   2.426 -0.5970  0.2342  0.2293
 9251SOL    HW139212   1.631   0.686   2.422 -2.1822 -0.7560  1.1789
 9251SOL    HW239213   1.596   0.803   2.338  1.7029  1.3800  1.0576
 9252SOL     OW39214   2.829   3.395   2.651  0.4566  0.0899 -0.0930
 9252SOL    HW139215   2.754   3.336   2.660  1.6183 -1.1700  1.5741
 9252SOL    HW239216   2.781   3.468   2.613 -1.3022 -2.0206 -1.9129
 9253SOL     OW39217   4.380   1.780   2.267  0.0964  0.5380 -0.2243
 9253SOL    HW139218   4.335   1.766   2.184 -0.6666  0.6133  0.1783
 9253SOL    HW239219   4.424   1.694   2.268  2.0498  1.5551  1.0619
 9254SOL     OW39220   1.552   4.604   8.285 -0.2035  0.1437 -0.2293
 9254SOL    HW139221   1.541   4.511   8.304  1.4955  0.0976  0.5440
 9254SOL    HW239222   1.474   4.630   8.334 -0.0305  1.0152 -0.4066
 9255SOL     OW39223   2.953   1.189   0.253 -0.0285  0.0361  0.0082
 9255SOL    HW139224   2.986   1.155   0.336  1.0809  0.6503 -0.1765
 9255SOL    HW239225   2.973   1.121   0.188 -0.9879 -0.8829  0.6944
 9256SOL     OW39226   2.783   1.738   7.044 -0.2743  0.1664 -0.1782
 9256SOL    HW139227   2.714   1.701   6.989  0.0648  1.8453 -1.7433
 9256SOL    HW239228   2.828   1.773   6.967 -1.1399 -1.4667 -1.4374
 9257SOL     OW39229   4.026   4.721   1.009 -0.0796 -0.2790 -0.0586
 9257SOL    HW139230   4.079   0.026   0.934 -0.8986 -0.5807 -0.7421
 9257SOL    HW239231   3.942   0.044   0.999  0.4477  0.1183 -2.7762
 9258SOL     OW39232   2.388   1.405   4.223 -0.1309 -0.0066  0.3546
 9258SOL    HW139233   2.305   1.383   4.266 -0.8013  0.2847 -0.7753
 9258SOL    HW239234   2.362   1.463   4.151  0.4481 -2.0676 -1.5408
 9259SOL     OW39235   3.513   3.841   5.748 -0.3875 -0.1683 -0.1986
 9259SOL    HW139236   3.583   3.897   5.783 -1.1871 -0.0050  1.1475
 9259SOL    HW239237   3.567   3.770   5.713 -0.6700 -0.6812  0.4107
 9260SOL     OW39238   3.899   2.061   8.738 -0.1869 -0.3039 -0.1124
 9260SOL    HW139239   3.885   2.019   8.823 -0.1525 -1.0957 -0.5047
 9260SOL    HW239240   3.988   2.042   8.710  0.5105 -0.0342  1.8977
 9261SOL     OW39241   4.348   4.536   8.781 -0.6049  0.1625 -0.1610
 9261SOL    HW139242   4.400   4.477   8.727  0.6908 -0.1346  1.4124
 9261SOL    HW239243   4.403   4.614   8.773  0.0551 -0.1828  0.9527
 9262SOL     OW39244   0.584   3.183   2.767 -0.4919  0.2966 -0.1651
 9262SOL    HW139245   0.668   3.222   2.744  0.3019 -0.9799  0.5439
 9262SOL    HW239246   0.584   3.109   2.707 -0.5995 -0.9397  1.3571
 9263SOL     OW39247   1.194   2.480   4.024  0.4157  0.1466 -0.7981
 9263SOL    HW139248   1.275   2.507   3.979  1.4327 -0.6290  0.5636
 9263SOL    HW239249   1.236   2.440   4.100 -1.2925  1.6634  0.9426
 9264SOL     OW39250   4.039   1.933   8.398 -0.8921  0.0034 -0.1794
 9264SOL    HW139251   4.064   1.908   8.487 -1.7726  0.1860  0.1231
 9264SOL    HW239252   4.010   1.846   8.368 -0.7823  0.2466 -0.9865
 9265SOL     OW39253   2.394   2.373  12.805 -0.3032 -0.2695 -0.3357
 9265SOL    HW139254   2.446   2.298  12.776  0.9005  1.5328 -2.8097
 9265SOL    HW239255   2.408   2.379  12.900  0.9654  1.0302 -0.6102
 9266SOL     OW39256   2.714   4.671   2.136  0.7680 -0.3893  0.2826
 9266SOL    HW139257   2.671   4.671   2.051 -2.2746 -1.2907  1.8216
 9266SOL    HW239258   2.802   4.669   2.098  1.0528 -0.1533  0.9291
 9267SOL     OW39259   2.494   3.449   4.890 -0.2520  0.2665 -0.1709
 9267SOL    HW139260   2.425   3.516   4.892 -0.6713 -0.1767  0.4077
 9267SOL    HW239261   2.509   3.440   4.796  0.8539  0.2266  0.0070
 9268SOL     OW39262   1.629   3.412   3.372 -0.1264  0.3869 -0.5347
 9268SOL    HW139263   1.674   3.332   3.398 -2.9604 -1.9016 -2.7576
 9268SOL    HW239264   1.710   3.459   3.351 -0.5846  1.5800  0.3775
 9269SOL     OW39265   0.189   3.706   1.362 -0.6316 -0.1651  0.5470
 9269SOL    HW139266   0.216   3.653   1.437  0.2249 -0.1507  0.2529
 9269SOL    HW239267   0.258   3.773   1.353 -2.5515  1.7670  0.2525
 9270SOL     OW39268   2.675   2.874   8.039 -0.0472  0.4230 -0.2515
 9270SOL    HW139269   2.770   2.878   8.034 -0.0769 -1.5217 -2.9291
 9270SOL    HW239270   2.653   2.792   8.083 -0.3956  0.7122  0.1118
 9271SOL     OW39271   1.627   1.803   4.655  0.7350  0.2219 -0.1463
 9271SOL    HW139272   1.704   1.808   4.712 -0.1023 -0.9647  1.0699
 9271SOL    HW239273   1.628   1.713   4.623 -0.6116  0.7840 -1.7689
 9272SOL     OW39274   0.287   3.562   7.568  0.1703 -0.3154  0.4093
 9272SOL    HW139275   0.278   3.471   7.597  0.0216 -0.6239 -0.5918
 9272SOL    HW239276   0.195   3.583   7.559  0.2758 -0.3349 -0.7701
 9273SOL     OW39277   3.969   1.978   9.417 -0.2240  0.0733 -0.1838
 9273SOL    HW139278   3.878   2.003   9.432 -0.6563 -1.6401  0.0258
 9273SOL    HW239279   3.961   1.886   9.441 -1.1772 -0.3020 -1.9739
 9274SOL     OW39280   1.214   3.025   8.230 -0.2322 -0.3888 -0.3068
 9274SOL    HW139281   1.178   3.102   8.185 -0.4677 -1.0540 -1.2563
 9274SOL    HW239282   1.162   3.042   8.308 -0.9083  1.2498 -1.1147
 9275SOL     OW39283   2.825   4.278   6.918  0.0495  0.3111  0.2337
 9275SOL    HW139284   2.745   4.249   6.964  0.3313  0.2505  0.6885
 9275SOL    HW239285   2.870   4.330   6.985  3.3053  0.8448 -2.4051
 9276SOL     OW39286   2.972   3.992   7.163  0.2656 -0.6219  0.1746
 9276SOL    HW139287   3.050   4.046   7.149  0.2880 -0.8185 -0.4612
 9276SOL    HW239288   2.916   4.058   7.205  0.7965 -0.4066  0.5469
 9277SOL     OW39289   4.172   3.641   3.711 -0.2425 -0.3008  0.1224
 9277SOL    HW139290   4.171   3.606   3.622  0.3792  1.1713 -0.4767
 9277SOL    HW239291   4.195   3.733   3.695 -1.8662  0.1074  0.1715
 9278SOL     OW39292   4.569   4.269   9.494 -0.2173 -0.3275 -0.4737
 9278SOL    HW139293   4.518   4.328   9.549 -1.0501  0.0389 -1.6369
 9278SOL    HW239294   4.552   4.184   9.535 -0.9851 -0.4859 -1.1065
 9279SOL     OW39295   4.476   2.588   1.338 -0.0211  0.3483  0.2365
 9279SOL    HW139296   4.444   2.622   1.254  0.7082  2.2356  0.7234
 9279SOL    HW239297   4.545   2.651   1.357  0.4513 -1.0617  3.1295
 9280SOL     OW39298   4.406   0.133  12.481  0.4804  0.3396  0.2213
 9280SOL    HW139299   4.323   0.089  12.503  1.0682  0.0116  1.7752
 9280SOL    HW239300   4.410   0.109  12.388 -0.2159 -0.2754  0.3458
 9281SOL     OW39301   1.608   1.632  13.871  0.3306 -0.2966 -0.3143
 9281SOL    HW139302   1.567   1.553  13.906  0.6070 -0.2341  0.1554
 9281SOL    HW239303   1.701   1.613  13.866  0.5562  0.6553  0.1648
 9282SOL     OW39304   2.515   1.183   7.585 -0.0993 -0.3294 -0.6458
 9282SOL    HW139305   2.429   1.213   7.616  0.2169  0.0635 -0.1500
 9282SOL    HW239306   2.546   1.112   7.641  0.8193 -0.3512 -1.1986
 9283SOL     OW39307   3.333   1.781  13.447 -0.3143  0.0496  0.8191
 9283SOL    HW139308   3.308   1.696  13.411  1.5979  1.1886 -3.1738
 9283SOL    HW239309   3.251   1.830  13.440 -0.3353 -0.1152  0.0101
 9284SOL     OW39310   2.596   0.983  15.759  0.2883 -0.3087 -0.1062
 9284SOL    HW139311   2.668   1.011  15.816 -0.3991 -0.1974  0.7112
 9284SOL    HW239312   2.533   0.939  15.816  1.3269 -2.3209 -0.5054
 9285SOL     OW39313   0.485   1.465  14.607  0.2065 -0.3125  0.0047
 9285SOL    HW139314   0.488   1.549  14.561  0.6336 -0.2510  0.1446
 9285SOL    HW239315   0.566   1.420  14.583  0.4357 -1.1213  2.2786
 9286SOL     OW39316   1.502   1.990   3.104  0.1421  0.2961  0.0048
 9286SOL    HW139317   1.406   1.986   3.108  0.1660  0.1111  0.3102
 9286SOL    HW239318   1.520   2.019   3.014  1.5607  0.3141  0.2946
 9287SOL     OW39319   3.034   3.682   1.280 -0.3752  0.3292  0.8383
 9287SOL    HW139320   3.030   3.586   1.272  0.6383  0.3244  0.3273
 9287SOL    HW239321   3.130   3.685   1.285 -0.3710  0.5101  0.6470
 9288SOL     OW39322   2.943   3.705  17.203 -0.8947  0.3663 -0.2105
 9288SOL    HW139323   2.889   3.632  17.173 -1.1286  1.1513 -1.7394
 9288SOL    HW239324   3.022   3.703  17.148  0.6706  2.6015  1.9415
 9289SOL     OW39325   3.852   4.559   7.061 -0.4545  0.4844 -0.3250
 9289SOL    HW139326   3.852   4.569   7.157  0.2947 -2.2491 -0.0428
 9289SOL    HW239327   3.912   4.628   7.033  1.5779 -1.5118 -0.8493
 9290SOL     OW39328   2.962   2.635  16.262  0.4621 -0.8963 -0.7019
 9290SOL    HW139329   2.874   2.638  16.223  0.3321  0.1060 -0.3358
 9290SOL    HW239330   2.940   2.566  16.325 -1.5879  0.4767  0.0951
 9291SOL     OW39331   3.024   0.071   0.468 -0.5243  0.5596 -0.1849
 9291SOL    HW139332   2.949   0.061   0.408 -0.5988 -0.9429  0.1435
 9291SOL    HW239333   3.097   0.061   0.408  0.7306 -0.5175  1.5290
 9292SOL     OW39334   2.359   0.677  15.555 -0.4990  0.0353 -0.0409
 9292SOL    HW139335   2.362   0.623  15.634  0.0111  0.5803  0.3087
 9292SOL    HW239336   2.358   0.770  15.577 -0.2018 -0.3171  1.4643
 9293SOL     OW39337   3.720   3.542   0.613 -0.1319 -0.4489  0.5312
 9293SOL    HW139338   3.683   3.609   0.671 -0.1359  0.0360 -0.0341
 9293SOL    HW239339   3.646   3.497   0.573 -0.8890  0.9432  0.3692
 9294SOL     OW39340   3.410   2.580   5.308 -0.5176  0.4620  0.6251
 9294SOL    HW139341   3.437   2.660   5.354  2.3955  0.0034 -0.2754
 9294SOL    HW239342   3.459   2.510   5.350 -1.8739 -1.7837 -1.5993
 9295SOL     OW39343   1.525   0.681   8.043 -0.7454  0.1292 -0.0325
 9295SOL    HW139344   1.586   0.739   7.999  0.3508 -0.2825  0.9594
 9295SOL    HW239345   1.492   0.632   7.967 -0.9261 -1.1814  0.8749
 9296SOL     OW39346   3.294   0.082  16.169 -0.1280 -0.3244 -0.1095
 9296SOL    HW139347   3.282   0.046  16.257  2.0982 -0.7879  0.0157
 9296SOL    HW239348   3.390   0.084  16.165  0.0084 -4.3583  0.5053
 9297SOL     OW39349   3.586   1.107   6.200  0.1997  0.5318 -0.0796
 9297SOL    HW139350   3.639   1.135   6.125  0.8540 -1.6021 -0.4053
 9297SOL    HW239351   3.500   1.090   6.161 -0.1953 -1.1707  1.5556
 9298SOL     OW39352   2.323   0.233  14.910 -0.1013  0.4488  0.6597
 9298SOL    HW139353   2.272   0.230  14.829  0.4149  0.9121  0.3134
 9298SOL    HW239354   2.297   0.317  14.946 -1.8618  0.1744  0.0191
 9299SOL     OW39355   1.561   1.598   9.958 -0.8180  0.6022  0.0421
 9299SOL    HW139356   1.494   1.566   9.897  0.7969  0.4981 -1.6669
 9299SOL    HW239357   1.586   1.511   9.989  1.1324  1.0291 -0.3489
 9300SOL     OW39358   0.964   4.002   5.200  0.2124 -0.3087 -0.2837
 9300SOL    HW139359   1.003   4.065   5.140  2.4257  0.5425  2.0446
 9300SOL    HW239360   1.000   3.923   5.161 -0.0793 -0.2366 -0.6936
 9301SOL     OW39361   3.195   1.877   4.799  0.0169  0.0997 -0.3303
 9301SOL    HW139362   3.209   1.841   4.887 -0.3116 -0.9864 -0.7267
 9301SOL    HW239363   3.196   1.799   4.744 -0.4640 -1.1193  1.3925
 9302SOL     OW39364   2.539   3.721   5.741 -0.5051  0.4129 -0.3486
 9302SOL    HW139365   2.493   3.750   5.821 -0.0154  1.4753 -0.4451
 9302SOL    HW239366   2.561   3.630   5.758  0.3507  0.8676  0.9982
 9303SOL     OW39367   1.264   3.958  10.036 -0.1626 -0.0092 -0.3570
 9303SOL    HW139368   1.216   4.017   9.979 -1.4984  0.8193  1.6382
 9303SOL    HW239369   1.189   3.945  10.094  1.2489  2.9228  2.0791
 9304SOL     OW39370   4.527   1.084   3.909  0.5106  0.0861 -0.1095
 9304SOL    HW139371   4.622   1.072   3.898  0.3802 -1.1998  0.2195
 9304SOL    HW239372   4.535   1.105   4.002  1.7019  0.1057 -0.2124
 9305SOL     OW39373   0.588   0.331   5.528 -0.1820  0.0169 -0.5642
 9305SOL    HW139374   0.545   0.411   5.556  0.1766  0.0629 -0.1502
 9305SOL    HW239375   0.521   0.295   5.470  0.7124 -1.3595 -0.7489
 9306SOL     OW39376   3.754   2.155   7.742 -0.3512 -0.0520 -0.6257
 9306SOL    HW139377   3.770   2.248   7.760  1.0627 -0.4003 -0.1042
 9306SOL    HW239378   3.705   2.173   7.662 -0.1212  1.6349 -0.3886
 9307SOL     OW39379   3.601   3.034   4.688 -0.3759  0.2822  0.1492
 9307SOL    HW139380   3.573   2.945   4.669  1.1782 -0.2438  0.2649
 9307SOL    HW239381   3.696   3.030   4.672 -0.1830 -0.9391  1.5562
 9308SOL     OW39382   1.883   1.283   8.466  0.2619 -0.1226 -0.0780
 9308SOL    HW139383   1.841   1.359   8.425 -0.3008 -0.4110 -0.0376
 9308SOL    HW239384   1.923   1.326   8.541  0.2105 -2.0802  1.0733
 9309SOL     OW39385   2.264   2.843  17.496 -0.5027 -0.6786  0.9012
 9309SOL    HW139386   2.245   2.928  17.535  3.1082  0.9522 -0.9539
 9309SOL    HW239387   2.217   2.854  17.413 -0.8252 -0.9221  1.0481
 9310SOL     OW39388   4.485   3.894   3.690 -0.1710  0.1903 -0.0287
 9310SOL    HW139389   4.400   3.890   3.734  0.2968 -0.1951  0.8232
 9310SOL    HW239390   4.485   3.984   3.658  0.5343  0.0192 -0.5047
 9311SOL     OW39391   1.539   4.195   9.030 -0.0223  0.3413 -0.0921
 9311SOL    HW139392   1.522   4.260   8.962  1.9778 -1.4175 -2.3090
 9311SOL    HW239393   1.471   4.225   9.089 -0.3731 -1.8710  0.6334
 9312SOL     OW39394   0.489   1.335   9.239 -0.1322 -0.3491  0.3573
 9312SOL    HW139395   0.584   1.322   9.229 -0.4769 -1.6223 -1.3233
 9312SOL    HW239396   0.479   1.426   9.210  2.1376 -0.9995 -2.5159
 9313SOL     OW39397   1.667   3.172   6.635 -0.1490  0.7529  0.0114
 9313SOL    HW139398   1.600   3.105   6.629  1.7147 -1.1318  0.3391
 9313SOL    HW239399   1.742   3.121   6.602 -0.7571  0.4377 -0.8863
 9314SOL     OW39400   4.630   2.119  10.789  0.1729  0.3797 -0.1068
 9314SOL    HW139401   4.588   2.204  10.785 -0.2527  0.0996 -1.6039
 9314SOL    HW239402   4.582   2.077  10.861 -1.1589  1.8570 -0.1508
 9315SOL     OW39403   2.156   2.233   8.091 -0.7716  0.2940 -0.4380
 9315SOL    HW139404   2.201   2.192   8.018  1.6401 -0.8070  1.6725
 9315SOL    HW239405   2.128   2.317   8.054  2.2962  0.6261 -2.0669
 9316SOL     OW39406   2.307   2.586   0.763  0.0623 -0.5679 -0.1179
 9316SOL    HW139407   2.341   2.661   0.714  2.6705 -0.5922  1.6395
 9316SOL    HW239408   2.347   2.588   0.850  0.1937 -1.1977 -0.1647
 9317SOL     OW39409   4.357   4.151   7.063 -0.2780  0.6868 -0.3930
 9317SOL    HW139410   4.433   4.093   7.066 -1.0909 -0.5125 -2.8119
 9317SOL    HW239411   4.287   4.092   7.088  2.2531 -1.6942  1.0953
 9318SOL     OW39412   4.664   0.728   1.937  0.4539  0.1112  0.4871
 9318SOL    HW139413   0.004   0.684   1.995  0.4373 -0.8771 -0.2429
 9318SOL    HW239414   4.695   0.817   1.953  0.2954 -0.2700  2.9256
 9319SOL     OW39415   0.196   0.287  15.870 -0.0296 -0.2052 -0.3895
 9319SOL    HW139416   0.240   0.319  15.792  1.7683 -1.5471  0.0785
 9319SOL    HW239417   0.112   0.254  15.841 -0.0597  0.1496 -0.7051
 9320SOL     OW39418   2.894   0.360   5.944  0.7595  0.7332  0.6068
 9320SOL    HW139419   2.839   0.428   5.905  2.9389  1.8701 -0.4501
 9320SOL    HW239420   2.842   0.348   6.023 -0.0994  2.8429  0.3700
 9321SOL     OW39421   3.813   2.306   8.449 -0.3843 -0.3788  0.1043
 9321SOL    HW139422   3.811   2.230   8.507 -1.3586 -0.3714  0.0774
 9321SOL    HW239423   3.737   2.288   8.395 -0.1036  0.1506 -0.4690
 9322SOL     OW39424   1.187   3.112   6.582 -0.0143 -0.2547 -0.0010
 9322SOL    HW139425   1.105   3.159   6.594  1.2714  2.1939 -0.8181
 9322SOL    HW239426   1.182   3.075   6.494  1.6833 -1.1058  0.2613
 9323SOL     OW39427   3.958   3.137  10.018  0.3829 -0.6382 -0.2878
 9323SOL    HW139428   3.913   3.055   9.996  1.8121 -1.2256 -0.9813
 9323SOL    HW239429   3.967   3.185   9.936  0.7633 -1.3685 -0.6728
 9324SOL     OW39430   2.516   0.991   7.988  0.0759  0.2609 -0.4525
 9324SOL    HW139431   2.583   1.046   8.030  0.3794 -0.1972 -0.3376
 9324SOL    HW239432   2.475   0.938   8.056 -1.8016  0.5308 -1.3770
 9325SOL     OW39433   1.158   1.867   0.865  0.4434  0.5498  0.1996
 9325SOL    HW139434   1.142   1.804   0.936  0.5947 -0.1048 -0.3475
 9325SOL    HW239435   1.253   1.854   0.858  0.7963  2.0346  2.0958
 9326SOL     OW39436   3.444   1.350   5.874  0.0862  0.1590  0.4550
 9326SOL    HW139437   3.452   1.306   5.790  4.8189  2.0839 -0.1329
 9326SOL    HW239438   3.534   1.329   5.901 -0.2480 -0.0997  1.3628
 9327SOL     OW39439   0.832   4.397  17.066 -0.0083  0.3671  0.2880
 9327SOL    HW139440   0.770   4.400  17.139  0.2680  1.3282  0.4807
 9327SOL    HW239441   0.864   4.307  17.067  0.3791  0.4781 -1.3205
 9328SOL     OW39442   2.595   3.140  17.257  0.2806  0.6189  0.2402
 9328SOL    HW139443   2.637   3.054  17.251 -0.0717  0.3764  1.1624
 9328SOL    HW239444   2.671   3.192  17.284  0.1575  1.6641 -1.4806
 9329SOL     OW39445   0.123   2.711  14.001  0.8422 -0.0631  0.4407
 9329SOL    HW139446   0.056   2.768  13.963  0.2425 -1.3239 -0.4485
 9329SOL    HW239447   0.087   2.701  14.089 -0.2195 -3.1124 -0.3241
 9330SOL     OW39448   3.812   3.297   2.858  0.0564  0.3317  0.2396
 9330SOL    HW139449   3.830   3.205   2.873  0.1630  0.1773 -0.8318
 9330SOL    HW239450   3.782   3.296   2.767  1.0416 -1.0485 -0.0616
 9331SOL     OW39451   3.067   2.898   8.883  0.2082 -0.7405 -0.1813
 9331SOL    HW139452   2.999   2.831   8.893 -1.4450  0.7071 -1.6121
 9331SOL    HW239453   3.138   2.870   8.941  0.7593 -1.9551 -1.4556
 9332SOL     OW39454   4.295   0.625  17.205 -0.0558 -0.2265 -0.1745
 9332SOL    HW139455   4.242   0.615  17.126  0.2631 -0.5817 -0.3423
 9332SOL    HW239456   4.347   0.545  17.203 -1.4100 -1.0636 -1.7889
 9333SOL     OW39457   2.910   3.365  10.941  0.4378  0.4585 -0.2646
 9333SOL    HW139458   2.896   3.368  11.036 -2.3429 -1.1892 -0.5953
 9333SOL    HW239459   2.868   3.446  10.913  0.6610  0.8979  0.6696
 9334SOL     OW39460   2.625   0.333  14.952 -0.9324 -0.2781 -0.1425
 9334SOL    HW139461   2.642   0.357  15.043 -0.7462 -3.3492  0.6298
 9334SOL    HW239462   2.552   0.271  14.959 -0.5794 -0.3516  3.1542
 9335SOL     OW39463   1.797   0.661  10.601 -0.3163  0.3482  0.4190
 9335SOL    HW139464   1.776   0.643  10.693 -1.2664  0.2971  0.1865
 9335SOL    HW239465   1.789   0.756  10.601 -0.4834  0.3148 -3.0854
 9336SOL     OW39466   0.397   3.675  15.382 -0.0243 -0.0758  0.5811
 9336SOL    HW139467   0.334   3.611  15.414  1.4220 -0.4390  2.6713
 9336SOL    HW239468   0.378   3.750  15.439 -1.2735 -0.2335  0.3766
 9337SOL     OW39469   3.367   3.951   2.401 -0.2306  0.4097  0.1225
 9337SOL    HW139470   3.317   4.011   2.345 -0.1991  1.8297  1.6105
 9337SOL    HW239471   3.330   3.970   2.488 -0.4032 -1.6561  0.4965
 9338SOL     OW39472   4.169   1.304   4.364 -0.6817 -0.2290  0.5702
 9338SOL    HW139473   4.076   1.298   4.384 -0.1443  0.7414  3.4391
 9338SOL    HW239474   4.193   1.377   4.422 -1.2308 -0.8944  1.6310
 9339SOL     OW39475   3.281   1.222   8.671 -0.3497 -0.0433 -0.0708
 9339SOL    HW139476   3.367   1.228   8.629 -0.5320 -0.9628 -0.5756
 9339SOL    HW239477   3.257   1.309   8.702 -0.6099 -0.3279  0.5340
 9340SOL     OW39478   3.127   1.900   0.720  0.0793  0.0927  0.9899
 9340SOL    HW139479   3.059   1.834   0.706 -1.0805  1.0466  2.1295
 9340SOL    HW239480   3.123   1.959   0.645  1.3664  0.4759  1.2208
 9341SOL     OW39481   1.133   2.983   5.571  0.2393  0.7828 -0.5076
 9341SOL    HW139482   1.148   2.903   5.520  1.3196  1.1156 -0.7208
 9341SOL    HW239483   1.077   2.956   5.643  0.5391  2.2790  0.2966
 9342SOL     OW39484   1.759   3.017   5.918 -0.6152 -0.5482 -0.5787
 9342SOL    HW139485   1.849   2.997   5.943 -0.5001  1.2669  0.5154
 9342SOL    HW239486   1.713   3.044   5.997  0.5051 -1.0368  0.2310
 9343SOL     OW39487   4.261   2.479   0.221 -0.1158 -0.0972 -0.8111
 9343SOL    HW139488   4.302   2.399   0.187  1.2920  1.2643 -2.3547
 9343SOL    HW239489   4.246   2.463   0.314 -0.1377  0.5007 -0.7107
 9344SOL     OW39490   2.456   2.453  11.249 -0.4128  0.4961  0.2316
 9344SOL    HW139491   2.510   2.405  11.312  0.0362  0.3869 -0.2337
 9344SOL    HW239492   2.481   2.542  11.275  0.5924  0.1979  0.2781
 9345SOL     OW39493   3.097   2.752   5.947  0.2515 -0.5164 -0.1325
 9345SOL    HW139494   3.156   2.683   5.977 -0.1817  0.1875  2.2771
 9345SOL    HW239495   3.066   2.709   5.867 -1.1290 -0.0663  0.1546
 9346SOL     OW39496   4.083   4.453  13.136  0.1433  0.3415  0.0432
 9346SOL    HW139497   4.113   4.448  13.227 -2.8812  0.2159  1.0560
 9346SOL    HW239498   4.164   4.477  13.091 -0.1002  3.9212  1.5668
 9347SOL     OW39499   1.892   3.544   8.226 -0.0375  0.1438  0.8282
 9347SOL    HW139500   1.843   3.614   8.270 -0.3309  1.3676 -1.4358
 9347SOL    HW239501   1.820   3.481   8.230  0.9807 -0.9399  1.6632
 9348SOL     OW39502   1.651   1.548   7.548 -0.1072  0.2806 -0.1133
 9348SOL    HW139503   1.662   1.642   7.559  0.1375  0.2829 -0.3725
 9348SOL    HW239504   1.744   1.529   7.531 -0.1325  0.2655 -0.2369
 9349SOL     OW39505   2.687   4.054   0.872 -0.1078  0.2032  0.2783
 9349SOL    HW139506   2.681   4.068   0.967  0.5484  0.2138  0.3160
 9349SOL    HW239507   2.608   4.005   0.847  2.2086 -2.1171 -2.4898
 9350SOL     OW39508   3.095   2.337   5.983 -0.3924  0.3309 -0.1244
 9350SOL    HW139509   3.050   2.255   6.001  0.1931 -0.0030 -0.1788
 9350SOL    HW239510   3.112   2.334   5.889 -1.9752  0.2470 -0.3988
 9351SOL     OW39511   2.235   3.568   5.670  0.4129 -0.1872 -0.9019
 9351SOL    HW139512   2.177   3.579   5.745 -0.4883  0.7043 -1.7266
 9351SOL    HW239513   2.324   3.588   5.699 -0.6229  3.4413 -0.2181
 9352SOL     OW39514   1.745   3.754  16.029 -0.8294  0.2019 -0.0600
 9352SOL    HW139515   1.775   3.845  16.038  0.5795 -0.5156  2.5144
 9352SOL    HW239516   1.727   3.758  15.935 -2.7239 -2.9509  0.1928
 9353SOL     OW39517   2.213   0.307   9.522 -0.3184  0.9895  0.0734
 9353SOL    HW139518   2.119   0.306   9.505 -0.3839 -3.5087  0.8677
 9353SOL    HW239519   2.242   0.222   9.491  2.6427  1.9017  0.3134
 9354SOL     OW39520   2.862   3.468   3.797  0.0892 -0.0890 -0.1376
 9354SOL    HW139521   2.939   3.451   3.852  0.6895  0.1663 -0.9088
 9354SOL    HW239522   2.906   3.518   3.729  0.1823 -1.4317 -1.0500
 9355SOL     OW39523   0.951   4.152  17.018 -0.1245 -0.2855  0.1566
 9355SOL    HW139524   0.982   4.068  17.051 -0.4126  1.1356  4.1229
 9355SOL    HW239525   1.023   4.214  17.033  1.5947 -2.3065  0.2431
 9356SOL     OW39526   3.360   2.989   7.340  0.0273 -0.1185 -0.3083
 9356SOL    HW139527   3.297   3.002   7.269 -1.4393  1.0329  1.2255
 9356SOL    HW239528   3.409   3.070   7.354 -1.3417  0.9196 -1.5469
 9357SOL     OW39529   0.180   0.647   6.807  0.3302  0.1387  0.5037
 9357SOL    HW139530   0.087   0.662   6.825 -0.2932 -0.7845 -1.9869
 9357SOL    HW239531   0.186   0.687   6.720 -3.4462 -0.6620 -0.1186
 9358SOL     OW39532   3.899   1.621   9.830 -0.5817  0.3863  0.2117
 9358SOL    HW139533   3.855   1.540   9.805  0.2085 -0.2234  0.7716
 9358SOL    HW239534   3.825   1.678   9.849 -0.2676  0.5840  0.8188
 9359SOL     OW39535   1.438   2.024  10.212 -0.0567  0.9083 -0.0282
 9359SOL    HW139536   1.395   1.964  10.150  0.4188  0.2569  0.2806
 9359SOL    HW239537   1.374   2.032  10.283 -0.8789  0.1259 -0.6750
 9360SOL     OW39538   4.401   3.356   3.623  0.0762  0.0744  0.1639
 9360SOL    HW139539   4.394   3.394   3.710  1.9741  0.8813 -0.0191
 9360SOL    HW239540   4.420   3.267   3.652 -0.6225 -0.4502 -0.9609
 9361SOL     OW39541   3.030   1.935  12.196 -0.6631 -0.2172 -0.0221
 9361SOL    HW139542   3.063   1.864  12.141  0.8757  1.1128 -0.8174
 9361SOL    HW239543   2.945   1.960  12.160 -0.2648  1.9555  0.5823
 9362SOL     OW39544   0.545   1.270  14.915 -0.2433  0.2380  0.0349
 9362SOL    HW139545   0.525   1.178  14.897  1.6132 -0.0939 -0.3451
 9362SOL    HW239546   0.523   1.319  14.835  2.9206  0.1114 -0.9105
 9363SOL     OW39547   1.187   0.259   6.074  0.1101 -0.0869  0.2722
 9363SOL    HW139548   1.229   0.198   6.013 -0.4239  0.1268 -0.3202
 9363SOL    HW239549   1.094   0.263   6.051  0.0727 -1.4445  0.1787
 9364SOL     OW39550   2.879   4.142   4.544  0.7367  0.2244 -0.5799
 9364SOL    HW139551   2.902   4.168   4.633  0.0835 -0.7525 -0.1175
 9364SOL    HW239552   2.909   4.051   4.550  0.8759  0.2473 -0.9712
 9365SOL     OW39553   1.263   1.206   4.678 -0.5929  0.0006  0.1590
 9365SOL    HW139554   1.268   1.245   4.591 -0.8050  1.0488  0.6146
 9365SOL    HW239555   1.271   1.285   4.730  2.1130  0.5064 -0.9931
 9366SOL     OW39556   3.178   4.136   1.994 -0.1604 -0.0348  0.4538
 9366SOL    HW139557   3.128   4.193   1.935 -2.5320 -1.3733  1.1861
 9366SOL    HW239558   3.234   4.103   1.924  1.5314  3.4255  0.1745
 9367SOL     OW39559   1.088   3.070  16.756  0.1584 -0.3255  0.3471
 9367SOL    HW139560   1.024   3.106  16.695 -0.1274 -1.5696 -0.0751
 9367SOL    HW239561   1.105   2.982  16.722 -1.5350 -0.7955  0.7234
 9368SOL     OW39562   2.566   2.198   7.980  0.1006  0.6500  0.0799
 9368SOL    HW139563   2.583   2.165   8.068 -0.0977 -0.9106 -0.4840
 9368SOL    HW239564   2.656   2.188   7.950 -0.9224 -0.4289 -2.6431
 9369SOL     OW39565   2.775   0.895   6.925 -0.2743 -0.0517 -0.6874
 9369SOL    HW139566   2.755   0.953   6.852  1.0735  0.0991 -0.9405
 9369SOL    HW239567   2.739   0.816   6.884 -2.3505  0.2600  0.5391
 9370SOL     OW39568   2.997   3.967   8.115  0.2065 -0.2822 -0.1020
 9370SOL    HW139569   3.051   4.045   8.127  2.3281 -1.7310 -0.1880
 9370SOL    HW239570   2.922   3.991   8.170  0.6644  2.9273 -0.8553
 9371SOL     OW39571   1.754   3.361   6.459  0.1231 -0.1807  0.5159
 9371SOL    HW139572   1.706   3.322   6.532  0.6003 -1.6490  0.0584
 9371SOL    HW239573   1.841   3.320   6.468 -0.1218 -0.5189  1.3823
 9372SOL     OW39574   0.143   0.206  10.724 -0.1210  0.6958 -0.9026
 9372SOL    HW139575   0.110   0.271  10.662  0.6569  1.0932 -0.8936
 9372SOL    HW239576   0.061   0.169  10.757 -0.2874 -0.6483 -2.8759
 9373SOL     OW39577   1.142   3.888   0.035 -0.0768  0.4750  0.0948
 9373SOL    HW139578   1.220   3.941   0.053  2.3404 -2.5469 -1.6669
 9373SOL    HW239579   1.070   3.952   0.043 -1.8126 -1.3804 -0.7281
 9374SOL     OW39580   2.482   2.222   0.921  0.3540 -0.1318 -0.2576
 9374SOL    HW139581   2.413   2.180   0.870  0.5749 -0.4898 -0.2628
 9374SOL    HW239582   2.441   2.305   0.945 -0.3519 -0.3412 -0.7327
 9375SOL     OW39583   1.842   4.631   2.724 -0.2800  0.2155 -0.0663
 9375SOL    HW139584   1.749   4.644   2.742 -0.5233 -0.1869 -1.0258
 9375SOL    HW239585   1.843   4.635   2.628 -1.3742 -0.5352 -0.1144
 9376SOL     OW39586   4.669   2.154   6.270  0.2683 -0.3844  0.2658
 9376SOL    HW139587   0.023   2.110   6.310  1.0043  1.6999  1.1537
 9376SOL    HW239588   4.708   2.240   6.256 -1.2698  0.3998  0.7873
 9377SOL     OW39589   1.863   3.505   4.431 -0.0664  0.1345 -0.7321
 9377SOL    HW139590   1.842   3.412   4.429 -0.0196  0.0551  2.9005
 9377SOL    HW239591   1.780   3.533   4.469 -0.1887 -1.7405  0.3704
 9378SOL     OW39592   1.963   1.072   7.596  0.1346  0.1410 -0.1616
 9378SOL    HW139593   1.901   1.136   7.561 -1.5395 -1.5464 -0.3107
 9378SOL    HW239594   2.006   1.039   7.517  1.1013 -0.4887  0.6237
 9379SOL     OW39595   0.159   0.481   7.032 -0.0993 -0.4935  0.2049
 9379SOL    HW139596   0.163   0.522   6.946  2.6310  1.5032  1.2984
 9379SOL    HW239597   0.155   0.563   7.082 -1.0009 -1.4575  1.7194
 9380SOL     OW39598   4.451   2.662   4.262  0.0994 -0.3732  0.0952
 9380SOL    HW139599   4.373   2.714   4.241  0.7595  0.1332 -1.0609
 9380SOL    HW239600   4.485   2.705   4.341 -0.5439  1.5686 -0.7006
 9381SOL     OW39601   3.584   4.166   6.189 -0.4951 -0.3459  0.3187
 9381SOL    HW139602   3.635   4.135   6.115  0.4598  2.3689 -0.1628
 9381SOL    HW239603   3.643   4.155   6.264  2.9560  1.9300 -2.1034
 9382SOL     OW39604   0.679   2.228  16.001 -0.4416  0.1270 -0.1081
 9382SOL    HW139605   0.737   2.213  16.076 -0.5128  1.2874  0.1832
 9382SOL    HW239606   0.674   2.139  15.967  2.3038  1.1679 -3.2387
 9383SOL     OW39607   4.257   3.913   1.601 -0.1052  0.1128  0.5524
 9383SOL    HW139608   4.272   3.932   1.694 -0.3394  0.0245  0.6083
 9383SOL    HW239609   4.259   3.820   1.583  0.3759  0.5758 -1.8005
 9384SOL     OW39610   4.584   3.465  17.434  0.9593 -0.6388 -0.2372
 9384SOL    HW139611   4.594   3.551  17.474  0.5674 -1.0097  0.6344
 9384SOL    HW239612   4.521   3.488  17.365  1.5224 -0.3378 -0.6546
 9385SOL     OW39613   3.277   1.981   5.334 -0.4489 -0.4829 -0.0409
 9385SOL    HW139614   3.289   1.891   5.304  2.3866  0.3773 -1.5715
 9385SOL    HW239615   3.345   2.013   5.274  1.9396  0.3037  3.0818
 9386SOL     OW39616   3.624   1.591  11.992  0.0711  0.1364  0.2599
 9386SOL    HW139617   3.574   1.656  12.040  1.1663  0.8561  0.4401
 9386SOL    HW239618   3.580   1.608  11.909 -0.1620 -0.7290  0.2034
 9387SOL     OW39619   4.210   2.493   9.810 -0.0720  0.0262  0.4148
 9387SOL    HW139620   4.160   2.457   9.883 -2.9484 -0.8811 -2.0103
 9387SOL    HW239621   4.152   2.557   9.767 -0.0678 -1.0865 -1.2459
 9388SOL     OW39622   2.502   0.090   2.882 -0.2788  0.2301 -0.3548
 9388SOL    HW139623   2.409   0.080   2.861 -0.7911  4.4418 -0.0263
 9388SOL    HW239624   2.510   0.020   2.947 -0.5343  0.6598  0.1447
 9389SOL     OW39625   1.706   4.123   7.208 -0.2048 -0.0346 -0.2827
 9389SOL    HW139626   1.680   4.155   7.294 -1.3741  0.4775 -0.8284
 9389SOL    HW239627   1.741   4.039   7.238  0.0451  0.2088  0.1032
 9390SOL     OW39628   0.202   4.162   7.810  0.6757 -0.0119 -0.2432
 9390SOL    HW139629   0.121   4.176   7.760  1.3816 -0.9097 -1.6234
 9390SOL    HW239630   0.271   4.206   7.762  0.0230  0.9279 -0.3240
 9391SOL     OW39631   2.306   1.869   7.951  0.8792  0.2289  0.1270
 9391SOL    HW139632   2.330   1.924   8.026  0.0093 -0.4968  0.9304
 9391SOL    HW239633   2.314   1.934   7.881 -1.1433 -0.1417 -0.4318
 9392SOL     OW39634   2.632   1.000  10.822  0.1713 -0.4119 -0.1992
 9392SOL    HW139635   2.613   0.908  10.804 -0.5433 -0.5249  1.0937
 9392SOL    HW239636   2.628   1.005  10.918 -0.8287 -0.0468 -0.2577
 9393SOL     OW39637   3.818   2.825   7.471 -0.3324  0.2498  0.1071
 9393SOL    HW139638   3.739   2.848   7.423  0.0801 -1.4186 -1.3803
 9393SOL    HW239639   3.889   2.862   7.418 -1.2923  2.0021  0.0397
 9394SOL     OW39640   1.497   2.268   9.359 -0.2550 -0.7031 -0.0870
 9394SOL    HW139641   1.450   2.193   9.395  0.3494 -1.1233 -0.1727
 9394SOL    HW239642   1.465   2.290   9.272  0.6999 -2.5346 -0.8958
 9395SOL     OW39643   2.439   2.951   7.908  0.0413 -0.2516  0.5394
 9395SOL    HW139644   2.509   2.937   7.972  0.7014 -1.6098 -0.4932
 9395SOL    HW239645   2.454   2.881   7.844  2.8799  2.2598 -1.5435
 9396SOL     OW39646   3.625   4.649   3.722  0.2655 -0.9784 -0.2367
 9396SOL    HW139647   3.590   4.650   3.811 -0.2828  0.2025 -0.4667
 9396SOL    HW239648   3.714   4.677   3.742 -0.4469  1.4390 -0.4347
 9397SOL     OW39649   2.307   4.253   2.653 -0.3684  0.1854 -0.5127
 9397SOL    HW139650   2.274   4.172   2.615 -1.7132  0.9599 -0.9874
 9397SOL    HW239651   2.371   4.286   2.589 -1.7302  1.9954 -0.9346
 9398SOL     OW39652   1.854   2.088  12.343 -0.0086  0.2366  0.5283
 9398SOL    HW139653   1.909   2.076  12.420  0.2411  3.5472  0.8576
 9398SOL    HW239654   1.794   2.157  12.370  1.0420  1.9029 -1.4330
 9399SOL     OW39655   0.734   2.290  17.283 -0.0787 -0.2227  0.3836
 9399SOL    HW139656   0.752   2.304  17.190 -0.2999 -2.0824  0.0582
 9399SOL    HW239657   0.818   2.294  17.328  0.7397 -0.6320 -1.0923
 9400SOL     OW39658   1.660   2.002   8.341  0.5247  0.2398  0.0966
 9400SOL    HW139659   1.753   2.006   8.364  0.2418 -1.8170  1.6080
 9400SOL    HW239660   1.616   2.036   8.418  2.1492  0.0270  1.1247
 9401SOL     OW39661   0.294   2.597   4.114 -0.4960 -0.1738 -0.1486
 9401SOL    HW139662   0.309   2.542   4.037 -0.1229  1.1886 -1.0492
 9401SOL    HW239663   0.199   2.593   4.127 -0.4359 -0.2961  0.2308
 9402SOL     OW39664   0.352   4.459   5.260  0.3200 -0.2820  0.4848
 9402SOL    HW139665   0.379   4.513   5.334  2.0224 -0.7585  0.2089
 9402SOL    HW239666   0.258   4.448   5.275  0.6165 -1.5854  1.4647
 9403SOL     OW39667   2.396   2.634   0.157  0.0988  0.0521  0.1798
 9403SOL    HW139668   2.365   2.590   0.236 -1.4274  2.3105  0.8672
 9403SOL    HW239669   2.436   2.713   0.192 -0.4074 -0.8261  2.7348
 9404SOL     OW39670   1.644   0.664   9.283  0.3655  0.1492  0.5871
 9404SOL    HW139671   1.582   0.647   9.213  1.1566 -0.9831  0.1722
 9404SOL    HW239672   1.605   0.739   9.328  0.2520 -0.7027  1.9014
 9405SOL     OW39673   3.920   1.627   3.543 -0.0452  0.0773  0.5138
 9405SOL    HW139674   3.996   1.594   3.591  0.3529  1.6985  1.0078
 9405SOL    HW239675   3.927   1.563   3.472 -3.0955  0.5891 -0.2519
 9406SOL     OW39676   0.918   2.912   5.049  0.4058 -0.5766 -0.3821
 9406SOL    HW139677   0.910   2.965   5.129  1.8807  1.5739 -1.6532
 9406SOL    HW239678   0.983   2.963   5.001 -0.8103  0.9610 -0.4343
 9407SOL     OW39679   1.449   4.306   0.398  0.9233 -0.0337  0.3386
 9407SOL    HW139680   1.536   4.343   0.383  1.3586  0.0564  2.9704
 9407SOL    HW239681   1.406   4.349   0.324  0.1783 -1.6722 -0.1760
 9408SOL     OW39682   2.169   0.727  14.203  0.8706 -0.0766 -0.4434
 9408SOL    HW139683   2.224   0.764  14.272  0.2609 -0.1793  0.1056
 9408SOL    HW239684   2.198   0.638  14.225  0.2090  0.3766  2.3062
 9409SOL     OW39685   4.244   1.417   7.405  0.1684  0.1475  0.4037
 9409SOL    HW139686   4.258   1.325   7.427  2.7324 -0.0750 -2.1981
 9409SOL    HW239687   4.185   1.410   7.329 -0.3264  1.9188  0.6167
 9410SOL     OW39688   3.684   3.186   0.455 -0.3316  0.0811 -0.3479
 9410SOL    HW139689   3.629   3.109   0.440 -2.2471  1.0194  1.9495
 9410SOL    HW239690   3.682   3.198   0.550  2.5660  1.4547 -0.4765
 9411SOL     OW39691   0.884   2.127   9.064  0.0252 -0.0441  1.3473
 9411SOL    HW139692   0.923   2.127   8.977 -0.2835 -1.1928  1.1995
 9411SOL    HW239693   0.963   2.146   9.114 -0.4023  0.2741  1.9013
 9412SOL     OW39694   3.662   4.198   8.632  0.0111 -0.4300  0.0729
 9412SOL    HW139695   3.753   4.223   8.649 -0.3858  0.6312  0.6465
 9412SOL    HW239696   3.641   4.139   8.705 -0.8754 -0.1687  0.0256
 9413SOL     OW39697   2.073   0.325   3.159  0.4811  0.2447  1.1845
 9413SOL    HW139698   2.091   0.396   3.098  0.8644  1.0005  2.1736
 9413SOL    HW239699   2.160   0.294   3.186  1.6023  1.4459 -1.0472
 9414SOL     OW39700   1.200   4.703  14.579 -0.6481  0.7513  0.6955
 9414SOL    HW139701   1.204   0.069  14.540 -0.3373  1.1856  1.6881
 9414SOL    HW239702   1.112   4.718  14.614 -0.3019  2.1173  0.9835
 9415SOL     OW39703   2.771   3.989   3.313 -0.0785  0.3718  0.4584
 9415SOL    HW139704   2.834   4.044   3.266  0.4110 -0.8657 -0.3263
 9415SOL    HW239705   2.686   4.029   3.294  0.0609 -0.5671 -2.1392
 9416SOL     OW39706   1.163   3.930   9.502  0.3183  0.7002  0.2401
 9416SOL    HW139707   1.105   4.003   9.526  0.4653  0.8678  0.0889
 9416SOL    HW239708   1.223   3.926   9.577  0.4250 -0.7034  0.0635
 9417SOL     OW39709   4.437   1.904   9.469  0.7335  0.2352 -0.5182
 9417SOL    HW139710   4.489   1.980   9.442  0.9230  0.3819  0.2352
 9417SOL    HW239711   4.484   1.822   9.454  3.7460  2.3435 -2.7817
 9418SOL     OW39712   3.820   2.363  11.194 -0.5651  0.0179 -1.0014
 9418SOL    HW139713   3.822   2.369  11.289  0.9742 -0.1206 -1.0354
 9418SOL    HW239714   3.795   2.271  11.186  2.7376 -1.1119  2.0456
 9419SOL     OW39715   2.906   4.677   7.874  0.4717 -0.2744  0.0305
 9419SOL    HW139716   2.928   4.584   7.879 -0.2849 -0.3656  1.7106
 9419SOL    HW239717   2.859   4.677   7.957 -1.5488 -2.1126 -1.1208
 9420SOL     OW39718   2.007   1.965   8.031 -0.5615  0.2302  0.3786
 9420SOL    HW139719   2.048   1.931   8.111 -1.8577 -2.7241 -0.2350
 9420SOL    HW239720   2.028   2.058   8.046  0.5134 -0.0734  0.7047
 9421SOL     OW39721   3.558   2.411   6.200  0.3831 -0.5817  0.2658
 9421SOL    HW139722   3.493   2.361   6.150 -0.0469  1.8334 -1.5473
 9421SOL    HW239723   3.553   2.369   6.286 -0.0403  0.6449  0.8381
 9422SOL     OW39724   4.253   2.473  17.300 -0.5189 -0.3655  0.4708
 9422SOL    HW139725   4.176   2.515  17.337 -1.6577 -0.5645 -1.6718
 9422SOL    HW239726   4.251   2.389  17.346 -1.4489  0.2126  1.4751
 9423SOL     OW39727   4.269   1.531   2.418  0.2423 -0.1396  0.2917
 9423SOL    HW139728   4.351   1.497   2.453  1.1425  0.2053 -1.4723
 9423SOL    HW239729   4.255   1.463   2.352 -1.9285 -1.4446  2.0998
 9424SOL     OW39730   3.582   3.169   8.321 -0.0188  0.2456  0.1496
 9424SOL    HW139731   3.525   3.242   8.344 -0.4953 -0.1093  0.0785
 9424SOL    HW239732   3.581   3.114   8.399 -2.0607  3.2746  2.2388
 9425SOL     OW39733   4.596   3.998   2.690 -0.1724 -0.1087 -0.4116
 9425SOL    HW139734   4.687   3.974   2.707 -0.8105 -2.0673  0.1578
 9425SOL    HW239735   4.580   4.058   2.763  2.3909  1.8073 -1.4121
 9426SOL     OW39736   3.942   4.126   5.437 -0.0871 -0.0300  0.4958
 9426SOL    HW139737   3.858   4.143   5.480  0.1181  1.2807  0.3741
 9426SOL    HW239738   3.910   4.112   5.348 -1.7058 -0.2289  1.0975
 9427SOL     OW39739   3.595   0.958   2.963  0.6882 -0.3460 -0.1072
 9427SOL    HW139740   3.567   0.972   3.053  2.3709 -0.5354  0.4313
 9427SOL    HW239741   3.590   1.051   2.942  3.6584  0.0102  0.8451
 9428SOL     OW39742   4.008   0.045   7.729 -0.4607 -0.1036  0.5227
 9428SOL    HW139743   3.997   0.124   7.782 -2.2654  0.6133 -0.8933
 9428SOL    HW239744   3.997   0.089   7.644 -2.0018  0.7543  1.1553
 9429SOL     OW39745   3.293   2.122  14.834  0.3256 -0.3112  0.3986
 9429SOL    HW139746   3.253   2.208  14.820  0.5804 -0.3255 -0.4310
 9429SOL    HW239747   3.387   2.143  14.837  0.2893 -0.0149 -0.6501
 9430SOL     OW39748   1.468   2.467   7.516 -0.4100  0.1269  0.3674
 9430SOL    HW139749   1.446   2.550   7.557 -0.9815  1.4031 -2.5812
 9430SOL    HW239750   1.489   2.418   7.596  0.0845 -1.9522 -1.0379
 9431SOL     OW39751   1.232   1.879   7.857  0.6467 -0.0156  0.1488
 9431SOL    HW139752   1.229   1.959   7.804 -1.7199 -0.3382 -0.1876
 9431SOL    HW239753   1.298   1.825   7.814 -0.4265 -1.5089  0.3663
 9432SOL     OW39754   4.122   2.254   7.178 -0.1357 -0.0371 -0.0040
 9432SOL    HW139755   4.171   2.332   7.152 -1.2503 -0.3605 -3.1264
 9432SOL    HW239756   4.173   2.183   7.138  1.5719  1.7121 -0.9713
 9433SOL     OW39757   2.046   3.024   7.676  0.2009  0.2784  0.1521
 9433SOL    HW139758   1.967   3.032   7.623  2.1115 -0.5741 -2.8662
 9433SOL    HW239759   2.036   2.934   7.708 -1.2607  0.2759 -0.2977
 9434SOL     OW39760   1.304   1.480  15.464  0.0455 -0.2874 -0.8505
 9434SOL    HW139761   1.274   1.499  15.552 -0.3038 -0.3203 -0.9624
 9434SOL    HW239762   1.250   1.541  15.413 -1.9021  0.4978  2.1495
 9435SOL     OW39763   4.404   1.146   5.000  0.4440  0.1224  0.2652
 9435SOL    HW139764   4.432   1.065   5.044 -4.2754 -1.2600  0.6593
 9435SOL    HW239765   4.490   1.183   4.977  1.5885 -1.1836  2.3878
 9436SOL     OW39766   1.834   1.153   1.739  0.2920 -0.3756  0.1403
 9436SOL    HW139767   1.913   1.099   1.739 -1.7046 -3.3041  0.9891
 9436SOL    HW239768   1.880   1.235   1.719 -0.9337  0.1030 -0.7691
 9437SOL     OW39769   1.856   1.106   3.378 -0.2703 -0.1667  0.0272
 9437SOL    HW139770   1.890   1.187   3.341 -1.2163 -0.2744 -1.0708
 9437SOL    HW239771   1.942   1.073   3.404 -0.7109  0.3185  2.1751
 9438SOL     OW39772   3.430   1.051   7.511  0.9516  0.0010  0.8376
 9438SOL    HW139773   3.466   1.069   7.424  1.8198 -3.8407  0.3968
 9438SOL    HW239774   3.494   0.987   7.542  0.1739 -1.5316 -0.6647
 9439SOL     OW39775   0.199   2.469   8.848 -0.3533 -0.4227  0.7670
 9439SOL    HW139776   0.270   2.431   8.899  0.8072  1.5229  0.5550
 9439SOL    HW239777   0.140   2.492   8.920 -1.7679  0.6306 -0.7325
 9440SOL     OW39778   0.122   2.366   9.840  0.2301  0.2882 -0.4001
 9440SOL    HW139779   0.054   2.424   9.807 -1.4508 -1.7030 -0.4231
 9440SOL    HW239780   0.191   2.417   9.881 -0.5333  0.4017  0.7153
 9441SOL     OW39781   4.486   0.317   6.549  0.6548  0.6633  0.1188
 9441SOL    HW139782   4.423   0.371   6.501  1.1194  1.5346  0.4862
 9441SOL    HW239783   4.569   0.346   6.511  1.0421  0.0744  0.5290
 9442SOL     OW39784   1.931   4.012  16.824  0.5298  0.0105  0.5203
 9442SOL    HW139785   1.956   4.104  16.838 -0.4918  0.0831  1.8516
 9442SOL    HW239786   2.012   3.970  16.855  0.1588 -1.9916 -1.2253
 9443SOL     OW39787   1.561   3.402  15.241 -0.2369 -0.5140 -0.3405
 9443SOL    HW139788   1.554   3.310  15.268  1.6960 -0.1420  1.3702
 9443SOL    HW239789   1.648   3.389  15.202 -0.9160 -1.3488 -1.6124
 9444SOL     OW39790   3.565   1.184   3.987 -0.0368 -0.4674 -0.0808
 9444SOL    HW139791   3.519   1.262   3.955  0.4565  0.3112  1.0983
 9444SOL    HW239792   3.589   1.154   3.899  0.3058 -0.9648  0.1869
 9445SOL     OW39793   0.233   4.591   7.566  0.2388 -0.0653 -0.2008
 9445SOL    HW139794   0.248   4.642   7.486  0.5696 -0.1091 -0.1696
 9445SOL    HW239795   0.295   4.639   7.621  0.9397 -4.6038  3.0247
 9446SOL     OW39796   0.465   0.191   9.871  0.1118 -0.3692  0.1057
 9446SOL    HW139797   0.411   0.236   9.936  0.4642  0.3076 -0.0619
 9446SOL    HW239798   0.409   0.129   9.825  1.2227 -1.8762  0.7844
 9447SOL     OW39799   4.477   4.647  13.106 -0.5872 -0.3273 -0.0462
 9447SOL    HW139800   4.415   4.574  13.113 -1.9641  0.8739  0.3317
 9447SOL    HW239801   4.471   4.658  13.011 -0.6010 -0.9753 -0.1203
 9448SOL     OW39802   2.701   3.138   8.155  0.2903  0.2378 -0.4957
 9448SOL    HW139803   2.696   3.047   8.124  0.0924  0.9918 -2.7061
 9448SOL    HW239804   2.793   3.138   8.179  0.0980 -1.6800  0.2865
 9449SOL     OW39805   2.204   3.474   4.737 -0.4362  0.2545  0.2464
 9449SOL    HW139806   2.269   3.543   4.749 -1.1228  0.9621 -0.1224
 9449SOL    HW239807   2.187   3.481   4.643  1.3770 -1.7700 -0.2267
 9450SOL     OW39808   3.158   3.321  14.873 -0.8980  1.1193 -0.4776
 9450SOL    HW139809   3.219   3.365  14.813  0.6876  1.1323  1.1609
 9450SOL    HW239810   3.217   3.260  14.917 -3.3366  0.6211  2.0566
 9451SOL     OW39811   3.586   0.068   1.935  0.3202 -0.6158  0.2330
 9451SOL    HW139812   3.681   0.060   1.942  0.0989 -1.8138  1.8142
 9451SOL    HW239813   3.559   0.011   2.007  2.7929  0.1648  1.7520
 9452SOL     OW39814   4.041   0.002   6.443  0.4145 -0.3897  0.1708
 9452SOL    HW139815   4.026   0.033   6.353  1.3501  0.1231  0.1990
 9452SOL    HW239816   4.085   0.075   6.486  1.2196 -0.7585 -0.0241
 9453SOL     OW39817   4.715   2.782   0.235 -0.2029  0.0093  0.4376
 9453SOL    HW139818   4.647   2.722   0.206  0.3639 -0.5511  0.2544
 9453SOL    HW239819   0.006   2.847   0.166 -0.9825 -0.3681 -0.0503
 9454SOL     OW39820   3.267   1.264   1.283  0.3551 -0.1346  0.0362
 9454SOL    HW139821   3.313   1.344   1.309 -2.3530  1.3493  0.2705
 9454SOL    HW239822   3.338   1.215   1.241  0.2270 -1.6433  1.5617
 9455SOL     OW39823   0.659   0.130  13.511  0.3314  0.3045 -0.1448
 9455SOL    HW139824   0.601   0.109  13.584 -0.1097  1.9574 -0.0339
 9455SOL    HW239825   0.617   0.212  13.487  1.1729  0.8794  0.3690
 9456SOL     OW39826   4.572   2.925   9.166 -0.4254 -0.3726  0.2898
 9456SOL    HW139827   4.640   2.988   9.143  1.5595 -1.8845  2.0398
 9456SOL    HW239828   4.612   2.876   9.237  2.0958 -0.7480 -1.3905
 9457SOL     OW39829   3.826   3.373   2.183 -0.4043  0.3360 -0.2477
 9457SOL    HW139830   3.786   3.292   2.214  1.5914 -0.0275  1.3097
 9457SOL    HW239831   3.757   3.427   2.143  0.5729  1.4408 -0.4316
 9458SOL     OW39832   1.488   4.364   2.934  0.3290 -0.3007  0.1652
 9458SOL    HW139833   1.528   4.294   2.882 -0.2043 -0.0192 -0.6160
 9458SOL    HW239834   1.396   4.365   2.909  0.7247  0.9863 -1.2376
 9459SOL     OW39835   2.851   3.239   9.062  0.5861 -0.1545 -0.7715
 9459SOL    HW139836   2.789   3.169   9.043  2.0421 -1.7512  0.3573
 9459SOL    HW239837   2.816   3.307   9.004  1.0938  1.4764  0.8311
 9460SOL     OW39838   3.113   4.573   8.856  0.2335  0.1194  0.0782
 9460SOL    HW139839   3.140   4.506   8.919  0.2435 -0.8597 -0.9736
 9460SOL    HW239840   3.146   4.554   8.768 -2.4243  2.5603 -1.4352
 9461SOL     OW39841   3.489   2.608   3.314 -0.3345  0.0492  0.5750
 9461SOL    HW139842   3.584   2.612   3.316 -0.2708 -0.9756 -0.5175
 9461SOL    HW239843   3.459   2.697   3.332 -0.0026 -0.0001  1.3948
 9462SOL     OW39844   4.519   4.221  16.270 -0.1994 -0.3499 -0.4977
 9462SOL    HW139845   4.487   4.311  16.270 -1.6650 -0.8777 -3.3295
 9462SOL    HW239846   4.605   4.231  16.312 -1.3300  1.3149  1.4160
 9463SOL     OW39847   3.388   3.627   8.923  0.3732  0.9099 -0.4971
 9463SOL    HW139848   3.441   3.559   8.881 -1.8948 -0.5939 -0.9216
 9463SOL    HW239849   3.416   3.713   8.891 -0.1403  1.7106  1.2302
 9464SOL     OW39850   1.234   2.425   5.942 -0.4567  0.1588 -0.4351
 9464SOL    HW139851   1.162   2.465   5.893 -2.3214 -0.4899  1.7680
 9464SOL    HW239852   1.194   2.339   5.942  1.0158 -0.5325 -1.8155
 9465SOL     OW39853   2.188   2.590  12.779  0.2526 -0.0283 -0.1773
 9465SOL    HW139854   2.266   2.536  12.795  0.8414  0.7640 -0.3658
 9465SOL    HW239855   2.123   2.521  12.769  0.2818  0.2288 -2.1431
 9466SOL     OW39856   4.267   2.791   6.615 -0.2838 -0.5149 -0.2384
 9466SOL    HW139857   4.234   2.754   6.697 -1.4054  0.1048 -0.4026
 9466SOL    HW239858   4.189   2.836   6.581 -0.6143  1.3665  3.0536
 9467SOL     OW39859   2.547   1.385  16.435 -0.0208  0.9701  0.5536
 9467SOL    HW139860   2.564   1.307  16.383 -2.9828  1.6348 -1.4270
 9467SOL    HW239861   2.477   1.358  16.494 -0.2008 -0.2018 -0.2085
 9468SOL     OW39862   0.344   1.786   3.929 -0.2754  0.1359  0.0802
 9468SOL    HW139863   0.414   1.723   3.909  1.1450  2.1000 -1.0629
 9468SOL    HW239864   0.306   1.742   4.005 -0.4771  0.3069  0.0776
 9469SOL     OW39865   3.877   2.323   3.261 -0.1277  0.1358  0.4453
 9469SOL    HW139866   3.796   2.356   3.301 -1.0655 -2.5293  0.7326
 9469SOL    HW239867   3.865   2.344   3.169 -0.0547  0.0661  0.4208
 9470SOL     OW39868   0.308   2.879   1.754  0.2483  0.2513 -0.0885
 9470SOL    HW139869   0.334   2.799   1.799  0.6073  0.8179  0.7028
 9470SOL    HW239870   0.247   2.919   1.815 -0.3616 -2.3167  0.9894
 9471SOL     OW39871   3.037   2.543   1.054 -0.6117  0.1843  0.2936
 9471SOL    HW139872   3.036   2.474   0.987  1.2813 -1.1926  1.6671
 9471SOL    HW239873   3.097   2.514   1.123  0.2800  0.8319 -0.2101
 9472SOL     OW39874   1.004   2.103   8.833  0.0363 -0.7348  0.2640
 9472SOL    HW139875   0.939   2.053   8.782 -0.5565 -0.6442  0.9275
 9472SOL    HW239876   1.008   2.183   8.780 -0.2559 -0.3829  0.7763
 9473SOL     OW39877   3.419   2.558  13.427  0.5864  0.5201 -0.5873
 9473SOL    HW139878   3.366   2.479  13.418  1.3134 -0.1845  1.3751
 9473SOL    HW239879   3.462   2.569  13.342  0.3078 -2.9703 -1.2097
 9474SOL     OW39880   3.430   1.806   4.499 -0.2849  0.0757  0.2578
 9474SOL    HW139881   3.408   1.825   4.407  2.4574  0.3960 -0.3458
 9474SOL    HW239882   3.502   1.869   4.506 -1.0722  0.9762  0.2304
 9475SOL     OW39883   4.425   2.623   4.687  0.2778 -0.1241 -0.2055
 9475SOL    HW139884   4.463   2.655   4.769 -0.3469 -2.3083  0.9547
 9475SOL    HW239885   4.453   2.696   4.631 -0.2160 -1.2423 -1.9117
 9476SOL     OW39886   3.489   1.640   9.329 -0.2760  0.1511 -0.5064
 9476SOL    HW139887   3.485   1.734   9.346 -0.3653  0.1879 -0.7252
 9476SOL    HW239888   3.578   1.631   9.293  0.3439  0.0636  1.0467
 9477SOL     OW39889   2.607   3.782   3.202  0.1803  0.3665  0.2098
 9477SOL    HW139890   2.662   3.733   3.141 -0.3496 -0.5860  0.4955
 9477SOL    HW239891   2.667   3.847   3.238 -0.4878  1.3167 -0.3941
 9478SOL     OW39892   2.336   2.984   8.348 -0.2435  0.1481  0.3518
 9478SOL    HW139893   2.271   2.963   8.281 -0.7401  1.3475  0.4457
 9478SOL    HW239894   2.345   2.897   8.386 -0.7408  1.3598  3.2351
 9479SOL     OW39895   0.160   1.297  14.963 -0.9186  0.7989 -0.0300
 9479SOL    HW139896   0.211   1.338  14.893 -1.1277  0.4769 -0.3705
 9479SOL    HW239897   0.122   1.226  14.911 -0.6063 -0.6280  1.7012
 9480SOL     OW39898   1.897   0.634   9.158  0.5965  0.4257  0.7549
 9480SOL    HW139899   1.947   0.669   9.232  0.1394  1.4504  0.5785
 9480SOL    HW239900   1.813   0.624   9.204 -1.3051  1.1087 -2.5501
 9481SOL     OW39901   0.070   3.315   6.676 -0.0742  0.3689  0.6841
 9481SOL    HW139902   0.057   3.393   6.730  0.8764  0.5437  0.6572
 9481SOL    HW239903   0.163   3.318   6.655 -0.0175 -0.2258  0.8301
 9482SOL     OW39904   2.493   4.613   4.641  0.2380  0.3068  0.0773
 9482SOL    HW139905   2.571   4.571   4.603  2.2348  2.4232  1.8404
 9482SOL    HW239906   2.522   4.703   4.624  1.0032 -0.2435 -1.5906
 9483SOL     OW39907   2.527   0.827   8.966  0.7383 -0.0427  0.6207
 9483SOL    HW139908   2.614   0.790   8.950 -0.0819 -2.7557  2.3784
 9483SOL    HW239909   2.533   0.922   8.951  1.8832 -0.1435  0.4025
 9484SOL     OW39910   2.532   4.292   4.046 -0.7195  0.3772  0.1046
 9484SOL    HW139911   2.475   4.269   3.972  1.9458 -0.3888 -1.7284
 9484SOL    HW239912   2.531   4.207   4.092 -1.9433 -0.8234 -2.1414
 9485SOL     OW39913   1.498   2.721   4.415  0.0465  0.6093  0.0651
 9485SOL    HW139914   1.430   2.686   4.357  0.3324  0.5247 -0.2173
 9485SOL    HW239915   1.539   2.797   4.373 -0.2786  0.5689 -0.3187
 9486SOL     OW39916   1.071   3.110  14.186  0.2394 -0.5634 -0.3251
 9486SOL    HW139917   1.137   3.149  14.242 -1.0922  0.3688  0.5974
 9486SOL    HW239918   1.054   3.030  14.236 -1.0826  1.1463  1.9062
 9487SOL     OW39919   1.360   2.004   5.536  0.7677  0.1863 -0.0791
 9487SOL    HW139920   1.274   1.964   5.552  0.3528  1.0383 -0.1404
 9487SOL    HW239921   1.343   2.088   5.579 -0.8919  0.3453 -1.0002
 9488SOL     OW39922   0.482   1.140   1.805  0.0126 -0.1379 -0.3876
 9488SOL    HW139923   0.403   1.101   1.768  0.6812 -1.5071 -0.3708
 9488SOL    HW239924   0.535   1.060   1.815 -0.0840 -0.0245  0.9575
 9489SOL     OW39925   3.487   4.094  13.857  0.1063 -0.0851 -0.3906
 9489SOL    HW139926   3.499   4.063  13.946  3.4673 -1.8883 -1.4601
 9489SOL    HW239927   3.439   4.177  13.861  0.0380 -0.2347  1.9333
 9490SOL     OW39928   0.256   2.722   3.464  0.1556  0.1298  0.0603
 9490SOL    HW139929   0.223   2.632   3.457  2.2942 -0.5681 -1.2466
 9490SOL    HW239930   0.300   2.710   3.548 -0.6285 -0.2120  0.4165
 9491SOL     OW39931   0.167   4.029   5.619  0.2410 -0.6288 -0.4093
 9491SOL    HW139932   0.224   3.953   5.626 -0.4497 -1.0080  1.2228
 9491SOL    HW239933   0.211   4.087   5.681  0.4872  0.0536 -1.2361
 9492SOL     OW39934   1.413   2.766   6.441  0.0403 -0.3093 -0.2388
 9492SOL    HW139935   1.479   2.719   6.492  0.4019  0.1682 -0.2637
 9492SOL    HW239936   1.392   2.705   6.370  0.3526 -2.2330  1.3145
 9493SOL     OW39937   3.761   0.054   0.962  0.5402  0.0390  0.7591
 9493SOL    HW139938   3.719   4.692   0.983  0.2387 -0.0742 -0.3331
 9493SOL    HW239939   3.705   0.119   1.005  1.3519 -0.4855  2.6420
 9494SOL     OW39940   4.328   2.906   6.012 -0.6762  0.2867 -0.2410
 9494SOL    HW139941   4.340   2.989   5.966  0.6018 -0.6704 -1.6472
 9494SOL    HW239942   4.237   2.922   6.034 -0.9766 -0.8959 -0.6591
 9495SOL     OW39943   1.849   2.861   7.502  0.3039 -0.2154 -0.5835
 9495SOL    HW139944   1.822   2.905   7.421 -1.5463 -0.5438 -0.1497
 9495SOL    HW239945   1.886   2.786   7.455 -0.2355 -0.5266 -0.5142
 9496SOL     OW39946   1.877   0.462   3.283  0.0417 -0.4976 -0.0139
 9496SOL    HW139947   1.938   0.412   3.229  1.0071  1.9336 -1.2152
 9496SOL    HW239948   1.915   0.437   3.367  0.1150  0.0529  0.1182
 9497SOL     OW39949   1.640   2.277  12.381  0.8312 -0.8795 -0.5243
 9497SOL    HW139950   1.567   2.216  12.384 -0.7353  1.0295 -0.3583
 9497SOL    HW239951   1.614   2.324  12.302  0.2307  2.7744  1.8819
 9498SOL     OW39952   4.463   3.196   1.997 -0.1594  0.2947 -0.0531
 9498SOL    HW139953   4.435   3.118   1.948 -1.0357  0.1451  0.6794
 9498SOL    HW239954   4.449   3.172   2.088  0.6971 -0.3035 -0.0799
 9499SOL     OW39955   2.499   2.579  10.582  0.1684 -0.0303 -0.4506
 9499SOL    HW139956   2.498   2.654  10.642 -2.1574  0.3272 -0.9044
 9499SOL    HW239957   2.573   2.533  10.620 -2.0561 -1.1053  2.6119
 9500SOL     OW39958   0.213   0.686   4.023 -0.2748 -0.0969 -0.3465
 9500SOL    HW139959   0.226   0.623   4.093 -2.7039  1.2731  1.2970
 9500SOL    HW239960   0.268   0.754   4.063 -0.7733 -0.2486  0.5876
 9501SOL     OW39961   3.090   0.421   7.890 -0.2743 -0.5142  0.3749
 9501SOL    HW139962   3.068   0.336   7.851 -2.2325  0.9169 -1.5941
 9501SOL    HW239963   3.072   0.481   7.818 -1.9217 -1.4980 -0.0459
 9502SOL     OW39964   2.780   2.491   1.865 -0.0673 -0.1538  0.5868
 9502SOL    HW139965   2.727   2.554   1.914  1.6350  1.2256  0.6478
 9502SOL    HW239966   2.856   2.544   1.842 -1.3738 -0.2478 -4.0771
 9503SOL     OW39967   0.553   3.623   3.958 -0.0533  0.0456  0.0006
 9503SOL    HW139968   0.593   3.599   4.041  1.2109  1.0630 -0.3032
 9503SOL    HW239969   0.468   3.580   3.967 -0.2386 -0.1185 -2.3539
 9504SOL     OW39970   0.247   0.732  17.299  0.0571 -0.7491  0.0590
 9504SOL    HW139971   0.280   0.646  17.272 -1.3415 -1.2377 -0.1321
 9504SOL    HW239972   0.289   0.732  17.385  0.8651 -0.0452 -0.3468
 9505SOL     OW39973   0.954   4.258   7.501  0.5219  0.1204 -0.5300
 9505SOL    HW139974   0.944   4.171   7.463  0.0634 -0.8347  1.7848
 9505SOL    HW239975   1.006   4.297   7.430 -0.1983  1.5721 -0.2678
 9506SOL     OW39976   4.134   1.184   2.816  0.1587 -0.0803  0.1328
 9506SOL    HW139977   4.228   1.187   2.795 -0.2328 -0.2127 -1.6443
 9506SOL    HW239978   4.141   1.110   2.877  0.7460 -0.6618 -0.6339
 9507SOL     OW39979   2.284   0.781   9.077  0.2732 -0.5329 -0.1770
 9507SOL    HW139980   2.273   0.870   9.110 -0.3854 -0.5210 -0.4387
 9507SOL    HW239981   2.370   0.788   9.036  0.1918  1.1623 -0.0607
 9508SOL     OW39982   1.410   0.536  16.589  0.0781 -0.5952  0.1948
 9508SOL    HW139983   1.348   0.598  16.549 -0.4202 -0.2177  1.5323
 9508SOL    HW239984   1.367   0.451  16.582 -0.1789 -0.4978  0.5567
 9509SOL     OW39985   0.838   2.283  11.571 -0.0127  0.2852 -0.2687
 9509SOL    HW139986   0.756   2.281  11.521  1.1334 -1.7227 -2.0484
 9509SOL    HW239987   0.892   2.251  11.499  0.8447  3.0829 -0.8327
 9510SOL     OW39988   2.872   0.874   5.226  0.2984  0.1452 -0.0364
 9510SOL    HW139989   2.779   0.880   5.208  0.4819  0.3135 -0.9183
 9510SOL    HW239990   2.889   0.780   5.217 -1.1369 -0.1355  0.1849
 9511SOL     OW39991   4.583   2.255   4.194  0.0604 -0.1346 -0.1290
 9511SOL    HW139992   4.618   2.249   4.283  0.6128 -0.0922 -0.3412
 9511SOL    HW239993   4.533   2.174   4.198  0.1642 -0.2400 -1.1469
 9512SOL     OW39994   0.290   3.542   1.557 -0.2097  0.4263  0.0284
 9512SOL    HW139995   0.341   3.489   1.495 -0.4626  1.5331 -1.1264
 9512SOL    HW239996   0.310   3.493   1.637  0.1342  0.9264  0.2464
 9513SOL     OW39997   2.523   3.086   6.456 -0.2902  0.1428 -0.2591
 9513SOL    HW139998   2.563   3.099   6.541 -2.1996 -0.2999  0.7074
 9513SOL    HW239999   2.486   3.172   6.435 -0.1521  0.5099  1.0270
 9514SOL     OW40000   4.381   4.328   2.025  0.5012  0.2037 -0.0217
 9514SOL    HW140001   4.327   4.406   2.016  1.4731  0.6235 -2.1627
 9514SOL    HW240002   4.363   4.303   2.116  1.1835 -0.5694 -0.1013
 9515SOL     OW40003   1.573   3.843   4.505 -0.3789  0.2998  0.7067
 9515SOL    HW140004   1.591   3.935   4.488  2.7899  0.0940  3.0888
 9515SOL    HW240005   1.482   3.836   4.477  0.4717  0.1248 -1.9912
 9516SOL     OW40006   2.973   0.349   4.659  0.0388 -0.5481  0.1892
 9516SOL    HW140007   2.885   0.343   4.622 -0.2721 -0.9175  0.9968
 9516SOL    HW240008   3.011   0.410   4.595 -0.3410 -0.3755  0.1221
 9517SOL     OW40009   0.715   0.956  14.951 -0.2003  0.3111 -0.1444
 9517SOL    HW140010   0.724   1.040  14.995 -1.7618 -0.0268  0.8188
 9517SOL    HW240011   0.622   0.947  14.931  0.0097 -1.7923 -0.2061
 9518SOL     OW40012   3.761   3.407  17.249 -0.3671 -0.0131 -0.4176
 9518SOL    HW140013   3.855   3.421  17.238 -0.6761 -0.1141 -3.2948
 9518SOL    HW240014   3.752   3.322  17.205  0.0300 -0.5237  0.4829
 9519SOL     OW40015   1.993   0.641   2.487 -0.0160  0.2190 -0.7567
 9519SOL    HW140016   2.022   0.571   2.546 -0.4098  0.8834  0.2198
 9519SOL    HW240017   2.072   0.655   2.435  1.0543  2.1740  1.4219
 9520SOL     OW40018   3.125   2.989   7.652 -0.6705  0.0798 -0.1864
 9520SOL    HW140019   3.060   2.943   7.706 -0.7845 -1.1567 -1.3734
 9520SOL    HW240020   3.086   3.073   7.628 -0.8241 -0.1527 -0.7443
 9521SOL     OW40021   0.783   4.566   5.733 -0.1086  0.2211  0.3581
 9521SOL    HW140022   0.694   4.531   5.723  0.6160 -1.6289  0.5474
 9521SOL    HW240023   0.783   4.614   5.649  0.4520 -0.2609  0.0832
 9522SOL     OW40024   3.492   2.637   9.313 -0.3511 -0.5765  0.0554
 9522SOL    HW140025   3.537   2.709   9.357 -0.8962 -0.0003 -0.3152
 9522SOL    HW240026   3.508   2.656   9.221 -0.4238 -1.2117 -0.0903
 9523SOL     OW40027   3.956   3.087  16.786  0.4775  0.7829  0.2460
 9523SOL    HW140028   3.961   3.054  16.696 -2.9710 -1.7588  1.0217
 9523SOL    HW240029   3.885   3.035  16.823 -0.7810  1.2382 -1.5434
 9524SOL     OW40030   3.065   1.964   1.802 -0.2524 -0.2445 -0.3148
 9524SOL    HW140031   3.074   1.966   1.707  0.1247  2.5254 -0.2407
 9524SOL    HW240032   3.153   1.988   1.830 -0.4232  1.5853 -1.3373
 9525SOL     OW40033   4.296   0.567   4.977 -0.0759  0.0194  0.1095
 9525SOL    HW140034   4.337   0.632   4.919  1.0664 -0.8571 -0.0719
 9525SOL    HW240035   4.205   0.595   4.972 -0.0974  0.4288  3.1603
 9526SOL     OW40036   2.177   1.014   5.131 -0.2173  0.2640 -0.1289
 9526SOL    HW140037   2.118   0.966   5.190  1.8545 -0.5660  1.2465
 9526SOL    HW240038   2.128   1.095   5.114  0.0690  0.6087  0.6838
 9527SOL     OW40039   0.777   0.378   4.782  0.0363  0.7395 -0.6708
 9527SOL    HW140040   0.711   0.309   4.773 -0.5935  0.8076  3.2928
 9527SOL    HW240041   0.843   0.334   4.836 -0.7774 -1.5479 -1.5320
 9528SOL     OW40042   2.352   4.199   3.874 -0.0290 -0.4314 -0.0021
 9528SOL    HW140043   2.267   4.162   3.898 -0.4869  0.2653 -0.5602
 9528SOL    HW240044   2.383   4.148   3.799  0.3212  0.1047 -0.2192
 9529SOL     OW40045   1.822   4.329  12.123  0.3025 -0.2986 -0.2353
 9529SOL    HW140046   1.847   4.237  12.130  1.4170 -0.0740 -1.2578
 9529SOL    HW240047   1.767   4.334  12.201  0.6168 -4.4909  0.2503
 9530SOL     OW40048   0.117   0.790   4.388 -0.5889  0.3402  0.2733
 9530SOL    HW140049   0.175   0.717   4.365 -0.2689  1.0545 -1.1612
 9530SOL    HW240050   0.068   0.774   4.308 -1.4486  0.6360  0.7475
 9531SOL     OW40051   2.720   2.878   5.331 -0.2091 -0.1756 -0.0092
 9531SOL    HW140052   2.711   2.933   5.254  2.3587 -1.6262 -1.2990
 9531SOL    HW240053   2.788   2.815   5.309  0.6723  0.5685  0.5860
 9532SOL     OW40054   3.478   2.241   6.398 -0.2176 -0.4181 -0.2507
 9532SOL    HW140055   3.389   2.274   6.412 -0.3017 -0.8715  0.3199
 9532SOL    HW240056   3.489   2.175   6.467 -0.5494  0.9368  1.1153
 9533SOL     OW40057   4.570   1.640   3.571 -0.0252 -0.1186  0.2533
 9533SOL    HW140058   4.478   1.667   3.568  0.5620  2.3033  3.4396
 9533SOL    HW240059   4.609   1.712   3.521  1.3106  0.2471  1.8243
 9534SOL     OW40060   3.838   2.406  12.117  0.2344  0.2392 -0.1932
 9534SOL    HW140061   3.766   2.466  12.137  0.6402  0.9972 -0.9825
 9534SOL    HW240062   3.816   2.394  12.025 -1.4283 -1.0104  0.3589
 9535SOL     OW40063   0.337   4.478   4.498  0.0938 -0.0009  0.1887
 9535SOL    HW140064   0.363   4.408   4.559 -0.6295 -0.4794 -0.0548
 9535SOL    HW240065   0.297   4.539   4.560  0.2826  0.3235 -0.0144
 9536SOL     OW40066   4.299   3.714   8.508 -0.3297  0.2968  0.0352
 9536SOL    HW140067   4.206   3.697   8.495 -0.7935  2.8432  0.0761
 9536SOL    HW240068   4.303   3.796   8.458 -0.2629 -0.0862 -0.5892
 9537SOL     OW40069   0.983   0.879   9.370 -0.3895  0.1352 -0.5340
 9537SOL    HW140070   0.916   0.844   9.312  0.6008  1.2097 -2.3244
 9537SOL    HW240071   1.036   0.802   9.389 -1.2216 -0.4156 -0.4571
 9538SOL     OW40072   3.236   0.526  13.209 -0.3667 -0.5392 -0.1464
 9538SOL    HW140073   3.321   0.526  13.165  0.1614 -2.0411  0.8744
 9538SOL    HW240074   3.269   0.488  13.290 -0.2460  0.7046  0.3938
 9539SOL     OW40075   4.616   4.265   8.227 -0.4389 -0.6213  0.8065
 9539SOL    HW140076   4.638   4.216   8.147  0.8441  2.8733 -0.9762
 9539SOL    HW240077   4.704   4.297   8.244 -0.3978 -0.5712  0.4965
 9540SOL     OW40078   1.695   4.070   0.759 -0.1414 -0.5071  0.1446
 9540SOL    HW140079   1.607   4.108   0.761  0.3523  0.5821  1.0332
 9540SOL    HW240080   1.756   4.142   0.748  0.5306 -0.8717  1.5084
 9541SOL     OW40081   4.266   2.473  15.104  0.2895 -0.5339  0.0112
 9541SOL    HW140082   4.205   2.433  15.167  1.2141  0.0813  1.2822
 9541SOL    HW240083   4.287   2.393  15.054 -0.7856 -0.4415 -0.5989
 9542SOL     OW40084   4.685   2.787  17.616  0.0311 -0.7133 -0.6730
 9542SOL    HW140085   0.014   2.867  17.598 -1.3219  1.0297  3.2109
 9542SOL    HW240086   4.608   2.816  17.665  0.2922  0.4451 -0.9435
 9543SOL     OW40087   4.553   1.553   2.228 -0.5395 -0.2442  0.0985
 9543SOL    HW140088   4.532   1.459   2.224 -0.0565 -0.4696  2.5783
 9543SOL    HW240089   4.596   1.567   2.313 -0.7662 -0.1773  0.2010
 9544SOL     OW40090   4.071   0.728  14.049  0.1714 -0.2025 -0.1571
 9544SOL    HW140091   4.043   0.674  14.123  0.2594 -2.0317 -1.4598
 9544SOL    HW240092   3.988   0.760  14.013  0.6153 -2.0958 -2.8090
 9545SOL     OW40093   2.279   3.097  11.439  0.1570 -0.6718  0.0131
 9545SOL    HW140094   2.331   3.140  11.371 -0.4170  1.6301  1.0240
 9545SOL    HW240095   2.280   3.006  11.411 -0.5626 -0.5876 -0.2722
 9546SOL     OW40096   0.425   3.945   5.249  0.4245  0.1493 -0.0483
 9546SOL    HW140097   0.387   4.002   5.181  0.3231  1.0395  0.7607
 9546SOL    HW240098   0.520   3.949   5.237  0.5732  2.8507  2.0271
 9547SOL     OW40099   3.651   0.751   2.119 -0.4674 -0.1060  0.0368
 9547SOL    HW140100   3.707   0.779   2.046 -2.2121  0.6419 -1.0277
 9547SOL    HW240101   3.623   0.835   2.155  1.4871 -0.5139  2.4942
 9548SOL     OW40102   0.784   2.253   5.534 -0.2572  0.3468  0.3319
 9548SOL    HW140103   0.814   2.193   5.602  0.7416  0.9477  0.4238
 9548SOL    HW240104   0.854   2.245   5.470  2.0770 -1.6650  3.1393
 9549SOL     OW40105   0.476   0.834   5.040 -0.3015  0.0610 -0.0570
 9549SOL    HW140106   0.382   0.818   5.038 -0.4097  0.5702  1.4715
 9549SOL    HW240107   0.516   0.747   5.043  0.8941  0.5425 -1.7913
 9550SOL     OW40108   2.512   0.541  10.588 -0.1089  0.1213  0.0111
 9550SOL    HW140109   2.455   0.542  10.512  0.0422  2.5690 -0.0686
 9550SOL    HW240110   2.549   0.453  10.598 -0.9451  0.0195  2.1387
 9551SOL     OW40111   4.534   2.043   5.296  0.1165 -0.5226 -0.0790
 9551SOL    HW140112   4.445   2.078   5.289  0.3087  0.2529  1.2678
 9551SOL    HW240113   4.513   1.961   5.252 -0.2543 -0.5050  0.0607
 9552SOL     OW40114   2.523   0.780   1.993 -0.0879 -0.5162  0.2387
 9552SOL    HW140115   2.501   0.805   2.083  0.8937 -0.4050  0.4434
 9552SOL    HW240116   2.587   0.847   1.971  1.8700 -1.8379  1.8352
 9553SOL     OW40117   3.542   1.200   8.560 -0.3121  0.4458  0.0411
 9553SOL    HW140118   3.510   1.118   8.523  3.0693 -0.5864 -0.5888
 9553SOL    HW240119   3.634   1.176   8.568 -1.0009 -2.2295 -0.3179
 9554SOL     OW40120   3.966   4.529   8.435 -0.0313  0.1018  0.0276
 9554SOL    HW140121   4.036   4.493   8.490 -1.2199  0.0717  1.5072
 9554SOL    HW240122   4.003   4.615   8.412  2.0041 -0.2142  2.0717
 9555SOL     OW40123   2.454   1.390   1.483 -0.0522  1.0213 -0.1721
 9555SOL    HW140124   2.477   1.307   1.441 -0.9465  0.8760 -0.3701
 9555SOL    HW240125   2.439   1.360   1.573  0.8637  0.3699 -0.2332
 9556SOL     OW40126   3.523   1.299   8.148 -0.1252  0.0948  0.0194
 9556SOL    HW140127   3.474   1.283   8.068  2.5497 -0.4728 -1.5048
 9556SOL    HW240128   3.535   1.208   8.176  1.3720 -0.4717 -2.5709
 9557SOL     OW40129   2.004   4.260  16.909 -0.1072  0.2110  0.2729
 9557SOL    HW140130   1.992   4.237  17.001 -3.2607  1.4490  0.1672
 9557SOL    HW240131   1.922   4.307  16.894 -0.7186 -1.1235 -0.5328
 9558SOL     OW40132   4.273   0.073   0.222 -0.7243  0.1339  0.4384
 9558SOL    HW140133   4.229   0.060   0.138 -0.4251  1.1691  0.1107
 9558SOL    HW240134   4.338   0.004   0.233 -0.3935  0.4634  0.5405
 9559SOL     OW40135   3.919   1.876  13.664 -0.6543 -0.1700 -0.0162
 9559SOL    HW140136   3.865   1.922  13.728 -1.8690 -1.8787  0.1709
 9559SOL    HW240137   3.846   1.871  13.602 -0.5993 -0.3259 -0.0675
 9560SOL     OW40138   0.163   1.685   7.623  0.2202 -0.3601 -0.0989
 9560SOL    HW140139   0.106   1.761   7.638 -0.0311 -0.1633 -2.0632
 9560SOL    HW240140   0.173   1.694   7.528  0.6954 -1.6438 -0.1645
 9561SOL     OW40141   0.394   4.330   7.696 -0.2629 -0.1323  0.7814
 9561SOL    HW140142   0.441   4.348   7.615 -0.3626 -1.3890  0.4494
 9561SOL    HW240143   0.404   4.407   7.752  1.5139  0.4505 -0.3521
 9562SOL     OW40144   1.935   2.418  15.642  0.2113 -0.3126 -0.3605
 9562SOL    HW140145   1.946   2.352  15.711  2.2021 -0.6277 -0.9641
 9562SOL    HW240146   1.966   2.499  15.682 -1.7506  0.3323 -0.1356
 9563SOL     OW40147   1.412   1.140   5.452 -0.4733 -0.2373 -0.3085
 9563SOL    HW140148   1.449   1.227   5.467 -0.0860 -0.7120  1.5278
 9563SOL    HW240149   1.475   1.103   5.390  0.1359 -1.3751  0.9776
 9564SOL     OW40150   0.737   2.335  11.809 -0.6519 -0.7791 -0.2759
 9564SOL    HW140151   0.789   2.297  11.738  1.7488 -1.4186  1.8193
 9564SOL    HW240152   0.644   2.334  11.788 -0.2798  2.9387 -2.0052
 9565SOL     OW40153   4.245   0.039  12.767 -0.4844 -0.0889 -0.4832
 9565SOL    HW140154   4.175   4.705  12.732  1.2908 -3.0352  0.6037
 9565SOL    HW240155   4.321   4.703  12.775  0.2279  1.1086  1.1436
   4.72121   4.72121  17.68721
