Membrane in water
40155
    1TCq1    O1    1   2.046   1.822  10.348 -0.4411  0.2976 -0.3349
    1TCq1    C1    2   2.028   1.703  10.412 -0.9969  0.3754 -0.1209
    1TCq1    O2    3   1.927   1.656  10.464 -0.7128 -0.1863  0.1284
    1TCq1    C2    4   2.157   1.645  10.447 -0.0373  0.6785  0.0675
    1TCq1    C3    5   2.271   1.664  10.369  0.8195  0.0399  0.0787
    1TCq1    C4    6   2.384   1.606  10.415 -0.2369 -0.2895  0.6915
    1TCq1    C5    7   2.383   1.527  10.520  0.1050  0.7025  0.9574
    1TCq1    C6    8   2.271   1.505  10.589 -0.8491 -0.0175 -0.0648
    1TCq1    C7    9   2.154   1.559  10.546 -0.1615  0.0796  0.8257
    1TCq1    C8   10   2.264   1.414  10.696 -0.2586 -0.6062 -0.1420
    1TCq1    O4   11   2.173   1.434  10.774  0.2479  0.5285 -0.1320
    1TCq1    C9   12   2.494   1.613  10.340  0.2127 -0.0807  0.1288
    1TCq1    O5   13   2.496   1.693  10.246  0.2613  0.4743  0.4093
    1TCq1    O6   14   2.590   1.526  10.362  0.5869  0.2001  0.4792
    1TCq1    H1   15   2.140   1.848  10.354 -0.4345  0.1634  0.1504
    1TCq1    H2   16   2.270   1.733  10.285  0.0549  1.3681  1.1580
    1TCq1    H3   17   2.481   1.503  10.561 -0.3570 -1.7396  0.6273
    1TCq1    H4   18   2.062   1.556  10.605 -2.1684 -1.5320 -2.3817
    2MPD2     C   19   2.456   1.026  10.981  0.1549 -0.1947  0.2425
    2MPD2    C1   20   2.355   1.119  11.009  0.1103 -0.8058  0.5226
    2MPD2    C2   21   2.324   1.218  10.920  0.5110 -0.7064  0.5217
    2MPD2    C3   22   2.383   1.214  10.794 -0.4233 -0.3519 -0.4369
    2MPD2    C4   23   2.475   1.119  10.763 -0.6063 -0.2486 -0.4311
    2MPD2    C5   24   2.515   1.029  10.854  1.1244 -0.2798  0.0164
    2MPD2     H   25   2.254   1.299  10.937  1.8067 -0.1074  2.9909
    2MPD2    H1   26   2.507   1.107  10.660 -3.0717 -2.2368 -0.9415
    2MPD2    H2   27   2.486   0.943  11.044 -0.2730 -0.2444  0.3813
    2MPD2    H3   28   2.582   0.952  10.816 -0.0786 -1.0736 -0.4909
    2MPD2     N   29   2.355   1.307  10.691 -0.4555 -0.3283 -0.0481
    2MPD2    H5   30   2.423   1.307  10.615 -0.7427 -1.0172 -0.3005
    2MPD2    N1   31   2.293   1.130  11.134  1.2225  0.1312 -0.2797
    2MPD2    H7   32   2.270   1.228  11.148 -1.5279 -0.2896 -1.8711
    3TCq1    O1   33   1.721   1.668  10.905 -0.5484 -0.8859 -0.5273
    3TCq1    C1   34   1.609   1.733  10.950  0.4145 -0.0620 -0.7645
    3TCq1    O2   35   1.612   1.842  11.004  0.1489 -0.2098 -0.0489
    3TCq1    C2   36   1.503   1.637  10.951  0.9758  0.0770  0.6748
    3TCq1    C3   37   1.523   1.501  10.941  0.8098 -0.4331 -0.7187
    3TCq1    C4   38   1.420   1.418  10.986 -0.5920 -0.1062 -0.4428
    3TCq1    C5   39   1.299   1.465  11.024  0.5986  0.3505  0.0514
    3TCq1    C6   40   1.276   1.595  11.016 -0.0600  0.0824  0.0179
    3TCq1    C7   41   1.377   1.682  10.983  0.3281  0.2104  0.2940
    3TCq1    C8   42   1.157   1.648  11.076  0.1197 -0.0481  0.4379
    3TCq1    O4   43   1.100   1.570  11.152 -0.0575  0.2362 -0.0769
    3TCq1    C9   44   1.439   1.277  10.990  0.5813  0.2682  1.1177
    3TCq1    O5   45   1.556   1.234  10.961  0.3765 -0.4062  0.5568
    3TCq1    O6   46   1.338   1.209  11.029 -0.1636  0.3294 -0.3118
    3TCq1    H1   47   1.710   1.589  10.848 -0.8316 -0.5474 -0.9379
    3TCq1    H2   48   1.620   1.453  10.928  1.3737  1.1424 -2.2404
    3TCq1    H3   49   1.233   1.389  11.065 -0.8657  1.1323 -0.8475
    3TCq1    H4   50   1.370   1.786  11.010 -2.6286  0.1968 -0.4767
    4MPD2     C   51   0.839   2.038  11.166  1.1500 -0.0200  0.1450
    4MPD2    C1   52   0.915   2.071  11.058  0.6148  0.2115 -1.2006
    4MPD2    C2   53   1.008   1.980  11.014  0.4544  0.4770  0.0061
    4MPD2    C3   54   1.015   1.855  11.074  0.0636 -1.1432  0.3339
    4MPD2    C4   55   0.940   1.823  11.183 -0.1735 -0.1158  0.7916
    4MPD2    C5   56   0.850   1.914  11.226 -0.7377  0.2969 -0.0708
    4MPD2     H   57   1.091   2.006  10.949  0.6411  1.9832  0.8451
    4MPD2    H1   58   0.936   1.722  11.223  2.4821 -0.2604  0.7058
    4MPD2    H2   59   0.764   2.107  11.205  2.0162  0.6831  0.5622
    4MPD2    H3   60   0.788   1.875  11.306 -0.1847  0.3701  0.3893
    4MPD2     N   61   1.122   1.774  11.027 -0.5220 -0.2649  0.0299
    4MPD2    H5   62   1.182   1.801  10.950  1.2582 -1.8687  0.8853
    4MPD2    N1   63   0.927   2.197  10.998  0.3487  0.1888 -0.4412
    4MPD2    H7   64   0.995   2.205  10.924  0.2579 -1.5253 -0.7083
    5TCq1    O1   65   0.511   2.865  10.539 -0.2449 -0.6366  0.0205
    5TCq1    C1   66   0.527   2.737  10.500 -0.3635  0.5842  0.4221
    5TCq1    O2   67   0.438   2.652  10.507  1.0687  0.5025  0.1049
    5TCq1    C2   68   0.668   2.708  10.476 -0.2529 -0.1400  0.4702
    5TCq1    C3   69   0.697   2.576  10.477  0.2037 -0.2559 -0.5315
    5TCq1    C4   70   0.820   2.535  10.443  0.1827 -0.6417 -0.0090
    5TCq1    C5   71   0.926   2.622  10.430  0.1352  0.6549 -0.7623
    5TCq1    C6   72   0.893   2.756  10.442 -0.0021  1.0636 -0.7684
    5TCq1    C7   73   0.767   2.805  10.459 -0.0476 -0.6927  0.1822
    5TCq1    C8   74   1.000   2.850  10.401 -0.1003  0.3086  0.7698
    5TCq1    O4   75   1.118   2.821  10.423 -0.2469  0.0993  0.2741
    5TCq1    C9   76   0.849   2.397  10.424  0.3257  0.2122 -0.7850
    5TCq1    O5   77   0.751   2.329  10.378  0.5762  0.4801 -0.5212
    5TCq1    O6   78   0.969   2.360  10.422  0.4162  0.1637 -0.6671
    5TCq1    H1   79   0.590   2.924  10.533 -0.1752 -0.9334 -2.1753
    5TCq1    H2   80   0.627   2.494  10.487  0.1856 -0.0354  1.2219
    5TCq1    H3   81   1.028   2.591  10.411 -0.2418 -1.0417 -0.0223
    5TCq1    H4   82   0.742   2.909  10.441  0.8792 -0.3653  0.7845
    6MPD2     C   83   0.956   3.196  10.307 -0.0239 -0.0753 -0.3453
    6MPD2    C1   84   1.028   3.085  10.331 -1.0330  0.0370  0.0287
    6MPD2    C2   85   1.167   3.094  10.314  0.5523 -0.9443  1.0849
    6MPD2    C3   86   1.229   3.209  10.264 -0.2460 -0.5666 -0.1142
    6MPD2    C4   87   1.142   3.318  10.244 -0.0208  0.3580 -0.0376
    6MPD2    C5   88   1.012   3.311  10.277  0.3794  0.2347  0.6857
    6MPD2     H   89   1.228   3.006  10.334  2.1103 -0.4820 -1.5678
    6MPD2    H1   90   1.174   3.416  10.211  2.4363 -0.3448  0.2864
    6MPD2    H2   91   0.849   3.198  10.327 -0.0675  0.6348 -0.6329
    6MPD2    H3   92   0.961   3.407  10.282  0.1100  0.2532 -2.3939
    6MPD2     N   93   1.365   3.214  10.246  0.7336  0.2721  0.4119
    6MPD2    H5   94   1.414   3.135  10.287  0.2085 -0.1097  0.3068
    6MPD2    N1   95   0.959   2.978  10.382  0.0091  0.3140 -0.2623
    6MPD2    H7   96   0.859   2.995  10.391 -0.3521 -0.8628 -2.0379
    7TCq1    O1   97   3.157   2.386  12.919  0.4014 -0.5533  0.1699
    7TCq1    C1   98   3.281   2.417  12.888 -0.4802 -0.0494 -0.1207
    7TCq1    O2   99   3.369   2.341  12.854 -0.1292  0.7486  0.1879
    7TCq1    C2  100   3.314   2.550  12.924 -0.6231  0.1027 -0.2688
    7TCq1    C3  101   3.217   2.648  12.918  0.2056  0.3006  0.2156
    7TCq1    C4  102   3.239   2.760  12.989 -0.1478 -0.4062  0.1298
    7TCq1    C5  103   3.355   2.775  13.063 -1.0745  0.3923 -0.1916
    7TCq1    C6  104   3.452   2.674  13.063  0.3493  0.0975 -0.0369
    7TCq1    C7  105   3.435   2.566  12.984  0.4002 -0.1535 -0.5106
    7TCq1    C8  106   3.561   2.686  13.156 -0.1458 -0.3782 -0.3591
    7TCq1    O4  107   3.638   2.591  13.154  0.2919 -0.9385 -0.4115
    7TCq1    C9  108   3.142   2.867  12.999 -0.1053 -0.2993  0.7990
    7TCq1    O5  109   3.140   2.937  13.106 -0.4828  0.4301 -0.1800
    7TCq1    O6  110   3.060   2.861  12.907 -0.5014  0.0389 -0.2856
    7TCq1    H1  111   3.120   2.456  12.978 -1.9334 -1.4514 -0.2304
    7TCq1    H2  112   3.117   2.631  12.877  1.0825 -0.6272 -1.5659
    7TCq1    H3  113   3.366   2.866  13.120 -0.9571 -0.0284  0.4526
    7TCq1    H4  114   3.505   2.484  12.993 -1.2997 -1.4716  0.7405
    8MPD2     C  115   3.867   2.944  13.470 -0.2042  0.2353  0.3103
    8MPD2    C1  116   3.896   2.849  13.377  0.7439  0.0230 -0.8609
    8MPD2    C2  117   3.798   2.802  13.299  0.2032  0.0278  0.2466
    8MPD2    C3  118   3.666   2.841  13.323 -0.5233  0.5195 -0.0006
    8MPD2    C4  119   3.636   2.941  13.411 -0.3261  0.5522  0.2704
    8MPD2    C5  120   3.738   2.990  13.491 -0.1115  0.0807 -0.2822
    8MPD2     H  121   3.820   2.736  13.216  1.9519  1.8203 -0.7133
    8MPD2    H1  122   3.533   2.964  13.434 -0.4354  1.5916 -1.3041
    8MPD2    H2  123   3.948   2.982  13.531  0.4358  0.0579 -0.4295
    8MPD2    H3  124   3.722   3.067  13.566  1.1439  0.4800 -0.4163
    8MPD2     N  125   3.557   2.794  13.243 -0.6818 -0.1961  0.0887
    8MPD2    H5  126   3.471   2.846  13.258  0.3429  1.9237 -1.4139
    8MPD2    N1  127   4.027   2.817  13.350 -0.3598  0.5287  0.0751
    8MPD2    H7  128   4.099   2.866  13.402 -1.6800  2.6563 -0.0525
    9TCq1    O1  129   2.158   2.914  11.057  0.6694 -0.2299 -0.2193
    9TCq1    C1  130   2.059   3.003  11.036 -0.0502 -0.3544  0.4452
    9TCq1    O2  131   2.080   3.122  11.008 -0.2807  0.1097  0.0945
    9TCq1    C2  132   1.935   2.936  10.990  0.3456  0.3432 -0.1850
    9TCq1    C3  133   1.851   3.008  10.908  0.1894 -0.4355  0.1097
    9TCq1    C4  134   1.767   2.941  10.827 -0.0112  0.5267 -0.2019
    9TCq1    C5  135   1.756   2.808  10.834  0.3824  0.5870  0.6874
    9TCq1    C6  136   1.830   2.740  10.927 -0.3724  0.1402 -0.5704
    9TCq1    C7  137   1.925   2.801  11.008  0.5345 -0.3997 -0.9187
    9TCq1    C8  138   1.819   2.594  10.921 -0.0570  0.4274  0.6051
    9TCq1    O4  139   1.750   2.541  10.835  0.6102 -0.1883  0.2491
    9TCq1    C9  140   1.679   3.008  10.730 -0.5669  0.0619  0.3529
    9TCq1    O5  141   1.570   2.956  10.685 -0.2114 -0.0078 -0.0482
    9TCq1    O6  142   1.699   3.132  10.732  0.4353 -0.1723  0.2033
    9TCq1    H1  143   2.129   2.826  11.089 -1.3456  0.9291  1.1492
    9TCq1    H2  144   1.871   3.114  10.898 -0.9467 -0.3017 -0.6801
    9TCq1    H3  145   1.695   2.753  10.763  1.2603 -2.0976  2.0046
    9TCq1    H4  146   1.982   2.740  11.078  1.6321  0.0705 -1.3935
   10MPD2     C  147   1.779   2.311  11.002  0.3660  0.1862  0.6504
   10MPD2    C1  148   1.828   2.408  11.083 -0.4019  0.3996 -0.5260
   10MPD2    C2  149   1.854   2.377  11.210 -0.3527  0.4007  0.3197
   10MPD2    C3  150   1.821   2.250  11.258 -0.8563  0.5183  0.0965
   10MPD2    C4  151   1.779   2.148  11.174  0.5736 -0.3915 -0.2826
   10MPD2    C5  152   1.763   2.181  11.044 -0.2995  0.6985 -0.0939
   10MPD2     H  153   1.884   2.451  11.283 -1.7372 -0.5288  1.8156
   10MPD2    H1  154   1.760   2.044  11.195  2.4287 -0.4619  1.0794
   10MPD2    H2  155   1.741   2.342  10.905  0.4517 -0.8866  0.2776
   10MPD2    H3  156   1.715   2.107  10.982  2.1126  0.6090 -1.8545
   10MPD2     N  157   1.839   2.221  11.397  0.1114  0.0860  0.4441
   10MPD2    H5  158   1.788   2.138  11.424 -0.7413 -0.0740 -1.6563
   10MPD2    N1  159   1.862   2.537  11.042 -0.2539  0.0374 -0.1688
   10MPD2    H7  160   1.895   2.603  11.111  3.1822 -0.2281 -1.5511
   11TCq1    O1  161   3.701   1.471  14.259 -0.5322  0.1595 -0.4893
   11TCq1    C1  162   3.594   1.484  14.179 -0.3645  1.1652 -0.1343
   11TCq1    O2  163   3.541   1.405  14.100  0.5263  0.1215  0.3649
   11TCq1    C2  164   3.555   1.621  14.185 -0.2871 -0.0064 -0.0028
   11TCq1    C3  165   3.591   1.705  14.295  0.4258  0.4292  0.3934
   11TCq1    C4  166   3.554   1.837  14.299  0.4790 -0.1646  0.0092
   11TCq1    C5  167   3.474   1.889  14.201  0.7183 -0.4371 -0.5764
   11TCq1    C6  168   3.452   1.803  14.096  0.4821  0.2079  0.3357
   11TCq1    C7  169   3.481   1.667  14.086 -0.7479  0.3728  0.2924
   11TCq1    C8  170   3.365   1.863  13.994 -0.4543 -0.4168  0.1794
   11TCq1    O4  171   3.384   1.982  13.967 -0.1394  0.0916  1.0442
   11TCq1    C9  172   3.585   1.921  14.413  0.3414 -0.5158 -0.5049
   11TCq1    O5  173   3.638   1.874  14.518  0.4208 -0.2045 -0.0818
   11TCq1    O6  174   3.541   2.039  14.398  0.3953 -0.5606 -0.1234
   11TCq1    H1  175   3.736   1.558  14.288 -0.3628  0.1842 -0.7653
   11TCq1    H2  176   3.634   1.669  14.388  0.5337  0.1129  0.2215
   11TCq1    H3  177   3.434   1.990  14.206  2.3693  0.2846 -1.8075
   11TCq1    H4  178   3.444   1.598  14.011  1.0055  1.1834 -1.3117
   12MPD2     C  179   3.156   1.905  13.791 -0.4055  0.0335 -0.3635
   12MPD2    C1  180   3.172   1.791  13.857 -0.5351  0.0853  0.5969
   12MPD2    C2  181   3.083   1.681  13.836 -0.1453 -0.5634 -0.2222
   12MPD2    C3  182   2.985   1.696  13.745 -0.1560 -0.3882 -0.0022
   12MPD2    C4  183   2.966   1.817  13.677  0.3373  0.6769 -0.2895
   12MPD2    C5  184   3.052   1.918  13.700 -0.2324  0.6557  0.0984
   12MPD2     H  185   3.100   1.591  13.895  0.3199 -0.0729  0.3887
   12MPD2    H1  186   2.876   1.832  13.618 -0.5795  1.1930  1.2320
   12MPD2    H2  187   3.220   1.993  13.799 -1.1414  0.5787 -0.4478
   12MPD2    H3  188   3.046   2.012  13.647 -0.1147  1.3046  1.2234
   12MPD2     N  189   2.889   1.598  13.725  0.2833 -0.0056  0.6755
   12MPD2    H5  190   2.821   1.610  13.650 -1.9480 -0.9572  2.5612
   12MPD2    N1  191   3.267   1.768  13.962 -0.3831 -0.5889 -0.4508
   12MPD2    H7  192   3.255   1.692  14.028  2.3066 -1.9004 -1.4838
   13TCq1    O1  193   2.533   1.728  11.350 -0.4741  0.7088  0.7241
   13TCq1    C1  194   2.410   1.675  11.370 -0.3760 -0.2967 -0.1366
   13TCq1    O2  195   2.384   1.553  11.361 -0.1436 -0.2363 -0.1001
   13TCq1    C2  196   2.317   1.779  11.395 -0.3444  0.2776 -0.2665
   13TCq1    C3  197   2.361   1.904  11.438  0.9974 -0.1089  0.3328
   13TCq1    C4  198   2.267   2.006  11.457  0.1555  0.5253 -0.2581
   13TCq1    C5  199   2.136   1.973  11.452 -0.1638 -0.8325  0.4341
   13TCq1    C6  200   2.095   1.846  11.419  0.0808  0.4977 -0.3285
   13TCq1    C7  201   2.186   1.750  11.374 -0.4398 -0.2507 -0.2585
   13TCq1    C8  202   1.953   1.822  11.404  0.7689 -0.1588  0.4376
   13TCq1    O4  203   1.881   1.924  11.391 -0.2995  0.2002  0.0329
   13TCq1    C9  204   2.304   2.131  11.509  0.4386  0.3816  0.4309
   13TCq1    O5  205   2.429   2.142  11.541  0.4339 -0.3084 -0.0360
   13TCq1    O6  206   2.209   2.208  11.540 -0.1025  0.3139 -0.2827
   13TCq1    H1  207   2.534   1.826  11.352  2.5597  0.6808  1.3805
   13TCq1    H2  208   2.464   1.929  11.460  1.2297 -1.8232  1.2269
   13TCq1    H3  209   2.061   2.049  11.472  0.5468 -0.1532  0.5046
   13TCq1    H4  210   2.157   1.654  11.332  0.4031 -1.4302  1.9039
   14MPD2     C  211   1.776   1.516  11.300 -0.0763 -1.0364  0.1442
   14MPD2    C1  212   1.785   1.645  11.351  0.8501  0.0889  0.7301
   14MPD2    C2  213   1.677   1.714  11.397  0.3306 -0.9506  0.0395
   14MPD2    C3  214   1.549   1.658  11.388  0.1088 -0.6929  0.1420
   14MPD2    C4  215   1.539   1.533  11.346  0.0205  0.2171 -0.0683
   14MPD2    C5  216   1.650   1.469  11.297 -0.8673  0.5132  0.2048
   14MPD2     H  217   1.689   1.812  11.441  1.9239 -1.8459  1.6177
   14MPD2    H1  218   1.447   1.478  11.328  0.2290  0.2878 -1.3750
   14MPD2    H2  219   1.864   1.459  11.273 -0.9702 -1.5017 -1.7211
   14MPD2    H3  220   1.627   1.374  11.250 -0.0095  0.9282 -1.0700
   14MPD2     N  221   1.433   1.736  11.423  0.0875  0.4802  0.7445
   14MPD2    H5  222   1.456   1.832  11.446  0.1820  0.9741 -1.4307
   14MPD2    N1  223   1.920   1.695  11.367 -0.4597 -1.0245  0.6399
   14MPD2    H7  224   1.990   1.621  11.368  0.4596 -0.1551  0.4211
   15TCq1    O1  225   3.101   0.811   2.234 -0.4202 -0.3869  0.3789
   15TCq1    C1  226   3.092   0.695   2.164  0.5032 -0.0164 -0.3743
   15TCq1    O2  227   3.011   0.662   2.075 -0.4710 -0.4749  0.8216
   15TCq1    C2  228   3.226   0.629   2.177 -0.2521 -0.2745  0.0253
   15TCq1    C3  229   3.297   0.640   2.297 -0.3845  0.5105 -0.5635
   15TCq1    C4  230   3.432   0.632   2.286 -0.2800  0.7698 -0.6167
   15TCq1    C5  231   3.491   0.611   2.166 -0.4347  0.0866  1.1183
   15TCq1    C6  232   3.424   0.597   2.053 -0.1693  0.0522  0.3129
   15TCq1    C7  233   3.288   0.607   2.055  0.2676 -0.4013  0.3260
   15TCq1    C8  234   3.494   0.560   1.933  0.4890 -0.4521 -0.0707
   15TCq1    O4  235   3.614   0.548   1.946 -0.0345  0.2106 -0.0861
   15TCq1    C9  236   3.500   0.619   2.412 -0.4971 -0.0670 -0.9759
   15TCq1    O5  237   3.442   0.649   2.515  0.1666 -0.4233 -0.2805
   15TCq1    O6  238   3.621   0.584   2.397 -0.6779  0.4230  0.2426
   15TCq1    H1  239   3.180   0.833   2.287  0.7619 -1.6253 -0.8761
   15TCq1    H2  240   3.252   0.670   2.391  0.6789  0.4199 -0.0327
   15TCq1    H3  241   3.599   0.599   2.171 -0.6188 -1.6757  1.0836
   15TCq1    H4  242   3.220   0.627   1.973  0.5389 -1.6028 -0.1945
   16MPD2     C  243   3.359   0.452   1.609 -0.2050  0.5491  0.2426
   16MPD2    C1  244   3.453   0.464   1.711 -1.2419  0.8115  0.8143
   16MPD2    C2  245   3.578   0.404   1.701 -0.3181 -0.3251  0.4594
   16MPD2    C3  246   3.607   0.334   1.584 -0.9020  0.6176 -0.3688
   16MPD2    C4  247   3.516   0.335   1.481 -0.4345  0.0615  0.3094
   16MPD2    C5  248   3.397   0.398   1.492  0.0093 -0.2667 -0.6953
   16MPD2     H  249   3.648   0.396   1.784  0.1827 -1.3198 -0.0559
   16MPD2    H1  250   3.542   0.296   1.383  2.0060  1.3153  0.4523
   16MPD2    H2  251   3.266   0.508   1.609  0.2245  1.2331  1.8048
   16MPD2    H3  252   3.326   0.387   1.411  0.2759  0.8933 -1.0870
   16MPD2     N  253   3.735   0.263   1.579  0.5363  0.2939  0.9639
   16MPD2    H5  254   3.799   0.274   1.657  0.9244 -0.4530  0.7487
   16MPD2    N1  255   3.411   0.526   1.825 -0.2794  0.4177 -0.0391
   16MPD2    H7  256   3.312   0.548   1.836 -0.1758  0.8030  0.1471
   17TCq1    O1  257   2.052   0.471  11.591  0.6022 -0.2665  0.0502
   17TCq1    C1  258   2.017   0.524  11.704 -0.8889 -0.1574  0.7886
   17TCq1    O2  259   2.035   0.489  11.818  0.4952 -0.0840 -0.6098
   17TCq1    C2  260   1.929   0.630  11.679  0.2714 -0.4039  0.5277
   17TCq1    C3  261   1.829   0.640  11.768 -0.2901 -0.0532 -0.1347
   17TCq1    C4  262   1.750   0.753  11.771 -1.1230  0.3470  0.6778
   17TCq1    C5  263   1.775   0.852  11.679 -0.0696  0.0079  0.3700
   17TCq1    C6  264   1.868   0.840  11.584  0.3465 -1.1808  1.3683
   17TCq1    C7  265   1.952   0.730  11.582 -0.8100  0.0898  0.8313
   17TCq1    C8  266   1.884   0.947  11.488 -0.4113  0.3397 -0.5892
   17TCq1    O4  267   1.862   1.061  11.528 -0.7289  0.0194  0.1775
   17TCq1    C9  268   1.645   0.769  11.872  0.1981 -0.3520  0.1932
   17TCq1    O5  269   1.609   0.673  11.941  0.7991  0.2235  0.1127
   17TCq1    O6  270   1.580   0.875  11.866  0.8122  0.0547 -0.2697
   17TCq1    H1  271   1.999   0.495  11.513  1.0036 -0.6634 -0.3457
   17TCq1    H2  272   1.811   0.558  11.836  1.2723 -0.4359 -0.1741
   17TCq1    H3  273   1.709   0.938  11.676 -0.4112 -0.2410  0.7899
   17TCq1    H4  274   2.045   0.740  11.527 -0.4532 -0.9012  1.2601
   18MPD2     C  275   1.869   1.126  11.247  0.1641  0.4655  0.4021
   18MPD2    C1  276   1.924   0.997  11.247  0.2050  0.7696  0.4798
   18MPD2    C2  277   1.979   0.951  11.133  0.1599  0.1479 -0.0343
   18MPD2    C3  278   1.970   1.017  11.014  0.4380  0.6248  0.3690
   18MPD2    C4  279   1.915   1.143  11.015 -0.3478  0.3170 -0.0164
   18MPD2    C5  280   1.881   1.196  11.134 -0.6103 -0.1447 -0.6103
   18MPD2     H  281   2.014   0.848  11.138  5.0920  1.8529  0.5740
   18MPD2    H1  282   1.908   1.198  10.922 -0.0743  1.0369  0.3861
   18MPD2    H2  283   1.829   1.186  11.328 -1.6964 -0.9797  0.5380
   18MPD2    H3  284   1.827   1.290  11.139  1.9314  1.1759  1.6820
   18MPD2     N  285   2.012   0.968  10.886 -0.0091 -0.1722 -0.1904
   18MPD2    H5  286   1.979   1.009  10.798  0.1151  1.0241  0.3146
   18MPD2    N1  287   1.929   0.914  11.361 -0.6001 -0.2635  0.1267
   18MPD2    H7  288   1.960   0.819  11.346  0.7375  0.0344  1.0220
   19TMC2    C1  289   4.209   1.112  13.597 -0.4408  0.3480  0.4604
   19TMC2    C2  290   4.126   1.196  13.531 -0.4409 -0.1669 -0.0080
   19TMC2    C3  291   3.997   1.205  13.563 -0.3356 -0.2216  0.5356
   19TMC2    C4  292   4.156   1.016  13.685 -0.3842 -0.0286  0.5668
   19TMC2    C5  293   4.020   1.015  13.703 -0.3927 -0.1814 -0.5920
   19TMC2    C6  294   3.936   1.118  13.652  0.1925  1.1670  0.2171
   19TMC2     C  295   4.341   1.156  13.615 -0.5801 -0.1434 -0.6821
   19TMC2     O  296   4.391   1.218  13.525 -0.3466 -0.0485  0.3563
   19TMC2     H  297   4.169   1.260  13.454 -2.2942  0.0598 -0.8768
   19TMC2    H1  298   4.221   0.941  13.730 -1.6906 -1.6866 -0.3542
   19TMC2    H2  299   3.828   1.112  13.659  0.2190  1.0895  0.5585
   19TMC2    C7  300   3.953   0.889  13.742 -0.3217  0.0750 -0.2873
   19TMC2    C8  301   3.913   1.277  13.462  0.3656 -0.3308 -0.1359
   19TMC2    O1  302   3.830   0.893  13.749  0.6110 -0.6356  0.0222
   19TMC2    O2  303   3.948   1.280  13.345 -0.2269  0.4570 -1.1013
   19TMC2    O5  304   3.832   1.361  13.528 -0.5613  0.1553  0.5624
   19TMC2    H5  305   3.833   1.353  13.626  0.5510 -3.6461  0.2347
   20MPD2     C  306   4.582   1.275  13.759 -0.8025  0.2591  0.0110
   20MPD2    C1  307   4.488   1.200  13.818 -0.5759  0.0365  0.2188
   20MPD2    C2  308   4.484   1.192  13.955  0.6276 -0.0964  0.2042
   20MPD2    C3  309   4.586   1.253  14.030  0.0283  0.2032  0.4302
   20MPD2    C4  310   4.682   1.331  13.967 -0.1319  0.5361  0.2596
   20MPD2    C5  311   4.676   1.340  13.833 -0.1655 -0.5491  0.2545
   20MPD2     H  312   4.403   1.142  14.007 -0.1285  2.5624  1.5619
   20MPD2    H1  313   0.036   1.380  14.025 -0.3559  1.8803 -0.5893
   20MPD2    H2  314   4.579   1.294  13.653  0.7902  1.0355  0.0989
   20MPD2    H3  315   0.022   1.409  13.786 -0.3425 -1.7472 -1.7681
   20MPD2     N  316   4.578   1.253  14.168 -0.1738  0.4061 -0.5707
   20MPD2    H5  317   4.630   1.325  14.218 -0.6737 -0.0060  0.5406
   20MPD2    N1  318   4.376   1.147  13.747 -0.0141  0.1526 -0.1538
   20MPD2    H7  319   4.302   1.114  13.808  0.7576  1.1907  1.3328
   21MPD2     C  320   1.368   2.202  14.697 -0.3043  0.5565 -0.4481
   21MPD2    C1  321   1.399   2.080  14.641 -0.7663 -0.0880 -0.5058
   21MPD2    C2  322   1.294   1.991  14.611 -0.3279  0.4376  0.2862
   21MPD2    C3  323   1.161   2.016  14.658 -0.1583  0.1015  0.4608
   21MPD2    C4  324   1.139   2.138  14.701  0.5163  0.2308 -0.9531
   21MPD2    C5  325   1.239   2.232  14.718 -0.1658  0.6205 -0.2903
   21MPD2     H  326   1.325   1.890  14.587 -0.7013  0.4739 -0.3250
   21MPD2    H1  327   1.038   2.159  14.733  1.2932 -2.4580  3.1986
   21MPD2    H2  328   1.442   2.281  14.704 -2.7704  3.0333 -2.2584
   21MPD2    H3  329   1.217   2.337  14.733 -5.0291 -0.5701  0.8423
   21MPD2     N  330   1.054   1.920  14.664 -0.0660 -0.3839  0.2755
   21MPD2    H5  331   0.962   1.958  14.686  1.2452  2.7683  0.3003
   21MPD2    N1  332   1.532   2.031  14.620  0.5722  0.6613  0.1886
   21MPD2    H7  333   1.539   1.931  14.603 -2.0294  0.6901 -1.0176
   22TCq2    C1  334   1.055   1.788  14.619  0.1862  0.1724  0.0504
   22TCq2    O2  335   1.148   1.719  14.573 -0.6351 -0.7365 -0.2241
   22TCq2    C2  336   0.922   1.732  14.633  0.1521 -0.1350 -0.2613
   22TCq2    C3  337   0.922   1.597  14.634  0.0164  0.2025  0.1875
   22TCq2    C4  338   0.813   1.526  14.680 -0.6161 -0.4485 -0.9105
   22TCq2    C5  339   0.699   1.583  14.713  0.1695 -0.2067 -0.4613
   22TCq2    C6  340   0.692   1.716  14.685 -0.5019  0.1296 -0.7589
   22TCq2    C7  341   0.801   1.793  14.648  0.2983 -0.1547  0.8236
   22TCq2    C8  342   0.571   1.782  14.732  0.1900 -0.4732 -0.4726
   22TCq2    O4  343   0.498   1.720  14.809 -0.2133  0.6292  0.1401
   22TCq2    C9  344   0.820   1.381  14.668 -0.2562 -0.1307  0.1925
   22TCq2    O5  345   0.931   1.325  14.682 -0.9480 -0.0328 -0.0048
   22TCq2    O6  346   0.712   1.318  14.689  0.1035 -0.5062  0.0317
   22TCq2    H2  347   1.013   1.546  14.605 -0.3655  0.5370 -1.5826
   22TCq2    H3  348   0.608   1.531  14.738 -0.5903  2.4037  2.2276
   22TCq2    H4  349   0.776   1.897  14.633 -2.9600 -1.2239 -1.1133
   23MPD2     C  350   2.752   2.738  14.228 -0.2137 -0.0446 -0.5938
   23MPD2    C1  351   2.647   2.712  14.311 -0.3552 -0.6930  0.1332
   23MPD2    C2  352   2.517   2.686  14.263 -0.5446  0.5431 -0.7182
   23MPD2    C3  353   2.495   2.728  14.126 -0.3214  0.3758 -0.5834
   23MPD2    C4  354   2.605   2.769  14.053  0.1312  0.0695  0.2371
   23MPD2    C5  355   2.731   2.776  14.103 -0.5525 -0.1615 -0.2872
   23MPD2     H  356   2.439   2.647  14.327  0.8241 -2.9421 -1.2098
   23MPD2    H1  357   2.587   2.814  13.956  2.3890 -0.0379 -0.2385
   23MPD2    H2  358   2.856   2.740  14.259  0.0503 -2.3035 -1.3389
   23MPD2    H3  359   2.815   2.828  14.059  0.7218 -0.2108  2.0866
   23MPD2     N  360   2.373   2.729  14.056 -0.2561  0.5991 -0.2031
   23MPD2    H5  361   2.381   2.768  13.963  0.6549  3.1863  0.9702
   23MPD2    N1  362   2.683   2.705  14.450 -0.0002  0.4633 -0.1663
   23MPD2    H7  363   2.609   2.681  14.515  1.1426 -0.1111  0.9302
   24TCq2    C1  364   2.254   2.681  14.100 -0.4366 -0.5981 -0.0620
   24TCq2    O2  365   2.228   2.648  14.214  0.4046 -0.1781  0.4948
   24TCq2    C2  366   2.152   2.687  13.991 -0.5987 -0.5728 -0.1593
   24TCq2    C3  367   2.168   2.746  13.866  0.3951 -0.2830 -0.3643
   24TCq2    C4  368   2.070   2.738  13.779  0.2461  0.5374  0.2859
   24TCq2    C5  369   1.958   2.665  13.805  0.2337  1.3616 -0.1346
   24TCq2    C6  370   1.948   2.597  13.924  0.1705  0.5425  0.2300
   24TCq2    C7  371   2.035   2.621  14.022 -0.5213 -0.0469 -0.8769
   24TCq2    C8  372   1.824   2.522  13.950  0.2572  0.3224  0.9215
   24TCq2    O4  373   1.846   2.430  14.036 -0.0805  0.0311 -0.1181
   24TCq2    C9  374   2.078   2.797  13.649 -0.1433  0.1397 -0.1480
   24TCq2    O5  375   1.968   2.812  13.594  0.1338 -0.6248 -0.1276
   24TCq2    O6  376   2.184   2.804  13.581  0.1965 -0.4272 -0.0928
   24TCq2    H2  377   2.236   2.827  13.843 -0.3955  0.2662 -0.7530
   24TCq2    H3  378   1.900   2.639  13.718 -0.3203 -0.9419  0.9180
   24TCq2    H4  379   2.007   2.594  14.123 -0.8653 -0.1503 -0.9994
   25TMC2    C1  380   1.965   0.377  11.018 -0.1491  0.2481  0.8998
   25TMC2    C2  381   1.932   0.507  10.997 -0.3019  0.0001  0.9154
   25TMC2    C3  382   1.869   0.583  11.090 -0.0079  0.0500 -0.5904
   25TMC2    C4  383   1.919   0.313  11.136 -0.4100 -0.4115 -0.0350
   25TMC2    C5  384   1.853   0.392  11.230  0.4626  1.3718  0.1617
   25TMC2    C6  385   1.837   0.525  11.214  0.4957 -0.0658 -0.2933
   25TMC2     C  386   2.007   0.297  10.897 -0.6698  0.0640 -0.1997
   25TMC2     O  387   2.076   0.364  10.815  0.5204  0.2809 -0.3764
   25TMC2     H  388   1.970   0.549  10.905  1.8651 -1.6794  1.0591
   25TMC2    H1  389   1.947   0.210  11.155  1.2217 -0.1588 -1.0749
   25TMC2    H2  390   1.780   0.585  11.285  0.1355 -1.1150  0.3004
   25TMC2    C7  391   1.815   0.341  11.363  0.3598 -0.2991  0.1300
   25TMC2    C8  392   1.799   0.704  11.052  0.6797  0.0482 -0.0672
   25TMC2    O1  393   1.815   0.417  11.459  0.1514  0.2933 -0.6873
   25TMC2    O2  394   1.741   0.770  11.138 -0.4454 -0.4310  0.1731
   25TMC2    O5  395   1.759   0.694  10.924 -0.1263  0.0759  0.1596
   25TMC2    H5  396   1.793   0.625  10.862 -0.0594  0.4340 -0.2038
   26MPD2     C  397   1.912   4.668  10.543 -0.0226 -0.5256 -0.2917
   26MPD2    C1  398   1.824   4.643  10.652 -0.5796 -0.3508  0.5068
   26MPD2    C2  399   1.856   4.707  10.765 -0.3963 -0.2854 -0.0935
   26MPD2    C3  400   1.939   0.097  10.762  0.0601 -0.2195  0.0895
   26MPD2    C4  401   2.018   0.126  10.649 -0.2932 -0.4680  0.4554
   26MPD2    C5  402   2.009   0.044  10.542  0.1084  0.7864  0.1248
   26MPD2     H  403   1.801   4.700  10.859 -0.5271 -3.0778 -0.3868
   26MPD2    H1  404   2.080   0.214  10.636 -0.8797 -0.1809 -0.3586
   26MPD2    H2  405   1.897   4.610  10.453  0.6751  1.9863 -2.0551
   26MPD2    H3  406   2.055   0.070  10.448  1.4769 -0.5224  0.4210
   26MPD2     N  407   1.944   0.173  10.885 -0.7790  0.3324 -0.1107
   26MPD2    H5  408   1.886   0.153  10.966 -1.8061  1.3935 -0.5793
   26MPD2    N1  409   1.735   4.533  10.642  0.2184 -0.0490  0.4687
   26MPD2    H7  410   1.731   4.494  10.548  1.4383 -0.4333  0.5769
   27TMC2    C1  411   0.028   2.683  11.789  0.0276  0.2306 -0.3189
   27TMC2    C2  412   0.036   2.684  11.652 -0.3399 -0.0557 -0.3923
   27TMC2    C3  413   0.023   2.807  11.588 -0.1943 -0.1690 -0.1300
   27TMC2    C4  414   4.713   2.789  11.865  0.1917  0.3251  0.5339
   27TMC2    C5  415   4.692   2.905  11.798  0.4080  0.3635 -0.2865
   27TMC2    C6  416   4.711   2.918  11.663 -0.3939  0.2123 -0.2373
   27TMC2     C  417   0.026   2.546  11.845 -0.9784  0.0073  0.1808
   27TMC2     O  418   0.045   2.451  11.773 -0.3205  0.2680  0.2000
   27TMC2     H  419   0.062   2.593  11.600  1.2645  0.2858 -0.1719
   27TMC2    H1  420   0.013   2.788  11.971 -0.2853 -1.5449  0.6161
   27TMC2    H2  421   4.712   3.017  11.621 -1.2471 -0.2197 -1.2790
   27TMC2    C7  422   4.654   3.027  11.872  0.0333  0.2899  0.0336
   27TMC2    C8  423   0.089   2.833  11.463  0.1946  0.2123 -0.5770
   27TMC2    O1  424   4.659   3.131  11.806  0.4254  0.0152 -0.2001
   27TMC2    O2  425   0.097   2.752  11.373 -0.1421  0.5730  0.6695
   27TMC2    O5  426   0.168   2.936  11.485 -0.2898  0.0615  0.2025
   27TMC2    H5  427   0.182   2.971  11.576  1.8772 -0.6804  0.1698
   28MPD2     C  428   4.677   2.214  12.221 -0.4468  0.7537 -0.6414
   28MPD2    C1  429   4.607   2.332  12.248 -0.0819  0.0417  0.2121
   28MPD2    C2  430   4.606   2.428  12.150 -0.2865 -0.1395 -0.4235
   28MPD2    C3  431   4.697   2.429  12.047  0.5984  1.1946 -0.1649
   28MPD2    C4  432   0.044   2.313  12.021 -0.5601 -0.7955  0.3202
   28MPD2    C5  433   0.027   2.206  12.105 -0.9323  0.7602  0.2624
   28MPD2     H  434   4.534   2.508  12.165 -0.8603 -0.7894  0.2811
   28MPD2    H1  435   0.114   2.301  11.939  0.1411  0.7644  0.6880
   28MPD2    H2  436   4.675   2.136  12.295 -0.9681  0.2926 -1.1451
   28MPD2    H3  437   0.106   2.132  12.097 -1.3882  0.4926 -1.7009
   28MPD2     N  438   4.698   2.545  11.966 -0.1873  0.3365 -0.1363
   28MPD2    H5  439   4.641   2.624  11.993  1.0632  2.2063 -2.9708
   28MPD2    N1  440   4.529   2.333  12.369 -0.5847  0.0760 -0.1455
   28MPD2    H7  441   4.520   2.247  12.423 -0.6516  0.2249  0.0826
   29MPD2     C  442   4.531   4.413  13.988 -0.0329  0.0112 -0.7792
   29MPD2    C1  443   4.500   4.420  14.124  0.9007 -0.5658 -0.0058
   29MPD2    C2  444   4.469   4.546  14.179  1.4719 -0.3990  0.1081
   29MPD2    C3  445   4.455   4.658  14.099 -0.1473 -0.3848  0.3010
   29MPD2    C4  446   4.464   4.644  13.967 -0.7326  0.2044 -0.1342
   29MPD2    C5  447   4.506   4.523  13.916  0.3287  0.7451  0.2324
   29MPD2     H  448   4.448   4.548  14.285  2.0026  0.6490  0.2003
   29MPD2    H1  449   4.442   0.004  13.900 -4.9803 -0.0254  0.9391
   29MPD2    H2  450   4.565   4.323  13.937 -2.9847 -2.2357  1.2592
   29MPD2    H3  451   4.520   4.532  13.808  0.3528  2.8599  0.4193
   29MPD2     N  452   4.437   0.068  14.152 -0.1149 -0.4440  0.5688
   29MPD2    H5  453   4.404   0.137  14.085 -1.0495 -0.3751  1.0940
   29MPD2    N1  454   4.514   4.302  14.199  0.0934  0.2233  0.4311
   29MPD2    H7  455   4.558   4.221  14.157 -0.3292 -0.8932  2.1186
   30TCq2    C1  456   4.483   0.114  14.275  0.0872 -0.0976  0.0944
   30TCq2    O2  457   4.512   0.055  14.375  0.1213 -0.4729  0.0798
   30TCq2    C2  458   4.504   0.259  14.272  0.0133 -0.6179 -0.3564
   30TCq2    C3  459   4.577   0.308  14.383  0.5227 -0.1331 -0.5260
   30TCq2    C4  460   4.646   0.427  14.376  0.5903  0.0153 -0.2651
   30TCq2    C5  461   4.636   0.505  14.265 -0.0609 -0.6199 -0.2576
   30TCq2    C6  462   4.572   0.448  14.157  1.1923 -0.0219 -0.4658
   30TCq2    C7  463   4.505   0.333  14.160 -0.7694  0.4093 -0.1814
   30TCq2    C8  464   4.577   0.524  14.036  0.1159  0.0812 -0.1898
   30TCq2    O4  465   4.472   0.519  13.974 -0.3003 -0.0857  0.3023
   30TCq2    C9  466   4.710   0.487  14.498 -0.3424 -0.0112 -0.0782
   30TCq2    O5  467   0.001   0.407  14.594  0.0130  0.4038  0.0283
   30TCq2    O6  468   0.023   0.608  14.487 -0.5989 -0.1036  0.1530
   30TCq2    H2  469   4.589   0.259  14.479  1.4050  0.6782 -0.2227
   30TCq2    H3  470   4.675   0.606  14.270  1.0699 -1.1113  0.9743
   30TCq2    H4  471   4.443   0.303  14.076  2.8055 -0.6388 -2.4592
   31MPD2     C  472   2.413   3.793  14.709 -0.7415 -0.6106  0.3842
   31MPD2    C1  473   2.329   3.901  14.742  0.3045 -0.1926 -0.0148
   31MPD2    C2  474   2.217   3.875  14.827 -0.1788  0.4042  0.7150
   31MPD2    C3  475   2.181   3.748  14.861  0.3805 -0.4617  0.0309
   31MPD2    C4  476   2.272   3.644  14.832 -0.1158  0.2311  0.0770
   31MPD2    C5  477   2.378   3.670  14.748 -0.1958 -0.3492  0.0980
   31MPD2     H  478   2.145   3.954  14.845 -0.7665  0.3473 -1.4801
   31MPD2    H1  479   2.253   3.538  14.844  0.7383 -0.0847 -1.2932
   31MPD2    H2  480   2.502   3.800  14.648 -0.8444  0.5722  0.3860
   31MPD2    H3  481   2.443   3.586  14.725  0.6885  0.5150 -0.5309
   31MPD2     N  482   2.063   3.722  14.941  0.5313 -0.2732  0.8482
   31MPD2    H5  483   2.047   3.626  14.969 -1.9510 -0.7755 -2.2448
   31MPD2    N1  484   2.353   4.034  14.696 -0.1302 -0.2276  0.0858
   31MPD2    H7  485   2.441   4.050  14.648 -0.6239 -2.2412 -1.4707
   32TCq2    C1  486   1.985   3.818  15.004  0.6570  0.0772 -0.4948
   32TCq2    O2  487   1.976   3.940  14.991  0.0547  0.6515  0.2868
   32TCq2    C2  488   1.897   3.769  15.108  0.4647 -0.2779  0.8655
   32TCq2    C3  489   1.795   3.846  15.157  0.2917 -0.7700 -0.6595
   32TCq2    C4  490   1.715   3.790  15.256  0.3201 -1.1276 -0.5616
   32TCq2    C5  491   1.740   3.667  15.311 -0.6338  0.5309  1.2028
   32TCq2    C6  492   1.848   3.603  15.269  0.1082 -0.4473 -0.0318
   32TCq2    C7  493   1.926   3.646  15.165  0.6818 -0.1622  0.8359
   32TCq2    C8  494   1.901   3.505  15.363  0.4842  0.2073  0.0992
   32TCq2    O4  495   2.003   3.445  15.337  0.0557 -0.5380 -0.2082
   32TCq2    C9  496   1.610   3.871  15.318 -0.0177 -0.4038 -0.1693
   32TCq2    O5  497   1.610   3.862  15.442 -0.6638  0.3209 -0.6033
   32TCq2    O6  498   1.578   3.985  15.272 -0.2604  0.0159 -0.0557
   32TCq2    H2  499   1.785   3.945  15.116  0.1760  0.2227  1.7384
   32TCq2    H3  500   1.671   3.649  15.393 -1.3568  0.0911  0.4947
   32TCq2    H4  501   2.024   3.604  15.145  1.5306  2.6034 -0.8661
   33MPD2     C  502   1.962   1.250  10.349 -0.1410 -0.1377 -0.5704
   33MPD2    C1  503   2.094   1.211  10.349 -0.0795  0.4715 -0.0816
   33MPD2    C2  504   2.174   1.267  10.246  0.5434  0.3218  0.3524
   33MPD2    C3  505   2.117   1.345  10.143 -0.6175 -0.7192 -0.2648
   33MPD2    C4  506   1.986   1.382  10.155  1.1730 -0.6513 -0.0996
   33MPD2    C5  507   1.910   1.335  10.258 -0.0664  0.1793 -0.9033
   33MPD2     H  508   2.282   1.263  10.239  0.5571 -0.1912  0.9107
   33MPD2    H1  509   1.940   1.449  10.083 -0.9074 -1.1712  0.7242
   33MPD2    H2  510   1.905   1.207  10.430 -1.3932  2.6320 -0.0022
   33MPD2    H3  511   1.807   1.365  10.275  0.3628  1.2353 -0.1528
   33MPD2     N  512   2.192   1.390  10.030  0.9513 -0.9554 -0.8098
   33MPD2    H5  513   2.143   1.442   9.959  0.1849  2.2919  2.0730
   33MPD2    N1  514   2.133   1.123  10.463 -0.1911  0.0701  1.1231
   33MPD2    H7  515   2.060   1.103  10.531  0.9867 -1.0691  2.0475
   34TCq2    C1  516   2.328   1.394  10.022 -1.1742  0.2554  0.4729
   34TCq2    O2  517   2.415   1.342  10.094  0.0602  0.5470 -0.3419
   34TCq2    C2  518   2.381   1.478   9.917  0.2509  0.3674  0.2091
   34TCq2    C3  519   2.323   1.478   9.798 -0.1327 -0.0946 -0.2939
   34TCq2    C4  520   2.373   1.532   9.684 -0.5383 -0.0360 -0.3858
   34TCq2    C5  521   2.493   1.592   9.696 -0.2093 -0.2045  0.6782
   34TCq2    C6  522   2.553   1.596   9.820  0.4427  0.1235  0.3966
   34TCq2    C7  523   2.502   1.531   9.929  0.3792 -0.3551 -0.1708
   34TCq2    C8  524   2.694   1.638   9.815 -0.2350  0.4478 -0.7996
   34TCq2    O4  525   2.727   1.698   9.919 -0.1316 -0.2644  0.2915
   34TCq2    C9  526   2.308   1.524   9.555 -0.6490 -0.1579 -0.2356
   34TCq2    O5  527   2.355   1.603   9.469 -0.3362  0.3259  0.3696
   34TCq2    O6  528   2.192   1.471   9.552 -0.2862  0.9976  0.4579
   34TCq2    H2  529   2.228   1.428   9.786 -0.1133  0.1455 -1.5051
   34TCq2    H3  530   2.542   1.643   9.614 -1.1653  2.0317  1.5132
   34TCq2    H4  531   2.562   1.519  10.019  0.0310  1.1932  0.2700
   35MPD2     C  532   4.257   3.049  11.989  0.9944 -0.1222  0.0628
   35MPD2    C1  533   4.126   3.005  12.032 -0.0149 -0.1739  0.0612
   35MPD2    C2  534   4.023   3.020  11.942  0.4725 -1.0091  0.2704
   35MPD2    C3  535   4.039   3.071  11.812 -0.7546  0.9009  0.1626
   35MPD2    C4  536   4.169   3.109  11.774  0.0106 -0.7092  0.4809
   35MPD2    C5  537   4.268   3.105  11.871 -0.1812  0.3346  0.0362
   35MPD2     H  538   3.922   2.987  11.965  0.1439  0.1942  0.5102
   35MPD2    H1  539   4.196   3.123  11.669  2.2450 -0.9396  1.0208
   35MPD2    H2  540   4.343   3.044  12.055  2.8024 -0.7267 -2.3344
   35MPD2    H3  541   4.362   3.140  11.829  0.1764 -1.6265 -0.7833
   35MPD2     N  542   3.938   3.060  11.720  0.0226 -0.3318  0.2178
   35MPD2    H5  543   3.854   3.022  11.762  1.5397 -2.8618  1.0168
   35MPD2    N1  544   4.101   2.948  12.153  0.1383 -0.1326 -0.2255
   35MPD2    H7  545   4.004   2.956  12.185  0.6455 -0.6076  1.4378
   36TCq2    C1  546   3.933   3.109  11.587  0.0451 -0.6810  0.6015
   36TCq2    O2  547   4.016   3.156  11.515 -0.1929  0.2161  0.1287
   36TCq2    C2  548   3.815   3.080  11.519 -0.1268  0.7890 -0.3341
   36TCq2    C3  549   3.810   3.116  11.384  0.3385  0.2625  0.1749
   36TCq2    C4  550   3.716   3.060  11.299  0.2562  0.0415  0.4831
   36TCq2    C5  551   3.628   2.972  11.345 -0.7891  0.0010  0.3119
   36TCq2    C6  552   3.636   2.936  11.481  0.7610  0.4470  0.1405
   36TCq2    C7  553   3.732   2.983  11.572 -0.7922 -0.2151  0.7819
   36TCq2    C8  554   3.544   2.851  11.550 -0.2531  0.0416  0.1909
   36TCq2    O4  555   3.519   2.875  11.663  0.0821  0.3052 -0.7309
   36TCq2    C9  556   3.715   3.084  11.157  0.4912  0.8165  0.8111
   36TCq2    O5  557   3.677   2.995  11.079 -0.0050  0.1597  0.6562
   36TCq2    O6  558   3.748   3.198  11.115  0.2689  0.5164 -0.1623
   36TCq2    H2  559   3.871   3.198  11.348  0.3518  0.0156 -0.3689
   36TCq2    H3  560   3.558   2.922  11.279 -0.8053  0.7374 -0.2270
   36TCq2    H4  561   3.728   2.966  11.679 -2.4351  0.2173  0.7935
   37TMC2    C1  562   1.249   2.759  11.471  0.5321  0.0685  0.6538
   37TMC2    C2  563   1.282   2.790  11.343 -0.1035 -0.1266 -0.2400
   37TMC2    C3  564   1.412   2.836  11.314  0.6230  0.2959 -0.3566
   37TMC2    C4  565   1.338   2.780  11.568  0.0014 -0.3950 -0.0421
   37TMC2    C5  566   1.458   2.848  11.536  0.2798 -0.2630 -0.1345
   37TMC2    C6  567   1.504   2.873  11.411  0.4807  0.2631  0.0459
   37TMC2     C  568   1.108   2.706  11.490 -0.4254 -0.1053  0.1300
   37TMC2     O  569   1.024   2.726  11.398  0.0161 -0.5982 -0.0112
   37TMC2     H  570   1.209   2.776  11.264 -0.6455  0.9784  0.0716
   37TMC2    H1  571   1.308   2.782  11.672 -0.8013 -2.1406 -0.2361
   37TMC2    H2  572   1.590   2.936  11.389  0.1723  1.0128  1.0007
   37TMC2    C7  573   1.525   2.924  11.642 -0.1112 -0.7958 -0.0847
   37TMC2    C8  574   1.445   2.838  11.175  1.1888  0.2614 -0.1409
   37TMC2    O1  575   1.467   2.908  11.748 -0.0841  0.5694 -0.3996
   37TMC2    O2  576   1.366   2.796  11.094 -0.2783  0.1192 -0.2308
   37TMC2    O5  577   1.579   2.867  11.155  0.0729 -0.2856  0.0154
   37TMC2    H5  578   1.627   2.894  11.237  1.1813 -0.1253 -0.6901
   38MPD2     C  579   0.749   2.593  11.856  0.3960 -0.7241 -0.7409
   38MPD2    C1  580   0.872   2.587  11.913 -0.0531 -1.0812  0.6374
   38MPD2    C2  581   0.984   2.596  11.831 -0.1501  0.2106  0.3674
   38MPD2    C3  582   0.976   2.636  11.700 -0.1364  0.2220 -0.0719
   38MPD2    C4  583   0.848   2.660  11.651 -0.3793 -0.4669  0.8823
   38MPD2    C5  584   0.737   2.628  11.725  0.0844  0.3162  0.2055
   38MPD2     H  585   1.081   2.578  11.876  1.3380  0.8461 -2.5925
   38MPD2    H1  586   0.828   2.689  11.548 -0.7844  1.5768  1.5535
   38MPD2    H2  587   0.662   2.579  11.919  1.0237  1.9049  0.7197
   38MPD2    H3  588   0.641   2.629  11.674 -0.6945  0.6808  1.6598
   38MPD2     N  589   1.090   2.658  11.619 -0.0487 -0.1548  0.1343
   38MPD2    H5  590   1.174   2.633  11.671  0.1405 -0.0052 -0.1014
   38MPD2    N1  591   0.900   2.534  12.036  0.0682  0.3222 -0.2799
   38MPD2    H7  592   0.996   2.540  12.071  0.4345 -0.1548 -1.1972
   39MPD2     C  593   4.337   4.457   1.962  0.1476  0.3552  0.0628
   39MPD2    C1  594   4.293   4.584   1.984 -0.5384  0.1904 -0.4670
   39MPD2    C2  595   4.163   4.609   1.945 -0.4534 -0.7511 -0.0255
   39MPD2    C3  596   4.077   4.514   1.882 -0.4735 -0.1677  0.7965
   39MPD2    C4  597   4.126   4.385   1.874 -0.4710  1.0284  0.5576
   39MPD2    C5  598   4.253   4.358   1.922 -0.7947 -0.7580 -1.1614
   39MPD2     H  599   4.131   4.711   1.961 -1.8421 -1.5662  2.4231
   39MPD2    H1  600   4.064   4.303   1.838 -0.2194  0.9604  0.2803
   39MPD2    H2  601   4.436   4.430   1.996  0.3248  0.6216 -0.2381
   39MPD2    H3  602   4.289   4.256   1.918 -2.3230 -1.3105 -0.6731
   39MPD2     N  603   3.949   4.534   1.846 -0.1300 -0.4737 -0.4612
   39MPD2    H5  604   3.914   4.450   1.802 -2.5343  0.8778 -1.1118
   39MPD2    N1  605   4.387   4.671   2.045 -0.7405  0.4950 -0.2285
   39MPD2    H7  606   4.478   4.632   2.067 -1.6250  0.1041  2.6682
   40TCq2    C1  607   4.358   0.080   2.074 -0.4232 -1.0515  0.7188
   40TCq2    O2  608   4.251   0.139   2.087 -0.3743 -0.4216  0.0236
   40TCq2    C2  609   4.477   0.159   2.103  0.4362  0.0820  0.4920
   40TCq2    C3  610   4.473   0.242   2.218  0.1080 -0.0144  0.1655
   40TCq2    C4  611   4.591   0.298   2.255 -0.8222 -0.0266 -0.1438
   40TCq2    C5  612   4.697   0.293   2.177 -0.3899  0.5122 -0.2161
   40TCq2    C6  613   4.694   0.216   2.063 -0.7090 -0.4426 -0.3225
   40TCq2    C7  614   4.584   0.142   2.031  1.0530 -0.4256 -0.1489
   40TCq2    C8  615   0.093   0.179   1.991  0.1260 -0.1985 -0.1467
   40TCq2    O4  616   0.097   0.069   1.941  0.3432 -0.6813  0.3847
   40TCq2    C9  617   4.599   0.378   2.382 -0.4506 -0.4779 -0.3210
   40TCq2    O5  618   4.706   0.434   2.405 -0.1058  0.1769  0.7177
   40TCq2    O6  619   4.498   0.388   2.450  0.3873  0.1657  0.2875
   40TCq2    H2  620   4.383   0.255   2.276 -0.0933  0.1941 -0.1921
   40TCq2    H3  621   0.062   0.340   2.219 -0.5372  0.0916  0.5673
   40TCq2    H4  622   4.582   0.082   1.941 -2.4883  1.4087 -1.3195
   41TMC2    C1  623   3.008   2.585  13.471 -0.3323  0.6265  0.2592
   41TMC2    C2  624   3.118   2.661  13.488 -0.2948  0.4386  0.0010
   41TMC2    C3  625   3.120   2.794  13.430 -0.6989 -0.2111  0.5653
   41TMC2    C4  626   2.898   2.627  13.395 -0.1115 -0.2949 -0.0533
   41TMC2    C5  627   2.900   2.755  13.341 -0.6879 -0.1688 -0.0748
   41TMC2    C6  628   3.014   2.839  13.346 -0.2352 -0.1787 -0.3028
   41TMC2     C  629   2.990   2.479  13.559 -0.8679  1.0015  0.8466
   41TMC2     O  630   2.911   2.390  13.528  0.1518 -0.1430 -0.0852
   41TMC2     H  631   3.200   2.618  13.544  0.8383 -0.5332 -2.3952
   41TMC2    H1  632   2.803   2.574  13.398  0.5609 -1.4860  0.2802
   41TMC2    H2  633   3.015   2.943  13.318  1.0241 -0.5941 -1.8050
   41TMC2    C7  634   2.793   2.770  13.246 -0.8032  0.3164 -0.1161
   41TMC2    C8  635   3.231   2.885  13.458 -0.3024  0.9050 -0.2472
   41TMC2    O1  636   2.692   2.701  13.256  0.2242 -0.1732  0.1719
   41TMC2    O2  637   3.320   2.872  13.544  0.3515 -0.0262 -0.0257
   41TMC2    O5  638   3.254   2.946  13.338  0.1894 -0.2460 -0.6706
   41TMC2    H5  639   3.188   2.939  13.266 -0.2681 -2.5329 -0.0235
   42MPD2     C  640   2.998   2.303  13.788  0.0073  0.0295  0.1847
   42MPD2    C1  641   3.029   2.439  13.799 -0.3216 -0.2510 -0.1265
   42MPD2    C2  642   3.075   2.491  13.920 -0.8912  0.2139  0.2403
   42MPD2    C3  643   3.090   2.408  14.031  0.4804 -0.5512 -0.0329
   42MPD2    C4  644   3.054   2.269  14.019  0.0320 -0.2747 -0.8264
   42MPD2    C5  645   3.004   2.224  13.899 -0.1918  0.1493 -0.3242
   42MPD2     H  646   3.115   2.592  13.929  1.4005 -0.4418 -2.7418
   42MPD2    H1  647   3.086   2.202  14.098  2.6687  0.5670 -1.2089
   42MPD2    H2  648   2.973   2.261  13.692  0.7926 -0.8093  0.3379
   42MPD2    H3  649   2.983   2.118  13.899  4.7111 -0.8167  1.4752
   42MPD2     N  650   3.149   2.456  14.151  0.3180 -0.1393  1.0805
   42MPD2    H5  651   3.170   2.379  14.214  2.4376  1.0184  1.7927
   42MPD2    N1  652   3.047   2.511  13.676 -0.1289  0.0098  0.2026
   42MPD2    H7  653   3.080   2.607  13.680  1.1766 -0.4573  0.5757
   43MPD2     C  654   0.315   1.205   0.589 -0.6036 -0.2077 -0.1528
   43MPD2    C1  655   0.352   1.127   0.703 -0.5485  0.8846  0.7818
   43MPD2    C2  656   0.277   1.138   0.821 -0.7077 -0.6530  0.3670
   43MPD2    C3  657   0.179   1.241   0.835  0.5400  1.0218 -0.0237
   43MPD2    C4  658   0.145   1.314   0.722  0.1489  0.4056  0.2972
   43MPD2    C5  659   0.215   1.300   0.605  0.4736 -0.3007  0.1585
   43MPD2     H  660   0.301   1.083   0.912  0.2640  0.1762  0.6118
   43MPD2    H1  661   0.061   1.382   0.733  0.5558  0.8394  0.7269
   43MPD2    H2  662   0.362   1.195   0.492  0.0391  0.4325  0.0870
   43MPD2    H3  663   0.178   1.362   0.524  1.0542  1.3802  1.1853
   43MPD2     N  664   0.115   1.274   0.960 -0.6942 -0.0182 -0.2203
   43MPD2    H5  665   0.025   1.319   0.966  0.5552  2.3093  1.0525
   43MPD2    N1  666   0.452   1.026   0.701 -0.3713  0.1811  0.4081
   43MPD2    H7  667   0.456   0.953   0.771 -0.7063 -0.4401 -0.2082
   44TCq2    C1  668   0.114   1.188   1.544  0.5722  0.3171  0.6580
   44TCq2    O2  669   0.232   1.152   1.547 -0.3412  0.2648  0.2447
   44TCq2    C2  670   0.052   1.228   1.421 -0.3653  0.5783 -0.4747
   44TCq2    C3  671   4.648   1.278   1.417 -0.1142 -0.1809  0.1596
   44TCq2    C4  672   4.592   1.319   1.299  0.5231  0.2242 -0.1592
   44TCq2    C5  673   4.666   1.300   1.183 -0.8484  0.7287  0.2209
   44TCq2    C6  674   0.069   1.251   1.193  0.5873  0.9185 -0.1565
   44TCq2    C7  675   0.123   1.216   1.311 -0.4036  0.6148  0.2928
   44TCq2    C8  676   0.160   1.232   1.079 -0.7745 -0.0272  0.1441
   44TCq2    O4  677   0.276   1.193   1.108  1.0289  0.1179  0.1050
   44TCq2    C9  678   4.465   1.380   1.293 -0.2646 -0.2959  0.5550
   44TCq2    O5  679   4.433   1.426   1.186 -0.5430  0.3946  0.0176
   44TCq2    O6  680   4.392   1.368   1.394  1.0839  0.1765 -0.4183
   44TCq2    H2  681   4.588   1.287   1.506 -1.3430  2.0509 -0.8929
   44TCq2    H3  682   4.617   1.315   1.087 -0.0099 -2.1179 -0.6535
   44TCq2    H4  683   0.230   1.199   1.321 -0.3094  1.5819  0.8731
   45TMC2    C1  684   1.111   2.628   9.317 -0.7284  0.1783  0.1760
   45TMC2    C2  685   1.175   2.508   9.353  0.0411 -0.1292  0.2112
   45TMC2    C3  686   1.302   2.525   9.404  0.7374  0.5199  0.2805
   45TMC2    C4  687   1.167   2.754   9.323  0.3670  0.2400 -0.6072
   45TMC2    C5  688   1.291   2.755   9.373 -0.1689  0.2948 -0.2107
   45TMC2    C6  689   1.363   2.646   9.406  0.2926  0.2805 -0.3268
   45TMC2     C  690   0.984   2.623   9.237 -0.8246 -0.1322 -0.2316
   45TMC2     O  691   0.930   2.728   9.203 -0.1895 -0.2351  0.2280
   45TMC2     H  692   1.121   2.415   9.366 -0.5236  0.1605 -0.0736
   45TMC2    H1  693   1.118   2.844   9.288 -0.9700 -0.4663 -0.5738
   45TMC2    H2  694   1.464   2.655   9.445  0.6197  0.5384 -1.2392
   45TMC2    C7  695   1.357   2.881   9.387  0.0169 -0.3872 -0.0931
   45TMC2    C8  696   1.360   2.422   9.486  0.3557  0.9946  0.5960
   45TMC2    O1  697   1.476   2.888   9.352 -0.2927  0.0997 -0.4559
   45TMC2    O2  698   1.404   2.319   9.439  0.1872 -0.0467 -0.3564
   45TMC2    O5  699   1.303   2.434   9.609  0.2050 -0.3332  0.6156
   45TMC2    H5  700   1.255   2.518   9.623  0.4049  0.0750 -1.2120
   46MPD2     C  701   0.842   2.345   9.042  0.0916  0.2775 -0.5816
   46MPD2    C1  702   0.842   2.465   9.104 -0.2040 -0.0061  0.1310
   46MPD2    C2  703   0.737   2.554   9.080 -0.3850  0.3140  0.7650
   46MPD2    C3  704   0.632   2.513   9.005 -0.8220  0.7613 -0.1451
   46MPD2    C4  705   0.632   2.392   8.941 -0.2372 -0.0737  0.3972
   46MPD2    C5  706   0.740   2.313   8.956 -0.5263  1.1866 -1.0153
   46MPD2     H  707   0.729   2.653   9.126 -1.3114  0.2335  0.7738
   46MPD2    H1  708   0.544   2.357   8.888  0.1996 -0.1647 -0.2695
   46MPD2    H2  709   0.924   2.275   9.052  0.1232  0.2500 -1.0341
   46MPD2    H3  710   0.758   2.220   8.903  1.5406  0.7939  0.3523
   46MPD2     N  711   0.520   2.601   8.994 -0.3989 -0.0391 -0.5363
   46MPD2    H5  712   0.538   2.697   9.023 -0.7794  0.4145 -1.7807
   46MPD2    N1  713   0.950   2.496   9.195  0.5622 -0.0469  0.3041
   46MPD2    H7  714   1.022   2.425   9.206 -0.3361 -0.7644  1.5008
   47TMC2    C1  715   2.354   3.232   9.192  0.5677  0.0129  0.3390
   47TMC2    C2  716   2.378   3.101   9.169  0.3751  0.5064  0.0560
   47TMC2    C3  717   2.274   3.010   9.148  0.1738  0.9684  0.3862
   47TMC2    C4  718   2.224   3.277   9.187 -0.9631  0.1375  0.2688
   47TMC2    C5  719   2.122   3.187   9.165 -0.7755  0.0139  0.2078
   47TMC2    C6  720   2.146   3.054   9.137  0.2047 -0.0057 -0.0115
   47TMC2     C  721   2.450   3.339   9.184  0.2505  0.1577  0.8754
   47TMC2     O  722   2.413   3.442   9.128 -0.1104  0.1616 -0.3142
   47TMC2     H  723   2.474   3.054   9.184  0.1790  0.9170  2.5821
   47TMC2    H1  724   2.208   3.381   9.215 -0.2562 -0.3823  2.6346
   47TMC2    H2  725   2.072   2.982   9.105 -0.1824 -0.2436  1.3823
   47TMC2    C7  726   1.993   3.235   9.133  0.3859 -0.1527 -0.2372
   47TMC2    C8  727   2.299   2.869   9.165 -0.0254  0.5238  0.1753
   47TMC2    O1  728   1.916   3.144   9.104  0.1271  0.0379 -0.1497
   47TMC2    O2  729   2.217   2.781   9.202 -0.1863 -0.3223  0.5966
   47TMC2    O5  730   2.429   2.847   9.146  0.1650 -0.0753  0.3967
   47TMC2    H5  731   2.460   2.921   9.089 -0.8970  0.0283 -0.0495
   48MPD2     C  732   2.701   3.499   9.194 -0.3026 -0.5461 -0.7933
   48MPD2    C1  733   2.688   3.366   9.233  0.4194 -0.4633  0.5729
   48MPD2    C2  734   2.802   3.300   9.265  0.0159 -0.0883  0.0666
   48MPD2    C3  735   2.928   3.355   9.279  0.9090  1.0571 -0.0592
   48MPD2    C4  736   2.938   3.486   9.228  0.4133  0.4920  1.0480
   48MPD2    C5  737   2.826   3.550   9.179 -0.1144 -0.0629 -0.3206
   48MPD2     H  738   2.790   3.194   9.282 -0.3710  0.0347  0.5627
   48MPD2    H1  739   3.031   3.539   9.215  0.9956 -0.7062  0.3699
   48MPD2    H2  740   2.612   3.554   9.167 -0.8264 -1.3831 -0.7790
   48MPD2    H3  741   2.841   3.648   9.135 -1.8764  0.4931  0.3347
   48MPD2     N  742   3.026   3.275   9.328  0.0070  0.1335 -0.3743
   48MPD2    H5  743   3.008   3.176   9.339 -1.5121  0.1890 -2.3858
   48MPD2    N1  744   2.571   3.291   9.226  0.0263 -0.0980 -0.8854
   48MPD2    H7  745   2.573   3.201   9.273  0.9947  1.3117  1.8342
   49MPD2     C  746   0.757   4.278   9.618 -0.2780  0.2821 -0.6371
   49MPD2    C1  747   0.789   4.308   9.754 -0.6038  0.1002 -0.3296
   49MPD2    C2  748   0.866   4.418   9.784  0.1819 -0.0336  0.0864
   49MPD2    C3  749   0.908   4.502   9.687  0.0842 -0.7358  0.0744
   49MPD2    C4  750   0.878   4.474   9.554  0.5553  0.4547 -0.0617
   49MPD2    C5  751   0.802   4.364   9.523 -0.1567 -0.0028 -0.4464
   49MPD2     H  752   0.902   4.427   9.886  0.4495 -4.2374  0.3328
   49MPD2    H1  753   0.905   4.543   9.475  0.4902 -1.0797 -1.4407
   49MPD2    H2  754   0.699   4.192   9.586 -1.5310  0.7892  0.3014
   49MPD2    H3  755   0.779   4.341   9.420 -0.8194  0.1565 -0.3390
   49MPD2     N  756   0.981   4.625   9.706  0.4572  0.4180 -0.3463
   49MPD2    H5  757   1.024   4.655   9.619 -2.1122  1.7363 -1.1626
   49MPD2    N1  758   0.748   4.222   9.858 -0.3868  0.1743  0.0837
   49MPD2    H7  759   0.776   4.251   9.951  1.4031  0.1681 -0.4525
   50TCq2    C1  760   0.665   4.113   9.846  0.2734  0.0821  0.6590
   50TCq2    O2  761   0.603   4.062   9.751 -0.5013  0.1854 -0.2889
   50TCq2    C2  762   0.663   4.023   9.963 -0.1706  0.1550 -0.2454
   50TCq2    C3  763   0.573   3.921   9.963 -0.1177 -0.3674  0.5108
   50TCq2    C4  764   0.557   3.834  10.071  0.3366  0.4984  0.2122
   50TCq2    C5  765   0.635   3.855  10.180  0.3019  0.1901 -0.1259
   50TCq2    C6  766   0.721   3.960  10.180 -0.0793  0.1358 -0.3467
   50TCq2    C7  767   0.746   4.045  10.073 -1.1968 -0.2273  0.1362
   50TCq2    C8  768   0.810   3.982  10.299 -0.1724  0.7621 -0.1315
   50TCq2    O4  769   0.900   4.058  10.282 -0.5119 -0.3058 -0.3487
   50TCq2    C9  770   0.450   3.733  10.067  0.4067 -0.0997  0.3674
   50TCq2    O5  771   0.425   3.673  10.174  0.4911  0.3391  0.4975
   50TCq2    O6  772   0.384   3.730   9.958 -0.2385  0.0091  0.0833
   50TCq2    H2  773   0.518   3.893   9.875  2.3436 -0.3844 -1.0066
   50TCq2    H3  774   0.611   3.788  10.261  0.6566 -0.3060 -0.4322
   50TCq2    H4  775   0.816   4.126  10.088  0.5667 -2.4407  3.8874
   51MPD2     C  776   2.260   4.284   1.417 -0.4454  0.1774  0.1706
   51MPD2    C1  777   2.205   4.181   1.346 -0.3093 -0.2104  0.5259
   51MPD2    C2  778   2.078   4.201   1.291 -0.6518  0.3702 -0.2526
   51MPD2    C3  779   2.010   4.322   1.290 -0.1766  0.0816  0.6367
   51MPD2    C4  780   2.074   4.425   1.361  0.0229  0.2051  0.8265
   51MPD2    C5  781   2.193   4.401   1.433 -0.3266 -0.0670 -0.4257
   51MPD2     H  782   2.034   4.110   1.250 -1.2011  1.8978 -3.0677
   51MPD2    H1  783   2.024   4.520   1.375 -0.8520 -0.1732  0.2703
   51MPD2    H2  784   2.344   4.271   1.484  1.1245 -0.9062 -1.9641
   51MPD2    H3  785   2.242   4.482   1.486  1.7674 -2.5191  1.4284
   51MPD2     N  786   1.888   4.355   1.232 -0.2640  0.3816 -0.0787
   51MPD2    H5  787   1.863   4.454   1.241  3.3678  1.4537 -2.0800
   51MPD2    N1  788   2.255   4.054   1.340 -0.5139  0.3459 -0.4808
   51MPD2    H7  789   2.206   3.986   1.282  1.6200 -1.4132 -0.2237
   52TCq2    C1  790   1.812   4.272   1.164 -0.5757  1.1278 -1.1569
   52TCq2    O2  791   1.829   4.151   1.147 -0.5994  0.3631  0.4079
   52TCq2    C2  792   1.714   4.339   1.082 -0.2367 -0.4856 -0.0441
   52TCq2    C3  793   1.658   4.280   0.972  0.0452  0.0378 -0.6513
   52TCq2    C4  794   1.570   4.347   0.899  0.3055  0.5700 -0.3488
   52TCq2    C5  795   1.534   4.476   0.920  0.4531  0.2067  0.0291
   52TCq2    C6  796   1.593   4.531   1.030 -0.1290  0.7383 -0.1101
   52TCq2    C7  797   1.676   4.463   1.120  0.3350  0.3151 -0.0557
   52TCq2    C8  798   1.597   4.680   1.030 -0.5576  0.1558 -0.6855
   52TCq2    O4  799   1.642   0.010   1.132 -0.4990 -0.0480  0.3374
   52TCq2    C9  800   1.508   4.281   0.785  0.1253  0.5990 -0.4150
   52TCq2    O5  801   1.432   4.352   0.709  0.1073  0.2154 -0.7933
   52TCq2    O6  802   1.516   4.159   0.769 -0.4927  0.1089  0.7602
   52TCq2    H2  803   1.681   4.178   0.944 -0.2812 -0.4739  0.9861
   52TCq2    H3  804   1.466   4.527   0.853  0.0258 -1.6038 -0.9071
   52TCq2    H4  805   1.677   4.496   1.223 -1.7699  0.5740 -0.1214
   53TMC2    C1  806   1.596   3.265  12.272  0.3592  0.3006 -0.2727
   53TMC2    C2  807   1.637   3.327  12.385  0.7447 -0.0932  0.5988
   53TMC2    C3  808   1.606   3.279  12.506 -0.0535 -0.5329 -0.1084
   53TMC2    C4  809   1.531   3.144  12.279 -0.2910  0.0331 -0.2321
   53TMC2    C5  810   1.504   3.091  12.403  0.0327  0.3978 -0.4245
   53TMC2    C6  811   1.537   3.162  12.509  0.4420  0.1824 -0.5268
   53TMC2     C  812   1.663   3.300  12.147  0.7721  0.9304 -0.7850
   53TMC2     O  813   1.747   3.390  12.141 -0.4306 -0.1562  0.1561
   53TMC2     H  814   1.714   3.403  12.385 -0.0145  0.6842 -0.8720
   53TMC2    H1  815   1.485   3.101  12.191  0.9176 -1.9268  0.1089
   53TMC2    H2  816   1.516   3.115  12.604  0.8279  0.7648 -0.1488
   53TMC2    C7  817   1.373   3.037  12.409  0.6385 -0.2320  0.1182
   53TMC2    C8  818   1.699   3.321  12.607 -0.4917 -0.1045 -0.5571
   53TMC2    O1  819   1.301   3.045  12.312  0.0328 -0.1085 -0.4548
   53TMC2    O2  820   1.742   3.434  12.615 -0.0511 -0.3727  0.4978
   53TMC2    O5  821   1.733   3.212  12.678  0.4060  0.2381 -0.3969
   53TMC2    H5  822   1.708   3.119  12.661  0.5325  0.1310 -0.0092
   54MPD2     C  823   1.827   3.223  11.906 -0.8366  0.8490  0.0762
   54MPD2    C1  824   1.691   3.201  11.918 -0.0034  0.7680  0.1955
   54MPD2    C2  825   1.628   3.134  11.819  0.0053 -0.3451 -0.4552
   54MPD2    C3  826   1.685   3.096  11.704 -0.4021  0.4830 -0.6509
   54MPD2    C4  827   1.816   3.125  11.681 -0.3205 -0.2479  0.0872
   54MPD2    C5  828   1.885   3.180  11.787  0.1765 -0.0568 -0.7793
   54MPD2     H  829   1.522   3.115  11.832  0.3259 -0.2540  2.4384
   54MPD2    H1  830   1.864   3.089  11.591  0.4233 -0.8380  0.7289
   54MPD2    H2  831   1.890   3.262  11.984  2.5756  0.0594 -2.3077
   54MPD2    H3  832   1.991   3.198  11.775  0.4017 -0.6509  0.2990
   54MPD2     N  833   1.628   3.005  11.611 -0.1284 -0.4278 -0.0582
   54MPD2    H5  834   1.674   3.001  11.521 -1.3233 -2.1349 -0.6091
   54MPD2    N1  835   1.618   3.228  12.042 -0.0219 -0.1481 -0.2572
   54MPD2    H7  836   1.534   3.173  12.062 -0.6880  0.6192 -0.9696
   55MPD2     C  837   3.168   0.339   0.425  0.0654 -0.0649 -0.4405
   55MPD2    C1  838   3.086   0.246   0.490  0.2324 -0.3924 -0.0379
   55MPD2    C2  839   2.955   0.280   0.529 -1.1346  0.8226  0.0032
   55MPD2    C3  840   2.910   0.411   0.510  0.0653 -1.0002  0.5618
   55MPD2    C4  841   2.998   0.503   0.450 -0.2793 -0.0369 -0.4534
   55MPD2    C5  842   3.123   0.462   0.410  0.0475  0.1390 -0.0414
   55MPD2     H  843   2.891   0.202   0.567  1.5089 -0.3405  2.0613
   55MPD2    H1  844   2.978   0.610   0.444  0.4823  0.0396 -1.5073
   55MPD2    H2  845   3.269   0.310   0.397  0.8890  1.4657  0.9411
   55MPD2    H3  846   3.186   0.536   0.361  1.2910 -0.6558  0.3660
   55MPD2     N  847   2.776   0.437   0.541 -0.5490  0.2553 -0.5093
   55MPD2    H5  848   2.720   0.362   0.581  1.1690 -1.4437 -1.2545
   55MPD2    N1  849   3.142   0.115   0.505  0.9144 -0.5487 -0.1463
   55MPD2    H7  850   3.231   0.093   0.464  1.1688 -0.3381  0.2907
   56TCq2    C1  851   3.090   0.022   0.590  0.0945  0.1516  1.3557
   56TCq2    O2  852   3.002   0.029   0.671  0.3488  0.0978  0.2187
   56TCq2    C2  853   3.159   4.618   0.592  0.2241  0.5913 -1.2958
   56TCq2    C3  854   3.183   4.573   0.466  0.6073 -0.0377  0.3614
   56TCq2    C4  855   3.153   4.445   0.422 -0.3490  0.4223  0.0369
   56TCq2    C5  856   3.120   4.356   0.516  0.1614  0.6330 -0.3306
   56TCq2    C6  857   3.086   4.404   0.633 -0.7148  0.6989 -0.8170
   56TCq2    C7  858   3.112   4.530   0.688 -0.4244  0.8718  0.2307
   56TCq2    C8  859   3.020   4.314   0.719  0.1151 -0.0066  0.2143
   56TCq2    O4  860   3.037   4.196   0.692 -0.2293  0.1148  0.2886
   56TCq2    C9  861   3.183   4.409   0.284 -0.2851 -0.0304  0.4529
   56TCq2    O5  862   3.265   4.484   0.227  0.4929 -0.0948 -0.1224
   56TCq2    O6  863   3.120   4.316   0.228  0.1182  0.6493  0.2900
   56TCq2    H2  864   3.207   4.641   0.384  0.5746 -0.1639  0.2482
   56TCq2    H3  865   3.103   4.255   0.483  1.1558 -0.0673  1.2917
   56TCq2    H4  866   3.091   4.562   0.790  3.5937 -0.5723  1.5018
   57TMC2    C1  867   1.756   2.058  13.353 -0.0460 -0.1028  0.0183
   57TMC2    C2  868   1.837   2.026  13.458  0.3313 -0.0025 -0.4479
   57TMC2    C3  869   1.965   2.001  13.419  0.0903  0.4970  0.1911
   57TMC2    C4  870   1.800   2.076  13.224 -0.0686  0.5341  0.3739
   57TMC2    C5  871   1.932   2.064  13.192  0.3153  0.1521 -0.3259
   57TMC2    C6  872   2.012   2.016  13.296  0.6086 -0.1826  0.1559
   57TMC2     C  873   1.607   2.066  13.379  0.2590  0.2140  0.1853
   57TMC2     O  874   1.535   2.092  13.287  0.7005  0.0047  0.5415
   57TMC2     H  875   1.804   2.047  13.559  1.1866 -0.4380 -0.0821
   57TMC2    H1  876   1.727   2.103  13.148  1.9665  0.8844 -1.4545
   57TMC2    H2  877   2.120   2.012  13.284  0.5736 -2.4169  0.5161
   57TMC2    C7  878   1.949   2.005  13.057  0.2741 -0.1381  0.0549
   57TMC2    C8  879   2.069   1.979  13.524  0.2967 -0.0884  0.2888
   57TMC2    O1  880   1.876   2.056  12.969  0.4039 -0.6571 -0.0563
   57TMC2    O2  881   2.190   1.988  13.503  0.0086 -0.4969  0.7937
   57TMC2    O5  882   2.021   1.907  13.630 -0.3831 -0.4823 -0.4612
   57TMC2    H5  883   1.927   1.878  13.629 -0.4374 -0.1888 -2.2442
   58MPD2     C  884   1.220   2.127  13.723  1.1247 -0.4961  0.1102
   58MPD2    C1  885   1.239   2.185  13.595 -0.4178  0.2055  0.1408
   58MPD2    C2  886   1.347   2.150  13.519 -0.2078  0.4106 -0.2042
   58MPD2    C3  887   1.453   2.072  13.572  0.2112  0.2001 -0.2324
   58MPD2    C4  888   1.442   2.024  13.703 -0.0330  0.4747 -0.0229
   58MPD2    C5  889   1.327   2.051  13.775 -0.1959  0.7163  0.0934
   58MPD2     H  890   1.358   2.201  13.424 -1.0824  1.4632  0.2614
   58MPD2    H1  891   1.518   1.959  13.746 -2.3792 -1.4316  1.2257
   58MPD2    H2  892   1.134   2.148  13.786  1.1809 -0.9384  0.3297
   58MPD2    H3  893   1.317   2.018  13.877 -0.8282 -0.7231 -0.4266
   58MPD2     N  894   1.575   2.042  13.505  0.6979  0.6234 -0.0631
   58MPD2    H5  895   1.639   1.989  13.562  0.1807 -0.2356 -0.2721
   58MPD2    N1  896   1.140   2.273  13.538  0.1805  0.2043  0.0791
   58MPD2    H7  897   1.168   2.319  13.453 -2.0467 -1.5820 -1.6189
   59MPD2     C  898   4.390   1.727  13.052 -0.3020 -0.2582 -0.1441
   59MPD2    C1  899   4.454   1.789  12.949 -0.8646  0.3723 -0.1373
   59MPD2    C2  900   4.547   1.892  12.960  0.3741  0.0543  0.2615
   59MPD2    C3  901   4.582   1.925  13.097  0.2834  0.0786  0.0521
   59MPD2    C4  902   4.518   1.862  13.200 -0.5603 -0.1973 -0.3721
   59MPD2    C5  903   4.418   1.774  13.182 -0.4690  0.4056  0.1605
   59MPD2     H  904   4.569   1.953  12.873  0.4951 -0.5805 -0.1529
   59MPD2    H1  905   4.553   1.892  13.298 -2.5370  0.8358  0.0253
   59MPD2    H2  906   4.314   1.652  13.036 -2.2569  1.0653  2.7699
   59MPD2    H3  907   4.361   1.727  13.262 -1.1361  1.0396  0.0559
   59MPD2     N  908   4.670   2.030  13.136  0.5099 -0.5583 -0.2636
   59MPD2    H5  909   4.651   2.072  13.226 -0.3051 -0.1018 -0.6497
   59MPD2    N1  910   4.435   1.751  12.812 -0.0425 -0.0050  0.3207
   59MPD2    H7  911   4.492   1.796  12.742  0.6154  0.9268  1.4657
   60TCq2    C1  912   4.337   1.674  12.771 -0.1966 -0.9013 -0.5953
   60TCq2    O2  913   4.249   1.619  12.838  0.0913  0.2315  0.8608
   60TCq2    C2  914   4.335   1.648  12.622 -0.0160  0.1284  0.7198
   60TCq2    C3  915   4.278   1.530  12.581 -0.5572  0.2040  0.3195
   60TCq2    C4  916   4.262   1.512  12.444 -0.5506 -0.0467  1.0515
   60TCq2    C5  917   4.306   1.604  12.351  0.2215  0.4592  0.3120
   60TCq2    C6  918   4.367   1.714  12.402 -0.3059 -0.8516  0.6170
   60TCq2    C7  919   4.380   1.739  12.538  0.6681  0.2409  0.2156
   60TCq2    C8  920   4.409   1.807  12.298  0.1221 -0.0613 -0.2009
   60TCq2    O4  921   4.449   1.761  12.192  0.4724 -0.2646 -0.0008
   60TCq2    C9  922   4.187   1.407  12.390  0.6396 -0.1260 -0.6271
   60TCq2    O5  923   4.128   1.326  12.463 -0.1369  0.2120  0.1751
   60TCq2    O6  924   4.201   1.378  12.266 -0.5690 -0.5113  0.6578
   60TCq2    H2  925   4.241   1.456  12.651 -1.5688  0.8144  0.4468
   60TCq2    H3  926   4.296   1.595  12.243  1.7907  1.9471  0.0502
   60TCq2    H4  927   4.431   1.832  12.561 -1.4464  1.4751 -0.0194
   61MPD2     C  928   3.425   2.909  14.306  0.7065  0.4433 -0.0873
   61MPD2    C1  929   3.487   3.028  14.357  0.0639 -0.1774 -0.3366
   61MPD2    C2  930   3.467   3.139  14.283  0.6125 -0.0242  1.1197
   61MPD2    C3  931   3.397   3.141  14.162 -0.1168  0.0874  0.3229
   61MPD2    C4  932   3.340   3.033  14.117  0.1170  0.1510  0.0692
   61MPD2    C5  933   3.359   2.918  14.185  0.2914  0.3988 -0.7209
   61MPD2     H  934   3.507   3.229  14.328  0.2291  0.2436  0.9287
   61MPD2    H1  935   3.287   3.038  14.023  1.1120 -3.5852 -0.6942
   61MPD2    H2  936   3.429   2.815  14.360 -1.9684 -0.7878 -2.0614
   61MPD2    H3  937   3.308   2.828  14.153  1.5416 -1.4209  2.3995
   61MPD2     N  938   3.379   3.251  14.081  0.0320 -0.1091  0.3566
   61MPD2    H5  939   3.310   3.255  14.007  0.5648 -1.5700 -0.2124
   61MPD2    N1  940   3.538   3.036  14.483  0.2647 -0.3436 -0.3190
   61MPD2    H7  941   3.582   3.125  14.505  1.2381 -1.2182  1.2937
   62TCq2    C1  942   3.550   2.940  14.578 -0.4805 -0.3794  0.2490
   62TCq2    O2  943   3.519   2.819  14.560 -0.0282 -0.5432  0.2444
   62TCq2    C2  944   3.609   2.990  14.700 -0.7751 -0.2971 -0.0074
   62TCq2    C3  945   3.716   2.922  14.750  0.8796  0.9948 -0.5548
   62TCq2    C4  946   3.810   2.996  14.820  0.0905  0.1347 -0.8629
   62TCq2    C5  947   3.806   3.132  14.844 -0.1877 -0.5402  0.4360
   62TCq2    C6  948   3.695   3.199  14.792  0.3018  0.2684  0.2876
   62TCq2    C7  949   3.594   3.124  14.728 -0.8157 -0.7743  0.2226
   62TCq2    C8  950   3.661   3.337  14.833 -0.1133  0.4991  0.3748
   62TCq2    O4  951   3.561   3.377  14.780 -0.2303 -0.6128 -0.5037
   62TCq2    C9  952   3.912   2.921  14.890 -0.2302  0.0284  0.3168
   62TCq2    O5  953   3.992   2.985  14.959  0.6986 -0.4919  0.1841
   62TCq2    O6  954   3.928   2.794  14.859  0.0217  0.3423 -0.3691
   62TCq2    H2  955   3.733   2.816  14.740  0.0035  0.7613  0.4174
   62TCq2    H3  956   3.888   3.183  14.894  0.0575  0.9333 -1.4420
   62TCq2    H4  957   3.499   3.172  14.707  0.4524  0.1947 -3.2414
   63TMC2    C1  958   2.899   3.325  11.099  0.5973  0.2232 -0.4421
   63TMC2    C2  959   2.917   3.449  11.156 -0.1639 -0.8205 -0.1210
   63TMC2    C3  960   3.027   3.526  11.120 -0.2876  0.7580 -0.6577
   63TMC2    C4  961   2.992   3.282  11.014 -0.9612 -0.2234  0.3042
   63TMC2    C5  962   3.097   3.356  10.979 -0.4640 -0.5991  0.1013
   63TMC2    C6  963   3.120   3.481  11.032 -0.0129 -0.3976  1.2453
   63TMC2     C  964   2.800   3.237  11.164 -0.4767  0.6057 -0.0433
   63TMC2     O  965   2.733   3.282  11.260 -0.0062 -0.6681  0.3213
   63TMC2     H  966   2.857   3.479  11.241 -0.0812  0.3715 -0.4843
   63TMC2    H1  967   2.983   3.183  10.971  0.9658  0.2390 -1.1057
   63TMC2    H2  968   3.211   3.538  11.019  0.3873 -1.7438 -1.7304
   63TMC2    C7  969   3.160   3.321  10.851  0.4308 -0.7816  0.2553
   63TMC2    C8  970   3.052   3.655  11.182 -0.4173 -0.7638  0.5381
   63TMC2    O1  971   3.104   3.225  10.790  0.5898  0.6482 -0.1358
   63TMC2    O2  972   2.994   3.684  11.286 -0.1646  0.2918 -0.6675
   63TMC2    O5  973   3.148   3.733  11.123  0.0910  0.3921  0.1222
   63TMC2    H5  974   3.185   3.710  11.035 -2.9387  1.4414 -1.4306
   64MPD2     C  975   2.495   2.842  11.176 -0.1671 -0.0085  0.8117
   64MPD2    C1  976   2.603   2.806  11.104  0.7774  0.4198 -0.1374
   64MPD2    C2  977   2.692   2.906  11.073  0.7863 -0.3527 -0.1776
   64MPD2    C3  978   2.670   3.036  11.112 -0.5257 -0.1808  0.1203
   64MPD2    C4  979   2.561   3.065  11.189  0.5423  0.4286  0.4376
   64MPD2    C5  980   2.479   2.966  11.222  0.0665 -0.0415  0.2950
   64MPD2     H  981   2.785   2.877  11.025 -0.6190 -3.2384 -1.1888
   64MPD2    H1  982   2.547   3.166  11.226  1.0510  0.3705  0.7879
   64MPD2    H2  983   2.418   2.771  11.204 -2.2384  0.8761 -2.7514
   64MPD2    H3  984   2.395   2.989  11.287  0.8136 -1.1215  1.6493
   64MPD2     N  985   2.777   3.117  11.098 -0.6794 -0.7710  0.1844
   64MPD2    H5  986   2.843   3.080  11.031 -1.8161  0.5622 -1.7011
   64MPD2    N1  987   2.636   2.670  11.076 -0.1985 -0.3672 -0.0101
   64MPD2    H7  988   2.719   2.656  11.020  0.9592  0.7779  1.3997
   65MPD2     C  989   4.151   3.050  15.722  0.2744 -0.0205  0.0322
   65MPD2    C1  990   4.152   3.011  15.590  0.0119  0.0083 -0.0856
   65MPD2    C2  991   4.120   2.874  15.568 -0.6423 -0.7449 -0.4041
   65MPD2    C3  992   4.097   2.795  15.676 -0.0324  0.4079  0.7374
   65MPD2    C4  993   4.102   2.842  15.806  0.1134 -0.3124 -0.8024
   65MPD2    C5  994   4.125   2.971  15.826 -0.0854  0.0235  0.4004
   65MPD2     H  995   4.108   2.843  15.465  0.3488  2.6106 -1.5257
   65MPD2    H1  996   4.091   2.783  15.896  0.8609 -0.3734 -0.7512
   65MPD2    H2  997   4.180   3.152  15.745  0.1559  0.3644 -1.4867
   65MPD2    H3  998   4.142   3.007  15.927 -1.6914  2.7751 -0.3121
   65MPD2     N  999   4.064   2.659  15.657 -0.1011 -0.3665 -0.6275
   65MPD2    H5 1000   4.036   2.612  15.743  1.7566  0.9939  0.7115
   65MPD2    N1 1001   4.166   3.095  15.474  0.1380  0.2003  0.1099
   65MPD2    H7 1002   4.164   3.052  15.382 -2.3111  1.0424 -0.2279
   66TCq2    C1 1003   4.189   3.228  15.479  0.0993  0.1191 -0.1599
   66TCq2    O2 1004   4.168   3.302  15.572  0.1275  0.3221 -0.0797
   66TCq2    C2 1005   4.242   3.285  15.359 -1.2745  0.3949  0.0366
   66TCq2    C3 1006   4.289   3.209  15.263  0.0574  1.7955  0.0040
   66TCq2    C4 1007   4.305   3.269  15.144 -0.1326 -0.1258 -0.1828
   66TCq2    C5 1008   4.279   3.401  15.118 -0.6091  0.2485 -0.3913
   66TCq2    C6 1009   4.224   3.471  15.224  0.0305 -0.8580  0.2900
   66TCq2    C7 1010   4.205   3.415  15.346 -0.4022  0.2123 -0.3032
   66TCq2    C8 1011   4.203   3.615  15.203 -0.3638 -0.3453  0.0942
   66TCq2    O4 1012   4.219   3.655  15.087  0.0185 -0.4152 -0.0304
   66TCq2    C9 1013   4.330   3.185  15.027  0.0505 -0.1946 -0.3895
   66TCq2    O5 1014   4.311   3.062  15.049 -0.9455  0.4282  0.4869
   66TCq2    O6 1015   4.304   3.232  14.912  0.2634  0.0815  0.8055
   66TCq2    H2 1016   4.331   3.111  15.286 -1.1766  1.8504  2.5538
   66TCq2    H3 1017   4.280   3.449  15.021 -1.7997  0.7579 -0.1583
   66TCq2    H4 1018   4.149   3.476  15.417 -0.0863 -1.3580  1.3021
   67MPD2     C 1019   4.452   2.097  14.017  0.8384  0.5820 -0.4175
   67MPD2    C1 1020   4.350   2.127  14.105  0.3751  0.1731 -0.0064
   67MPD2    C2 1021   4.227   2.065  14.083 -0.2526  0.8508 -1.0449
   67MPD2    C3 1022   4.214   1.970  13.977  0.4077 -0.3993  0.2844
   67MPD2    C4 1023   4.320   1.934  13.897 -0.5566  0.0294 -0.7409
   67MPD2    C5 1024   4.437   2.005  13.914  0.5310 -0.1190  0.6240
   67MPD2     H 1025   4.151   2.102  14.150  0.0508 -0.2360 -0.0985
   67MPD2    H1 1026   4.298   1.860  13.820 -3.4329 -0.7310  0.8264
   67MPD2    H2 1027   4.551   2.139  14.031  1.3220 -0.6922 -0.0857
   67MPD2    H3 1028   4.524   1.979  13.854  0.7320  4.2811 -1.0538
   67MPD2     N 1029   4.090   1.903  13.941 -0.1145 -0.2079 -0.2015
   67MPD2    H5 1030   4.104   1.852  13.854  3.0319 -0.1731  0.2842
   67MPD2    N1 1031   4.355   2.212  14.218 -0.3067  0.2894  0.3294
   67MPD2    H7 1032   4.263   2.228  14.259 -0.3389 -2.3666  1.3219
   68TCq2    C1 1033   4.468   2.260  14.272  0.0365 -0.6886  0.3871
   68TCq2    O2 1034   4.588   2.247  14.239  0.1027  0.2562 -0.2114
   68TCq2    C2 1035   4.448   2.356  14.376 -0.2335  0.3735 -0.2193
   68TCq2    C3 1036   4.338   2.435  14.375  0.1682  0.2803 -0.1465
   68TCq2    C4 1037   4.321   2.517  14.482  0.2055  0.1472 -0.8602
   68TCq2    C5 1038   4.403   2.512  14.595 -0.1356 -0.7459  0.0237
   68TCq2    C6 1039   4.514   2.428  14.584  0.2462  0.0250  0.2118
   68TCq2    C7 1040   4.533   2.350  14.476  0.1953 -0.1084 -0.6146
   68TCq2    C8 1041   4.608   2.415  14.693  0.8146  0.2565 -1.1910
   68TCq2    O4 1042   4.716   2.364  14.665  0.3499 -0.3779  0.2786
   68TCq2    C9 1043   4.211   2.612  14.480  0.3155 -0.5881 -0.4928
   68TCq2    O5 1044   4.128   2.596  14.395  0.0166 -0.1863 -0.3859
   68TCq2    O6 1045   4.205   2.692  14.576  0.1963  0.1492  0.1931
   68TCq2    H2 1046   4.279   2.446  14.285 -0.5031  0.2950  0.2928
   68TCq2    H3 1047   4.387   2.569  14.686  0.2235  0.8094 -0.8806
   68TCq2    H4 1048   4.620   2.286  14.471 -0.1521 -0.5959 -0.4351
   69TMC2    C1 1049   0.839   3.308  11.911 -0.2214 -0.4910  0.4533
   69TMC2    C2 1050   0.713   3.257  11.903  0.5220  0.9963 -0.3546
   69TMC2    C3 1051   0.653   3.264  11.782 -0.1776 -0.8765  0.4758
   69TMC2    C4 1052   0.899   3.372  11.805 -0.0533 -0.3521  0.4751
   69TMC2    C5 1053   0.837   3.383  11.689 -0.9725  0.4406 -0.5985
   69TMC2    C6 1054   0.711   3.324  11.678  0.3292  0.4346  0.0595
   69TMC2     C 1055   0.885   3.312  12.045 -1.0071  0.4104  0.6379
   69TMC2     O 1056   0.802   3.280  12.132  0.1912  0.0315  0.4822
   69TMC2     H 1057   0.661   3.211  11.986 -1.0192 -4.0525 -4.1319
   69TMC2    H1 1058   0.988   3.432  11.823  0.2849 -0.8386  0.4087
   69TMC2    H2 1059   0.649   3.328  11.589 -0.8062 -0.1886  0.8123
   69TMC2    C7 1060   0.910   3.443  11.585 -0.3553 -0.2261 -0.3837
   69TMC2    C8 1061   0.525   3.222  11.784 -1.0198  0.8254 -0.0224
   69TMC2    O1 1062   1.022   3.473  11.614  0.0395 -0.4008  0.2749
   69TMC2    O2 1063   0.448   3.265  11.868  0.2927  0.5810  0.0428
   69TMC2    O5 1064   0.503   3.146  11.674 -0.3639 -0.9085  0.3962
   69TMC2    H5 1065   0.583   3.124  11.621  0.1662 -0.3130  0.9638
   70MPD2     C 1066   1.210   3.440  12.149  0.1701  0.6771  0.1045
   70MPD2    C1 1067   1.095   3.372  12.166  0.1624 -0.2802  0.6114
   70MPD2    C2 1068   1.058   3.330  12.289  0.1327 -0.0012 -1.3602
   70MPD2    C3 1069   1.135   3.348  12.397 -0.1001  0.5392  0.3698
   70MPD2    C4 1070   1.259   3.422  12.376  0.3839  0.5323  0.3169
   70MPD2    C5 1071   1.296   3.465  12.249 -0.0227  0.1656  0.2556
   70MPD2     H 1072   0.978   3.256  12.292 -0.1307  0.3017 -0.9881
   70MPD2    H1 1073   1.322   3.444  12.462 -0.6560 -1.2187  1.5313
   70MPD2    H2 1074   1.229   3.467  12.046 -1.3770 -1.9271 -0.8494
   70MPD2    H3 1075   1.377   3.527  12.212  0.6732  0.2546  1.9335
   70MPD2     N 1076   1.106   3.303  12.525  0.5500 -0.4606 -0.1040
   70MPD2    H5 1077   1.173   3.318  12.599  0.7282  1.4455 -0.6336
   70MPD2    N1 1078   1.020   3.340  12.048 -0.8790 -0.5138  0.0982
   70MPD2    H7 1079   1.068   3.343  11.959  0.1906  1.8175  0.7599
   71TMC2    C1 1080   0.205   3.443   1.341  0.5012  0.0364  0.2587
   71TMC2    C2 1081   0.306   3.366   1.280 -0.6870  0.5374 -0.0665
   71TMC2    C3 1082   0.333   3.254   1.349  0.5146  0.4091  1.5097
   71TMC2    C4 1083   0.135   3.413   1.452  0.5889 -0.1921  0.5480
   71TMC2    C5 1084   0.174   3.300   1.521  1.7123  0.0412 -0.3985
   71TMC2    C6 1085   0.274   3.219   1.470  0.0254 -0.6235  0.2576
   71TMC2     C 1086   0.180   3.577   1.298 -0.5933 -0.3379 -0.4931
   71TMC2     O 1087   0.132   3.663   1.367  0.3400  0.1386 -0.0669
   71TMC2     H 1088   0.356   3.403   1.191  0.0997 -0.3694 -0.0070
   71TMC2    H1 1089   0.075   3.489   1.500  1.9959  0.8226  0.6881
   71TMC2    H2 1090   0.305   3.124   1.512 -0.9364 -1.0437  0.0108
   71TMC2    C7 1091   0.112   3.268   1.648  0.1378  0.0407 -0.1200
   71TMC2    C8 1092   0.451   3.189   1.291  0.2484 -0.3342  0.3427
   71TMC2    O1 1093   0.158   3.183   1.727  0.3189 -0.2841  0.2647
   71TMC2    O2 1094   0.527   3.256   1.222 -0.6298 -0.2437  0.1430
   71TMC2    O5 1095   0.455   3.058   1.306  0.5216 -0.3901  0.3516
   71TMC2    H5 1096   0.380   3.020   1.357 -0.3660 -0.2589 -0.8490
   72MPD2     C 1097   0.305   3.902   0.931 -0.4441  0.1100  0.0167
   72MPD2    C1 1098   0.244   3.924   1.056 -0.5043  0.0645  0.1668
   72MPD2    C2 1099   0.205   3.824   1.135 -0.3537  0.3530 -0.2442
   72MPD2    C3 1100   0.231   3.694   1.090  0.0684 -0.8089  0.0001
   72MPD2    C4 1101   0.301   3.670   0.968  0.5065 -0.0571  0.4691
   72MPD2    C5 1102   0.336   3.776   0.891  0.9159 -0.4941 -0.2486
   72MPD2     H 1103   0.155   3.841   1.230  0.3836 -2.6201  0.6628
   72MPD2    H1 1104   0.329   3.568   0.943  4.2321  0.9270  0.6227
   72MPD2    H2 1105   0.318   3.986   0.864 -1.9118  0.1037 -0.2848
   72MPD2    H3 1106   0.396   3.767   0.801  0.7180 -0.0520 -0.4254
   72MPD2     N 1107   0.212   3.581   1.166 -0.6315  0.5277 -0.7904
   72MPD2    H5 1108   0.216   3.498   1.108 -4.1576  0.3821 -0.8747
   72MPD2    N1 1109   0.213   4.054   1.092  0.1214 -0.7128 -0.7503
   72MPD2    H7 1110   0.146   4.077   1.165  0.4699  1.5372 -1.1334
   73TMC2    C1 1111   3.530   0.420  13.286  0.6825  0.2819 -0.7668
   73TMC2    C2 1112   3.505   0.364  13.161 -0.2710  0.0669  0.2614
   73TMC2    C3 1113   3.532   0.228  13.158  0.2490 -0.1619  1.1219
   73TMC2    C4 1114   3.591   0.347  13.387 -1.0080 -0.1868  0.0546
   73TMC2    C5 1115   3.635   0.222  13.364 -0.3653 -0.5511 -0.3080
   73TMC2    C6 1116   3.600   0.157  13.249 -0.6673 -0.3526  0.1782
   73TMC2     C 1117   3.550   0.564  13.298  0.7695  0.2366  0.2901
   73TMC2     O 1118   3.627   0.600  13.389 -0.2490 -0.1259  0.2430
   73TMC2     H 1119   3.451   0.413  13.081 -3.3238 -0.5631  1.9166
   73TMC2    H1 1120   3.600   0.390  13.486  1.3504 -0.7433  0.0743
   73TMC2    H2 1121   3.623   0.052  13.234 -1.6146 -0.4467 -0.6622
   73TMC2    C7 1122   3.775   0.225  13.359 -0.0382 -0.0946  0.0885
   73TMC2    C8 1123   3.465   0.164  13.043  0.2287  0.5900 -0.1706
   73TMC2    O1 1124   3.830   0.120  13.320 -0.9805  0.2931  0.5513
   73TMC2    O2 1125   3.358   0.211  13.001  0.6519 -0.1868  0.7043
   73TMC2    O5 1126   3.493   0.027  13.042 -0.3754 -0.3433  0.0531
   73TMC2    H5 1127   3.573   4.722  13.092  0.6424  1.4732 -0.5274
   74MPD2     C 1128   3.591   1.004  13.049 -0.1681  0.2780  0.0257
   74MPD2    C1 1129   3.673   0.948  13.144 -0.1791  0.9613 -0.1038
   74MPD2    C2 1130   3.637   0.826  13.203  0.4655 -0.7189 -0.9120
   74MPD2    C3 1131   3.519   0.766  13.168 -0.8763 -0.0408 -0.3669
   74MPD2    C4 1132   3.433   0.822  13.071 -0.4768 -0.3412 -0.5095
   74MPD2    C5 1133   3.474   0.944  13.020  0.8843  0.0928 -0.3828
   74MPD2     H 1134   3.697   0.781  13.281  0.6920  0.9356 -0.1118
   74MPD2    H1 1135   3.342   0.769  13.046 -0.5513 -2.0325  3.3373
   74MPD2    H2 1136   3.602   1.102  13.005 -0.3346 -0.5973 -1.9553
   74MPD2    H3 1137   3.417   0.983  12.936 -0.0419  1.5408  0.9215
   74MPD2     N 1138   3.476   0.637  13.215  0.4167 -0.3556  0.3614
   74MPD2    H5 1139   3.402   0.590  13.164 -0.5746  1.4618  0.1569
   74MPD2    N1 1140   3.796   1.020  13.166  0.0806 -0.4711 -0.5022
   74MPD2    H7 1141   3.817   1.094  13.100 -1.3276  0.8482  0.5287
   75TCq2    C1 1142   3.975   1.897  14.009  0.8197  0.1193 -0.3828
   75TCq2    O2 1143   3.932   1.973  14.093 -0.1871  0.1134 -0.7108
   75TCq2    C2 1144   3.888   1.804  13.948 -0.7010  0.9092 -0.0490
   75TCq2    C3 1145   3.937   1.682  13.925 -0.1069 -0.4351  0.3124
   75TCq2    C4 1146   3.856   1.600  13.849 -0.3967  0.0588  0.3931
   75TCq2    C5 1147   3.740   1.649  13.796 -0.2711 -0.3126  0.7964
   75TCq2    C6 1148   3.688   1.774  13.828  0.7569  0.4763 -0.8013
   75TCq2    C7 1149   3.764   1.855  13.913  0.4888 -0.6685 -0.0420
   75TCq2    C8 1150   3.636   1.835  13.706  0.1091  0.3396  0.3577
   75TCq2    O4 1151   3.676   1.786  13.598 -0.6781  0.0628  0.0915
   75TCq2    C9 1152   3.902   1.466  13.830  0.1302  1.0035 -0.5152
   75TCq2    O5 1153   3.815   1.385  13.784 -0.4082 -0.0983  0.2975
   75TCq2    O6 1154   4.022   1.444  13.859  0.4422 -0.0739  0.3618
   75TCq2    H2 1155   4.032   1.647  13.964  0.4436  0.5612 -0.1402
   75TCq2    H3 1156   3.708   1.582  13.718 -3.0954  2.9111 -0.8089
   75TCq2    H4 1157   3.752   1.963  13.924 -1.4275 -0.9251  0.2622
   76MPD2     C 1158   2.018   3.521  11.590 -0.1837 -0.1129  0.0412
   76MPD2    C1 1159   1.988   3.436  11.486  0.9021  0.3018  0.8966
   76MPD2    C2 1160   2.054   3.310  11.468  0.6007  0.0563 -0.6782
   76MPD2    C3 1161   2.146   3.272  11.567  0.6318 -0.2566 -0.1555
   76MPD2    C4 1162   2.168   3.360  11.677  0.4254  0.3738 -0.1749
   76MPD2    C5 1163   2.109   3.487  11.685 -0.8608 -0.5649 -0.5798
   76MPD2     H 1164   2.034   3.257  11.376  2.3992 -0.3389 -0.8393
   76MPD2    H1 1165   2.232   3.330  11.759  0.3057 -0.0608 -0.2374
   76MPD2    H2 1166   1.984   3.624  11.586 -0.6388 -0.3074 -1.1419
   76MPD2    H3 1167   2.130   3.554  11.768  3.5577 -1.2448 -1.1285
   76MPD2     N 1168   2.211   3.154  11.579 -0.2559  0.1426 -0.5294
   76MPD2    H5 1169   2.287   3.157  11.646 -1.1417 -0.2756  0.4848
   76MPD2    N1 1170   1.878   3.467  11.396 -0.0693  0.3497 -0.3892
   76MPD2    H7 1171   1.862   3.403  11.319  1.5506  0.7085 -1.0428
   77TCq2    C1 1172   2.192   3.052  11.491 -0.3402 -0.0992  0.2390
   77TCq2    O2 1173   2.105   3.039  11.406 -0.5265 -0.1266 -0.1925
   77TCq2    C2 1174   2.277   2.933  11.520  0.5288  0.4226  0.8826
   77TCq2    C3 1175   2.229   2.809  11.466  0.3838 -0.3717 -0.0387
   77TCq2    C4 1176   2.308   2.703  11.471  0.4185  0.4111  0.2607
   77TCq2    C5 1177   2.441   2.717  11.510 -0.1897  0.3161 -0.1244
   77TCq2    C6 1178   2.488   2.831  11.562 -0.8059 -0.3178 -0.7397
   77TCq2    C7 1179   2.409   2.942  11.560  0.6363  0.1020 -0.1010
   77TCq2    C8 1180   2.625   2.854  11.596 -0.2384  0.7446  0.1424
   77TCq2    O4 1181   2.701   2.770  11.555  0.0778 -0.5133  0.6560
   77TCq2    C9 1182   2.270   2.572  11.418  0.5580 -0.2470 -0.2633
   77TCq2    O5 1183   2.331   2.472  11.463 -0.5131 -1.0132 -0.4589
   77TCq2    O6 1184   2.175   2.564  11.338  0.3966  0.1007  0.2840
   77TCq2    H2 1185   2.127   2.808  11.431  0.1852 -1.9938  0.6004
   77TCq2    H3 1186   2.504   2.630  11.508 -1.0074 -0.2957  0.6102
   77TCq2    H4 1187   2.451   3.042  11.567 -0.8222  0.5538  2.0394
   78MPD1     C 1188   0.712   0.956   1.873 -0.4608  0.1217  0.2889
   78MPD1    C1 1189   0.674   1.087   1.858 -0.2081 -0.6512 -0.5950
   78MPD1    C2 1190   0.770   1.183   1.883  0.8740  0.7286  0.0320
   78MPD1    C3 1191   0.902   1.138   1.897  0.1182  0.2696 -0.4418
   78MPD1    C4 1192   0.933   1.007   1.889  0.6998  0.5580  1.0351
   78MPD1    C5 1193   0.837   0.913   1.889  0.5170 -0.1795 -0.2166
   78MPD1     H 1194   0.747   1.288   1.877 -1.3321  0.2478  0.0511
   78MPD1    H1 1195   1.035   0.974   1.906  0.6127 -0.2715 -0.0809
   78MPD1    H2 1196   0.634   0.882   1.881  0.5729 -1.2663 -2.5592
   78MPD1    H3 1197   0.859   0.807   1.889 -0.0805 -0.3104 -1.1980
   78MPD1     N 1198   1.011   1.230   1.903  0.0984 -0.0091  0.5926
   78MPD1    H5 1199   1.104   1.194   1.886 -0.0983  0.0100 -0.5800
   78MPD1    N1 1200   0.536   1.123   1.834  0.1898  0.4606  0.2453
   78MPD1    H6 1201   0.491   1.065   1.763  0.3942  0.6153 -0.0106
   78MPD1    H7 1202   0.524   1.222   1.817 -0.6839  0.4040  0.5190
   79TCq2    C1 1203   1.002   1.368   1.917 -0.1955  0.0192 -0.0973
   79TCq2    O2 1204   0.904   1.440   1.933 -0.2062 -0.0373  0.3037
   79TCq2    C2 1205   1.125   1.442   1.880 -0.1931  0.1037 -0.7571
   79TCq2    C3 1206   1.244   1.385   1.862  0.5833  0.0116 -0.3061
   79TCq2    C4 1207   1.363   1.461   1.847  0.0710 -0.4643  0.3531
   79TCq2    C5 1208   1.357   1.593   1.861 -0.0077  0.1349  0.3537
   79TCq2    C6 1209   1.237   1.654   1.879  0.0487 -0.3591  0.0258
   79TCq2    C7 1210   1.120   1.580   1.900  0.4408 -0.0282  1.4455
   79TCq2    C8 1211   1.227   1.794   1.910 -0.4172 -0.3409  0.5337
   79TCq2    O4 1212   1.116   1.849   1.920 -0.6462 -0.1678 -0.0618
   79TCq2    C9 1213   1.483   1.396   1.809  0.3056  0.2504  0.9780
   79TCq2    O5 1214   1.469   1.288   1.743  0.1322  0.1854  0.3455
   79TCq2    O6 1215   1.597   1.446   1.844 -0.3375 -0.3109 -0.5264
   79TCq2    H2 1216   1.254   1.278   1.848 -1.1821 -0.0296 -1.2219
   79TCq2    H3 1217   1.448   1.645   1.833 -0.4351 -0.2768 -1.7588
   79TCq2    H4 1218   1.027   1.634   1.911  1.1917  1.3863  0.7419
   80MPD2     C 1219   1.697   2.635  12.387 -0.3211  0.1537  0.3356
   80MPD2    C1 1220   1.615   2.676  12.288  0.0212  0.5316 -0.3298
   80MPD2    C2 1221   1.485   2.638  12.292 -0.3628  0.1040 -0.3071
   80MPD2    C3 1222   1.434   2.560  12.398 -0.1107  0.2032 -0.3279
   80MPD2    C4 1223   1.522   2.521  12.502  0.0824  0.1470  0.9187
   80MPD2    C5 1224   1.656   2.551  12.484  0.8765  0.1787 -0.0201
   80MPD2     H 1225   1.414   2.681  12.222  1.2204  1.3176 -1.1570
   80MPD2    H1 1226   1.492   2.447  12.575 -2.8021  0.0598 -0.3549
   80MPD2    H2 1227   1.804   2.647  12.389 -0.4267  1.1115  0.2083
   80MPD2    H3 1228   1.730   2.518  12.556  0.4461  0.3209  0.4785
   80MPD2     N 1229   1.298   2.514  12.408 -0.1804  0.0071 -0.0617
   80MPD2    H5 1230   1.275   2.449  12.481 -1.9875  0.2717 -0.4006
   80MPD2    N1 1231   1.657   2.757  12.176  0.3512  0.9466 -0.5341
   80MPD2    H7 1232   1.582   2.784  12.113  1.6342  1.1716 -1.9787
   81TCq2    C1 1233   1.788   2.788  12.153 -0.3306  0.7360  0.6145
   81TCq2    O2 1234   1.887   2.766  12.218  0.1987  0.3279 -0.0353
   81TCq2    C2 1235   1.810   2.837  12.017 -0.6490 -0.1887 -0.5811
   81TCq2    C3 1236   1.943   2.874  12.006  0.0076  0.0082  0.0700
   81TCq2    C4 1237   2.006   2.831  11.893  0.0573  0.0799  0.4488
   81TCq2    C5 1238   1.945   2.766  11.788 -0.4715  0.4541  0.3937
   81TCq2    C6 1239   1.806   2.736  11.805 -0.1652  0.3121  0.3521
   81TCq2    C7 1240   1.742   2.768  11.919  0.7047 -0.5027  0.5426
   81TCq2    C8 1241   1.742   2.664  11.699 -0.2525 -0.2459 -0.0253
   81TCq2    O4 1242   1.744   2.703  11.582 -0.1855 -0.3690  0.0114
   81TCq2    C9 1243   2.148   2.851  11.880  0.5749 -0.5613 -0.1147
   81TCq2    O5 1244   2.211   2.789  11.794 -0.2848  0.6287 -0.1026
   81TCq2    O6 1245   2.190   2.939  11.963 -0.3525  0.1927 -0.2957
   81TCq2    H2 1246   2.005   2.926  12.078  1.1363 -1.8135  0.4177
   81TCq2    H3 1247   1.999   2.738  11.699 -0.8533 -0.6005  0.4868
   81TCq2    H4 1248   1.642   2.728  11.933  0.3807 -0.0933 -0.5695
   82MPD2     C 1249   0.008   2.239  10.242 -0.0493 -0.8866 -0.2492
   82MPD2    C1 1250   4.670   2.129  10.182  0.0498 -0.1414 -0.2321
   82MPD2    C2 1251   0.015   2.010  10.184  0.8434  0.3849  0.4246
   82MPD2    C3 1252   0.126   1.990  10.263  0.0054  0.0381 -0.0770
   82MPD2    C4 1253   0.178   2.098  10.329  0.3638 -0.7419  0.0562
   82MPD2    C5 1254   0.126   2.223  10.311 -0.2350 -0.8241  0.2126
   82MPD2     H 1255   4.700   1.924  10.129  1.6619  0.4577 -0.2484
   82MPD2    H1 1256   0.270   2.083  10.385  0.5819  1.9510  0.3916
   82MPD2    H2 1257   4.689   2.339  10.240  0.6510 -0.6007 -0.7436
   82MPD2    H3 1258   0.164   2.308  10.368  0.4961  0.8967 -2.8506
   82MPD2     N 1259   0.185   1.864  10.280 -0.3772 -0.2835 -0.6665
   82MPD2    H5 1260   0.270   1.860  10.336 -0.8107  2.4029  0.1610
   82MPD2    N1 1261   4.538   2.152  10.126 -0.4313  0.1505  0.0022
   82MPD2    H7 1262   4.494   2.242  10.143  0.7201  0.9088 -0.9938
   83TCq2    C1 1263   0.153   1.745  10.217 -0.1696  0.6271 -0.2130
   83TCq2    O2 1264   0.053   1.714  10.158 -0.3681  0.1419 -0.3452
   83TCq2    C2 1265   0.250   1.640  10.251  0.3999  0.2597  0.3860
   83TCq2    C3 1266   0.361   1.674  10.321 -0.0868  0.3893  0.3046
   83TCq2    C4 1267   0.416   1.578  10.398  0.1783 -0.2328  0.0375
   83TCq2    C5 1268   0.355   1.458  10.415 -0.2067  0.0726 -0.0931
   83TCq2    C6 1269   0.257   1.416  10.333 -0.6577  0.4000  0.3974
   83TCq2    C7 1270   0.204   1.508  10.245  0.1835 -0.8646  0.5496
   83TCq2    C8 1271   0.187   1.291  10.340 -0.6494 -1.1852  0.3938
   83TCq2    O4 1272   0.111   1.256  10.253 -0.1678 -0.7846 -0.1130
   83TCq2    C9 1273   0.531   1.618  10.481 -0.7898  0.3122 -0.3431
   83TCq2    O5 1274   0.595   1.719  10.444 -0.0112 -1.3782 -0.2377
   83TCq2    O6 1275   0.570   1.540  10.571  0.0937 -0.6026  0.1635
   83TCq2    H2 1276   0.421   1.764  10.316 -2.1973  1.9156  2.2097
   83TCq2    H3 1277   0.403   1.388  10.482 -0.5565 -0.7555 -0.7132
   83TCq2    H4 1278   0.122   1.485  10.178  0.2409  1.8667 -0.4362
   84TCq2    C1 1279   0.984   4.695   9.823 -0.3717 -0.6017  0.4208
   84TCq2    O2 1280   0.917   4.667   9.923 -0.0074  0.0777  0.0452
   84TCq2    C2 1281   1.045   0.108   9.822  0.5408  0.3694 -0.0057
   84TCq2    C3 1282   1.128   0.146   9.716  0.4333  0.0268 -0.0524
   84TCq2    C4 1283   1.205   0.259   9.746  0.5677  0.0153  0.0274
   84TCq2    C5 1284   1.199   0.325   9.871 -0.1012  0.3401  0.3770
   84TCq2    C6 1285   1.112   0.280   9.961  0.6271  0.4295  0.5456
   84TCq2    C7 1286   1.034   0.175   9.937  0.2080  0.7270  0.0107
   84TCq2    C8 1287   1.124   0.327  10.097 -0.5036 -0.2483  0.6032
   84TCq2    O4 1288   1.023   0.309  10.166  0.2174  0.3669  0.2747
   84TCq2    C9 1289   1.291   0.317   9.644  0.6913 -0.3797 -0.8412
   84TCq2    O5 1290   1.387   0.392   9.687  0.0679  0.3430  0.2934
   84TCq2    O6 1291   1.298   0.253   9.536 -0.1057  0.4500 -0.4019
   84TCq2    H2 1292   1.132   0.093   9.622 -0.0020  0.1361 -0.1321
   84TCq2    H3 1293   1.266   0.408   9.890  2.5888 -1.3569 -1.7299
   84TCq2    H4 1294   0.972   0.137  10.017  1.0247 -0.7033 -0.0366
   85MPD2     C 1295   1.865   3.287  16.271 -0.3062 -0.5920  0.6511
   85MPD2    C1 1296   1.756   3.361  16.238  0.7727  0.0421 -0.1634
   85MPD2    C2 1297   1.776   3.481  16.174  0.1156 -0.1489  0.6057
   85MPD2    C3 1298   1.904   3.530  16.150  0.1506  0.4723 -0.8043
   85MPD2    C4 1299   2.009   3.456  16.186  0.8467 -0.1788 -0.3003
   85MPD2    C5 1300   1.987   3.341  16.252 -0.0217 -1.0230 -0.1275
   85MPD2     H 1301   1.692   3.545  16.149  1.2382  1.3164  0.6101
   85MPD2    H1 1302   2.110   3.482  16.158  0.5796 -0.8176 -1.8806
   85MPD2    H2 1303   1.857   3.185  16.306  0.2062 -1.2933 -1.3074
   85MPD2    H3 1304   2.078   3.284  16.266  1.5641  0.8938 -2.5433
   85MPD2     N 1305   1.923   3.651  16.082  0.0356 -0.4630  0.2973
   85MPD2    H5 1306   1.839   3.699  16.053 -0.0121  0.7762  2.5511
   85MPD2    N1 1307   1.625   3.318  16.263 -0.3670  0.5642  0.0924
   85MPD2    H7 1308   1.556   3.360  16.203  0.7762  0.6494 -1.1618
   86TCq2    C1 1309   2.043   3.705  16.027  0.3631  0.3217  1.0114
   86TCq2    O2 1310   2.161   3.669  16.034  0.9801 -0.0377  0.0651
   86TCq2    C2 1311   2.014   3.837  15.968 -0.0126  0.1487 -0.4878
   86TCq2    C3 1312   1.888   3.886  15.942  0.7068 -0.3625 -0.3073
   86TCq2    C4 1313   1.877   4.012  15.883 -0.2399  0.1322  0.9526
   86TCq2    C5 1314   1.988   4.085  15.860 -0.1754 -0.1815 -0.3885
   86TCq2    C6 1315   2.114   4.037  15.894  0.0084  0.3169  0.0503
   86TCq2    C7 1316   2.128   3.911  15.944  0.0352 -0.6483  0.1730
   86TCq2    C8 1317   2.233   4.121  15.856 -0.7577  0.1521 -0.7080
   86TCq2    O4 1318   2.337   4.095  15.917 -0.5261 -0.6598 -0.2724
   86TCq2    C9 1319   1.748   4.058  15.847 -0.8689 -0.5462  0.1647
   86TCq2    O5 1320   1.740   4.181  15.818  0.3188 -0.0859 -0.2269
   86TCq2    O6 1321   1.665   3.968  15.825  0.4242  0.3496 -0.1708
   86TCq2    H2 1322   1.800   3.823  15.950  0.2132  0.4646  0.8079
   86TCq2    H3 1323   1.975   4.186  15.824 -3.0490 -0.3599  0.1400
   86TCq2    H4 1324   2.222   3.893  15.996 -0.5379 -0.9242  1.0983
   87MPD2     C 1325   4.323   1.957   0.465  0.5813 -0.8772  0.1459
   87MPD2    C1 1326   4.300   2.091   0.462  0.0685 -0.2402  0.1817
   87MPD2    C2 1327   4.174   2.141   0.416 -0.6469 -0.0816 -0.3950
   87MPD2    C3 1328   4.079   2.059   0.362 -0.7078  0.2740  0.9449
   87MPD2    C4 1329   4.107   1.925   0.373  0.4783 -0.6656  0.6268
   87MPD2    C5 1330   4.229   1.874   0.418  0.7744  0.1842  0.1549
   87MPD2     H 1331   4.152   2.247   0.422  0.0547  0.0568 -0.1693
   87MPD2    H1 1332   4.035   1.851   0.340 -2.4245  2.7037 -0.5415
   87MPD2    H2 1333   4.418   1.917   0.500  2.0085  1.6371 -0.8615
   87MPD2    H3 1334   4.240   1.766   0.415 -0.0547  0.1206 -0.6509
   87MPD2     N 1335   3.962   2.110   0.305  0.0574 -0.1357  0.3034
   87MPD2    H5 1336   3.899   2.037   0.273  0.9728 -0.0100 -1.7857
   87MPD2    N1 1337   4.393   2.180   0.520 -0.4967  0.1997  0.0117
   87MPD2    H7 1338   4.479   2.141   0.555  0.2745  1.1784 -0.7751
   88TCq2    C1 1339   4.387   2.317   0.528  0.1472 -0.0741 -0.1454
   88TCq2    O2 1340   4.288   2.389   0.536  0.0538  0.4747  0.3248
   88TCq2    C2 1341   4.518   2.381   0.560  0.1012  0.5568  0.1931
   88TCq2    C3 1342   4.522   2.489   0.639 -0.2620 -0.1271 -0.0503
   88TCq2    C4 1343   4.644   2.537   0.671  0.8000 -0.1936  0.5875
   88TCq2    C5 1344   0.040   2.488   0.620 -0.4232 -0.2980  0.6800
   88TCq2    C6 1345   0.034   2.379   0.540 -0.0408 -0.3806 -0.7185
   88TCq2    C7 1346   4.633   2.324   0.521  0.4125  0.5698 -0.8025
   88TCq2    C8 1347   0.149   2.306   0.485 -0.1644 -0.1998  0.6083
   88TCq2    O4 1348   0.138   2.183   0.474  0.8583  0.4554 -0.1409
   88TCq2    C9 1349   4.647   2.645   0.765 -0.3064  0.3438  0.5384
   88TCq2    O5 1350   4.542   2.706   0.792  0.4070 -0.3055 -0.2682
   88TCq2    O6 1351   0.033   2.667   0.828 -0.4236 -0.0493  0.6695
   88TCq2    H2 1352   4.432   2.543   0.668 -0.2556  0.1643 -0.5907
   88TCq2    H3 1353   0.129   2.540   0.654 -1.1196  0.2560  1.6467
   88TCq2    H4 1354   4.628   2.242   0.450  1.3650  1.3536 -1.7573
   89MPD2     C 1355   0.376   0.125   1.906  0.2589  0.3054  0.4654
   89MPD2    C1 1356   0.314   0.252   1.920  0.6550  0.5440 -0.9806
   89MPD2    C2 1357   0.386   0.356   1.862  0.9331 -0.3130  1.1048
   89MPD2    C3 1358   0.493   0.333   1.780 -0.0995 -0.0981  0.3657
   89MPD2    C4 1359   0.544   0.204   1.765 -0.0460 -0.6298  0.5106
   89MPD2    C5 1360   0.489   0.106   1.835  0.3059 -0.4590  0.0212
   89MPD2     H 1361   0.333   0.451   1.863  0.0047 -0.8444  2.2497
   89MPD2    H1 1362   0.622   0.174   1.696 -0.9946  1.2814 -1.4028
   89MPD2    H2 1363   0.340   0.037   1.957 -1.0882  0.5157 -0.1275
   89MPD2    H3 1364   0.544   0.013   1.845  0.3870 -0.4829 -0.6514
   89MPD2     N 1365   0.549   0.443   1.717  0.5273  0.5794 -0.3891
   89MPD2    H5 1366   0.509   0.536   1.721 -2.1957 -0.7034  1.7003
   89MPD2    N1 1367   0.189   0.272   1.987 -0.3633  0.4498  0.3371
   89MPD2    H7 1368   0.167   0.370   2.002  0.9269  0.6524  0.9832
   90TCq2    C1 1369   0.677   0.447   1.670 -0.1329  0.1215 -0.0916
   90TCq2    O2 1370   0.763   0.358   1.663 -0.4566  0.9902  0.3948
   90TCq2    C2 1371   0.731   0.580   1.644  0.1601 -0.3610 -0.5539
   90TCq2    C3 1372   0.871   0.589   1.656  0.1807 -0.0859  0.3564
   90TCq2    C4 1373   0.934   0.693   1.601 -0.1814 -0.0182 -0.0461
   90TCq2    C5 1374   0.876   0.781   1.523  0.5044  0.2290  0.1731
   90TCq2    C6 1375   0.741   0.755   1.496  1.3476  0.5687 -0.2482
   90TCq2    C7 1376   0.661   0.665   1.560 -0.3054  0.1866  0.9091
   90TCq2    C8 1377   0.682   0.853   1.399  0.0199 -0.4308  0.4366
   90TCq2    O4 1378   0.568   0.891   1.432  0.1908 -0.3306 -0.1948
   90TCq2    C9 1379   1.072   0.720   1.638  0.4426  0.3190  0.1791
   90TCq2    O5 1380   1.119   0.640   1.722 -0.0310 -0.2708 -0.2858
   90TCq2    O6 1381   1.132   0.795   1.556  0.3410  0.4417 -0.1942
   90TCq2    H2 1382   0.935   0.524   1.714 -0.2857  0.6573  1.7038
   90TCq2    H3 1383   0.929   0.868   1.487 -0.8964  0.8212 -0.4527
   90TCq2    H4 1384   0.567   0.628   1.520 -1.8189  1.6621  3.1034
   91TMC2    C1 1385   2.121   4.643  16.537  0.5510 -0.1574  0.1075
   91TMC2    C2 1386   2.186   4.674  16.416  0.2268 -0.2643 -0.3987
   91TMC2    C3 1387   2.105   4.687  16.306 -0.3588 -0.1535 -0.5274
   91TMC2    C4 1388   1.986   4.634  16.549 -0.8548  0.0535 -0.2701
   91TMC2    C5 1389   1.910   4.651  16.435  0.3916 -0.0099 -0.4446
   91TMC2    C6 1390   1.971   4.681  16.318 -0.3254  0.0431  0.4472
   91TMC2     C 1391   2.193   4.648  16.663 -0.2303 -1.3322 -0.3427
   91TMC2     O 1392   2.126   4.637  16.765  0.0799  0.1261  0.4597
   91TMC2     H 1393   2.294   4.675  16.412  0.2037  0.6535 -0.8758
   91TMC2    H1 1394   1.940   4.594  16.639 -1.1100  1.5109  0.2482
   91TMC2    H2 1395   1.920   4.705  16.226 -0.9209 -0.9620  0.5133
   91TMC2    C7 1396   1.769   4.642  16.453 -0.0394  0.3302  0.3069
   91TMC2    C8 1397   2.163   0.005  16.177 -0.1870  0.2486  0.4278
   91TMC2    O1 1398   1.725   4.627  16.566 -0.6423 -0.3902 -0.3172
   91TMC2    O2 1399   2.122   4.700  16.062  0.0090  0.4269  0.2461
   91TMC2    O5 1400   2.252   0.108  16.194 -0.2841 -0.4284  0.7854
   91TMC2    H5 1401   2.280   0.128  16.286 -0.3072 -0.2708  0.7582
   92MPD2     C 1402   2.398   4.669  16.881 -0.3184  0.1566  0.1132
   92MPD2    C1 1403   2.424   4.695  16.745 -0.3086 -0.3769 -0.0187
   92MPD2    C2 1404   2.547   0.018  16.715 -0.1004  0.7262  0.2426
   92MPD2    C3 1405   2.656   0.026  16.802  0.9407 -0.0532 -0.0230
   92MPD2    C4 1406   2.626   4.704  16.929  0.2395 -0.2137 -0.0561
   92MPD2    C5 1407   2.498   4.680  16.974  0.3642  0.0999 -0.1172
   92MPD2     H 1408   2.563   0.039  16.610 -0.6846  1.8556  0.3746
   92MPD2    H1 1409   2.700   4.690  17.007  0.7008  0.5651 -0.3528
   92MPD2    H2 1410   2.299   4.636  16.908 -0.7610  1.0116 -0.4403
   92MPD2    H3 1411   2.483   4.657  17.078 -0.0341 -1.7550 -0.5931
   92MPD2     N 1412   2.783   0.071  16.760  1.0210 -0.0309  0.3956
   92MPD2    H5 1413   2.792   0.100  16.663  1.4554 -0.6754  0.2372
   92MPD2    N1 1414   2.323   4.683  16.646 -0.6290 -0.1361 -0.3171
   92MPD2    H7 1415   2.351   4.710  16.553  2.1082 -1.6936  0.0680
   93MPD2     C 1416   3.679   4.513  13.821 -0.2577 -0.0552 -0.8616
   93MPD2    C1 1417   3.689   4.583  13.704  0.0020  0.5747  0.2868
   93MPD2    C2 1418   3.612   4.697  13.693  0.0564 -0.1989 -0.1890
   93MPD2    C3 1419   3.499   4.714  13.781 -0.2350 -0.3430 -0.6262
   93MPD2    C4 1420   3.493   4.646  13.895  0.0995 -0.5371  0.3170
   93MPD2    C5 1421   3.581   4.546  13.910  0.2403 -0.4458 -0.1481
   93MPD2     H 1422   3.634   0.030  13.602  0.9110  0.3484  0.3519
   93MPD2    H1 1423   3.409   4.650  13.964 -0.7649  1.2354 -0.8483
   93MPD2    H2 1424   3.742   4.429  13.846  2.2414  1.8434 -0.7710
   93MPD2    H3 1425   3.578   4.482  13.997  1.6667 -2.2472 -1.4185
   93MPD2     N 1426   3.391   0.086  13.755 -0.0838 -0.1049 -0.8795
   93MPD2    H5 1427   3.296   0.057  13.778 -0.6446  1.9297 -0.6440
   93MPD2    N1 1428   3.783   4.547  13.606  0.3522 -0.9350  0.7997
   93MPD2    H7 1429   3.764   4.596  13.519 -0.2537 -0.4278  1.2119
   94TCq2    C1 1430   3.877   4.442  13.602 -0.3218 -1.2687  0.1731
   94TCq2    O2 1431   3.909   4.366  13.693  0.0365  0.2941 -0.0357
   94TCq2    C2 1432   3.914   4.423  13.463  0.5090  0.5477 -0.7619
   94TCq2    C3 1433   3.807   4.426  13.381  0.4223 -0.0114 -0.3611
   94TCq2    C4 1434   3.811   4.479  13.263 -0.6185 -0.1041 -0.4734
   94TCq2    C5 1435   3.927   4.527  13.209  0.3002  0.4095 -0.1566
   94TCq2    C6 1436   4.037   4.509  13.290 -0.6252 -0.4454 -0.6417
   94TCq2    C7 1437   4.032   4.464  13.419  0.3302  0.6416 -0.1742
   94TCq2    C8 1438   4.163   4.551  13.229  0.3027 -0.3401  0.4371
   94TCq2    O4 1439   4.258   4.473  13.237  0.2124 -0.5127  1.1393
   94TCq2    C9 1440   3.694   4.503  13.184 -0.3917 -0.1008 -0.0510
   94TCq2    O5 1441   3.696   4.601  13.107 -0.2400  0.0889 -0.3255
   94TCq2    O6 1442   3.588   4.443  13.216 -0.4149 -0.0023  1.1824
   94TCq2    H2 1443   3.712   4.388  13.416  0.2004  1.4020  0.5353
   94TCq2    H3 1444   3.937   4.566  13.108  0.3448 -1.5457 -0.8950
   94TCq2    H4 1445   4.124   4.439  13.471 -0.1697 -1.0345 -0.1139
   95TMC2    C1 1446   3.492   2.208  16.388  0.3622 -0.0819 -0.5912
   95TMC2    C2 1447   3.535   2.119  16.484  0.3002  0.2081  0.4222
   95TMC2    C3 1448   3.511   2.149  16.612 -0.4693  0.0240 -1.0447
   95TMC2    C4 1449   3.450   2.331  16.434 -0.0634  0.2174 -0.2412
   95TMC2    C5 1450   3.436   2.362  16.562  0.7553 -0.1679  0.4389
   95TMC2    C6 1451   3.458   2.269  16.655 -0.1786 -0.2285  0.1753
   95TMC2     C 1452   3.530   2.191  16.247 -0.2072  0.8676 -0.3489
   95TMC2     O 1453   3.544   2.295  16.180  0.2242  0.0325  0.0258
   95TMC2     H 1454   3.570   2.020  16.457 -1.4855 -0.7179  1.5497
   95TMC2    H1 1455   3.446   2.412  16.363  0.2392 -0.5218 -1.1074
   95TMC2    H2 1456   3.434   2.289  16.759  0.6819  1.1478  0.1167
   95TMC2    C7 1457   3.384   2.486  16.614 -0.1943 -0.5195  0.2462
   95TMC2    C8 1458   3.513   2.032  16.696 -0.9432 -0.6383  0.0737
   95TMC2    O1 1459   3.393   2.511  16.737  0.3829 -0.0890 -0.2376
   95TMC2    O2 1460   3.518   1.917  16.652 -0.2709  0.2760  0.1143
   95TMC2    O5 1461   3.552   2.063  16.819  0.4519 -0.1722 -0.3155
   95TMC2    H5 1462   3.584   2.156  16.827  1.1329 -0.4637  0.3094
   96MPD2     C 1463   3.645   1.902  15.848 -0.2031 -0.2390 -0.1576
   96MPD2    C1 1464   3.658   2.039  15.855 -0.6875 -0.0159  0.4169
   96MPD2    C2 1465   3.631   2.092  15.980  0.1745  0.2671  0.3110
   96MPD2    C3 1466   3.600   2.011  16.090  0.5036  0.2873  0.1462
   96MPD2    C4 1467   3.586   1.876  16.074  0.1941 -0.1491  0.0437
   96MPD2    C5 1468   3.610   1.821  15.952 -0.0515 -0.2827 -0.3568
   96MPD2     H 1469   3.643   2.198  16.002  0.4634  0.3308 -0.1457
   96MPD2    H1 1470   3.565   1.816  16.162  0.0206 -1.2513 -0.7486
   96MPD2    H2 1471   3.653   1.859  15.749  1.3529  0.3636 -0.2877
   96MPD2    H3 1472   3.604   1.715  15.932  0.0449 -0.3056 -0.2615
   96MPD2     N 1473   3.554   2.060  16.215  0.5080  0.0512 -0.1293
   96MPD2    H5 1474   3.530   1.993  16.287  0.6644  0.6346  0.4650
   96MPD2    N1 1475   3.714   2.115  15.746 -0.1134 -0.0569 -0.5010
   96MPD2    H7 1476   3.727   2.053  15.666 -0.8061 -1.0485  0.1431
   97MPD2     C 1477   0.843   3.669   0.876  0.7853  0.1540 -0.3376
   97MPD2    C1 1478   0.790   3.802   0.887  0.4805  0.4360  0.0705
   97MPD2    C2 1479   0.799   3.884   0.774  0.2086  0.0581 -0.1642
   97MPD2    C3 1480   0.869   3.835   0.662 -0.0897 -0.3763  0.4495
   97MPD2    C4 1481   0.915   3.707   0.653  0.3213 -0.2960 -0.3338
   97MPD2    C5 1482   0.905   3.631   0.766  0.8232 -0.3388  0.4336
   97MPD2     H 1483   0.756   3.984   0.773  0.0753 -0.0029 -1.6512
   97MPD2    H1 1484   0.959   3.657   0.567  1.2568  1.2757 -0.7678
   97MPD2    H2 1485   0.838   3.602   0.961  1.6706 -0.2172 -0.5845
   97MPD2    H3 1486   0.962   3.540   0.780  0.2037 -0.7242  0.4427
   97MPD2     N 1487   0.873   3.921   0.546  0.3079  0.0379  0.3469
   97MPD2    H5 1488   0.813   4.003   0.548  0.8005  0.3726  1.1325
   97MPD2    N1 1489   0.714   3.850   0.995 -0.3075 -0.1347 -0.1669
   97MPD2    H7 1490   0.657   3.934   0.984 -0.1428  0.0938  0.7269
   98TCq2    C1 1491   0.973   3.909   0.451  0.1290  0.0219 -0.9311
   98TCq2    O2 1492   1.076   3.838   0.446 -0.1064 -0.0235 -0.9081
   98TCq2    C2 1493   0.953   3.988   0.329 -0.3501  0.1583  0.1558
   98TCq2    C3 1494   0.827   4.015   0.287  0.2928  0.1553  0.3985
   98TCq2    C4 1495   0.812   4.084   0.170 -0.1700 -0.3976 -0.0698
   98TCq2    C5 1496   0.925   4.130   0.102 -0.3215 -0.6091  0.3096
   98TCq2    C6 1497   1.047   4.104   0.157 -0.1581  0.4882  0.1049
   98TCq2    C7 1498   1.066   4.034   0.271  0.8043 -0.0936  0.3524
   98TCq2    C8 1499   1.170   4.175   0.117  0.0491 -0.1105 -0.0703
   98TCq2    O4 1500   1.267   4.165   0.191  0.0551  0.5955  0.2601
   98TCq2    C9 1501   0.678   4.103   0.120 -0.0507 -0.9856  0.1378
   98TCq2    O5 1502   0.589   4.048   0.190 -0.1933  1.2650  0.5725
   98TCq2    O6 1503   0.668   4.143   0.001  0.2023  0.5214  0.1629
   98TCq2    H2 1504   0.743   3.964   0.334 -1.6336 -0.0925 -3.3220
   98TCq2    H3 1505   0.904   4.191   0.014 -0.7803  1.0592  1.5720
   98TCq2    H4 1506   1.161   4.019   0.319  0.5702 -1.5091  0.3709
   99MPD2     C 1507   0.108   1.161   2.058  0.2516 -0.1154 -0.5463
   99MPD2    C1 1508   4.700   1.143   2.015  1.5119 -0.3864 -0.1692
   99MPD2    C2 1509   4.679   1.146   1.877 -0.8285  0.5933 -0.1404
   99MPD2    C3 1510   0.066   1.150   1.788 -0.2973 -0.0053  0.2942
   99MPD2    C4 1511   0.196   1.175   1.835 -0.3976 -0.3981  0.1495
   99MPD2    C5 1512   0.211   1.183   1.968  0.6159  0.1829  0.0878
   99MPD2     H 1513   4.579   1.142   1.835 -1.1710  3.0425  0.4110
   99MPD2    H1 1514   0.279   1.186   1.766 -0.1686 -0.0884  0.4765
   99MPD2    H2 1515   0.138   1.155   2.162 -1.2762  0.2532 -0.0846
   99MPD2    H3 1516   0.309   1.191   2.014 -0.4346  0.8525  2.1981
   99MPD2     N 1517   0.027   1.168   1.648 -0.1680 -0.9406  0.0543
   99MPD2    H5 1518   4.650   1.171   1.628 -0.1338  3.2277  0.4144
   99MPD2    N1 1519   4.581   1.114   2.099  0.1988 -0.0543  0.3509
   99MPD2    H7 1520   4.499   1.087   2.046  0.8606 -1.8292  0.2432
  100TCq2    C1 1521   4.598   1.086   2.231  0.9654 -0.3781  0.4755
  100TCq2    O2 1522   4.703   1.064   2.286 -0.2701 -0.1705  0.1411
  100TCq2    C2 1523   4.476   1.054   2.301 -0.4796  0.1063 -0.4375
  100TCq2    C3 1524   4.490   1.015   2.437  0.7012  0.7025 -0.5976
  100TCq2    C4 1525   4.376   1.014   2.514  0.0415 -0.1431  0.3986
  100TCq2    C5 1526   4.251   1.043   2.463  0.2306 -0.6165 -0.0077
  100TCq2    C6 1527   4.245   1.054   2.326 -0.0230  0.3223 -0.6212
  100TCq2    C7 1528   4.354   1.076   2.244  0.2794 -0.1535 -0.1092
  100TCq2    C8 1529   4.117   1.118   2.285 -0.8041 -0.1146  0.5008
  100TCq2    O4 1530   4.066   1.187   2.369  0.1163 -0.1684  0.1967
  100TCq2    C9 1531   4.376   0.988   2.659 -0.1673 -0.1287 -0.1941
  100TCq2    O5 1532   4.264   0.987   2.713  0.3527 -0.1318  0.4259
  100TCq2    O6 1533   4.491   0.992   2.714  0.1223 -0.1546  0.2295
  100TCq2    H2 1534   4.582   1.012   2.496  0.3123  1.8115  0.0715
  100TCq2    H3 1535   4.162   1.034   2.525  0.6678 -1.5292  0.4780
  100TCq2    H4 1536   4.337   1.106   2.141 -3.0093 -0.0660  0.4508
  101MPD2     C 1537   0.318   2.926  12.738 -0.0410 -0.5357  0.0063
  101MPD2    C1 1538   0.229   2.948  12.839  0.4505  0.1251  0.6777
  101MPD2    C2 1539   0.195   2.843  12.928 -0.7708  0.7149 -0.2289
  101MPD2    C3 1540   0.261   2.722  12.913  0.4320 -0.2524  0.1523
  101MPD2    C4 1541   0.355   2.707  12.811 -0.0889 -0.6801  0.0943
  101MPD2    C5 1542   0.381   2.807  12.726 -0.2866  0.1001  0.1295
  101MPD2     H 1543   0.114   2.856  12.999 -0.7581  1.2227 -0.3041
  101MPD2    H1 1544   0.410   2.616  12.793  0.8219 -0.4814  1.8297
  101MPD2    H2 1545   0.345   3.001  12.665 -0.5547 -0.9884 -0.6442
  101MPD2    H3 1546   0.458   2.785  12.653  0.4056  0.9362  0.6159
  101MPD2     N 1547   0.220   2.622  12.996 -0.5212 -0.0023  0.4455
  101MPD2    H5 1548   0.158   2.646  13.072 -0.9238  0.0160  0.1101
  101MPD2    N1 1549   0.159   3.072  12.840  0.0712  0.8208 -0.3045
  101MPD2    H7 1550   0.182   3.137  12.766 -0.7437  0.6402 -0.7178
  102TCq2    C1 1551   0.211   3.439  12.643  0.0761  0.2058  0.0726
  102TCq2    O2 1552   0.324   3.398  12.648  0.2483  0.2203 -0.3230
  102TCq2    C2 1553   0.113   3.419  12.755 -0.3994 -0.2502  0.0325
  102TCq2    C3 1554   4.707   3.470  12.749  0.3355  0.0878 -0.1747
  102TCq2    C4 1555   4.624   3.418  12.846  0.3431  1.2999  0.7785
  102TCq2    C5 1556   4.664   3.311  12.925  0.2077  0.4667 -0.0985
  102TCq2    C6 1557   0.062   3.261  12.914 -0.1636 -0.1248  0.4729
  102TCq2    C7 1558   0.154   3.310  12.829 -0.1350  0.2608 -0.2022
  102TCq2    C8 1559   0.092   3.125  12.953  0.1631 -0.7350  0.4025
  102TCq2    O4 1560   0.041   3.065  13.051  0.5716 -0.3158  0.3000
  102TCq2    C9 1561   4.483   3.467  12.850  0.9390  0.9681 -0.1315
  102TCq2    O5 1562   4.409   3.417  12.940 -0.1823  0.1750 -0.0485
  102TCq2    O6 1563   4.447   3.550  12.761  0.0943 -0.4376 -0.4941
  102TCq2    H2 1564   4.675   3.563  12.704  0.1212 -0.6067 -1.4565
  102TCq2    H3 1565   4.588   3.259  12.983  1.6047 -1.3067  0.1401
  102TCq2    H4 1566   0.254   3.268  12.825  0.2191  0.9524  1.5201
  103TMC2    C1 1567   2.854   3.150  12.348 -0.4801 -0.1221 -0.2936
  103TMC2    C2 1568   2.755   3.243  12.324  0.4646  0.1741  0.1939
  103TMC2    C3 1569   2.694   3.300  12.432 -0.5204  0.7522  0.0178
  103TMC2    C4 1570   2.900   3.124  12.474 -0.7594  0.0235 -0.5691
  103TMC2    C5 1571   2.832   3.188  12.577  0.5610 -0.4277  0.7016
  103TMC2    C6 1572   2.728   3.272  12.557  0.3902  0.6463 -0.7187
  103TMC2     C 1573   2.901   3.067  12.241  0.4366  0.0058 -0.0524
  103TMC2     O 1574   3.007   3.010  12.259 -0.1810 -0.0441 -0.1741
  103TMC2     H 1575   2.713   3.267  12.228  2.1878  2.4935  0.0284
  103TMC2    H1 1576   2.993   3.068  12.486 -0.8675  0.0924  0.6136
  103TMC2    H2 1577   2.678   3.318  12.642  0.7056  1.6591 -1.0778
  103TMC2    C7 1578   2.834   3.124  12.709  0.4923 -0.6544  0.3494
  103TMC2    C8 1579   2.556   3.342  12.424  0.3094  0.0961 -1.0366
  103TMC2    O1 1580   2.935   3.056  12.727 -0.1272  0.0911  0.7120
  103TMC2    O2 1581   2.468   3.300  12.497 -0.0764  0.1280 -0.0062
  103TMC2    O5 1582   2.538   3.415  12.316  0.0577  0.0394 -0.5543
  103TMC2    H5 1583   2.628   3.440  12.286  0.5310 -0.8938  0.0940
  104MPD2     C 1584   2.957   2.932  11.983 -0.2414 -0.4962 -0.3552
  104MPD2    C1 1585   2.843   3.011  12.008 -1.2980 -0.1098  0.4750
  104MPD2    C2 1586   2.743   3.019  11.912 -0.6067  0.5387 -0.2204
  104MPD2    C3 1587   2.752   2.943  11.795 -0.5978  0.3816 -0.1971
  104MPD2    C4 1588   2.869   2.875  11.781  0.0123 -0.2245  0.6937
  104MPD2    C5 1589   2.977   2.870  11.866 -0.2480  0.1617 -0.5668
  104MPD2     H 1590   2.651   3.065  11.947  0.0805  1.7235  0.0462
  104MPD2    H1 1591   2.887   2.811  11.696  1.8430 -0.6421  1.3942
  104MPD2    H2 1592   3.038   2.917  12.054 -1.2013 -3.2533  0.1664
  104MPD2    H3 1593   3.071   2.820  11.845 -1.3039 -2.0858  0.0247
  104MPD2     N 1594   2.638   2.943  11.703  0.2809 -0.1740  0.2217
  104MPD2    H5 1595   2.554   2.989  11.737 -0.5590 -1.4609 -0.1089
  104MPD2    N1 1596   2.820   3.071  12.131 -0.1990  0.2038 -0.0081
  104MPD2    H7 1597   2.735   3.124  12.148 -1.3466 -2.0836  1.4726
  105MPD2     C 1598   0.766   1.650  17.108 -0.2837  0.3748  0.1242
  105MPD2    C1 1599   0.700   1.760  17.158 -0.4855 -0.0747  0.2747
  105MPD2    C2 1600   0.668   1.774  17.289  0.4051 -0.3105 -0.2577
  105MPD2    C3 1601   0.701   1.670  17.379  0.0712  0.1376  0.0323
  105MPD2    C4 1602   0.775   1.566  17.333  0.6324  0.6700 -0.4940
  105MPD2    C5 1603   0.803   1.550  17.200 -0.0814 -0.3583 -0.5276
  105MPD2     H 1604   0.616   1.859  17.331  1.2898 -0.2434  0.7021
  105MPD2    H1 1605   0.806   1.488  17.402  0.3326  0.9912  0.0032
  105MPD2    H2 1606   0.761   1.625  17.003 -1.2974  1.1270  0.0013
  105MPD2    H3 1607   0.847   1.459  17.160  1.3537  0.1478 -0.0947
  105MPD2     N 1608   0.667   1.691  17.517 -0.1138  0.7364 -0.1524
  105MPD2    H5 1609   0.641   1.788  17.534  3.2631  1.8826 -1.6335
  105MPD2    N1 1610   0.668   1.871  17.075  0.5613  0.5647 -0.0923
  105MPD2    H7 1611   0.617   1.945  17.122 -0.9179 -0.1058 -0.6526
  106TCq2    C1 1612   0.674   1.601  17.611  0.0276  0.3540  0.5242
  106TCq2    O2 1613   0.674   1.479  17.598 -0.2355 -0.4236  0.3866
  106TCq2    C2 1614   0.629   1.649   0.048  0.2265  0.7426  0.0298
  106TCq2    C3 1615   0.543   1.578   0.121 -0.6166 -0.4281  0.0512
  106TCq2    C4 1616   0.482   1.636   0.225  0.4775  0.9098  0.1673
  106TCq2    C5 1617   0.522   1.754   0.279  0.1467 -0.4366  0.4576
  106TCq2    C6 1618   0.609   1.827   0.193  0.2816  0.1126  0.2164
  106TCq2    C7 1619   0.670   1.777   0.085  0.1100 -0.5641  0.1223
  106TCq2    C8 1620   0.625   1.971   0.199  0.3503 -0.3466  0.8334
  106TCq2    O4 1621   0.710   2.023   0.128 -0.2052 -0.1943 -0.7028
  106TCq2    C9 1622   0.391   1.559   0.303 -0.3942 -0.0677 -0.8560
  106TCq2    O5 1623   0.342   1.617   0.404 -0.0114 -0.4965 -0.3689
  106TCq2    O6 1624   0.348   1.455   0.251  0.0828 -0.4204 -0.3201
  106TCq2    H2 1625   0.534   1.471   0.102 -0.3470 -0.3230 -0.6668
  106TCq2    H3 1626   0.480   1.800   0.367  1.3086 -0.1650  0.8731
  106TCq2    H4 1627   0.733   1.838   0.021 -0.7858  1.3584  1.0902
  107TMC2    C1 1628   1.078   0.307  11.061  0.4352  0.0132 -0.0253
  107TMC2    C2 1629   1.024   0.191  11.021 -0.2486  0.6229  0.4332
  107TMC2    C3 1630   1.052   0.132  10.901  0.5675 -0.0291 -0.4669
  107TMC2    C4 1631   1.156   0.370  10.968  0.2937  0.4988  0.0468
  107TMC2    C5 1632   1.160   0.324  10.836  0.3514  0.7341  0.2483
  107TMC2    C6 1633   1.126   0.199  10.805 -0.1610  0.1046  0.1004
  107TMC2     C 1634   1.057   0.360  11.191  0.7136  0.9491  0.2087
  107TMC2     O 1635   1.075   0.481  11.209  0.1914 -0.4820 -0.5130
  107TMC2     H 1636   0.949   0.129  11.068  0.3485 -1.4512 -1.3531
  107TMC2    H1 1637   1.210   0.460  10.996  0.9827 -0.4083  1.6250
  107TMC2    H2 1638   1.147   0.156  10.707  0.4488  0.7751 -0.0642
  107TMC2    C7 1639   1.241   0.399  10.743  0.1381  0.0713  0.9007
  107TMC2    C8 1640   0.960   0.021  10.872  0.0849 -0.2269  0.0822
  107TMC2    O1 1641   1.335   0.459  10.794 -0.2564  0.0607 -0.0004
  107TMC2    O2 1642   0.958   4.646  10.943  0.1595  0.1026  0.0407
  107TMC2    O5 1643   0.968   0.019  10.738  0.5434 -0.6316  0.1799
  107TMC2    H5 1644   0.954   0.108  10.701 -0.7133 -0.3953  1.2503
  108MPD2     C 1645   0.960   0.162  11.491  0.5947  0.8722 -0.1802
  108MPD2    C1 1646   0.980   0.280  11.417  0.5433  0.6910 -0.5269
  108MPD2    C2 1647   0.951   0.407  11.471 -0.7870 -0.0012 -0.1643
  108MPD2    C3 1648   0.914   0.416  11.600 -0.5207  0.4471 -0.1293
  108MPD2    C4 1649   0.889   0.299  11.670 -0.2814 -0.2931 -0.4383
  108MPD2    C5 1650   0.910   0.173  11.617 -0.3954  0.1371 -0.2091
  108MPD2     H 1651   0.942   0.495  11.408 -0.8288 -0.2937 -0.5698
  108MPD2    H1 1652   0.851   0.309  11.771 -1.0245 -1.1843 -0.6350
  108MPD2    H2 1653   0.978   0.058  11.468 -0.9934  0.0577  2.1983
  108MPD2    H3 1654   0.897   0.076  11.664  2.5437  0.2871  0.8915
  108MPD2     N 1655   0.889   0.541  11.662  0.0772  0.1399  0.0291
  108MPD2    H5 1656   0.851   0.541  11.757  1.2447 -1.2858  0.5024
  108MPD2    N1 1657   1.033   0.263  11.286 -0.0143  0.5829  0.1467
  108MPD2    H7 1658   1.039   0.168  11.251 -0.9233  0.6512 -0.2052
  109MPD2     C 1659   0.520   2.506   2.105 -0.4172 -0.3853  0.1720
  109MPD2    C1 1660   0.575   2.603   2.027 -0.7273  0.4347 -0.3102
  109MPD2    C2 1661   0.500   2.719   2.013 -0.3955  0.2451 -0.1673
  109MPD2    C3 1662   0.393   2.752   2.095  0.3874  0.1080 -0.3823
  109MPD2    C4 1663   0.343   2.658   2.183  0.4450  0.0369 -0.2896
  109MPD2    C5 1664   0.411   2.537   2.182 -0.0927 -0.3524  0.0868
  109MPD2     H 1665   0.541   2.798   1.950 -0.9489  0.9842  0.4009
  109MPD2    H1 1666   0.259   2.662   2.251  2.0218  0.5411  1.6224
  109MPD2    H2 1667   0.576   2.417   2.129  1.1970  0.8249  0.8932
  109MPD2    H3 1668   0.379   2.464   2.256 -0.7118  0.6491  0.8114
  109MPD2     N 1669   0.347   2.882   2.089 -0.4620  0.4636  0.5129
  109MPD2    H5 1670   0.397   2.949   2.032  0.1032  1.3968  2.1112
  109MPD2    N1 1671   0.697   2.578   1.962 -0.0460  0.1852  0.3109
  109MPD2    H7 1672   0.741   2.488   1.981 -1.0755 -1.1849 -3.6895
  110TCq2    C1 1673   0.247   2.940   2.164  0.3742 -0.1285  0.3394
  110TCq2    O2 1674   0.185   2.893   2.259  0.3692 -0.6463 -0.0823
  110TCq2    C2 1675   0.212   3.077   2.131  0.3174  0.4106 -0.3396
  110TCq2    C3 1676   0.164   3.160   2.230 -0.1875 -0.4001 -0.1722
  110TCq2    C4 1677   0.174   3.294   2.216  0.2294  0.3267 -0.3636
  110TCq2    C5 1678   0.226   3.358   2.112  0.2369 -0.4945  0.5445
  110TCq2    C6 1679   0.282   3.279   2.013  0.0808 -0.4662  0.5319
  110TCq2    C7 1680   0.277   3.139   2.018  0.1953  0.7075  0.4236
  110TCq2    C8 1681   0.367   3.349   1.915 -0.5426  0.2930 -0.9109
  110TCq2    O4 1682   0.343   3.468   1.900  0.8206 -0.8147  0.6352
  110TCq2    C9 1683   0.113   3.370   2.329 -0.0180  0.0122 -0.7970
  110TCq2    O5 1684   0.082   3.314   2.435 -0.3976  0.8345 -0.1341
  110TCq2    O6 1685   0.112   3.497   2.321  0.4771 -0.5149  0.3732
  110TCq2    H2 1686   0.125   3.116   2.321  0.4213 -0.6890 -0.0508
  110TCq2    H3 1687   0.226   3.466   2.114 -3.2092 -0.5143  0.3255
  110TCq2    H4 1688   0.319   3.078   1.938  0.6571 -2.2110  2.9009
  111TMC2    C1 1689   0.693   3.122  11.099  0.1978 -0.3455 -0.3965
  111TMC2    C2 1690   0.798   3.061  11.036  0.1458 -0.8165 -0.0014
  111TMC2    C3 1691   0.883   2.978  11.103 -0.0503 -1.0398 -0.0523
  111TMC2    C4 1692   0.668   3.112  11.234  0.4096 -0.4041  0.0913
  111TMC2    C5 1693   0.772   3.042  11.300  0.0575 -0.2355 -0.5632
  111TMC2    C6 1694   0.870   2.966  11.239 -0.0017 -0.1914 -0.3862
  111TMC2     C 1695   0.618   3.211  11.013  0.4172 -0.2105  0.2480
  111TMC2     O 1696   0.651   3.231  10.897 -0.5085 -0.5052 -0.1157
  111TMC2     H 1697   0.832   3.089  10.937 -1.5989  1.5754  0.0775
  111TMC2    H1 1698   0.600   3.178  11.287 -0.1560 -2.4565  1.9511
  111TMC2    H2 1699   0.948   2.917  11.296 -1.3729 -1.7579  0.1316
  111TMC2    C7 1700   0.772   3.052  11.440 -0.0932  0.6678  0.7228
  111TMC2    C8 1701   0.998   2.920  11.040  0.1539  0.4037  0.0716
  111TMC2    O1 1702   0.673   3.082  11.502 -0.4903  0.7807  0.3277
  111TMC2    O2 1703   1.062   2.952  10.943  0.1482  0.5975 -0.0056
  111TMC2    O5 1704   0.990   2.802  11.092 -0.3800 -0.3160 -0.4597
  111TMC2    H5 1705   0.918   2.786  11.157  0.2805  0.6497  0.5020
  112MPD2     C 1706   0.134   3.383  10.953 -0.5826  0.6428  0.2299
  112MPD2    C1 1707   0.229   3.363  10.854  0.3257  0.2136  0.4919
  112MPD2    C2 1708   0.356   3.328  10.891 -0.5243 -0.2738  0.0374
  112MPD2    C3 1709   0.381   3.299  11.025 -0.2811 -0.6659 -0.1888
  112MPD2    C4 1710   0.282   3.337  11.117  0.8431 -0.0354 -0.1791
  112MPD2    C5 1711   0.164   3.386  11.088 -0.3176 -0.4421 -0.1066
  112MPD2     H 1712   0.425   3.306  10.811 -1.1565 -0.4664 -0.4547
  112MPD2    H1 1713   0.296   3.341  11.225 -2.2622  0.7990  0.1827
  112MPD2    H2 1714   0.029   3.393  10.926 -0.4331 -2.0952 -1.4189
  112MPD2    H3 1715   0.089   3.403  11.165  1.6570 -0.8278  1.9142
  112MPD2     N 1716   0.498   3.245  11.078 -0.4151 -0.1584  0.5701
  112MPD2    H5 1717   0.490   3.224  11.177 -0.6522 -2.0747  0.1490
  112MPD2    N1 1718   0.200   3.370  10.719 -0.1202  0.1491 -0.0150
  112MPD2    H7 1719   0.285   3.366  10.665 -0.0664 -1.8562  0.2053
  113MPD2     C 1720   4.119   0.901   1.437  0.5137 -0.5241  0.0022
  113MPD2    C1 1721   4.017   0.994   1.453 -0.0330 -0.4871  0.4153
  113MPD2    C2 1722   3.914   0.995   1.358  0.2282 -0.0230  0.6153
  113MPD2    C3 1723   3.915   0.900   1.258  0.2422 -0.0467 -0.1852
  113MPD2    C4 1724   4.022   0.816   1.241  0.6487 -0.2096 -0.1131
  113MPD2    C5 1725   4.122   0.819   1.334 -0.3095  0.2041  0.7185
  113MPD2     H 1726   3.832   1.065   1.371 -0.3285 -0.1398 -2.2964
  113MPD2    H1 1727   4.028   0.750   1.156 -1.6080 -1.2217  0.5312
  113MPD2    H2 1728   4.201   0.909   1.507 -0.2471  0.8329  0.7406
  113MPD2    H3 1729   4.212   0.760   1.315 -1.2131 -0.9588  0.0181
  113MPD2     N 1730   3.805   0.889   1.166 -0.2473 -0.3602 -0.2455
  113MPD2    H5 1731   3.791   0.803   1.114  0.7245 -1.4122  1.2451
  113MPD2    N1 1732   4.021   1.094   1.547 -0.1199  0.2005 -0.2306
  113MPD2    H7 1733   3.941   1.158   1.542 -0.3895  0.0904  2.3694
  114TCq2    C1 1734   3.709   0.983   1.147 -0.7027 -0.5798 -0.0765
  114TCq2    O2 1735   3.708   1.101   1.187  0.0672  0.2857 -0.1364
  114TCq2    C2 1736   3.596   0.934   1.062 -0.1668 -0.2488 -0.1297
  114TCq2    C3 1737   3.489   1.011   1.075 -0.4834  0.5163  0.2793
  114TCq2    C4 1738   3.360   0.960   1.062 -0.1691 -0.1963 -0.2640
  114TCq2    C5 1739   3.342   0.830   1.048  0.2507  0.0801 -0.0230
  114TCq2    C6 1740   3.450   0.750   1.041  0.3025 -0.0683  0.3412
  114TCq2    C7 1741   3.574   0.797   1.052  0.0823  0.2579 -0.6287
  114TCq2    C8 1742   3.425   0.606   1.054 -0.1788  0.2511 -0.0928
  114TCq2    O4 1743   3.506   0.536   0.993  0.0342 -0.0791  0.2073
  114TCq2    C9 1744   3.253   1.049   1.105  0.5559  0.7702  0.2741
  114TCq2    O5 1745   3.288   1.147   1.176  0.0122 -0.7793 -0.7325
  114TCq2    O6 1746   3.140   0.992   1.118  0.1682 -0.6951 -0.2256
  114TCq2    H2 1747   3.503   1.117   1.092  0.6104  0.7541 -2.2059
  114TCq2    H3 1748   3.241   0.793   1.033  0.1936 -0.6352  2.1549
  114TCq2    H4 1749   3.655   0.725   1.050  0.0062  0.1393  0.4168
  115TMC2    C1 1750   4.625   3.977   0.120 -0.1704  0.4100  0.6566
  115TMC2    C2 1751   0.029   3.944   0.083 -0.7818  0.6226 -1.1158
  115TMC2    C3 1752   0.132   4.040   0.090 -0.6296  0.4976  0.2576
  115TMC2    C4 1753   4.596   4.107   0.163 -0.2593 -0.3792  0.0681
  115TMC2    C5 1754   4.700   4.197   0.159  0.0861  0.0917  0.4417
  115TMC2    C6 1755   0.101   4.167   0.132  0.1534 -0.4483  0.4738
  115TMC2     C 1756   4.528   3.862   0.127 -0.9462  0.0883  0.1300
  115TMC2     O 1757   4.567   3.760   0.071  0.1159  0.9431 -0.0907
  115TMC2     H 1758   0.060   3.842   0.060  2.5112  1.6140 -1.0818
  115TMC2    H1 1759   4.500   4.150   0.190 -0.0775  1.2530 -1.8123
  115TMC2    H2 1760   0.180   4.240   0.134 -0.2270 -0.0383  0.7073
  115TMC2    C7 1761   4.685   4.327   0.215  0.4682  0.0362  0.2966
  115TMC2    C8 1762   0.271   3.994   0.068  1.0750 -0.1048  0.3248
  115TMC2    O1 1763   4.619   4.331   0.316 -0.2969 -0.1658 -0.0153
  115TMC2    O2 1764   0.307   3.878   0.046  0.0365 -0.8178  0.1417
  115TMC2    O5 1765   0.347   4.087   0.125  0.2035  0.0600  0.0726
  115TMC2    H5 1766   0.438   4.056   0.144  0.6027  1.0536 -0.1966
  116MPD2     C 1767   4.049   3.669   0.188 -0.1036  0.1905 -0.1392
  116MPD2    C1 1768   4.162   3.618   0.135  1.0733  0.6190 -0.0260
  116MPD2    C2 1769   4.285   3.689   0.129  0.3523  0.0705  0.5842
  116MPD2    C3 1770   4.292   3.816   0.180 -0.0276 -0.0902 -0.0698
  116MPD2    C4 1771   4.174   3.866   0.233  0.6899 -0.4793 -0.9573
  116MPD2    C5 1772   4.058   3.794   0.242 -0.3299 -0.2253 -0.4646
  116MPD2     H 1773   4.372   3.638   0.090 -1.1303 -3.1290  1.4595
  116MPD2    H1 1774   4.167   3.963   0.282 -0.2717 -0.0986 -1.8628
  116MPD2    H2 1775   3.964   3.603   0.205  1.4571 -1.6545  0.5910
  116MPD2    H3 1776   3.965   3.832   0.285  1.1677  0.1128  2.4554
  116MPD2     N 1777   4.409   3.896   0.182  0.0087 -0.8526  0.4123
  116MPD2    H5 1778   4.387   3.987   0.222  2.6669 -0.4868  1.0406
  116MPD2    N1 1779   4.159   3.486   0.087 -0.7539  0.7555 -0.4589
  116MPD2    H7 1780   4.070   3.440   0.068 -1.1940  1.0427  0.8715
  117TMC2    C1 1781   3.218   0.436  13.930  0.4323 -0.0046  0.5136
  117TMC2    C2 1782   3.227   0.348  14.035 -0.2025 -0.2340  0.0821
  117TMC2    C3 1783   3.356   0.323  14.070 -0.0555 -0.5151  0.7836
  117TMC2    C4 1784   3.330   0.501  13.875 -0.4256 -0.5248 -0.9781
  117TMC2    C5 1785   3.454   0.469  13.913  0.7437  0.3165  0.1707
  117TMC2    C6 1786   3.470   0.379  14.016  0.5298 -0.0115  0.0416
  117TMC2     C 1787   3.089   0.463  13.876  0.2040  0.4635 -0.5013
  117TMC2     O 1788   3.021   0.369  13.905 -0.3327 -0.1878  0.4044
  117TMC2     H 1789   3.140   0.305  14.083 -1.2908 -0.7417 -2.3105
  117TMC2    H1 1790   3.328   0.588  13.809  0.5831  0.1645 -0.1015
  117TMC2    H2 1791   3.562   0.340  14.057  1.0940 -0.5638 -1.7539
  117TMC2    C7 1792   3.568   0.528  13.854 -0.3755 -0.6734 -0.2834
  117TMC2    C8 1793   3.366   0.240  14.185 -0.1583  0.8449  0.2266
  117TMC2    O1 1794   3.556   0.640  13.823 -0.3037 -0.2018  0.0456
  117TMC2    O2 1795   3.335   0.121  14.191 -0.5980  0.6874  0.2232
  117TMC2    O5 1796   3.374   0.324  14.291  0.1965 -0.0473  0.0217
  117TMC2    H5 1797   3.405   0.415  14.270 -1.3691  0.4303 -0.2218
  118MPD2     C 1798   3.895   0.371  13.781  0.0972  0.1368  0.9666
  118MPD2    C1 1799   3.804   0.475  13.811  0.0101  0.6257 -0.2377
  118MPD2    C2 1800   3.852   0.604  13.798  0.6195  0.2290  0.7195
  118MPD2    C3 1801   3.980   0.644  13.747  0.2555 -0.0699 -0.2938
  118MPD2    C4 1802   4.064   0.543  13.712  0.4791 -0.1363 -0.2886
  118MPD2    C5 1803   4.014   0.412  13.720 -0.1076  0.1844  0.8951
  118MPD2     H 1804   3.786   0.684  13.830  0.6291  0.5009  0.0523
  118MPD2    H1 1805   4.154   0.564  13.654  1.5836  0.8015  1.7434
  118MPD2    H2 1806   3.873   0.265  13.787 -2.5666  0.7487  2.0515
  118MPD2    H3 1807   4.074   0.335  13.674 -1.9133 -0.7669  0.1379
  118MPD2     N 1808   4.027   0.773  13.722  0.3425 -0.2101 -0.6093
  118MPD2    H5 1809   4.123   0.782  13.689  0.4656  1.2492  0.1238
  118MPD2    N1 1810   3.673   0.440  13.849  0.1470  0.1888 -0.0112
  118MPD2    H7 1811   3.656   0.342  13.870 -1.2390  0.4161 -0.0395
  119MPD2     C 1812   1.272   2.288  13.060 -0.3041 -0.0217 -0.6818
  119MPD2    C1 1813   1.136   2.305  13.047  0.2601  0.0851  0.7370
  119MPD2    C2 1814   1.071   2.239  12.950  0.1534  0.0728 -0.4693
  119MPD2    C3 1815   1.141   2.152  12.864 -0.0371  0.2480 -0.9377
  119MPD2    C4 1816   1.277   2.136  12.881 -0.7188  0.0320 -0.4111
  119MPD2    C5 1817   1.339   2.209  12.977 -0.1780 -0.1550  0.2334
  119MPD2     H 1818   0.964   2.243  12.931  0.1289 -3.6293 -1.1554
  119MPD2    H1 1819   1.331   2.064  12.820 -1.3117  0.5631 -1.5785
  119MPD2    H2 1820   1.323   2.324  13.148 -0.2397  0.4070 -0.8917
  119MPD2    H3 1821   1.445   2.197  12.994 -0.3872 -1.4742  0.6204
  119MPD2     N 1822   1.077   2.066  12.766 -0.9098  0.2876  0.5563
  119MPD2    H5 1823   1.143   2.015  12.709 -0.2172  1.9348 -0.1119
  119MPD2    N1 1824   1.074   2.384  13.147 -0.1495  0.4683 -0.5766
  119MPD2    H7 1825   1.126   2.423  13.224 -1.4924 -0.0285  0.6022
  120TCq2    C1 1826   0.943   2.054  12.745  0.4445  0.7186 -0.3977
  120TCq2    O2 1827   0.846   2.104  12.798 -0.2422  0.4801  0.4079
  120TCq2    C2 1828   0.930   1.936  12.666  0.2670 -0.0109  0.2036
  120TCq2    C3 1829   1.028   1.847  12.641  0.1720  0.9622 -0.1560
  120TCq2    C4 1830   1.004   1.721  12.599 -0.0899  0.8192 -0.2505
  120TCq2    C5 1831   0.874   1.681  12.598  0.6341 -0.5820  0.4120
  120TCq2    C6 1832   0.774   1.771  12.630  0.2543 -0.2248  0.0536
  120TCq2    C7 1833   0.798   1.899  12.670 -0.1438 -0.0506 -0.0728
  120TCq2    C8 1834   0.650   1.719  12.689 -0.2044 -1.2261 -0.6606
  120TCq2    O4 1835   0.577   1.650  12.617  0.2748  0.1232 -0.1964
  120TCq2    C9 1836   1.112   1.634  12.563 -0.2160  0.2033  0.3823
  120TCq2    O5 1837   1.232   1.682  12.563 -0.5796 -0.4980 -0.2883
  120TCq2    O6 1838   1.084   1.516  12.535 -0.1866  0.8369 -0.2688
  120TCq2    H2 1839   1.134   1.869  12.636 -0.2499  2.6024 -2.2451
  120TCq2    H3 1840   0.842   1.585  12.558  0.0106 -0.5176  0.7588
  120TCq2    H4 1841   0.719   1.971  12.685 -1.7660 -2.7868  4.4393
  121TMC2    C1 1842   2.755   3.752  14.158  0.4863  0.1201  0.6590
  121TMC2    C2 1843   2.712   3.859  14.219 -0.2594 -0.0702  0.5388
  121TMC2    C3 1844   2.584   3.869  14.253  0.1123  0.4814  0.2624
  121TMC2    C4 1845   2.675   3.644  14.137 -0.7056  0.7491 -0.6237
  121TMC2    C5 1846   2.542   3.657  14.172 -0.0069  0.1217 -0.1273
  121TMC2    C6 1847   2.496   3.777  14.217  0.1950  0.3121 -0.3760
  121TMC2     C 1848   2.881   3.741  14.102 -0.1614 -0.1175 -1.1830
  121TMC2     O 1849   2.976   3.783  14.162  0.0807  0.1445  0.2073
  121TMC2     H 1850   2.779   3.942  14.236 -1.1853  0.9518 -0.8005
  121TMC2    H1 1851   2.715   3.550  14.100  0.5003  0.6768  0.8489
  121TMC2    H2 1852   2.393   3.796  14.245  0.5239 -0.4127  1.3120
  121TMC2    C7 1853   2.448   3.548  14.161  0.0235  0.5465  0.0187
  121TMC2    C8 1854   2.537   3.994  14.309  0.0377  0.1020  0.0465
  121TMC2    O1 1855   2.498   3.440  14.128 -0.1087  0.1641 -0.4100
  121TMC2    O2 1856   2.438   3.990  14.382  0.1412  0.5912  0.4833
  121TMC2    O5 1857   2.583   4.084  14.223  0.6995  0.5448 -0.4648
  121TMC2    H5 1858   2.636   4.050  14.149 -0.1549  1.5690 -1.5447
  122MPD2     C 1859   3.091   3.691  13.893  0.4655 -0.2377 -0.6088
  122MPD2    C1 1860   2.958   3.725  13.867  0.6249  0.3897  0.0518
  122MPD2    C2 1861   2.908   3.727  13.733 -0.9190  0.2498  0.4697
  122MPD2    C3 1862   2.999   3.715  13.629  0.1286  0.5276  0.3567
  122MPD2    C4 1863   3.130   3.683  13.658  0.7465 -0.5749  0.0579
  122MPD2    C5 1864   3.174   3.681  13.791  0.1449  0.3310 -0.0719
  122MPD2     H 1865   2.804   3.756  13.726 -1.0714 -0.4661 -0.3574
  122MPD2    H1 1866   3.208   3.687  13.583  0.6039  1.4506 -0.0020
  122MPD2    H2 1867   3.131   3.678  13.993 -1.6569 -0.6303  0.1876
  122MPD2    H3 1868   3.278   3.653  13.792  0.0898  0.0929 -0.8774
  122MPD2     N 1869   2.968   3.740  13.494  0.8418  0.3609  0.3885
  122MPD2    H5 1870   3.032   3.717  13.419  1.4133 -0.9860  1.2930
  122MPD2    N1 1871   2.858   3.732  13.967  0.5194  0.2228  0.3972
  122MPD2    H7 1872   2.761   3.730  13.939  0.4791  1.1570  0.4692
  123MPD2     C 1873   0.115   1.580   9.176 -0.1614 -0.2631 -0.7070
  123MPD2    C1 1874   0.249   1.626   9.195  0.3672 -0.1627 -0.5038
  123MPD2    C2 1875   0.346   1.537   9.233 -0.4079 -0.1733  0.3638
  123MPD2    C3 1876   0.321   1.405   9.256  0.7304 -0.1816  0.1461
  123MPD2    C4 1877   0.190   1.354   9.221  0.3781 -1.0062  0.3350
  123MPD2    C5 1878   0.090   1.441   9.185  0.4232 -0.9543  0.0788
  123MPD2     H 1879   0.448   1.571   9.248 -0.7564  1.6836 -1.3885
  123MPD2    H1 1880   0.155   1.252   9.229 -0.6433 -0.7557 -0.9544
  123MPD2    H2 1881   0.036   1.648   9.146  0.4504  0.3270 -0.9872
  123MPD2    H3 1882   4.711   1.408   9.170  1.0043 -3.1885  1.0119
  123MPD2     N 1883   0.430   1.319   9.288 -0.1419 -0.0593  0.1809
  123MPD2    H5 1884   0.525   1.355   9.296 -0.1934  0.1531 -0.1392
  123MPD2    N1 1885   0.277   1.758   9.164  0.0447  0.6665 -0.1382
  123MPD2    H7 1886   0.211   1.816   9.113  1.9410 -0.1405 -3.5805
  124TCq2    C1 1887   0.421   1.189   9.325 -1.0077  0.3142  0.0107
  124TCq2    O2 1888   0.324   1.118   9.318  0.0465 -0.6295 -0.2838
  124TCq2    C2 1889   0.548   1.131   9.367  0.0706 -0.0505 -0.8589
  124TCq2    C3 1890   0.674   1.187   9.349 -0.5490 -0.1361  0.3994
  124TCq2    C4 1891   0.788   1.145   9.414  0.2324  0.0615 -0.3540
  124TCq2    C5 1892   0.782   1.028   9.488 -0.1268 -0.6954  0.7484
  124TCq2    C6 1893   0.662   0.960   9.486  0.2924 -0.0082  0.4310
  124TCq2    C7 1894   0.549   1.009   9.437  0.5165  0.2489 -0.1891
  124TCq2    C8 1895   0.651   0.828   9.538  0.4369  0.2197  0.0994
  124TCq2    O4 1896   0.568   0.755   9.492  0.5227 -0.2224  0.0052
  124TCq2    C9 1897   0.906   1.227   9.401 -0.6849 -0.1581 -0.5034
  124TCq2    O5 1898   0.898   1.310   9.313 -0.0235 -0.0860  0.1133
  124TCq2    O6 1899   1.015   1.183   9.452 -0.0976 -0.4754 -0.1040
  124TCq2    H2 1900   0.686   1.281   9.296 -1.8545 -1.4659 -2.2594
  124TCq2    H3 1901   0.870   0.991   9.539  0.6080  0.1556  0.0772
  124TCq2    H4 1902   0.458   0.958   9.463  0.3213  0.1809 -0.9961
  125TMC2    C1 1903   1.079   3.352   9.259  0.3145 -0.1558  0.4062
  125TMC2    C2 1904   1.076   3.226   9.213 -0.1912  0.2396  0.4088
  125TMC2    C3 1905   1.181   3.179   9.135 -0.2247  0.3539  0.0885
  125TMC2    C4 1906   1.171   3.443   9.209 -0.0682  0.1252  0.5542
  125TMC2    C5 1907   1.277   3.399   9.138 -0.2454 -0.4352 -0.9721
  125TMC2    C6 1908   1.281   3.263   9.101  0.8044 -0.4570  0.1701
  125TMC2     C 1909   0.977   3.386   9.358  0.4207 -0.0607 -0.2156
  125TMC2     O 1910   0.917   3.290   9.408 -0.4249  0.2525  0.6036
  125TMC2     H 1911   1.000   3.157   9.246  0.0385 -0.2292 -0.0396
  125TMC2    H1 1912   1.169   3.546   9.243  0.0239  0.6301 -0.9858
  125TMC2    H2 1913   1.360   3.242   9.030  1.7350 -1.2860  1.4455
  125TMC2    C7 1914   1.391   3.488   9.132 -0.5192  0.0266  0.5183
  125TMC2    C8 1915   1.157   3.058   9.055 -0.6408  0.4175 -0.0414
  125TMC2    O1 1916   1.381   3.605   9.169  0.5068 -0.3854  0.3048
  125TMC2    O2 1917   1.041   3.025   9.035  0.1644 -0.2117  0.2765
  125TMC2    O5 1918   1.261   2.974   9.066 -0.2578  0.4509 -0.0993
  125TMC2    H5 1919   1.346   3.018   9.088 -0.5221  0.1507  1.5206
  126MPD1     C 1920   0.701   3.720   9.644  0.1533 -0.7701  1.4005
  126MPD1    C1 1921   0.774   3.788   9.552 -0.4782 -0.0474  0.2854
  126MPD1    C2 1922   0.856   3.714   9.460 -0.7813 -0.1283  0.0975
  126MPD1    C3 1923   0.874   3.580   9.473 -0.8646  0.7975  0.0090
  126MPD1    C4 1924   0.798   3.517   9.572  0.7645  0.4903  0.2142
  126MPD1    C5 1925   0.708   3.584   9.650 -0.5181 -0.0126  0.1550
  126MPD1     H 1926   0.916   3.764   9.385 -0.3220 -1.0328 -0.1330
  126MPD1    H1 1927   0.808   3.409   9.585  1.1052  0.2405 -2.0801
  126MPD1    H2 1928   0.643   3.772   9.719 -0.1763  0.2572  0.4327
  126MPD1    H3 1929   0.667   3.533   9.736  0.4018  1.4265  1.4683
  126MPD1     N 1930   0.967   3.520   9.379 -0.9268  0.3339 -0.8316
  126MPD1    H5 1931   1.024   3.578   9.318  2.3168 -0.5538  1.4103
  126MPD1    N1 1932   0.752   3.923   9.526  0.5798 -0.4856  0.0484
  126MPD1    H6 1933   0.718   3.975   9.607 -1.1748  1.2095 -1.7639
  126MPD1    H7 1934   0.835   3.962   9.483 -0.6327  0.6064 -1.3278
  127MPD2     C 1935   3.550   2.397   9.437  0.7342 -0.3105 -0.1626
  127MPD2    C1 1936   3.495   2.437   9.554  0.4254  0.1086  0.7768
  127MPD2    C2 1937   3.435   2.560   9.561 -0.3461  0.7727 -0.3864
  127MPD2    C3 1938   3.435   2.648   9.461 -0.0242 -0.1338  0.3455
  127MPD2    C4 1939   3.491   2.607   9.340  0.1663  1.1571 -0.0273
  127MPD2    C5 1940   3.564   2.487   9.332 -0.4308 -0.2780 -0.6108
  127MPD2     H 1941   3.404   2.604   9.655 -0.6522  1.5211 -0.8362
  127MPD2    H1 1942   3.482   2.675   9.256 -0.2990 -0.5013 -1.3286
  127MPD2    H2 1943   3.585   2.296   9.417  0.9431 -0.4789  1.0854
  127MPD2    H3 1944   3.624   2.472   9.242 -0.0585  1.0600 -0.5759
  127MPD2     N 1945   3.369   2.777   9.474 -0.0083  0.3304 -0.3468
  127MPD2    H5 1946   3.337   2.801   9.567 -0.2484  0.0005 -0.3463
  127MPD2    N1 1947   3.474   2.343   9.661 -0.2737  0.5281  0.1768
  127MPD2    H7 1948   3.507   2.250   9.638  1.8399  0.4177  3.6033
  128TCq2    C1 1949   3.422   2.366   9.786  0.5597 -0.4547  0.1940
  128TCq2    O2 1950   3.395   2.467   9.848 -0.3712 -0.6203  0.1124
  128TCq2    C2 1951   3.405   2.233   9.862 -0.9722  0.1148  0.1010
  128TCq2    C3 1952   3.384   2.231   9.993 -0.0741 -0.3329  0.2899
  128TCq2    C4 1953   3.348   2.114  10.053 -0.2780 -0.2493  0.1159
  128TCq2    C5 1954   3.312   2.003   9.981 -0.5363  0.1979  0.1385
  128TCq2    C6 1955   3.318   2.011   9.845 -0.8509 -0.0477  0.0161
  128TCq2    C7 1956   3.365   2.122   9.789 -0.0699 -0.3746 -0.2309
  128TCq2    C8 1957   3.277   1.897   9.763 -1.0519  0.1663  0.7593
  128TCq2    O4 1958   3.346   1.876   9.664 -0.2658 -0.1905  0.0883
  128TCq2    C9 1959   3.353   2.109  10.193 -0.0559 -0.4921 -0.4569
  128TCq2    O5 1960   3.417   2.201  10.248  0.0255  0.2405  0.0605
  128TCq2    O6 1961   3.336   1.994  10.247  0.5810  0.1411 -0.5162
  128TCq2    H2 1962   3.419   2.317  10.048 -2.1033 -0.2779  1.4805
  128TCq2    H3 1963   3.293   1.911  10.036  1.0963 -0.9745 -1.2571
  128TCq2    H4 1964   3.365   2.120   9.681 -0.2401 -1.5369 -0.2073
  129MPD2     C 1965   1.883   3.169   1.480 -0.4842  1.0774  0.0299
  129MPD2    C1 1966   2.012   3.131   1.460 -0.3882  0.2376  0.2966
  129MPD2    C2 1967   2.100   3.225   1.417  0.1049 -0.2207 -0.4869
  129MPD2    C3 1968   2.065   3.361   1.415  0.0886  0.2250 -0.4001
  129MPD2    C4 1969   1.939   3.402   1.450  0.0672  0.1008 -0.6533
  129MPD2    C5 1970   1.849   3.303   1.484 -0.2900  0.8276 -0.5483
  129MPD2     H 1971   2.200   3.203   1.384  0.1961  0.1446 -0.4514
  129MPD2    H1 1972   1.908   3.505   1.463 -0.6335 -0.2758  0.7232
  129MPD2    H2 1973   1.807   3.102   1.519  1.5284 -0.1784  1.7851
  129MPD2    H3 1974   1.751   3.337   1.514 -1.2457 -1.2422 -1.3432
  129MPD2     N 1975   2.162   3.457   1.389 -0.0949 -0.0888 -0.0071
  129MPD2    H5 1976   2.250   3.427   1.348  1.4806  0.9964  2.5890
  129MPD2    N1 1977   2.065   3.004   1.469  0.6425 -0.0780 -0.0622
  129MPD2    H7 1978   2.164   2.999   1.446  0.4410  1.3924 -1.2327
  130TCq2    C1 1979   1.987   2.889   1.474 -0.1286  0.0795  0.1711
  130TCq2    O2 1980   1.864   2.877   1.467 -0.6090 -0.0652 -0.0721
  130TCq2    C2 1981   2.072   2.776   1.463 -0.5269  0.3680 -0.1190
  130TCq2    C3 1982   2.206   2.772   1.507 -0.1946  0.7829 -0.7131
  130TCq2    C4 1983   2.269   2.652   1.504 -0.6558 -0.3741 -0.4959
  130TCq2    C5 1984   2.197   2.531   1.480  0.0154  0.8690  0.2641
  130TCq2    C6 1985   2.067   2.539   1.440  0.2777  0.4607 -0.1187
  130TCq2    C7 1986   2.000   2.660   1.429  0.6872  0.0566  0.2482
  130TCq2    C8 1987   1.977   2.431   1.474 -0.4382 -0.7585 -0.2154
  130TCq2    O4 1988   1.854   2.441   1.456 -0.3744 -0.0327  0.3923
  130TCq2    C9 1989   2.416   2.642   1.521  0.7563 -0.4853  0.2177
  130TCq2    O5 1990   2.480   2.746   1.532  0.0489  0.4185 -0.6071
  130TCq2    O6 1991   2.452   2.523   1.553  0.1595 -0.4450  0.1005
  130TCq2    H2 1992   2.269   2.857   1.531 -0.9101  1.3126 -0.7015
  130TCq2    H3 1993   2.248   2.436   1.479 -1.1927  0.2042  1.1474
  130TCq2    H4 1994   1.892   2.660   1.435  0.7362 -0.7256  1.0403
  131MPD2     C 1995   0.963   2.360   9.580 -0.7818  0.0457 -0.4105
  131MPD2    C1 1996   0.975   2.232   9.528  0.3669 -0.4980  0.0707
  131MPD2    C2 1997   0.898   2.192   9.415  0.2415  0.0906  0.7006
  131MPD2    C3 1998   0.787   2.270   9.383 -0.4474  0.2167 -1.5058
  131MPD2    C4 1999   0.768   2.399   9.438  0.2737  0.0408  0.2186
  131MPD2    C5 2000   0.857   2.435   9.538 -0.3318 -0.3098 -0.0840
  131MPD2     H 2001   0.914   2.094   9.371  4.5353  0.9187  0.4238
  131MPD2    H1 2002   0.680   2.461   9.423  0.7966  0.6721 -0.2302
  131MPD2    H2 2003   1.038   2.412   9.638 -0.0698 -0.6531 -0.7098
  131MPD2    H3 2004   0.830   2.529   9.585 -2.8116 -1.2415  0.3900
  131MPD2     N 2005   0.685   2.209   9.301  0.0941  0.4905 -0.4835
  131MPD2    H5 2006   0.705   2.118   9.262  0.3149  1.4117 -2.5296
  131MPD2    N1 2007   1.095   2.164   9.566 -0.3174  0.3541  0.7112
  131MPD2    H7 2008   1.129   2.208   9.651 -0.6291  0.9452  0.5344
  132TCq2    C1 2009   1.477   2.114   9.861 -0.8382 -0.1885 -0.3512
  132TCq2    O2 2010   1.539   2.072   9.961 -0.2942 -0.0759  0.1589
  132TCq2    C2 2011   1.414   2.023   9.767 -0.3062  0.0638 -0.5940
  132TCq2    C3 2012   1.441   1.888   9.777 -0.7562 -0.1861 -0.6903
  132TCq2    C4 2013   1.360   1.800   9.711 -0.0097  0.2296 -0.7866
  132TCq2    C5 2014   1.258   1.849   9.626  0.9323 -0.7985 -0.4542
  132TCq2    C6 2015   1.240   1.982   9.618  0.2260 -0.4331 -0.3383
  132TCq2    C7 2016   1.316   2.073   9.696  0.1810 -0.2205 -0.6296
  132TCq2    C8 2017   1.139   2.038   9.530  0.3129  0.5858  0.5194
  132TCq2    O4 2018   1.089   1.965   9.450  0.1405  0.1366 -0.0830
  132TCq2    C9 2019   1.386   1.654   9.723  0.7457 -0.3263  0.1400
  132TCq2    O5 2020   1.323   1.580   9.645  0.1723  0.1293 -0.0364
  132TCq2    O6 2021   1.493   1.619   9.786 -0.6073  0.1140  0.1492
  132TCq2    H2 2022   1.519   1.850   9.843  0.9144 -0.9698 -3.1172
  132TCq2    H3 2023   1.189   1.779   9.582  1.1966 -1.1990 -0.2248
  132TCq2    H4 2024   1.292   2.178   9.690 -0.6152 -0.4380 -1.3286
  133MPD2     C 2025   0.517   3.461   8.543  0.3182  0.1500  0.1713
  133MPD2    C1 2026   0.602   3.376   8.612  0.6961  0.0940  0.5065
  133MPD2    C2 2027   0.555   3.259   8.673  0.2960  0.5449  0.2491
  133MPD2    C3 2028   0.433   3.216   8.630 -0.1714 -0.1751  0.6068
  133MPD2    C4 2029   0.343   3.302   8.559 -0.0410  0.3272 -0.1788
  133MPD2    C5 2030   0.385   3.423   8.518 -0.0059 -0.3423 -0.4672
  133MPD2     H 2031   0.621   3.195   8.731 -1.2010 -0.4992  0.8058
  133MPD2    H1 2032   0.245   3.272   8.523 -0.6380  0.8615  0.9911
  133MPD2    H2 2033   0.560   3.554   8.509  3.2536 -0.3225  2.5900
  133MPD2    H3 2034   0.315   3.484   8.461  0.5466  0.4062 -0.3441
  133MPD2     N 2035   0.375   3.088   8.663  0.3825 -0.5756  0.2644
  133MPD2    H5 2036   0.276   3.075   8.645  0.1770  1.7144 -0.3138
  133MPD2    N1 2037   0.737   3.419   8.620  0.0201  0.5966  0.2170
  133MPD2    H7 2038   0.772   3.501   8.573 -0.4024  0.7775  0.2174
  134TCq2    C1 2039   0.833   3.353   8.693  0.3651  0.9759  0.9292
  134TCq2    O2 2040   0.821   3.258   8.770  0.0399 -0.1358 -0.0265
  134TCq2    C2 2041   0.959   3.427   8.700 -0.5795 -0.3091  0.9563
  134TCq2    C3 2042   0.977   3.537   8.623 -0.6461  0.2475  0.0886
  134TCq2    C4 2043   1.103   3.587   8.594 -0.3874  0.0438 -0.3135
  134TCq2    C5 2044   1.215   3.521   8.634  0.0476  0.0884 -0.5114
  134TCq2    C6 2045   1.193   3.401   8.698 -0.0745 -0.3454  0.4074
  134TCq2    C7 2046   1.065   3.356   8.736  0.2934  0.0354  0.1018
  134TCq2    C8 2047   1.303   3.306   8.717 -0.2292 -0.0670 -0.1664
  134TCq2    O4 2048   1.280   3.185   8.735  0.0051  0.2702  0.6096
  134TCq2    C9 2049   1.116   3.707   8.520  0.1504 -0.3641 -0.5529
  134TCq2    O5 2050   1.003   3.757   8.478 -0.8951  0.0567  0.3489
  134TCq2    O6 2051   1.227   3.758   8.504 -0.2271 -0.1669  0.0316
  134TCq2    H2 2052   0.891   3.601   8.605 -1.8824 -1.2241  0.7433
  134TCq2    H3 2053   1.310   3.559   8.598  0.4328  3.0084  3.6196
  134TCq2    H4 2054   1.044   3.269   8.798 -1.0105  0.2245 -0.0692
  135MPD2     C 2055   3.500   3.873   9.356 -0.5595 -0.5966  0.6276
  135MPD2    C1 2056   3.440   3.753   9.341 -0.0464  0.0246  0.4615
  135MPD2    C2 2057   3.498   3.664   9.249  0.2730  0.3093 -0.2300
  135MPD2    C3 2058   3.614   3.689   9.182 -0.0624 -0.2045  0.1536
  135MPD2    C4 2059   3.673   3.814   9.197 -0.3429  0.9904 -1.2372
  135MPD2    C5 2060   3.613   3.901   9.283 -0.3121 -0.5154 -0.7979
  135MPD2     H 2061   3.441   3.575   9.224 -0.4538 -0.0907  2.8884
  135MPD2    H1 2062   3.756   3.851   9.137  0.8285 -0.8705 -0.7617
  135MPD2    H2 2063   3.465   3.953   9.420 -0.6267  1.9391 -2.5838
  135MPD2    H3 2064   3.661   3.997   9.292 -0.1162 -0.6615 -0.2725
  135MPD2     N 2065   3.657   3.613   9.071  0.3976  0.2314 -0.3295
  135MPD2    H5 2066   3.710   3.647   8.992 -0.9663  1.6644 -0.6347
  135MPD2    N1 2067   3.328   3.705   9.414  0.3108 -0.4070 -0.5198
  135MPD2    H7 2068   3.282   3.619   9.388  2.4406 -1.6299 -0.2690
  136TCq2    C1 2069   3.243   3.787   9.490 -0.3340 -0.3099 -0.3449
  136TCq2    O2 2070   3.256   3.906   9.514  0.4391 -0.1925  0.2192
  136TCq2    C2 2071   3.110   3.731   9.506  0.6321 -0.7958 -0.1854
  136TCq2    C3 2072   3.003   3.810   9.478  0.8777  0.1571 -0.4463
  136TCq2    C4 2073   2.883   3.764   9.514 -0.4095  0.2203 -0.2501
  136TCq2    C5 2074   2.864   3.641   9.570  0.2524  0.4477 -0.1956
  136TCq2    C6 2075   2.975   3.557   9.592 -0.2712  0.1545 -0.2717
  136TCq2    C7 2076   3.098   3.607   9.556  0.1559 -0.4847  0.7584
  136TCq2    C8 2077   2.964   3.420   9.636  0.1037  1.1245 -0.5582
  136TCq2    O4 2078   3.072   3.361   9.641  0.4107  0.1103  0.5233
  136TCq2    C9 2079   2.766   3.855   9.505  0.2288  0.1935  0.2416
  136TCq2    O5 2080   2.660   3.814   9.546  0.0851 -0.2622 -0.0869
  136TCq2    O6 2081   2.791   3.977   9.477  0.0817 -0.4512  0.2684
  136TCq2    H2 2082   3.023   3.913   9.452  0.0302  0.2953 -0.5232
  136TCq2    H3 2083   2.761   3.614   9.590  0.3736  0.4188  0.3823
  136TCq2    H4 2084   3.177   3.534   9.561  1.8601  1.3456  0.4195
  137MPD2     C 2085   2.780   2.178   9.631 -0.4008 -0.2934  0.6879
  137MPD2    C1 2086   2.734   2.299   9.683  0.1857 -0.7360 -0.8229
  137MPD2    C2 2087   2.691   2.299   9.821 -0.0911  0.0470  0.0394
  137MPD2    C3 2088   2.700   2.183   9.900  0.4280  0.4476  0.3359
  137MPD2    C4 2089   2.749   2.067   9.845  0.4832  0.6626 -0.3762
  137MPD2    C5 2090   2.791   2.071   9.714 -0.2317  0.1125  0.8199
  137MPD2     H 2091   2.649   2.388   9.866 -0.0238  1.7168 -3.1948
  137MPD2    H1 2092   2.772   1.984   9.910  0.4129  0.1461 -1.0178
  137MPD2    H2 2093   2.813   2.171   9.528  0.8223 -1.2536  1.1428
  137MPD2    H3 2094   2.830   1.978   9.674  0.6525 -0.0489  2.0766
  137MPD2     N 2095   2.669   2.185  10.037 -0.4235 -0.9579  0.3679
  137MPD2    H5 2096   2.654   2.277  10.077  4.5177  0.0354 -0.1064
  137MPD2    N1 2097   2.720   2.413   9.595 -0.0198  0.5101 -0.4813
  137MPD2    H7 2098   2.725   2.391   9.496 -1.5080 -2.6592  0.1522
  138TCq2    C1 2099   2.698   2.536   9.635 -0.1363  0.1012  0.4513
  138TCq2    O2 2100   2.669   2.580   9.748 -0.0285  0.4174  0.2814
  138TCq2    C2 2101   2.694   2.630   9.525 -0.5460 -0.4383 -0.1839
  138TCq2    C3 2102   2.777   2.614   9.416 -0.0827  0.4116 -0.1871
  138TCq2    C4 2103   2.786   2.716   9.329  0.6731 -0.4894  0.0769
  138TCq2    C5 2104   2.707   2.822   9.336  0.9603  0.0648 -0.3024
  138TCq2    C6 2105   2.615   2.826   9.436  0.1582  0.4625 -0.1347
  138TCq2    C7 2106   2.609   2.732   9.540  0.3850  0.1166 -0.1941
  138TCq2    C8 2107   2.557   2.964   9.463  0.6052  0.2431 -0.1401
  138TCq2    O4 2108   2.620   3.057   9.420 -0.2090 -0.3087  0.2527
  138TCq2    C9 2109   2.883   2.707   9.230 -0.3173 -0.5833  0.6565
  138TCq2    O5 2110   2.916   2.589   9.194 -0.2721 -0.2539  0.9713
  138TCq2    O6 2111   2.909   2.810   9.163 -0.1231  0.3231 -0.0233
  138TCq2    H2 2112   2.849   2.534   9.406  0.7874  1.1609  0.0736
  138TCq2    H3 2113   2.710   2.896   9.257 -1.4220  2.6293  2.0137
  138TCq2    H4 2114   2.536   2.722   9.620  2.9745 -1.1706  2.0008
  139TMC2    C1 2115   2.672   1.931  12.782  0.3646  0.2984  0.1812
  139TMC2    C2 2116   2.626   1.843  12.688  0.4219 -0.6263  0.8596
  139TMC2    C3 2117   2.494   1.853  12.642  0.2668 -0.0328  0.4112
  139TMC2    C4 2118   2.581   2.009  12.850  0.6425 -0.4649  0.3540
  139TMC2    C5 2119   2.453   2.025  12.804  0.4646 -0.1230 -1.3662
  139TMC2    C6 2120   2.407   1.944  12.702  0.5851  0.1788  0.4173
  139TMC2     C 2121   2.786   1.883  12.855 -0.2622 -0.4276  0.5613
  139TMC2     O 2122   2.819   1.766  12.846  0.5120  0.1724 -0.0881
  139TMC2     H 2123   2.692   1.769  12.644  0.8383 -0.3892  1.0915
  139TMC2    H1 2124   2.620   2.081  12.922 -0.3601 -1.0140  1.4403
  139TMC2    H2 2125   2.300   1.953  12.686  0.2838  0.9163  2.8484
  139TMC2    C7 2126   2.358   2.103  12.885  0.2147 -0.5482 -0.5855
  139TMC2    C8 2127   2.448   1.766  12.545 -0.0081  0.3983  0.1099
  139TMC2    O1 2128   2.263   2.142  12.827  0.1689 -0.2263  0.3147
  139TMC2    O2 2129   2.505   1.666  12.508  0.3559 -0.0038 -0.3715
  139TMC2    O5 2130   2.346   1.820  12.480 -0.0671  0.6629  0.4277
  139TMC2    H5 2131   2.317   1.905  12.519 -2.6444 -0.0252  0.0466
  140MPD2     C 2132   2.957   2.066  13.132  0.0358  0.1655 -0.0908
  140MPD2    C1 2133   2.932   1.957  13.048  0.3122 -0.2439 -0.8405
  140MPD2    C2 2134   2.984   1.837  13.087  0.4059 -0.6115  0.6772
  140MPD2    C3 2135   3.062   1.827  13.203 -0.0455  0.2298 -0.6573
  140MPD2    C4 2136   3.074   1.930  13.292  0.5892  0.2185 -0.2942
  140MPD2    C5 2137   3.027   2.051  13.248  0.1777 -0.3697  0.5333
  140MPD2     H 2138   2.972   1.758  13.013 -1.3889 -0.4317  0.7785
  140MPD2    H1 2139   3.136   1.924  13.380  1.4665 -2.2766 -1.0937
  140MPD2    H2 2140   2.932   2.169  13.109 -0.8966  0.0962  0.6150
  140MPD2    H3 2141   3.050   2.140  13.305 -2.1917  1.1005 -0.8162
  140MPD2     N 2142   3.133   1.703  13.223  0.3586 -0.0352  0.1125
  140MPD2    H5 2143   3.121   1.632  13.152 -0.5596 -0.5501  0.7915
  140MPD2    N1 2144   2.840   1.980  12.941 -0.3455  0.1507 -0.1854
  140MPD2    H7 2145   2.810   2.074  12.917 -2.2494  0.1078  2.0059
  141TCq2    C1 2146   3.166   2.589  14.186  0.5017 -0.6572  0.8428
  141TCq2    O2 2147   3.115   2.684  14.133 -0.4525 -0.5353  0.3931
  141TCq2    C2 2148   3.210   2.587  14.320  0.6876  0.8390  0.1025
  141TCq2    C3 2149   3.294   2.480  14.367  0.0939 -0.1534  0.7892
  141TCq2    C4 2150   3.339   2.486  14.498 -0.7062 -0.4046  0.7742
  141TCq2    C5 2151   3.288   2.583  14.583 -1.0323 -0.3820 -0.7880
  141TCq2    C6 2152   3.213   2.685  14.535 -0.0186  0.3194  0.3823
  141TCq2    C7 2153   3.177   2.693  14.401  0.3709  1.0444  0.0669
  141TCq2    C8 2154   3.210   2.811  14.606 -0.1823 -1.4717 -0.6494
  141TCq2    O4 2155   3.241   2.806  14.724 -0.3453 -0.1863  0.1658
  141TCq2    C9 2156   3.431   2.392  14.556 -0.4661  0.2813 -0.0488
  141TCq2    O5 2157   3.493   2.314  14.477  0.0729  0.3090 -0.1253
  141TCq2    O6 2158   3.464   2.414  14.675  0.0194  0.0464 -0.2057
  141TCq2    H2 2159   3.330   2.399  14.306  1.6310 -0.3642  1.9776
  141TCq2    H3 2160   3.311   2.591  14.689 -0.6639 -0.7242 -0.8409
  141TCq2    H4 2161   3.117   2.770  14.354  0.7273  1.7369  0.7528
  142MPD2     C 2162   0.349   4.186  10.087 -0.4606  0.3295 -0.1621
  142MPD2    C1 2163   0.451   4.276  10.112  0.3941  0.4507 -0.2034
  142MPD2    C2 2164   0.463   4.380  10.020  0.3666 -0.4725 -0.6439
  142MPD2    C3 2165   0.378   4.389   9.915  0.4805 -0.6292  0.2671
  142MPD2    C4 2166   0.285   4.291   9.892  0.3710 -0.4454 -0.1943
  142MPD2    C5 2167   0.274   4.187   9.976  0.1007  0.1108 -0.1700
  142MPD2     H 2168   0.538   4.456  10.040  0.7502 -1.3302  1.2146
  142MPD2    H1 2169   0.220   4.298   9.805  0.9816 -1.1259 -0.7019
  142MPD2    H2 2170   0.331   4.108  10.161  1.6582  1.1518  1.2394
  142MPD2    H3 2171   0.197   4.111   9.961 -0.7535  1.2731 -1.6541
  142MPD2     N 2172   0.380   4.497   9.820  0.3596 -0.1190 -0.4425
  142MPD2    H5 2173   0.312   4.491   9.745 -2.4048 -0.4279  2.0607
  142MPD2    N1 2174   0.526   4.261  10.232  0.7723 -0.5124 -0.7566
  142MPD2    H7 2175   0.501   4.193  10.303  1.1489 -0.5118 -0.6274
  143TCq2    C1 2176   0.466   4.604   9.827  0.3150  0.2761 -0.3554
  143TCq2    O2 2177   0.508   4.660   9.928 -0.1776 -0.5572  0.0595
  143TCq2    C2 2178   0.463   4.686   9.705  0.4320 -0.1986 -0.3853
  143TCq2    C3 2179   0.404   4.644   9.586 -0.8426  0.4076 -0.7110
  143TCq2    C4 2180   0.377   0.014   9.492 -0.0435  0.0182  0.1372
  143TCq2    C5 2181   0.411   0.142   9.503  0.5199 -0.6915 -0.1354
  143TCq2    C6 2182   0.455   0.186   9.621  0.1903 -0.2074  0.2909
  143TCq2    C7 2183   0.481   0.101   9.727  1.1947  0.7930 -0.5263
  143TCq2    C8 2184   0.523   0.314   9.616 -0.6453 -0.3143  0.4141
  143TCq2    O4 2185   0.465   0.399   9.549  0.1580 -0.0498 -0.0205
  143TCq2    C9 2186   0.328   4.682   9.365 -0.4427 -0.5315 -0.0913
  143TCq2    O5 2187   0.302   0.041   9.273 -0.4982 -0.3889  0.5770
  143TCq2    O6 2188   0.324   4.553   9.358  0.4032  0.1922 -0.4965
  143TCq2    H2 2189   0.407   4.538   9.561  0.3843  0.3643 -0.4054
  143TCq2    H3 2190   0.393   0.207   9.418 -2.8331  0.2629  1.2854
  143TCq2    H4 2191   0.495   0.136   9.829  0.0437 -0.0463 -0.0750
  144MPD2     C 2192   3.594   0.553   0.520 -0.7781 -0.6604 -0.1906
  144MPD2    C1 2193   3.590   0.431   0.459  1.0308  0.2069  0.7906
  144MPD2    C2 2194   3.660   0.324   0.511 -0.2284 -0.2245  0.3559
  144MPD2    C3 2195   3.742   0.351   0.621 -0.0926 -0.1109  0.4487
  144MPD2    C4 2196   3.757   0.473   0.677  0.8202  0.0223  0.0080
  144MPD2    C5 2197   3.683   0.578   0.623 -0.5723 -0.4820 -0.1618
  144MPD2     H 2198   3.658   0.229   0.459 -3.5111  0.4166 -0.7008
  144MPD2    H1 2199   3.813   0.483   0.769  0.6495  0.0774  0.1057
  144MPD2    H2 2200   3.523   0.632   0.498 -0.3372 -0.5256 -1.1558
  144MPD2    H3 2201   3.682   0.666   0.685  1.5549  0.5103 -1.5524
  144MPD2     N 2202   3.809   0.249   0.693  0.7049  1.0775  0.0874
  144MPD2    H5 2203   3.869   0.285   0.766  1.4304  0.5383 -0.2500
  144MPD2    N1 2204   3.508   0.415   0.346 -1.1658 -0.2218  0.5567
  144MPD2    H7 2205   3.481   0.319   0.323 -2.0190 -0.3872  2.2228
  145TCq2    C1 2206   3.821   0.113   0.661 -0.1413 -0.1136  0.5775
  145TCq2    O2 2207   3.774   0.056   0.563  0.3462  0.7037  0.3524
  145TCq2    C2 2208   3.916   0.040   0.745 -0.1077  0.6442 -0.6318
  145TCq2    C3 2209   3.970   4.649   0.697 -0.4578  0.2221 -0.1648
  145TCq2    C4 2210   4.070   4.597   0.768  0.0474 -0.8123 -0.1743
  145TCq2    C5 2211   4.115   4.651   0.883 -0.1514 -0.6108 -0.1665
  145TCq2    C6 2212   4.054   0.041   0.935 -0.3600 -0.4188 -0.4503
  145TCq2    C7 2213   3.957   0.102   0.860  0.3994 -0.1965 -0.1437
  145TCq2    C8 2214   4.131   0.117   1.034  0.1352  0.4208  0.8709
  145TCq2    O4 2215   4.251   0.089   1.046  0.3710  0.4920  0.2919
  145TCq2    C9 2216   4.108   4.461   0.738 -0.2988 -0.3074  0.5462
  145TCq2    O5 2217   4.077   4.423   0.623  0.2020 -0.0826  0.0628
  145TCq2    O6 2218   4.188   4.403   0.815 -0.1791 -0.2030  0.0456
  145TCq2    H2 2219   3.943   4.607   0.601 -0.3859 -0.8636  0.2958
  145TCq2    H3 2220   4.181   4.590   0.942  1.1390  2.0861  1.1654
  145TCq2    H4 2221   3.906   0.190   0.897  0.4102 -0.9086  1.5538
  146TMC2    C1 2222   0.475   3.761  12.217 -0.5763 -0.4153  0.1450
  146TMC2    C2 2223   0.471   3.750  12.079 -0.2452 -0.7191  0.0387
  146TMC2    C3 2224   0.575   3.698  12.013 -0.5590 -0.0963 -0.0104
  146TMC2    C4 2225   0.578   3.707  12.292 -0.2625  0.3774  0.2607
  146TMC2    C5 2226   0.688   3.647  12.215 -0.4063  0.2333  0.8262
  146TMC2    C6 2227   0.681   3.640  12.078 -0.2193 -0.4549  0.6779
  146TMC2     C 2228   0.365   3.831  12.288 -0.1925  0.1545  0.4224
  146TMC2     O 2229   0.292   3.902  12.228  0.1701 -0.3252  0.2137
  146TMC2     H 2230   0.381   3.788  12.031 -0.2006 -0.4892  0.1393
  146TMC2    H1 2231   0.596   3.723  12.398 -0.4898 -1.0343  0.5017
  146TMC2    H2 2232   0.759   3.593  12.019 -0.5555  2.1047 -1.8507
  146TMC2    C7 2233   0.818   3.627  12.270 -0.3168 -0.0861  0.3900
  146TMC2    C8 2234   0.547   3.673  11.874 -0.8310  0.2628  0.6217
  146TMC2    O1 2235   0.912   3.647  12.197 -0.1658  0.1731 -0.1000
  146TMC2    O2 2236   0.439   3.624  11.850  0.1971  0.4528  0.0921
  146TMC2    O5 2237   0.665   3.649  11.804  0.2666  0.4681  0.0927
  146TMC2    H5 2238   0.729   3.721  11.820  0.3940  0.4649 -0.3863
  147MPD2     C 2239   1.110   3.647  12.686 -0.2138  0.3848 -0.0034
  147MPD2    C1 2240   0.991   3.590  12.719  0.0559  0.3018  0.5090
  147MPD2    C2 2241   0.897   3.565  12.626  0.4916  0.1507 -0.2171
  147MPD2    C3 2242   0.915   3.607  12.496 -0.3042 -0.0219 -0.1319
  147MPD2    C4 2243   1.039   3.671  12.458 -0.3768 -0.0162  0.2478
  147MPD2    C5 2244   1.137   3.684  12.558  0.0290 -0.1610 -0.4214
  147MPD2     H 2245   0.795   3.542  12.654  0.4536  2.4780  1.5372
  147MPD2    H1 2246   1.072   3.698  12.358  0.4953 -2.3441 -0.0864
  147MPD2    H2 2247   1.184   3.669  12.762  0.2401  0.7773 -0.5543
  147MPD2    H3 2248   1.234   3.724  12.530 -0.5004  1.2190 -0.2501
  147MPD2     N 2249   0.811   3.599  12.404  0.1001  0.3112 -0.5054
  147MPD2    H5 2250   0.721   3.563  12.435  0.7974  0.4817  1.7077
  147MPD2    N1 2251   0.974   3.547  12.854  0.6895  0.2050 -0.2213
  147MPD2    H7 2252   1.056   3.554  12.914 -0.4400 -0.3387  1.3794
  148MPD2     C 2253   0.707   2.739  10.100 -0.1834  0.0709 -0.2267
  148MPD2    C1 2254   0.749   2.620  10.053 -0.2549  0.0140 -0.2604
  148MPD2    C2 2255   0.652   2.526  10.032  0.1878  0.0237 -0.6375
  148MPD2    C3 2256   0.516   2.557  10.032  0.2352 -0.2707 -0.2307
  148MPD2    C4 2257   0.479   2.683  10.063 -0.3292  0.0861  0.1772
  148MPD2    C5 2258   0.573   2.772  10.106  0.0952 -0.5150  0.7175
  148MPD2     H 2259   0.681   2.423  10.017 -0.2758 -0.5011  2.0771
  148MPD2    H1 2260   0.376   2.718  10.061 -0.5676 -0.6420 -0.6455
  148MPD2    H2 2261   0.776   2.812  10.142 -0.5547 -0.9902  2.2406
  148MPD2    H3 2262   0.544   2.865  10.153 -1.7629 -0.6588 -0.1131
  148MPD2     N 2263   0.428   2.454   9.986  0.8329  0.0554  0.1076
  148MPD2    H5 2264   0.471   2.388   9.924  1.1111  1.1669 -0.8732
  148MPD2    N1 2265   0.888   2.582  10.054 -0.0019 -0.2733  0.6647
  148MPD2    H7 2266   0.908   2.482  10.050 -0.3708 -0.2952 -0.6523
  149TCq2    C1 2267   0.995   2.661  10.077 -0.3006  0.3221  0.5394
  149TCq2    O2 2268   1.000   2.775  10.117 -0.2430  0.3899 -0.4153
  149TCq2    C2 2269   1.116   2.584  10.064  0.3768 -0.3544  0.1674
  149TCq2    C3 2270   1.172   2.584  10.184 -0.5436 -0.2291  0.1623
  149TCq2    C4 2271   1.253   2.476  10.220  0.3441  0.6091  0.0880
  149TCq2    C5 2272   1.235   2.361  10.148 -0.1939  0.3370 -0.5402
  149TCq2    C6 2273   1.169   2.365  10.026 -0.2514 -0.3392  0.7981
  149TCq2    C7 2274   1.115   2.475   9.980 -0.5024  0.1012 -0.1351
  149TCq2    C8 2275   1.115   2.253   9.961  0.7521  0.6173  0.2066
  149TCq2    O4 2276   1.056   2.271   9.857 -0.1089  0.7013  0.6591
  149TCq2    C9 2277   1.286   2.469  10.368  0.2548 -0.3355  0.5079
  149TCq2    O5 2278   1.318   2.355  10.409  0.0130  0.2735  0.3885
  149TCq2    O6 2279   1.280   2.569  10.439 -0.1414  0.1269  0.4419
  149TCq2    H2 2280   1.162   2.672  10.247  2.4412 -0.4752  0.9870
  149TCq2    H3 2281   1.288   2.273  10.181 -0.7153  0.7057  1.3080
  149TCq2    H4 2282   1.069   2.495   9.884  1.4605  1.1083 -0.8654
  150MPD2     C 2283   2.423   2.124  11.867  0.5691 -0.0185 -0.3909
  150MPD2    C1 2284   2.349   2.227  11.924 -0.2095  0.0184 -0.4261
  150MPD2    C2 2285   2.410   2.327  12.003 -0.0097 -0.4384  0.6577
  150MPD2    C3 2286   2.544   2.334  12.025 -0.0871 -0.0645  0.4928
  150MPD2    C4 2287   2.615   2.231  11.971 -1.3189  0.7183 -0.4994
  150MPD2    C5 2288   2.556   2.134  11.894 -0.2624 -0.2608 -0.5161
  150MPD2     H 2289   2.338   2.401  12.038  0.9305  0.5610  0.4959
  150MPD2    H1 2290   2.722   2.225  11.986 -1.3708 -1.6668 -1.1545
  150MPD2    H2 2291   2.384   2.047  11.801 -0.0393 -0.0511  0.0032
  150MPD2    H3 2292   2.625   2.063  11.851  0.0783  0.2154 -0.7551
  150MPD2     N 2293   2.599   2.437  12.116 -1.1444 -0.4262  0.2559
  150MPD2    H5 2294   2.532   2.506  12.148 -0.4229 -0.1697  1.1911
  150MPD2    N1 2295   2.211   2.232  11.880  0.4525  0.3417 -0.2351
  150MPD2    H7 2296   2.186   2.171  11.803  0.6310 -1.8362  1.4461
  151TCq2    C1 2297   2.726   2.439  12.166  0.3061  1.2390 -0.0367
  151TCq2    O2 2298   2.813   2.357  12.140  0.4542  0.0024 -0.7600
  151TCq2    C2 2299   2.760   2.546  12.257 -0.1269  0.2358  0.0213
  151TCq2    C3 2300   2.677   2.652  12.281  0.4154 -0.1876  0.1339
  151TCq2    C4 2301   2.715   2.749  12.363 -0.1580 -0.3027  0.5434
  151TCq2    C5 2302   2.828   2.737  12.437  0.6623  0.1694 -0.2261
  151TCq2    C6 2303   2.901   2.619  12.425  0.0233  0.8563  0.5229
  151TCq2    C7 2304   2.876   2.530  12.324  0.1227  0.5374 -0.6943
  151TCq2    C8 2305   3.023   2.626  12.499  0.2831 -0.6581 -0.0879
  151TCq2    O4 2306   3.052   2.728  12.565 -0.0128 -0.7168  0.1716
  151TCq2    C9 2307   2.633   2.868  12.368  0.7890  0.3037  0.0214
  151TCq2    O5 2308   2.542   2.881  12.282 -0.8588  0.1748 -0.0125
  151TCq2    O6 2309   2.642   2.935  12.472 -0.0319  0.0415 -0.6281
  151TCq2    H2 2310   2.589   2.665  12.218  0.5666 -1.1760 -0.2842
  151TCq2    H3 2311   2.866   2.820  12.496 -2.0393  1.7112 -0.6080
  151TCq2    H4 2312   2.943   2.446  12.309 -0.5305 -0.1359  0.1354
  152MPD2     C 2313   1.996   1.889  12.440  0.5228  0.4538  1.0881
  152MPD2    C1 2314   2.019   1.920  12.308  1.2584 -1.3241 -0.3472
  152MPD2    C2 2315   1.905   1.923  12.221 -0.2088 -0.0511  0.3338
  152MPD2    C3 2316   1.780   1.876  12.259 -0.4436 -0.3071  0.0675
  152MPD2    C4 2317   1.765   1.842  12.392  0.1874 -0.8148 -0.1628
  152MPD2    C5 2318   1.870   1.855  12.472 -0.5461  0.6957  0.1305
  152MPD2     H 2319   1.924   1.946  12.117 -0.9979 -0.8188  0.0158
  152MPD2    H1 2320   1.669   1.819  12.437 -0.1303  0.5657 -0.1120
  152MPD2    H2 2321   2.068   1.886  12.520 -0.2901  1.0864  1.8397
  152MPD2    H3 2322   1.852   1.834  12.577 -0.6187 -1.8870 -0.4009
  152MPD2     N 2323   1.681   1.869  12.165 -0.2792 -0.2984  0.0955
  152MPD2    H5 2324   1.719   1.906  12.078 -1.4136 -1.6184 -0.9635
  152MPD2    N1 2325   2.145   1.957  12.270 -0.1878  0.6387  0.2330
  152MPD2    H7 2326   2.214   1.981  12.341 -1.5549  1.5880  1.2356
  153TCq2    C1 2327   2.197   1.941  12.148 -1.4873 -0.1557 -0.2976
  153TCq2    O2 2328   2.144   1.888  12.049  0.6722 -0.6186 -0.0485
  153TCq2    C2 2329   2.341   1.971  12.151  0.2950 -0.8851  0.1477
  153TCq2    C3 2330   2.432   1.882  12.100 -0.4625  0.7173  0.1132
  153TCq2    C4 2331   2.564   1.897  12.129 -0.3002  0.4354  0.6235
  153TCq2    C5 2332   2.604   1.998  12.211  0.1783  0.5153  0.5901
  153TCq2    C6 2333   2.514   2.077  12.275 -0.2230  0.8489  0.0527
  153TCq2    C7 2334   2.381   2.068  12.246 -0.4847  0.4803 -0.5627
  153TCq2    C8 2335   2.552   2.160  12.392  0.5574 -0.7432 -0.2196
  153TCq2    O4 2336   2.465   2.222  12.448 -0.9044 -0.7084  0.0836
  153TCq2    C9 2337   2.663   1.818  12.065  0.1120 -0.9443 -0.4241
  153TCq2    O5 2338   2.785   1.847  12.075  0.0594 -0.1579  0.0014
  153TCq2    O6 2339   2.618   1.733  11.990  0.0208 -0.1863  0.1919
  153TCq2    H2 2340   2.400   1.799  12.038  0.4585  0.4332  0.0207
  153TCq2    H3 2341   2.710   2.010  12.229 -0.1276  0.7819  2.1683
  153TCq2    H4 2342   2.314   2.138  12.294  0.1329  0.6787  0.0138
  154MPD2     C 2343   3.712   0.931   0.583  0.5134  0.3479 -0.2895
  154MPD2    C1 2344   3.776   0.973   0.698 -0.3727  0.3764  0.0394
  154MPD2    C2 2345   3.735   1.090   0.760 -0.2583 -0.3808  0.1890
  154MPD2    C3 2346   3.619   1.153   0.724 -0.2437  0.7067  0.0035
  154MPD2    C4 2347   3.560   1.107   0.610  0.5289 -0.1154  0.0643
  154MPD2    C5 2348   3.610   1.004   0.541 -0.1483  0.3200 -0.3337
  154MPD2     H 2349   3.780   1.119   0.854 -1.1461 -1.2651  0.8806
  154MPD2    H1 2350   3.463   1.145   0.578  0.5781  1.0034  1.2511
  154MPD2    H2 2351   3.746   0.848   0.522 -1.3294 -2.4574  2.4612
  154MPD2    H3 2352   3.552   0.964   0.459  0.8637  0.7520 -1.2738
  154MPD2     N 2353   3.561   1.245   0.806  0.0078 -0.2361 -0.3892
  154MPD2    H5 2354   3.613   1.272   0.888 -0.0516  0.1053 -0.4657
  154MPD2    N1 2355   3.879   0.888   0.744 -0.3634  0.9802  0.2068
  154MPD2    H7 2356   3.899   0.809   0.683 -1.0556  0.4061  0.7131
  155TCq2    C1 2357   3.967   0.914   0.846  0.3555 -0.3889 -0.0410
  155TCq2    O2 2358   3.989   1.021   0.907  0.5313  0.2243  0.2067
  155TCq2    C2 2359   4.063   0.816   0.881  0.2251 -0.2978  0.0482
  155TCq2    C3 2360   4.168   0.856   0.955 -0.4486 -0.7932  0.2141
  155TCq2    C4 2361   4.263   0.769   0.996  0.6733 -0.0728 -0.1555
  155TCq2    C5 2362   4.255   0.634   0.958 -0.2189 -0.9706 -0.3753
  155TCq2    C6 2363   4.139   0.593   0.888  0.5888  0.0218 -0.4503
  155TCq2    C7 2364   4.046   0.684   0.846 -0.3932 -0.7846 -0.5963
  155TCq2    C8 2365   4.137   0.480   0.800 -0.1642  0.3189 -0.2781
  155TCq2    O4 2366   4.035   0.418   0.777 -0.2622  0.2401  0.8343
  155TCq2    C9 2367   4.381   0.820   1.054  0.4106  0.4770 -0.4609
  155TCq2    O5 2368   4.400   0.942   1.069 -0.1159 -0.1785 -0.0646
  155TCq2    O6 2369   4.469   0.738   1.085 -0.1122 -0.2897 -0.3292
  155TCq2    H2 2370   4.188   0.959   0.982 -0.8124 -0.5392 -0.4913
  155TCq2    H3 2371   4.330   0.561   0.986 -1.5954 -2.2699 -0.0751
  155TCq2    H4 2372   3.964   0.650   0.784 -1.4854  0.3267  0.2564
  156MPD2     C 2373   1.879   3.772  12.277  0.0288 -0.0193  0.0258
  156MPD2    C1 2374   1.940   3.857  12.182 -0.1041 -0.4387  0.5576
  156MPD2    C2 2375   2.057   3.928  12.216  0.3835  0.9596  0.0715
  156MPD2    C3 2376   2.100   3.924  12.349 -1.3342  0.6906  1.0923
  156MPD2    C4 2377   2.033   3.847  12.441 -0.3234  0.3230  0.3144
  156MPD2    C5 2378   1.926   3.768  12.407 -0.0787  0.2156  0.3342
  156MPD2     H 2379   2.106   3.997  12.148  0.5361  0.2750 -0.5104
  156MPD2    H1 2380   2.057   3.833  12.546 -1.9407  0.6271  0.7383
  156MPD2    H2 2381   1.795   3.706  12.258  0.2323 -1.0716  2.8062
  156MPD2    H3 2382   1.884   3.716  12.492  0.8355 -0.3760  0.4307
  156MPD2     N 2383   2.222   3.988  12.379  0.6388 -0.2316  0.1793
  156MPD2    H5 2384   2.271   4.039  12.307 -0.0188 -0.6666 -0.5788
  156MPD2    N1 2385   1.884   3.869  12.056 -0.0126 -0.4252  0.1114
  156MPD2    H7 2386   1.812   3.801  12.036 -0.3875 -0.1217  0.4425
  157TCq2    C1 2387   1.912   3.952  11.949 -0.4603 -0.1386 -0.2400
  157TCq2    O2 2388   2.001   4.036  11.935  0.3306 -0.4219 -0.5197
  157TCq2    C2 2389   1.825   3.931  11.836 -0.0691  0.0545 -0.0559
  157TCq2    C3 2390   1.699   3.882  11.857  0.0692  0.3466 -0.0119
  157TCq2    C4 2391   1.609   3.893  11.750  0.1722  0.1504 -0.5087
  157TCq2    C5 2392   1.645   3.944  11.633  0.7779 -0.5601 -0.5955
  157TCq2    C6 2393   1.773   3.992  11.611  0.0691  0.5085  0.8093
  157TCq2    C7 2394   1.864   3.983  11.715  0.1288 -0.7046 -0.2054
  157TCq2    C8 2395   1.816   4.026  11.480 -0.9144 -0.2722  0.3267
  157TCq2    O4 2396   1.909   4.103  11.477  0.1042 -0.9214 -0.4911
  157TCq2    C9 2397   1.474   3.851  11.775 -0.8085 -0.4449 -1.4023
  157TCq2    O5 2398   1.388   3.891  11.700  0.3800 -0.4926  0.3591
  157TCq2    O6 2399   1.451   3.800  11.888  0.3080  0.3063  0.1179
  157TCq2    H2 2400   1.675   3.835  11.951  0.9980 -0.0665  0.0170
  157TCq2    H3 2401   1.570   3.958  11.556  2.9434  2.1541 -2.1834
  157TCq2    H4 2402   1.958   4.037  11.716  0.3450 -1.0450 -3.4860
  158TMC2    C1 2403   2.797   3.204  13.312  0.5097 -0.7135 -0.5681
  158TMC2    C2 2404   2.879   3.284  13.225 -0.4652 -0.0251  0.4531
  158TMC2    C3 2405   2.817   3.344  13.115 -0.1531 -0.0684 -0.2168
  158TMC2    C4 2406   2.657   3.193  13.297  0.4661 -0.6988 -0.8712
  158TMC2    C5 2407   2.605   3.258  13.185 -0.3374 -0.5284  0.2420
  158TMC2    C6 2408   2.679   3.338  13.101 -0.7373  0.2018 -0.0075
  158TMC2     C 2409   2.856   3.140  13.429 -0.4889 -0.0345  0.1126
  158TMC2     O 2410   2.976   3.162  13.433  0.3429 -0.2250  0.6305
  158TMC2     H 2411   2.987   3.284  13.239 -0.4881  2.2196  0.6467
  158TMC2    H1 2412   2.597   3.126  13.358  1.6196 -0.4443  0.5338
  158TMC2    H2 2413   2.623   3.402  13.034 -1.7425 -0.8473 -0.1846
  158TMC2    C7 2414   2.462   3.289  13.179  0.2067  0.2483 -0.3751
  158TMC2    C8 2415   2.851   3.477  13.075  0.1546 -0.0249  0.9731
  158TMC2    O1 2416   2.423   3.405  13.165  0.0018  0.0656 -0.6379
  158TMC2    O2 2417   2.820   3.509  12.964 -0.0749  0.9667 -0.2815
  158TMC2    O5 2418   2.812   3.550  13.179 -0.0231 -0.1715 -0.3276
  158TMC2    H5 2419   2.814   3.507  13.267  3.5372  1.3142  0.3465
  159MPD2     C 2420   2.903   2.781  13.797  0.3376  0.5027  0.6937
  159MPD2    C1 2421   2.785   2.754  13.727 -0.2972  0.8219  0.1668
  159MPD2    C2 2422   2.741   2.841  13.629 -0.4106 -0.2731  0.6143
  159MPD2    C3 2423   2.818   2.951  13.591  0.4724  0.1751 -0.6730
  159MPD2    C4 2424   2.935   2.971  13.666  0.7280 -0.4079 -0.2303
  159MPD2    C5 2425   2.980   2.890  13.763 -0.3671 -0.6956  0.0525
  159MPD2     H 2426   2.642   2.824  13.588 -0.3634 -0.6052  0.6332
  159MPD2    H1 2427   3.000   3.052  13.634 -1.4911  1.2074 -0.6573
  159MPD2    H2 2428   2.928   2.723  13.885  0.4994  0.5319  0.6666
  159MPD2    H3 2429   3.070   2.913  13.820 -0.6354 -1.0595  0.6200
  159MPD2     N 2430   2.776   3.047  13.492  0.4906 -0.2887 -0.1570
  159MPD2    H5 2431   2.686   3.041  13.445 -0.6365  2.5471  1.6125
  159MPD2    N1 2432   2.727   2.628  13.761 -0.0754  0.0594  0.3989
  159MPD2    H7 2433   2.766   2.569  13.834  1.2415 -1.8000 -1.8111
  160TMC2    C1 2434   3.084   0.359   0.873  0.3156 -0.3715 -0.0354
  160TMC2    C2 2435   3.192   0.278   0.862 -0.0711  0.7962 -0.0390
  160TMC2    C3 2436   3.307   0.332   0.807 -0.4690 -0.0867  0.3551
  160TMC2    C4 2437   3.096   0.488   0.818 -0.8052  0.0116 -0.1183
  160TMC2    C5 2438   3.209   0.535   0.756 -0.7316  0.4055  0.8511
  160TMC2    C6 2439   3.318   0.450   0.751 -0.4044 -1.5345  0.5084
  160TMC2     C 2440   2.962   0.306   0.930 -0.3138  0.2048  0.5524
  160TMC2     O 2441   2.956   0.182   0.952 -0.4146  0.0352  0.0345
  160TMC2     H 2442   3.196   0.181   0.912 -0.3746 -0.3216 -2.1776
  160TMC2    H1 2443   3.007   0.548   0.801 -1.6392 -1.4472 -0.9685
  160TMC2    H2 2444   3.412   0.464   0.698  0.5198  0.3072  2.6738
  160TMC2    C7 2445   3.210   0.668   0.689 -0.1147  0.6467  0.5366
  160TMC2    C8 2446   3.424   0.242   0.795  0.1544 -0.4430  0.2330
  160TMC2    O1 2447   3.298   0.672   0.603  0.4067 -0.7137  0.1185
  160TMC2    O2 2448   3.410   0.121   0.792 -0.2986  0.1095 -0.2335
  160TMC2    O5 2449   3.511   0.297   0.882 -0.1147 -0.5932 -0.6061
  160TMC2    H5 2450   3.496   0.391   0.908  0.0862 -0.6724 -0.2131
  161MPD2     C 2451   2.696   0.251   1.051  0.1177  0.3458  0.0879
  161MPD2    C1 2452   2.734   0.379   0.999 -0.2937  0.2586 -0.1315
  161MPD2    C2 2453   2.653   0.488   1.016  0.0412  1.0587  0.8266
  161MPD2    C3 2454   2.524   0.473   1.073  0.1773 -0.0870  0.2971
  161MPD2    C4 2455   2.492   0.347   1.119  0.0299  0.5507  0.2953
  161MPD2    C5 2456   2.573   0.235   1.105 -0.3943 -0.2406 -0.3861
  161MPD2     H 2457   2.679   0.578   0.961 -0.8331  0.6012 -0.3327
  161MPD2    H1 2458   2.405   0.330   1.182  0.1629  3.4443  1.2508
  161MPD2    H2 2459   2.761   0.165   1.039 -1.4916 -0.9550  0.6833
  161MPD2    H3 2460   2.544   0.135   1.134  1.8025 -0.5877  0.6632
  161MPD2     N 2461   2.431   0.570   1.097 -0.1243  0.0579 -0.0257
  161MPD2    H5 2462   2.343   0.532   1.132  0.2329 -0.6564  0.0895
  161MPD2    N1 2463   2.862   0.405   0.945  0.0367 -0.1923  0.0297
  161MPD2    H7 2464   2.891   0.502   0.936  0.2869 -0.0926  1.7826
  162TMC2    C1 2465   1.210   2.991   1.235  0.1094  0.2667  0.3496
  162TMC2    C2 2466   1.180   3.121   1.265  0.4311  0.4675 -0.4523
  162TMC2    C3 2467   1.098   3.149   1.372 -0.3369 -0.2164  0.7435
  162TMC2    C4 2468   1.160   2.882   1.306 -0.3144 -0.4418  0.3361
  162TMC2    C5 2469   1.067   2.921   1.401  0.2789  0.2817  0.1651
  162TMC2    C6 2470   1.032   3.049   1.434 -0.0389 -0.1543 -1.0945
  162TMC2     C 2471   1.292   2.966   1.112 -0.9069  0.6361  0.1574
  162TMC2     O 2472   1.299   2.846   1.079  0.4366 -0.1434  0.6637
  162TMC2     H 2473   1.214   3.197   1.197  1.5754  0.1170 -0.2677
  162TMC2    H1 2474   1.180   2.781   1.272 -0.4823  0.2344 -1.7910
  162TMC2    H2 2475   0.974   3.074   1.523  2.1244 -0.6918  0.4685
  162TMC2    C7 2476   0.973   2.816   1.458  0.2035 -0.8966  0.6215
  162TMC2    C8 2477   1.074   3.281   1.422  0.1247 -0.5978  0.0208
  162TMC2    O1 2478   0.876   2.856   1.522 -0.3493 -0.1476  0.2792
  162TMC2    O2 2479   1.003   3.289   1.523  0.4989 -0.5050 -0.2858
  162TMC2    O5 2480   1.192   3.340   1.429 -0.5392 -0.4515  0.0209
  162TMC2    H5 2481   1.260   3.324   1.360  0.8582 -0.3186  1.3877
  163MPD2     C 2482   1.479   3.085   0.671 -0.5678  0.0901  0.3387
  163MPD2    C1 2483   1.409   2.971   0.708 -0.2628  0.2892  0.3309
  163MPD2    C2 2484   1.364   2.962   0.836 -0.5853 -0.3341  0.3312
  163MPD2    C3 2485   1.380   3.074   0.917 -0.4168  0.5483 -0.8482
  163MPD2    C4 2486   1.441   3.191   0.879 -0.0295  0.2130  0.5541
  163MPD2    C5 2487   1.493   3.191   0.757 -0.3798  0.2770 -0.0114
  163MPD2     H 2488   1.307   2.876   0.869 -0.6730  0.1360  1.4373
  163MPD2    H1 2489   1.444   3.277   0.946  1.3142  0.8324 -0.3118
  163MPD2    H2 2490   1.525   3.086   0.573 -0.8541 -1.1739  0.1786
  163MPD2    H3 2491   1.555   3.274   0.726  0.3108  1.1386  3.5977
  163MPD2     N 2492   1.346   3.075   1.052 -0.0993  0.1619  0.2691
  163MPD2    H5 2493   1.338   3.168   1.094 -1.3722  0.7198 -1.2002
  163MPD2    N1 2494   1.390   2.868   0.606  0.7297  0.1146  0.4341
  163MPD2    H7 2495   1.430   2.885   0.515 -0.9577 -1.7386 -0.6533
  164TCq2    C1 2496   0.832   2.292  11.014 -0.2711  0.1364 -0.1787
  164TCq2    O2 2497   0.736   2.291  11.087 -0.3911 -0.5712  0.3908
  164TCq2    C2 2498   0.842   2.400  10.918 -0.5049 -0.7569 -0.5295
  164TCq2    C3 2499   0.956   2.423  10.854 -0.5168 -0.1368 -1.1090
  164TCq2    C4 2500   0.981   2.544  10.803  0.0035  0.4323 -0.3868
  164TCq2    C5 2501   0.888   2.648  10.803  0.5261 -0.1341 -0.3387
  164TCq2    C6 2502   0.775   2.628  10.881  0.0055 -0.5494 -0.3780
  164TCq2    C7 2503   0.756   2.507  10.947  0.0001  0.2408  0.3495
  164TCq2    C8 2504   0.670   2.736  10.899 -0.8641 -0.7832 -0.4663
  164TCq2    O4 2505   0.662   2.825  10.816 -0.4889 -0.0074  0.0324
  164TCq2    C9 2506   1.106   2.566  10.741 -0.2356 -0.0321  0.3136
  164TCq2    O5 2507   1.142   2.684  10.759  0.0406 -0.1064  0.2139
  164TCq2    O6 2508   1.168   2.473  10.697  0.3936  0.0106  0.1971
  164TCq2    H2 2509   1.033   2.347  10.837 -2.1216 -2.3404  1.5638
  164TCq2    H3 2510   0.905   2.745  10.758  1.9678 -0.7235 -1.0899
  164TCq2    H4 2511   0.657   2.485  10.983 -0.5509 -1.1694 -1.9775
  165MPD2     C 2512   1.561   0.197   0.763  0.1501 -0.4822 -0.3664
  165MPD2    C1 2513   1.563   0.157   0.892 -0.0131  0.2302 -0.2823
  165MPD2    C2 2514   1.569   0.248   0.995 -0.1166 -0.1189  0.3187
  165MPD2    C3 2515   1.535   0.381   0.968 -0.7114 -0.5074  0.3426
  165MPD2    C4 2516   1.530   0.430   0.836 -0.5606 -0.2137  0.3119
  165MPD2    C5 2517   1.550   0.339   0.740  0.4445 -0.1614  0.1295
  165MPD2     H 2518   1.580   0.215   1.098 -1.7163  3.8984  1.7504
  165MPD2    H1 2519   1.530   0.535   0.813  0.1084 -0.3276 -0.1799
  165MPD2    H2 2520   1.558   0.136   0.673 -0.0748 -1.4740  0.3101
  165MPD2    H3 2521   1.540   0.366   0.635  2.1694 -2.3765 -0.6103
  165MPD2     N 2522   1.531   0.481   1.075 -0.4403  0.1927 -0.0417
  165MPD2    H5 2523   1.496   0.574   1.054 -1.9410 -0.3194  0.1955
  165MPD2    N1 2524   1.563   0.018   0.914 -0.1335  0.2696 -0.2832
  165MPD2    H7 2525   1.533   4.681   0.838 -2.5896  1.5777 -0.3643
  166TCq2    C1 2526   1.575   0.469   1.202 -0.2455  0.5865  0.7770
  166TCq2    O2 2527   1.625   0.374   1.258 -0.1199 -0.7264  0.2817
  166TCq2    C2 2528   1.606   0.600   1.257 -0.0218  0.4800  0.2593
  166TCq2    C3 2529   1.544   0.709   1.202 -0.2130  0.2144  0.1273
  166TCq2    C4 2530   1.612   0.825   1.219  0.1229  0.2245  0.3598
  166TCq2    C5 2531   1.735   0.832   1.273 -0.8164 -0.2085  0.0521
  166TCq2    C6 2532   1.789   0.722   1.335 -0.2741 -0.0291 -0.2307
  166TCq2    C7 2533   1.724   0.606   1.330  0.0639  0.0692 -0.0421
  166TCq2    C8 2534   1.934   0.717   1.356 -0.4541 -0.2950  0.4008
  166TCq2    O4 2535   1.986   0.606   1.356 -0.3274  0.3698 -0.2611
  166TCq2    C9 2536   1.549   0.941   1.165  0.5803  0.4928 -0.4700
  166TCq2    O5 2537   1.436   0.925   1.119 -0.0786  0.1104  0.9550
  166TCq2    O6 2538   1.611   1.051   1.168  0.4093  0.7569 -0.2426
  166TCq2    H2 2539   1.451   0.692   1.149  1.0565  0.3558 -2.1584
  166TCq2    H3 2540   1.786   0.927   1.269  1.5716 -1.4861  0.4122
  166TCq2    H4 2541   1.771   0.517   1.369  0.5558  1.2490  2.0431
  167TMC2    C1 2542   4.471   3.095  12.686  0.5549 -0.0399 -0.1813
  167TMC2    C2 2543   4.400   3.157  12.781  0.1576  0.5366  0.0535
  167TMC2    C3 2544   4.388   3.100  12.904  0.2770 -0.3982 -0.4588
  167TMC2    C4 2545   4.527   2.970  12.704  0.1431  0.3553  0.6303
  167TMC2    C5 2546   4.518   2.914  12.828  0.7169  0.2280 -0.6225
  167TMC2    C6 2547   4.453   2.982  12.930  0.2452 -0.5304  0.5845
  167TMC2     C 2548   4.505   3.171  12.568 -0.2922  0.2995 -1.0067
  167TMC2     O 2549   4.489   3.291  12.572  0.7037  0.2419 -0.2097
  167TMC2     H 2550   4.360   3.255  12.760  2.4745  1.4826  0.0430
  167TMC2    H1 2551   4.581   2.917  12.627 -0.6865 -1.2228  1.1371
  167TMC2    H2 2552   4.426   2.920  13.016  0.3969 -1.2312  0.1294
  167TMC2    C7 2553   4.560   2.774  12.856  0.6467  0.1504 -0.8306
  167TMC2    C8 2554   4.260   3.111  12.972  0.6048  0.0730 -0.8226
  167TMC2    O1 2555   4.537   2.724  12.967  0.1270  0.2371 -0.7527
  167TMC2    O2 2556   4.198   3.012  13.002  0.0366  0.5227 -0.0382
  167TMC2    O5 2557   4.210   3.239  12.949  0.2716 -0.1576  0.1941
  167TMC2    H5 2558   4.280   3.305  12.930  1.7161 -2.5269 -2.8038
  168MPD2     C 2559   4.608   3.273  12.306 -0.3986 -0.1901  1.1213
  168MPD2    C1 2560   4.564   3.142  12.332  0.4672  0.5020 -0.2483
  168MPD2    C2 2561   4.563   3.052  12.225  0.1146 -0.5215  0.0252
  168MPD2    C3 2562   4.600   3.095  12.098 -0.2792 -0.4666  0.2103
  168MPD2    C4 2563   4.642   3.225  12.085 -0.1452 -0.7034  0.2500
  168MPD2    C5 2564   4.637   3.312  12.182 -0.5436  0.0431 -0.3922
  168MPD2     H 2565   4.543   2.946  12.240 -0.3499 -0.3608  0.5202
  168MPD2    H1 2566   4.696   3.264  11.999 -1.3199 -0.8124 -0.5412
  168MPD2    H2 2567   4.609   3.353  12.379  0.0698  0.1578  0.7329
  168MPD2    H3 2568   4.656   3.416  12.159  0.9795 -0.4881 -1.4851
  168MPD2     N 2569   4.601   2.998  11.998 -0.1333  0.2021  0.1397
  168MPD2    H5 2570   4.585   2.904  12.033 -0.4121  0.5390  0.9277
  168MPD2    N1 2571   4.539   3.096  12.459 -0.0071 -0.6205  1.0708
  168MPD2    H7 2572   4.528   2.995  12.468 -3.4667  0.1297  5.2335
  169MPD1     C 2573   2.427   0.228   8.951  0.9181 -0.2695 -0.1166
  169MPD1    C1 2574   2.536   0.146   8.940 -0.3029 -0.3027  0.4069
  169MPD1    C2 2575   2.647   0.178   9.017 -0.0515 -1.1956 -0.2025
  169MPD1    C3 2576   2.662   0.300   9.079  0.9374 -0.3149 -0.0095
  169MPD1    C4 2577   2.553   0.390   9.081  0.6072  0.1466  0.4091
  169MPD1    C5 2578   2.437   0.344   9.013  0.4051  0.3768  0.2091
  169MPD1     H 2579   2.737   0.118   9.006  0.5790 -0.0367 -1.2947
  169MPD1    H1 2580   2.543   0.488   9.127  2.4087  1.0655 -1.1502
  169MPD1    H2 2581   2.330   0.201   8.909  0.3226 -0.3712  1.2944
  169MPD1    H3 2582   2.358   0.416   8.995  0.8374  0.5321 -1.0801
  169MPD1     N 2583   2.785   0.328   9.147  0.2072  0.0133  0.8391
  169MPD1    H5 2584   2.851   0.250   9.148 -1.7203 -1.6870 -2.6962
  169MPD1    N1 2585   2.527   0.017   8.886  0.0358  0.7425  0.3492
  169MPD1    H6 2586   2.616   4.714   8.844  1.1467  0.4753  2.8874
  169MPD1    H7 2587   2.458   0.016   8.811  0.3952 -2.3203  0.0590
  170MPD1     C 2588   1.269   0.017  12.680 -0.9406  0.3476 -0.7648
  170MPD1    C1 2589   1.355   0.126  12.669  0.0507  1.1169  0.8605
  170MPD1    C2 2590   1.429   0.157  12.778  1.0657  0.0424  0.1927
  170MPD1    C3 2591   1.407   0.103  12.898 -0.1149  0.2070  0.3359
  170MPD1    C4 2592   1.310   0.007  12.917  0.8564 -0.0848  0.6029
  170MPD1    C5 2593   1.239   4.690  12.805 -0.0709  0.6698 -0.0758
  170MPD1     H 2594   1.506   0.232  12.767  0.4196  0.6070 -0.4755
  170MPD1    H1 2595   1.286   4.673  13.007  0.3182 -0.0723  0.4658
  170MPD1    H2 2596   1.215   4.703  12.594 -0.9671 -0.4192 -0.4256
  170MPD1    H3 2597   1.173   4.605  12.809 -0.5731  1.0492 -0.3291
  170MPD1     N 2598   1.488   0.146  13.006  0.4291  0.0301 -0.3908
  170MPD1    H5 2599   1.559   0.216  12.985  2.2949 -1.2780  1.5613
  170MPD1    N1 2600   1.381   0.176  12.544  0.2266 -0.2965 -0.5484
  170MPD1    H6 2601   1.302   0.188  12.481  0.1861  0.8156 -0.2833
  170MPD1    H7 2602   1.427   0.267  12.545 -0.3526  0.0078 -1.3345
  171MPD1     C 2603   0.266   0.652  15.078  0.3947  0.5300 -0.6914
  171MPD1    C1 2604   0.289   0.766  15.150  0.0405  0.1923 -0.3320
  171MPD1    C2 2605   0.395   0.768  15.232  0.1057  0.2081  0.1975
  171MPD1    C3 2606   0.493   0.665  15.228  0.3999 -0.5198 -0.7016
  171MPD1    C4 2607   0.481   0.558  15.141  0.5627  0.2196  0.7386
  171MPD1    C5 2608   0.365   0.556  15.069 -0.2790  0.3701  0.1203
  171MPD1     H 2609   0.415   0.850  15.300 -0.8802  0.4674  0.1755
  171MPD1    H1 2610   0.546   0.473  15.124 -1.3725 -0.8858 -1.0992
  171MPD1    H2 2611   0.179   0.649  15.014  0.0216  0.7885 -0.2035
  171MPD1    H3 2612   0.350   0.467  15.010  4.0005  0.2086 -0.6950
  171MPD1     N 2613   0.597   0.645  15.319  0.3054 -0.2197 -0.5405
  171MPD1    H5 2614   0.653   0.562  15.300  2.2096  0.9857 -0.2318
  171MPD1    N1 2615   0.183   0.858  15.172  0.0597 -0.7859  0.2300
  171MPD1    H6 2616   0.208   0.952  15.203  2.1261 -1.2970  0.1089
  171MPD1    H7 2617   0.141   0.873  15.080  1.6518  0.6083 -0.2692
  172MPD1     C 2618   3.639   4.690  17.552  0.3094  0.6830 -0.0540
  172MPD1    C1 2619   3.634   0.102  17.517  0.3545 -0.6040  0.2878
  172MPD1    C2 2620   3.682   0.196  17.606  0.1350  0.5688 -0.6374
  172MPD1    C3 2621   3.732   0.149   0.034 -0.1419 -0.5311  0.6629
  172MPD1    C4 2622   3.719   0.016   0.076 -0.2588  0.4159 -0.0493
  172MPD1    C5 2623   3.672   4.653  17.680  0.6555  0.1841  0.1048
  172MPD1     H 2624   3.693   0.301  17.581  0.2689  0.0549 -2.7237
  172MPD1    H1 2625   3.761   4.707   0.171 -1.1007  0.4637  0.3345
  172MPD1    H2 2626   3.618   4.610  17.482  2.3368  0.4292 -0.3766
  172MPD1    H3 2627   3.678   4.551   0.021  1.1204  0.2243  0.1396
  172MPD1     N 2628   3.798   0.225   0.128  0.3476 -0.0268  0.4968
  172MPD1    H5 2629   3.844   0.170   0.200  1.1306  1.0286  0.8025
  172MPD1    N1 2630   3.619   0.133  17.385  0.1121  0.0759  0.3606
  172MPD1    H6 2631   3.579   0.226  17.372  1.3492  0.8423  2.0513
  172MPD1    H7 2632   3.579   0.058  17.329 -1.1403 -0.2500  1.6979
  173MPD1     C 2633   0.624   0.741  14.639 -0.3375  0.2956 -0.4853
  173MPD1    C1 2634   0.552   0.667  14.726 -0.7290  0.3605 -0.1157
  173MPD1    C2 2635   0.492   0.555  14.677 -0.2191  0.2378  0.2582
  173MPD1    C3 2636   0.488   0.524  14.548  0.0888  0.3844 -0.1645
  173MPD1    C4 2637   0.556   0.606  14.459  0.2145 -0.1028  0.2509
  173MPD1    C5 2638   0.636   0.711  14.507 -0.0547  0.4709  0.2126
  173MPD1     H 2639   0.423   0.506  14.745 -0.2962  0.2917  0.2187
  173MPD1    H1 2640   0.552   0.586  14.353  0.6192  2.7670 -0.3254
  173MPD1    H2 2641   0.681   0.828  14.672 -0.6808 -0.5608  2.3767
  173MPD1    H3 2642   0.707   0.764  14.445  0.1324  0.5213  0.4717
  173MPD1     N 2643   0.411   0.414  14.503  0.0213  0.6339 -0.0994
  173MPD1    H5 2644   0.366   0.356  14.573 -0.0387  0.9663  0.1378
  173MPD1    N1 2645   0.555   0.690  14.865 -0.2924  0.1040 -0.0216
  173MPD1    H6 2646   0.476   0.643  14.908 -0.3037  0.5116  0.3995
  173MPD1    H7 2647   0.560   0.787  14.895  1.3379  0.0165 -0.0198
  174MPD1     C 2648   0.344   4.599  13.687  0.1869  0.3955  0.0046
  174MPD1    C1 2649   0.244   4.546  13.764  0.0997 -0.7028  0.3375
  174MPD1    C2 2650   0.192   4.627  13.863  0.2367 -0.1016 -0.1884
  174MPD1    C3 2651   0.256   0.018  13.901  0.4377 -0.0504 -0.3109
  174MPD1    C4 2652   0.359   0.067  13.828 -0.0458  0.1421  0.8863
  174MPD1    C5 2653   0.397   4.722  13.718  0.7007  0.4673  0.0423
  174MPD1     H 2654   0.105   4.600  13.920  0.5624 -0.1859  0.2653
  174MPD1    H1 2655   0.409   0.161  13.848  1.6202 -0.7206  0.7726
  174MPD1    H2 2656   0.376   4.538  13.603 -0.6161 -0.4433  0.3173
  174MPD1    H3 2657   0.483   0.028  13.659  0.3912 -1.1099 -1.2142
  174MPD1     N 2658   0.212   0.090  14.017 -0.0591 -0.2910 -0.2700
  174MPD1    H5 2659   0.250   0.180  14.045 -3.1749  1.2322 -1.0151
  174MPD1    N1 2660   0.171   4.435  13.721  0.6832 -0.1606  0.0667
  174MPD1    H6 2661   0.215   4.364  13.662  0.1541  0.6279 -1.2743
  174MPD1    H7 2662   0.129   4.389  13.802 -0.8747 -1.0179 -1.2273
  175MPD1     C 2663   3.148   1.309  15.562 -0.1049  0.1751  0.2447
  175MPD1    C1 2664   3.220   1.207  15.615 -0.1057 -0.3865 -0.3678
  175MPD1    C2 2665   3.268   1.224  15.745 -0.4334  0.0736  0.4180
  175MPD1    C3 2666   3.233   1.336  15.818 -0.7417 -0.4565  0.2728
  175MPD1    C4 2667   3.149   1.435  15.763  0.3684 -0.1098  0.2089
  175MPD1    C5 2668   3.108   1.418  15.632 -0.1917 -0.2841 -1.0234
  175MPD1     H 2669   3.329   1.147  15.791 -0.5688 -0.2724  0.0206
  175MPD1    H1 2670   3.107   1.522  15.813  1.7999  1.6728 -1.6425
  175MPD1    H2 2671   3.132   1.305  15.455  0.6473  0.7754  0.1039
  175MPD1    H3 2672   3.056   1.496  15.578 -0.0049 -0.7449 -1.8752
  175MPD1     N 2673   3.285   1.355  15.954 -0.6121  0.1950 -0.3479
  175MPD1    H5 2674   3.266   1.444  15.999  0.0521  1.1687 -1.9688
  175MPD1    N1 2675   3.273   1.105  15.531 -0.1380 -0.5967  0.6210
  175MPD1    H6 2676   3.305   1.021  15.581 -0.1290 -1.1664 -0.3365
  175MPD1    H7 2677   3.216   1.088  15.449 -1.4324 -1.6089  1.7298
  176MPD1     C 2678   0.880   2.662  16.906  0.5178 -0.0047  0.1410
  176MPD1    C1 2679   0.885   2.776  16.835  0.2402 -0.0032 -0.2141
  176MPD1    C2 2680   0.880   2.897  16.909  0.3152  0.0267  0.8436
  176MPD1    C3 2681   0.897   2.897  17.046 -0.1366 -0.0471  0.6121
  176MPD1    C4 2682   0.927   2.779  17.108  0.4515 -0.6811 -0.2608
  176MPD1    C5 2683   0.913   2.662  17.039 -0.2558  0.0215  0.3459
  176MPD1     H 2684   0.871   2.993  16.860 -0.4117 -0.9439 -0.8939
  176MPD1    H1 2685   0.954   2.771  17.213 -0.4099 -1.9484 -0.1317
  176MPD1    H2 2686   0.894   2.567  16.855 -2.1568  0.0805 -0.7302
  176MPD1    H3 2687   0.925   2.567  17.089 -0.5216  0.6015  1.5274
  176MPD1     N 2688   0.898   3.025  17.110 -0.2725  0.6652 -0.7855
  176MPD1    H5 2689   0.877   3.101  17.046  2.7302  0.6119 -1.7955
  176MPD1    N1 2690   0.851   2.774  16.706  0.7025  0.4899  0.0448
  176MPD1    H6 2691   0.886   2.685  16.671  0.3834 -0.1823  1.4465
  176MPD1    H7 2692   0.875   2.848  16.640 -0.8222 -0.7185 -1.8797
  177MPD1     C 2693   3.992   3.350   9.187 -0.5753  0.2796  0.2249
  177MPD1    C1 2694   3.975   3.218   9.180  0.0894  0.2010 -0.1423
  177MPD1    C2 2695   3.874   3.162   9.262  0.5473  0.1823  0.3647
  177MPD1    C3 2696   3.787   3.245   9.338 -0.6914 -0.8164 -0.4864
  177MPD1    C4 2697   3.808   3.388   9.332  0.1096  0.0632 -0.3052
  177MPD1    C5 2698   3.909   3.432   9.259  0.1618  0.2587 -0.0163
  177MPD1     H 2699   3.876   3.057   9.287 -0.8804 -0.3382 -1.6466
  177MPD1    H1 2700   3.732   3.458   9.366  0.1579  0.0506 -0.1729
  177MPD1    H2 2701   4.044   3.407   9.111  2.6283 -1.6147  1.0000
  177MPD1    H3 2702   3.912   3.537   9.233 -0.7005  0.2224 -0.2634
  177MPD1     N 2703   3.671   3.185   9.401  0.3924 -0.0733  0.1272
  177MPD1    H5 2704   3.657   3.088   9.375  2.2952 -1.0606  2.8493
  177MPD1    N1 2705   4.061   3.131   9.121  0.0007  0.2067  0.6315
  177MPD1    H6 2706   4.108   3.170   9.040 -1.1290  0.0510 -0.1061
  177MPD1    H7 2707   4.012   3.048   9.088 -0.6552  1.9734 -2.8507
  178MPD1     C 2708   0.761   3.815  17.609 -0.1305  0.4933 -0.0351
  178MPD1    C1 2709   0.747   3.781  17.473 -0.0435  0.3718  0.2349
  178MPD1    C2 2710   0.858   3.775  17.391  0.3367 -0.6626 -0.6628
  178MPD1    C3 2711   0.985   3.784  17.453 -0.1311 -0.0488  0.0893
  178MPD1    C4 2712   0.993   3.784  17.589  0.5610 -0.8720  0.7165
  178MPD1    C5 2713   0.881   3.801  17.666 -0.1158  0.0690  0.1228
  178MPD1     H 2714   0.845   3.747  17.287 -2.7422 -1.3923 -0.0837
  178MPD1    H1 2715   1.082   3.757  17.644  0.5088 -1.2071  0.6394
  178MPD1    H2 2716   0.670   3.837  17.663 -1.9967 -2.1369 -2.1156
  178MPD1    H3 2717   0.892   3.805   0.080  0.1755 -1.7024  0.1596
  178MPD1     N 2718   1.099   3.780  17.369  0.2356  0.2758 -0.5226
  178MPD1    H5 2719   1.178   3.737  17.416  1.3661  1.9934 -0.8386
  178MPD1    N1 2720   0.616   3.786  17.415  0.4431  0.7803 -0.7573
  178MPD1    H6 2721   0.536   3.747  17.464 -0.0066  1.6131 -0.8225
  178MPD1    H7 2722   0.615   3.743  17.323  0.7755 -0.6506 -0.0779
  179MPD1     C 2723   0.065   2.401  15.761  0.0426  0.4183  0.5331
  179MPD1    C1 2724   0.197   2.426  15.716 -0.0467 -0.9600 -0.1211
  179MPD1    C2 2725   0.297   2.342  15.767 -0.2232 -0.6342  0.1808
  179MPD1    C3 2726   0.265   2.222  15.837  0.5149  0.2510  0.5618
  179MPD1    C4 2727   0.128   2.207  15.876  0.6761 -0.4915  0.8487
  179MPD1    C5 2728   0.033   2.297  15.839 -0.1361 -0.0178 -0.2277
  179MPD1     H 2729   0.400   2.348  15.734 -0.1866 -0.1361  0.3954
  179MPD1    H1 2730   0.109   2.116  15.932 -0.3344  1.2859  3.3887
  179MPD1    H2 2731   4.711   2.473  15.737 -1.4780 -2.1117 -2.0696
  179MPD1    H3 2732   4.652   2.289  15.869  0.1794 -2.2886  0.2706
  179MPD1     N 2733   0.365   2.128  15.872 -0.6632  0.0648 -0.1997
  179MPD1    H5 2734   0.332   2.034  15.895  0.5868 -0.0002  1.2963
  179MPD1    N1 2735   0.231   2.545  15.654 -0.3941 -0.1228  0.2110
  179MPD1    H6 2736   0.175   2.565  15.572  0.5343  1.2522 -0.0907
  179MPD1    H7 2737   0.326   2.551  15.619  0.3083  1.9394  2.4521
  180MPD1     C 2738   1.087   3.645  14.963 -0.0656  0.1403 -0.1286
  180MPD1    C1 2739   1.112   3.724  14.857 -0.5197  0.4667  0.6150
  180MPD1    C2 2740   1.011   3.745  14.768 -0.0819  0.2388 -0.2532
  180MPD1    C3 2741   0.880   3.694  14.791  0.6472  0.5438  0.4175
  180MPD1    C4 2742   0.853   3.622  14.908  0.0005  0.2390 -0.0892
  180MPD1    C5 2743   0.960   3.598  14.991 -0.2222 -0.5585  0.0596
  180MPD1     H 2744   1.036   3.792  14.673  2.5926  0.6219  0.6555
  180MPD1    H1 2745   0.752   3.586  14.924  1.1856 -2.5939  0.9154
  180MPD1    H2 2746   1.173   3.618  15.023 -1.2412 -0.8469  1.1075
  180MPD1    H3 2747   0.949   3.545  15.084 -1.1917 -0.5105 -0.0205
  180MPD1     N 2748   0.782   3.714  14.688 -0.0120  0.0429  0.6136
  180MPD1    H5 2749   0.808   3.770  14.607  0.2081 -0.0291  0.6348
  180MPD1    N1 2750   1.244   3.762  14.826 -0.4122  0.3888 -0.0216
  180MPD1    H6 2751   1.297   3.773  14.912  1.1375 -0.7634 -0.8241
  180MPD1    H7 2752   1.241   3.852  14.780 -0.7498  0.2781 -0.2216
  181MPD1     C 2753   3.191   3.755   8.920 -0.2947  0.3856  0.6979
  181MPD1    C1 2754   3.062   3.821   8.936 -0.1469  0.4052  0.5209
  181MPD1    C2 2755   3.051   3.930   9.023  0.2803  0.1832  1.3710
  181MPD1    C3 2756   3.158   3.972   9.090  0.3817 -0.3017  0.4481
  181MPD1    C4 2757   3.280   3.911   9.072  0.0527 -0.2868  0.6275
  181MPD1    C5 2758   3.298   3.808   8.986 -0.6528 -0.1790 -0.6441
  181MPD1     H 2759   2.957   3.980   9.042 -0.4367 -0.9546  0.8068
  181MPD1    H1 2760   3.365   3.951   9.126  0.2216  0.8721 -0.5055
  181MPD1    H2 2761   3.214   3.675   8.851  0.6310  0.4131  0.9723
  181MPD1    H3 2762   3.395   3.761   8.974  0.8628  2.6728  0.7324
  181MPD1     N 2763   3.157   4.077   9.185  0.5616  0.2290  0.0296
  181MPD1    H5 2764   3.246   4.087   9.234  1.0439 -1.5609 -0.4684
  181MPD1    N1 2765   2.957   3.757   8.881  0.3679  0.0529 -0.6004
  181MPD1    H6 2766   2.878   3.821   8.877  0.2488 -0.0649 -0.1283
  181MPD1    H7 2767   2.971   3.707   8.793  1.9418  3.2279 -2.1423
  182MPD1     C 2768   4.581   3.956   1.647  0.8574 -0.2648 -0.4115
  182MPD1    C1 2769   4.496   3.872   1.576  0.4865  0.0770  0.4972
  182MPD1    C2 2770   4.369   3.916   1.543 -0.2568 -0.3959  0.2655
  182MPD1    C3 2771   4.324   4.041   1.584  0.2527  0.2066 -0.3511
  182MPD1    C4 2772   4.417   4.119   1.665 -0.3260  0.1950  0.4964
  182MPD1    C5 2773   4.544   4.079   1.690 -0.1748  0.3464 -0.9600
  182MPD1     H 2774   4.302   3.849   1.489 -0.3272  0.3349 -0.5483
  182MPD1    H1 2775   4.385   4.219   1.689  1.7484  0.5990  1.5981
  182MPD1    H2 2776   4.685   3.934   1.667  0.4540 -0.5017  1.3817
  182MPD1    H3 2777   4.615   4.144   1.739  0.9802 -0.8784 -1.0264
  182MPD1     N 2778   4.189   4.090   1.558  0.4348  0.6303 -0.1193
  182MPD1    H5 2779   4.170   4.182   1.598  2.2854  1.8516 -2.0295
  182MPD1    N1 2780   4.556   3.755   1.518 -0.4002  0.0649 -0.0176
  182MPD1    H6 2781   4.643   3.725   1.561 -0.0242 -1.8574 -2.1066
  182MPD1    H7 2782   4.504   3.668   1.524  1.7632 -1.4235 -2.7212
  183MPD1     C 2783   3.346   4.419   8.476  0.2170  0.9446  0.2636
  183MPD1    C1 2784   3.249   4.505   8.535 -0.5548  0.0805  0.8623
  183MPD1    C2 2785   3.285   4.573   8.648  0.5510  0.9492 -0.0593
  183MPD1    C3 2786   3.404   4.548   8.716  1.2153  0.0224 -0.6537
  183MPD1    C4 2787   3.495   4.455   8.654 -0.5363  0.0374  0.4419
  183MPD1    C5 2788   3.466   4.394   8.536  0.0814  0.5630 -0.4005
  183MPD1     H 2789   3.227   4.657   8.683 -2.1143 -0.8437 -0.1392
  183MPD1    H1 2790   3.593   4.439   8.697 -0.9035 -1.3696  0.7536
  183MPD1    H2 2791   3.326   4.374   8.379  2.2098  1.8171 -0.5622
  183MPD1    H3 2792   3.548   4.339   8.491 -1.6101 -1.9590 -0.3719
  183MPD1     N 2793   3.436   4.615   8.834  0.2110 -0.2134 -0.5926
  183MPD1    H5 2794   3.372   4.689   8.858  0.3041 -0.4894  0.5039
  183MPD1    N1 2795   3.129   4.534   8.464  0.6608 -0.2110 -1.2368
  183MPD1    H6 2796   3.049   4.563   8.520  1.8311 -0.5648  0.6418
  183MPD1    H7 2797   3.108   4.453   8.406 -0.9559 -0.6922  0.0062
  184MPD1     C 2798   3.195   1.940   9.276 -0.0583 -0.0705  0.1424
  184MPD1    C1 2799   3.232   2.071   9.250 -0.3626 -0.3274 -0.1799
  184MPD1    C2 2800   3.202   2.174   9.339 -0.2679 -0.1586 -0.1680
  184MPD1    C3 2801   3.121   2.150   9.448 -0.3457 -0.8268 -0.1483
  184MPD1    C4 2802   3.087   2.020   9.476  0.4447 -1.0873  0.4496
  184MPD1    C5 2803   3.129   1.924   9.390  0.3160  0.4291 -0.3003
  184MPD1     H 2804   3.250   2.272   9.331 -0.4132 -0.3689 -3.6841
  184MPD1    H1 2805   3.022   2.003   9.562 -2.4873 -0.1170 -1.5728
  184MPD1    H2 2806   3.218   1.852   9.216 -1.3815  2.0834 -3.5233
  184MPD1    H3 2807   3.100   1.823   9.418  1.8854  0.9262  3.1310
  184MPD1     N 2808   3.070   2.246   9.534 -0.6675 -0.1496 -0.1695
  184MPD1    H5 2809   3.004   2.221   9.607 -0.3482  0.6171  0.3754
  184MPD1    N1 2810   3.336   2.084   9.159  0.0508  0.4620 -0.5453
  184MPD1    H6 2811   3.322   2.038   9.069 -0.6312  1.1477 -0.7896
  184MPD1    H7 2812   3.351   2.181   9.131  0.2648  0.5267 -0.2011
  185MPD1     C 2813   3.403   3.157   9.982  0.2113  0.0642  0.1354
  185MPD1    C1 2814   3.316   3.169   9.878  0.1928 -0.3327 -0.3686
  185MPD1    C2 2815   3.232   3.055   9.857  0.0491  0.0454 -0.2077
  185MPD1    C3 2816   3.254   2.946   9.933 -0.0613 -0.0972 -0.0478
  185MPD1    C4 2817   3.334   2.939  10.040  0.0676 -0.0391 -0.1198
  185MPD1    C5 2818   3.408   3.048  10.073  0.0199 -0.1491  0.8609
  185MPD1     H 2819   3.157   3.042   9.779  1.0192 -2.7416 -0.6862
  185MPD1    H1 2820   3.356   2.852  10.100 -0.7051  0.1996  0.5257
  185MPD1    H2 2821   3.465   3.238  10.017  1.0605 -0.8939  0.8643
  185MPD1    H3 2822   3.476   3.044  10.157  0.6528  0.8368  0.3932
  185MPD1     N 2823   3.205   2.818   9.899  0.0390  0.3688 -0.1689
  185MPD1    H5 2824   3.213   2.745   9.968  2.3213 -1.4337 -2.3206
  185MPD1    N1 2825   3.287   3.290   9.813 -0.3667  0.0124  0.2027
  185MPD1    H6 2826   3.377   3.333   9.791  1.1750 -3.2508  0.1058
  185MPD1    H7 2827   3.233   3.270   9.730 -0.7584  1.6295  0.0679
  186MPD1     C 2828   1.629   1.667  15.463 -0.3414 -0.1106 -0.4233
  186MPD1    C1 2829   1.539   1.764  15.431 -0.5289  0.5512  0.2715
  186MPD1    C2 2830   1.503   1.853  15.535 -0.3554 -0.1788 -0.3517
  186MPD1    C3 2831   1.555   1.847  15.662  0.4208  0.8048  0.2529
  186MPD1    C4 2832   1.645   1.750  15.690  0.0026  0.2307  0.2282
  186MPD1    C5 2833   1.681   1.658  15.593  0.0957 -0.7157  0.5839
  186MPD1     H 2834   1.434   1.931  15.506 -1.4761 -1.1605 -0.3135
  186MPD1    H1 2835   1.685   1.746  15.791  1.2446 -1.0775 -0.3015
  186MPD1    H2 2836   1.681   1.606  15.390  0.3938  0.5721 -0.4740
  186MPD1    H3 2837   1.756   1.586  15.620  1.6011  1.0423  1.0701
  186MPD1     N 2838   1.536   1.944  15.761  0.0935 -0.0729 -0.3393
  186MPD1    H5 2839   1.573   1.936  15.855 -1.2015 -0.1916  0.1588
  186MPD1    N1 2840   1.473   1.771  15.303 -0.1922 -0.0297 -0.3364
  186MPD1    H6 2841   1.529   1.731  15.229 -0.4248  1.4547 -1.3165
  186MPD1    H7 2842   1.450   1.868  15.280  1.6353  0.4802  0.0307
  187MPD1     C 2843   0.195   4.657   0.774 -0.2078 -0.0510 -0.1720
  187MPD1    C1 2844   0.123   4.596   0.661  0.6875 -0.2364  0.2450
  187MPD1    C2 2845   0.195   4.566   0.553 -0.0052  0.0969 -0.1177
  187MPD1    C3 2846   0.325   4.612   0.527 -0.4556  0.1000 -0.0647
  187MPD1    C4 2847   0.387   4.680   0.628 -0.1910  0.2908  0.0002
  187MPD1    C5 2848   0.322   4.700   0.744 -0.2674  0.5941  0.4969
  187MPD1     H 2849   0.144   4.514   0.472 -0.9706 -0.6027  0.9319
  187MPD1    H1 2850   0.490   4.711   0.612 -0.5586  1.6425  0.3092
  187MPD1    H2 2851   0.137   4.692   0.859  0.7587 -0.5665  0.6874
  187MPD1    H3 2852   0.381   0.031   0.817  0.6764 -0.0442  0.2099
  187MPD1     N 2853   0.380   4.557   0.407  0.0796  0.1952  0.2034
  187MPD1    H5 2854   0.327   4.491   0.352  1.8021 -1.6206  0.7286
  187MPD1    N1 2855   4.722   4.524   0.679  0.2690  0.3394  0.5468
  187MPD1    H6 2856   4.671   4.561   0.759  2.7272  0.9052  1.8704
  187MPD1    H7 2857   4.656   4.514   0.602 -0.7312  0.1371  1.4234
  188MPD1     C 2858   4.476   4.256  10.147 -0.0177 -0.4606  1.2408
  188MPD1    C1 2859   4.412   4.227  10.027 -0.3004  0.2163 -0.0032
  188MPD1    C2 2860   4.468   4.135   9.939  0.2695 -0.5768  0.1391
  188MPD1    C3 2861   4.595   4.081   9.974 -0.1733 -0.1224  0.5946
  188MPD1    C4 2862   4.652   4.114  10.089 -0.2150 -0.4047  0.2577
  188MPD1    C5 2863   4.590   4.199  10.180  0.6565 -0.4165 -0.1788
  188MPD1     H 2864   4.412   4.105   9.852 -0.1342  0.7346 -0.0636
  188MPD1    H1 2865   0.033   4.090  10.106 -0.4054 -2.2714 -1.2000
  188MPD1    H2 2866   4.428   4.301  10.234  1.7962  0.5206  1.7543
  188MPD1    H3 2867   4.640   4.232  10.270  1.3450 -3.1624  0.4633
  188MPD1     N 2868   4.655   3.987   9.893 -0.0332  0.1722  0.2439
  188MPD1    H5 2869   0.007   3.935   9.937  1.3777  2.7835  0.9752
  188MPD1    N1 2870   4.278   4.263  10.000  0.0982 -0.4559 -0.1171
  188MPD1    H6 2871   4.257   4.258   9.900 -0.9887  1.3838  0.0089
  188MPD1    H7 2872   4.251   4.357  10.030 -0.0239 -0.3786 -0.4613
  189MPD1     C 2873   2.278   4.158   0.648  0.0850  0.2474  0.1133
  189MPD1    C1 2874   2.182   4.084   0.581 -0.6554 -0.3281 -0.5728
  189MPD1    C2 2875   2.106   4.153   0.485  0.5685  0.3945 -0.1661
  189MPD1    C3 2876   2.127   4.289   0.457  0.1450  0.0195  0.9344
  189MPD1    C4 2877   2.218   4.357   0.533 -0.0634 -0.6046  0.4719
  189MPD1    C5 2878   2.291   4.290   0.624 -0.0306  0.3227 -0.3852
  189MPD1     H 2879   2.040   4.090   0.427  0.0374  0.6527  0.1601
  189MPD1    H1 2880   2.248   4.461   0.534 -1.2525 -0.2600  1.0776
  189MPD1    H2 2881   2.341   4.102   0.717 -0.1133 -0.2501 -0.1148
  189MPD1    H3 2882   2.372   4.344   0.672  0.2143  0.7671 -1.2798
  189MPD1     N 2883   2.061   4.345   0.348 -0.2379  0.0234 -0.0159
  189MPD1    H5 2884   2.004   4.276   0.300 -0.3535  1.2013 -1.5517
  189MPD1    N1 2885   2.167   3.947   0.589  0.1274  0.2922 -0.5036
  189MPD1    H6 2886   2.077   3.905   0.567  0.7816 -0.7002 -1.2726
  189MPD1    H7 2887   2.191   3.919   0.683 -0.8150  1.5597  0.1221
  190MPD1     C 2888   0.299   4.245  15.681 -0.1399 -0.0747 -0.2302
  190MPD1    C1 2889   0.367   4.266  15.799  0.4218  0.0345  0.5530
  190MPD1    C2 2890   0.501   4.232  15.790  0.1459  0.2396 -0.3228
  190MPD1    C3 2891   0.565   4.199  15.673  0.3217 -0.7187 -0.1362
  190MPD1    C4 2892   0.495   4.184  15.558  0.3142  0.5207  0.4371
  190MPD1    C5 2893   0.359   4.199  15.565 -0.1576 -0.8128  0.4747
  190MPD1     H 2894   0.555   4.236  15.884  1.0989 -1.1624 -0.8186
  190MPD1    H1 2895   0.530   4.139  15.465  1.3260  0.4444  0.8557
  190MPD1    H2 2896   0.194   4.270  15.672 -0.0210  0.4740 -0.0867
  190MPD1    H3 2897   0.302   4.171  15.477  2.1691 -0.9731 -0.9667
  190MPD1     N 2898   0.697   4.151  15.683  0.1915 -0.3116 -0.3201
  190MPD1    H5 2899   0.746   4.142  15.771  0.2938  0.0314 -0.3415
  190MPD1    N1 2900   0.300   4.293  15.920  0.0252 -0.1758  0.2801
  190MPD1    H6 2901   0.203   4.323  15.911  0.3809  0.5532 -1.1459
  190MPD1    H7 2902   0.348   4.358  15.981 -1.7357  1.8635 -0.5078
  191MPD1     C 2903   0.833   0.159  12.834  0.5173 -0.3850 -0.4391
  191MPD1    C1 2904   0.923   0.239  12.774 -0.1474 -0.4347  0.6188
  191MPD1    C2 2905   0.872   0.318  12.673  0.6198  1.1198 -0.3666
  191MPD1    C3 2906   0.746   0.315  12.626  0.3212 -0.3317  0.4346
  191MPD1    C4 2907   0.669   0.212  12.682  0.9111  0.1672 -0.4376
  191MPD1    C5 2908   0.711   0.138  12.783  0.6114 -0.6257  0.2717
  191MPD1     H 2909   0.941   0.390  12.631  0.9671  0.5605 -0.7517
  191MPD1    H1 2910   0.570   0.193  12.643 -0.4608  1.2815  2.4817
  191MPD1    H2 2911   0.855   0.106  12.926  3.2320  1.1159 -0.2438
  191MPD1    H3 2912   0.637   0.072  12.827  0.2668 -0.7922 -0.5605
  191MPD1     N 2913   0.707   0.396  12.510 -0.3673  0.2381 -0.0847
  191MPD1    H5 2914   0.787   0.444  12.470  1.5845 -1.8492  1.3287
  191MPD1    N1 2915   1.051   0.264  12.828  0.2589 -0.1328  0.2091
  191MPD1    H6 2916   1.108   0.309  12.756  1.9163 -0.4906  1.3113
  191MPD1    H7 2917   1.086   0.175  12.861 -1.5976 -1.2696 -0.9240
  192MPD1     C 2918   0.057   0.931  11.866  0.0714 -0.4363  0.1098
  192MPD1    C1 2919   0.030   0.800  11.912 -0.5512 -0.4512 -0.3294
  192MPD1    C2 2920   0.134   0.722  11.963  0.2171 -0.2903  0.1263
  192MPD1    C3 2921   0.261   0.761  11.946 -0.0139  0.3717 -0.2103
  192MPD1    C4 2922   0.289   0.865  11.866 -0.1342  0.5535 -0.7554
  192MPD1    C5 2923   0.189   0.958  11.849  0.6699 -0.0974 -0.1339
  192MPD1     H 2924   0.109   0.624  12.004 -0.1891 -1.0704 -1.9992
  192MPD1    H1 2925   0.392   0.897  11.855  1.3716 -2.9272  3.0628
  192MPD1    H2 2926   4.700   1.001  11.845  0.5115 -0.0984 -0.4604
  192MPD1    H3 2927   0.214   1.055  11.807 -2.1623  1.4191  1.6662
  192MPD1     N 2928   0.367   0.692  12.005  0.2642 -0.1614 -0.1445
  192MPD1    H5 2929   0.461   0.728  11.992  0.2692  0.3944  1.3201
  192MPD1    N1 2930   4.623   0.755  11.931 -0.1157  0.0016  0.3387
  192MPD1    H6 2931   4.558   0.790  11.861 -2.0915 -0.2288  2.0623
  192MPD1    H7 2932   4.606   0.655  11.934 -0.1798 -0.0801 -2.4436
  193MPD1     C 2933   0.565   0.216  16.935 -0.3726  0.0193 -0.7664
  193MPD1    C1 2934   0.484   0.291  17.017 -1.1584 -0.1930  0.2977
  193MPD1    C2 2935   0.510   0.428  17.020  0.1193 -0.1576  0.3616
  193MPD1    C3 2936   0.612   0.491  16.953 -0.4398  0.0236 -0.8495
  193MPD1    C4 2937   0.702   0.407  16.885 -0.1194 -0.6040 -0.1789
  193MPD1    C5 2938   0.673   0.274  16.876  0.2125  0.0611 -0.3506
  193MPD1     H 2939   0.437   0.482  17.079  0.2418 -0.6895  1.0095
  193MPD1    H1 2940   0.783   0.451  16.829 -0.2274  0.4472  0.5004
  193MPD1    H2 2941   0.561   0.108  16.926 -1.4786 -0.0966  1.1572
  193MPD1    H3 2942   0.735   0.208  16.816  0.9695 -1.7362  2.3908
  193MPD1     N 2943   0.643   0.630  16.965 -0.0584 -0.2831  0.1004
  193MPD1    H5 2944   0.720   0.659  16.906 -0.7983 -0.6396 -1.0496
  193MPD1    N1 2945   0.365   0.244  17.071 -0.0831  0.1805 -0.3680
  193MPD1    H6 2946   0.362   0.143  17.075 -0.7886  0.2660  1.0511
  193MPD1    H7 2947   0.340   0.286  17.160 -0.4176 -0.9788  0.0820
  194MPD1     C 2948   3.277   3.803  17.034 -0.7175 -0.0525  0.3745
  194MPD1    C1 2949   3.337   3.737  17.138 -0.1351 -0.0797 -0.5104
  194MPD1    C2 2950   3.269   3.626  17.190  0.1580  0.4492  0.5964
  194MPD1    C3 2951   3.150   3.576  17.142 -1.2785  0.4118  0.1474
  194MPD1    C4 2952   3.105   3.633  17.030  0.8362  0.7698  0.0045
  194MPD1    C5 2953   3.169   3.739  16.973  0.1385 -0.4954 -0.1318
  194MPD1     H 2954   3.320   3.570  17.268 -2.5525 -2.7768  0.0675
  194MPD1    H1 2955   3.016   3.594  16.981  1.1516 -1.1997  1.0293
  194MPD1    H2 2956   3.307   3.897  16.989 -0.4669 -0.6665 -0.7296
  194MPD1    H3 2957   3.119   3.779  16.886  0.3907  1.9483  0.8275
  194MPD1     N 2958   3.095   3.460  17.199  0.1859 -0.3704 -0.1902
  194MPD1    H5 2959   3.035   3.405  17.138  0.7644 -1.2682  0.0401
  194MPD1    N1 2960   3.450   3.792  17.201 -0.2596  0.1461  0.6579
  194MPD1    H6 2961   3.526   3.727  17.222 -0.8857  0.3470  3.5694
  194MPD1    H7 2962   3.487   3.873  17.152 -2.2832  0.8487  0.3028
  195MPD1     C 2963   0.705   4.358   0.647 -0.2029 -0.6529  0.3369
  195MPD1    C1 2964   0.582   4.332   0.710 -0.1873 -0.2103  0.2926
  195MPD1    C2 2965   0.490   4.256   0.644 -0.2619 -0.0961 -0.0903
  195MPD1    C3 2966   0.520   4.203   0.519  0.0861  0.7522  0.1762
  195MPD1    C4 2967   0.644   4.233   0.458 -0.2702 -0.3481 -0.2274
  195MPD1    C5 2968   0.740   4.307   0.520 -0.2711 -0.5798  0.0926
  195MPD1     H 2969   0.403   4.233   0.703 -1.3854 -0.5996 -1.9520
  195MPD1    H1 2970   0.677   4.193   0.362  1.8237  0.3346  0.2249
  195MPD1    H2 2971   0.779   4.420   0.696 -0.5375  0.6909 -0.8763
  195MPD1    H3 2972   0.840   4.325   0.482 -0.1816  0.1266  0.6547
  195MPD1     N 2973   0.446   4.099   0.451  0.6396 -0.1714  0.4593
  195MPD1    H5 2974   0.503   4.063   0.375  0.2589 -1.1765  0.6451
  195MPD1    N1 2975   0.563   4.376   0.845  0.3354  0.3337  0.0900
  195MPD1    H6 2976   0.463   4.389   0.860  0.3704  0.2281  0.4186
  195MPD1    H7 2977   0.620   4.452   0.880 -2.2370  1.6190  1.4983
  196MPD1     C 2978   0.346   0.425   1.047  0.3956  0.2533 -0.8624
  196MPD1    C1 2979   0.437   0.319   1.022 -0.4508  0.7406 -0.4072
  196MPD1    C2 2980   0.405   0.191   1.046  0.2151  0.1666  0.1752
  196MPD1    C3 2981   0.286   0.154   1.101 -0.2168 -0.2929  0.3823
  196MPD1    C4 2982   0.193   0.251   1.131  0.0601 -0.5930 -0.0012
  196MPD1    C5 2983   0.223   0.389   1.101  0.7177 -0.0483 -0.4702
  196MPD1     H 2984   0.473   0.115   1.008  0.0832  0.7588 -1.2610
  196MPD1    H1 2985   0.097   0.231   1.177 -0.5693 -0.9521 -1.4619
  196MPD1    H2 2986   0.360   0.531   1.026 -1.6801  0.6638 -0.1974
  196MPD1    H3 2987   0.150   0.465   1.128  1.7583  0.2261  1.5849
  196MPD1     N 2988   0.242   0.025   1.120  0.0047 -0.1114 -0.2478
  196MPD1    H5 2989   0.151   0.012   1.164 -0.0942  0.4630 -0.2745
  196MPD1    N1 2990   0.556   0.350   0.961  0.9188 -0.3886  0.2953
  196MPD1    H6 2991   0.588   0.445   0.976  0.5847 -0.5586  2.1119
  196MPD1    H7 2992   0.631   0.281   0.954 -0.6452 -2.1881  0.9820
  197MPD1     C 2993   4.194   1.084   0.057 -0.0795 -0.3280  0.5167
  197MPD1    C1 2994   4.256   1.205   0.069 -1.0009 -0.2425 -0.2170
  197MPD1    C2 2995   4.189   1.317   0.013  1.0084  0.6119  0.7727
  197MPD1    C3 2996   4.079   1.304  17.621 -0.3657  0.0526  0.1490
  197MPD1    C4 2997   4.025   1.176  17.603 -0.3599 -0.0766 -0.3195
  197MPD1    C5 2998   4.076   1.074  17.678 -0.4863  0.3668 -0.3971
  197MPD1     H 2999   4.238   1.412   0.026  0.8780  0.5778  1.4875
  197MPD1    H1 3000   3.937   1.153  17.544 -0.8490  2.3863 -0.5523
  197MPD1    H2 3001   4.234   0.993   0.101  0.6389 -0.0916  0.3575
  197MPD1    H3 3002   4.028   0.977  17.674 -0.2026  0.2837 -1.6919
  197MPD1     N 3003   4.029   1.413  17.544 -0.3411 -0.4167  0.0221
  197MPD1    H5 3004   3.959   1.395  17.472  0.1360 -0.0810 -0.5193
  197MPD1    N1 3005   4.368   1.217   0.151 -0.0432 -0.7151 -0.7251
  197MPD1    H6 3006   4.434   1.142   0.131 -0.5722 -1.0793 -1.1281
  197MPD1    H7 3007   4.406   1.310   0.134 -1.2246 -0.1088 -0.0450
  198MPD1     C 3008   0.498   0.403  15.776 -0.5358 -0.2947 -0.3580
  198MPD1    C1 3009   0.601   0.440  15.854 -0.5272  0.5341 -0.3733
  198MPD1    C2 3010   0.720   0.366  15.835 -0.1329  0.0259  0.4358
  198MPD1    C3 3011   0.740   0.272  15.733  0.1082  0.1195  0.3224
  198MPD1    C4 3012   0.643   0.273  15.640 -0.3764 -0.6617 -0.2207
  198MPD1    C5 3013   0.526   0.335  15.667  0.1072  0.8337 -0.4011
  198MPD1     H 3014   0.793   0.382  15.913  0.8097 -3.3106  0.2405
  198MPD1    H1 3015   0.654   0.235  15.539  1.7026 -3.2409  0.9872
  198MPD1    H2 3016   0.406   0.460  15.771  0.0382  0.5305 -1.6875
  198MPD1    H3 3017   0.445   0.331  15.596  0.8875 -1.8889 -1.1438
  198MPD1     N 3018   0.859   0.196  15.723 -0.3003 -0.4997  0.6870
  198MPD1    H5 3019   0.928   0.230  15.789  0.0299 -1.7215  0.9610
  198MPD1    N1 3020   0.570   0.513  15.968 -0.3664  0.4760  0.0091
  198MPD1    H6 3021   0.495   0.582  15.959 -2.1352 -1.4604 -0.1060
  198MPD1    H7 3022   0.651   0.554  16.014 -0.0932  0.1051 -0.1399
  199MPD1     C 3023   3.762   3.745   8.647  0.8902 -0.5705 -0.0450
  199MPD1    C1 3024   3.759   3.811   8.771 -0.9906 -1.0185 -0.3844
  199MPD1    C2 3025   3.666   3.913   8.790 -0.6277  0.2080  0.3407
  199MPD1    C3 3026   3.572   3.948   8.695 -0.3807  0.1109  0.4391
  199MPD1    C4 3027   3.583   3.890   8.569  1.2281 -0.3703 -0.5308
  199MPD1    C5 3028   3.676   3.791   8.550  0.3029  0.3895 -0.2985
  199MPD1     H 3029   3.664   3.956   8.889  2.7268  1.7244 -0.2577
  199MPD1    H1 3030   3.521   3.915   8.483  1.9231  1.2969 -0.5378
  199MPD1    H2 3031   3.833   3.667   8.621  1.0475  0.0921 -1.6134
  199MPD1    H3 3032   3.681   3.739   8.455  0.0920 -2.4148  1.2384
  199MPD1     N 3033   3.460   4.034   8.721  0.2210  0.1799 -0.2022
  199MPD1    H5 3034   3.385   4.034   8.652 -1.6417  1.8659  1.7901
  199MPD1    N1 3035   3.847   3.775   8.878  0.1870 -0.1236  0.0703
  199MPD1    H6 3036   3.936   3.759   8.831 -0.3546 -2.3449 -0.2078
  199MPD1    H7 3037   3.866   3.847   8.947 -0.6469  0.2276 -0.0690
  200MPD1     C 3038   1.281   1.079  13.579  0.4433  0.3484  0.9675
  200MPD1    C1 3039   1.362   0.975  13.605 -0.4365  0.5357  0.0816
  200MPD1    C2 3040   1.486   0.998  13.663  0.1211 -0.5150  0.3182
  200MPD1    C3 3041   1.531   1.126  13.685 -0.8622  0.6069  0.5948
  200MPD1    C4 3042   1.444   1.230  13.666  0.2557  0.2514  0.0837
  200MPD1    C5 3043   1.324   1.207  13.608 -0.3159 -0.1012 -0.5855
  200MPD1     H 3044   1.552   0.914  13.680 -1.4729 -2.5378 -3.3398
  200MPD1    H1 3045   1.469   1.327  13.710 -1.3831  1.7583 -2.3109
  200MPD1    H2 3046   1.180   1.060  13.545  0.6374 -0.4613  0.8390
  200MPD1    H3 3047   1.252   1.286  13.588 -0.2781  0.5369  1.7148
  200MPD1     N 3048   1.661   1.149  13.733 -0.4684 -0.2397 -0.6912
  200MPD1    H5 3049   1.715   1.067  13.759  0.4172 -0.1070 -2.1428
  200MPD1    N1 3050   1.316   0.840  13.586  0.2946 -0.5414 -0.1683
  200MPD1    H6 3051   1.387   0.775  13.552 -1.4553 -0.2277 -4.4808
  200MPD1    H7 3052   1.243   0.841  13.515 -0.4393  2.3435  0.6478
  201MPD1     C 3053   3.973   0.179  12.602 -0.0191  0.0669  0.7376
  201MPD1    C1 3054   3.933   0.093  12.495  0.1679  0.8541 -0.2148
  201MPD1    C2 3055   3.994   4.686  12.492 -0.3342 -0.2945  0.4233
  201MPD1    C3 3056   4.071   4.643  12.602 -0.0836  0.1476  0.3392
  201MPD1    C4 3057   4.097   0.003  12.712 -0.1610  0.1093 -0.4034
  201MPD1    C5 3058   4.054   0.130  12.705 -0.6907  0.4410  0.0071
  201MPD1     H 3059   3.994   4.620  12.406  1.0471  0.7731 -0.4058
  201MPD1    H1 3060   4.152   4.692  12.799 -1.7069 -0.2635  0.4352
  201MPD1    H2 3061   3.935   0.280  12.607 -0.8413 -0.2002 -0.1267
  201MPD1    H3 3062   4.080   0.201  12.782 -1.4803  0.3795  0.3365
  201MPD1     N 3063   4.123   4.512  12.590  0.0890 -0.2392 -0.6362
  201MPD1    H5 3064   4.100   4.457  12.508  0.1405 -0.8344 -0.2505
  201MPD1    N1 3065   3.864   0.144  12.385  0.6746  0.9780  0.3959
  201MPD1    H6 3066   3.778   0.193  12.413 -0.4527 -0.3269 -0.7709
  201MPD1    H7 3067   3.838   0.064  12.328  0.0141  1.5897 -0.1830
  202MPD1     C 3068   4.631   3.952   8.824 -0.5753 -0.2352 -0.2065
  202MPD1    C1 3069   4.539   4.050   8.845 -0.1054  0.6570  0.4251
  202MPD1    C2 3070   4.495   4.050   8.976  0.3203  1.3307  0.0810
  202MPD1    C3 3071   4.490   3.936   9.051  0.0064  0.3505  0.0431
  202MPD1    C4 3072   4.567   3.827   9.010 -0.3009 -1.2382 -0.2344
  202MPD1    C5 3073   4.642   3.842   8.897 -0.5955  0.3605  0.0908
  202MPD1     H 3074   4.432   4.134   9.005 -1.3206  0.0896  0.1097
  202MPD1    H1 3075   4.561   3.736   9.068  0.0012 -1.3365 -0.3569
  202MPD1    H2 3076   4.708   3.958   8.748 -0.6955  0.6206 -0.2608
  202MPD1    H3 3077   4.723   3.773   8.876  0.4426  1.5668  0.1331
  202MPD1     N 3078   4.439   3.924   9.178  0.8242 -0.3589 -0.1063
  202MPD1    H5 3079   4.464   3.844   9.235 -0.3473 -1.0347 -0.5164
  202MPD1    N1 3080   4.578   4.174   8.784  0.5598  0.3285  0.1086
  202MPD1    H6 3081   4.502   4.241   8.798  0.3296  0.0035  0.4137
  202MPD1    H7 3082   4.591   4.168   8.683 -3.3324  1.5736 -0.4682
  203MPD1     C 3083   3.020   1.023  12.899 -1.0151  0.3044 -0.4220
  203MPD1    C1 3084   2.964   1.006  12.774 -0.1166 -0.0351 -0.0688
  203MPD1    C2 3085   2.944   0.879  12.727 -0.0106 -0.0560  0.4855
  203MPD1    C3 3086   2.976   0.770  12.811 -0.8266 -0.6208  0.2624
  203MPD1    C4 3087   3.035   0.797  12.936 -0.7069  0.4471 -0.4081
  203MPD1    C5 3088   3.058   0.918  12.972  0.4734 -0.2218 -0.0599
  203MPD1     H 3089   2.907   0.865  12.626  1.6486  0.7890 -0.2354
  203MPD1    H1 3090   3.065   0.710  12.993 -1.4926  2.2317  2.6769
  203MPD1    H2 3091   3.048   1.121  12.935  1.0641 -0.5128  0.2070
  203MPD1    H3 3092   3.099   0.945  13.069 -0.2181 -0.5237  0.3205
  203MPD1     N 3093   2.950   0.638  12.759  0.3441  0.5995 -0.0487
  203MPD1    H5 3094   2.919   0.631  12.663  0.3287 -2.5179  0.1870
  203MPD1    N1 3095   2.948   1.113  12.686 -0.2591 -0.2058  0.4685
  203MPD1    H6 3096   2.872   1.097  12.620  1.3534  2.2848 -1.9906
  203MPD1    H7 3097   2.923   1.197  12.738 -1.3521 -2.0652  2.9396
  204MPD1     C 3098   3.421   1.090   0.247  0.5551  0.8141 -0.0250
  204MPD1    C1 3099   3.324   1.186   0.215 -0.1411 -0.7530 -0.5350
  204MPD1    C2 3100   3.203   1.151   0.163  0.1699  0.1827  0.2517
  204MPD1    C3 3101   3.157   1.021   0.180  0.1344  0.0243 -0.3397
  204MPD1    C4 3102   3.248   0.929   0.221 -0.2112  0.4534  0.7771
  204MPD1    C5 3103   3.382   0.961   0.247 -0.1129  0.3319 -0.6084
  204MPD1     H 3104   3.134   1.226   0.125 -0.6905 -0.0808  1.2796
  204MPD1    H1 3105   3.209   0.830   0.241 -0.9785  0.6435  0.2345
  204MPD1    H2 3106   3.521   1.114   0.280  0.4138  1.7594 -0.3049
  204MPD1    H3 3107   3.453   0.882   0.269 -0.4658 -0.3697 -2.0356
  204MPD1     N 3108   3.030   0.994   0.136 -0.4967 -0.6141 -0.0968
  204MPD1    H5 3109   2.975   1.055   0.076 -0.8688 -0.0733  0.8111
  204MPD1    N1 3110   3.360   1.322   0.198  0.0039  0.2081  0.0786
  204MPD1    H6 3111   3.433   1.357   0.261 -1.1514 -0.1807  1.6372
  204MPD1    H7 3112   3.280   1.374   0.234  0.3182 -0.2523  1.4503
  205MPD1     C 3113   1.935   4.237  17.036  0.6165 -0.0977  0.5696
  205MPD1    C1 3114   2.016   4.336  17.003 -0.2436 -0.4542  0.2618
  205MPD1    C2 3115   2.127   4.362  17.080 -0.1188  0.5569 -0.5615
  205MPD1    C3 3116   2.157   4.293  17.201 -0.1764 -0.2477  0.0388
  205MPD1    C4 3117   2.069   4.193  17.235 -0.7344 -1.0659 -0.1431
  205MPD1    C5 3118   1.959   4.164  17.150 -0.3897  0.1017 -0.5193
  205MPD1     H 3119   2.192   4.447  17.059 -0.3540  1.1493  1.1196
  205MPD1    H1 3120   2.070   4.137  17.328  0.7037 -1.0545 -0.1568
  205MPD1    H2 3121   1.855   4.211  16.969 -0.1190  2.1577  0.5693
  205MPD1    H3 3122   1.887   4.090  17.182  0.6390 -0.7540 -0.1759
  205MPD1     N 3123   2.269   4.310  17.288  0.7536 -0.8233  0.5595
  205MPD1    H5 3124   2.270   4.242  17.364 -0.6478 -1.2012  0.2410
  205MPD1    N1 3125   1.988   4.416  16.885 -0.9642 -0.7427  0.2609
  205MPD1    H6 3126   2.043   4.502  16.879 -0.1622 -1.0467  2.9471
  205MPD1    H7 3127   1.890   4.442  16.889 -0.6899  0.5356 -1.3240
  206MPD1     C 3128   2.841   2.880  16.343 -0.0290  0.0840 -0.1788
  206MPD1    C1 3129   2.726   2.947  16.358  0.6340  0.5213  0.2957
  206MPD1    C2 3130   2.663   2.988  16.242  0.4451 -0.0450  0.4314
  206MPD1    C3 3131   2.697   2.936  16.113 -0.3909  0.1583  0.1509
  206MPD1    C4 3132   2.811   2.868  16.103 -0.3018 -0.5449  0.2218
  206MPD1    C5 3133   2.886   2.843  16.217  0.0493 -0.0334  0.2147
  206MPD1     H 3134   2.580   3.058  16.237  1.6308  1.3464  0.0610
  206MPD1    H1 3135   2.848   2.855  16.003  1.0980  0.9499  0.5507
  206MPD1    H2 3136   2.904   2.854  16.427 -3.9398 -1.7117  2.1933
  206MPD1    H3 3137   2.979   2.787  16.218  0.1631  0.1292 -1.7832
  206MPD1     N 3138   2.629   2.955  15.997  0.6213  0.3200  0.1391
  206MPD1    H5 3139   2.677   2.918  15.915 -0.3149  1.0353 -0.7273
  206MPD1    N1 3140   2.700   3.005  16.487  0.3961  0.3504  0.4937
  206MPD1    H6 3141   2.599   3.015  16.481  0.8107  2.7041 -2.5541
  206MPD1    H7 3142   2.721   2.936  16.559 -0.7445 -1.5712 -1.0403
  207MPD1     C 3143   0.422   4.105  11.183  0.0089  0.2789 -0.0223
  207MPD1    C1 3144   0.368   4.206  11.110 -0.5108 -0.2780  1.3089
  207MPD1    C2 3145   0.440   4.249  10.991 -0.8164 -1.3561 -0.5794
  207MPD1    C3 3146   0.557   4.188  10.952  0.2609 -0.6762 -0.2913
  207MPD1    C4 3147   0.610   4.095  11.038 -0.3865  0.3675  0.1478
  207MPD1    C5 3148   0.546   4.054  11.149 -0.1717 -0.0174  0.2932
  207MPD1     H 3149   0.394   4.322  10.926 -1.0820  1.1677  2.4274
  207MPD1    H1 3150   0.707   4.050  11.019 -1.2708 -0.8324 -1.5059
  207MPD1    H2 3151   0.379   4.079  11.279 -1.4948  0.7264 -0.5735
  207MPD1    H3 3152   0.591   3.987  11.221  0.2587  0.9212  0.9054
  207MPD1     N 3153   0.625   4.226  10.834 -0.3294  0.4825 -0.0209
  207MPD1    H5 3154   0.711   4.180  10.805  0.0744  0.4811  1.1987
  207MPD1    N1 3155   0.251   4.274  11.157  0.3618  0.1855 -0.4502
  207MPD1    H6 3156   0.189   4.209  11.204  1.5902 -0.8529 -0.2958
  207MPD1    H7 3157   0.189   4.312  11.085 -2.5064 -0.4142  1.6658
  208MPD1     C 3158   3.986   4.430   0.164  0.1151  0.3629  0.2690
  208MPD1    C1 3159   3.966   4.439   0.300  0.5175 -0.1944 -0.1145
  208MPD1    C2 3160   3.844   4.404   0.352 -0.1818  0.3863 -0.4181
  208MPD1    C3 3161   3.757   4.336   0.275  0.6588  0.0132 -0.1691
  208MPD1    C4 3162   3.780   4.320   0.143 -0.4674 -0.4079  0.0112
  208MPD1    C5 3163   3.892   4.369   0.085 -0.1028 -0.0192  0.1976
  208MPD1     H 3164   3.829   4.435   0.454 -1.2092  0.5046 -0.6024
  208MPD1    H1 3165   3.705   4.284   0.073 -0.0553  0.2579 -0.7631
  208MPD1    H2 3166   4.072   4.466   0.109  0.9112 -0.1509  1.1639
  208MPD1    H3 3167   3.899   4.373  17.671  0.2502  0.7006  0.2418
  208MPD1     N 3168   3.642   4.290   0.345  0.1146  0.7196 -0.2778
  208MPD1    H5 3169   3.634   4.332   0.437  0.8377 -2.1330  1.0690
  208MPD1    N1 3170   4.060   4.508   0.377  0.0844 -0.2772  0.3290
  208MPD1    H6 3171   4.153   4.496   0.337  1.2789 -0.5309  3.2234
  208MPD1    H7 3172   4.062   4.476   0.473  0.0743 -1.9319 -0.2174
  209MPD1     C 3173   1.302   0.152  11.546 -0.2217  0.0853 -0.3040
  209MPD1    C1 3174   1.315   0.033  11.477 -0.3789  0.1701  0.3732
  209MPD1    C2 3175   1.365   0.048  11.353  0.0538  0.2805  0.0443
  209MPD1    C3 3176   1.419   0.167  11.307  0.4923 -0.6757  0.7910
  209MPD1    C4 3177   1.418   0.279  11.385 -0.3347  0.1418  0.4403
  209MPD1    C5 3178   1.352   0.273  11.503  0.1576 -0.3622 -0.1094
  209MPD1     H 3179   1.342   4.688  11.287  2.5638 -0.4635  0.1026
  209MPD1    H1 3180   1.458   0.376  11.357  0.4718 -0.4312 -0.3608
  209MPD1    H2 3181   1.260   0.163  11.645  0.7774  0.2663  0.0955
  209MPD1    H3 3182   1.357   0.360  11.567 -1.2469 -0.8326  0.6265
  209MPD1     N 3183   1.466   0.161  11.170  0.0418 -0.3028  0.0133
  209MPD1    H5 3184   1.446   0.080  11.114  1.5119  0.3474 -1.4498
  209MPD1    N1 3185   1.250   4.635  11.517  0.1582 -0.3955  0.5850
  209MPD1    H6 3186   1.297   4.546  11.498 -0.1390 -0.3484 -0.3857
  209MPD1    H7 3187   1.219   4.623  11.613  1.8206  1.1136  1.3007
  210MPD1     C 3188   2.024   0.553  10.298  0.3016  0.0042 -0.0111
  210MPD1    C1 3189   1.959   0.621  10.399  0.6185  0.4280  0.2908
  210MPD1    C2 3190   1.881   0.547  10.484  0.2274  0.0801 -0.6943
  210MPD1    C3 3191   1.865   0.414  10.476  0.2396 -0.5363  0.8490
  210MPD1    C4 3192   1.920   0.351  10.369 -0.2004  0.0497 -0.1902
  210MPD1    C5 3193   1.995   0.421  10.283 -0.3276  0.6075 -0.2976
  210MPD1     H 3194   1.842   0.607  10.565  0.8768 -0.5711  0.0941
  210MPD1    H1 3195   1.913   0.244  10.351 -0.1254  0.3133 -1.8117
  210MPD1    H2 3196   2.087   0.593  10.219  3.4793 -1.0204  2.0073
  210MPD1    H3 3197   2.024   0.376  10.189 -0.2890 -0.0377  0.0201
  210MPD1     N 3198   1.782   0.339  10.565  0.2366 -0.0117 -0.1117
  210MPD1    H5 3199   1.759   0.243  10.539  0.3790 -0.1522  0.2871
  210MPD1    N1 3200   1.975   0.760  10.405 -0.0475 -0.0836 -0.0994
  210MPD1    H6 3201   2.039   0.803  10.339 -1.0372  0.8671 -0.4404
  210MPD1    H7 3202   1.959   0.812  10.492  1.7317 -0.1935  0.3149
  211MPD1     C 3203   3.600   4.308  16.877  0.0215 -0.0584 -0.5026
  211MPD1    C1 3204   3.466   4.295  16.914 -0.8504 -0.1843  0.4680
  211MPD1    C2 3205   3.376   4.399  16.892  0.3389  0.1201  0.1503
  211MPD1    C3 3206   3.427   4.514  16.833  0.4421  0.0040  0.2140
  211MPD1    C4 3207   3.565   4.530  16.806  0.6434 -0.0056 -0.1374
  211MPD1    C5 3208   3.652   4.428  16.832 -0.0371  0.7362 -0.4938
  211MPD1     H 3209   3.271   4.394  16.918  0.5236  0.5775  0.9746
  211MPD1    H1 3210   3.605   4.620  16.761 -1.9793  0.6362 -1.1321
  211MPD1    H2 3211   3.667   4.224  16.891 -1.4080 -0.7087  2.5762
  211MPD1    H3 3212   3.755   4.452  16.808  0.2107  2.1355  1.9660
  211MPD1     N 3213   3.328   4.615  16.800  0.5188 -0.7874 -0.5050
  211MPD1    H5 3214   3.233   4.584  16.818  0.6180 -0.1005  1.1892
  211MPD1    N1 3215   3.422   4.168  16.956  0.1223  0.0208 -0.0063
  211MPD1    H6 3216   3.354   4.180  17.030  0.2030 -0.9341  0.2273
  211MPD1    H7 3217   3.501   4.116  16.994 -1.0868 -0.2995  2.0062
  212MPD1     C 3218   2.477   3.314  16.427  0.2341  0.3842 -0.2157
  212MPD1    C1 3219   2.408   3.272  16.325  0.6391  0.1241  0.1815
  212MPD1    C2 3220   2.300   3.184  16.338  0.5094 -0.4315 -0.1718
  212MPD1    C3 3221   2.262   3.143  16.465 -1.0149  0.6198  0.6215
  212MPD1    C4 3222   2.331   3.190  16.573  0.5514 -0.2443 -0.2202
  212MPD1    C5 3223   2.446   3.272  16.557 -0.2617  0.4800 -0.5110
  212MPD1     H 3224   2.248   3.146  16.251  1.0900 -0.6561 -0.4255
  212MPD1    H1 3225   2.305   3.157  16.673 -2.1866  0.4300 -0.7209
  212MPD1    H2 3226   2.562   3.380  16.415 -1.4710  2.5463 -0.2530
  212MPD1    H3 3227   2.514   3.306  16.634 -0.2858  0.7126 -0.5933
  212MPD1     N 3228   2.158   3.049  16.485 -0.3832 -0.1579 -1.0290
  212MPD1    H5 3229   2.149   3.011  16.578 -1.6539  0.2929 -0.9750
  212MPD1    N1 3230   2.434   3.336  16.202 -0.3848 -0.1698 -0.1433
  212MPD1    H6 3231   2.407   3.265  16.134 -2.3968 -3.0353  3.6108
  212MPD1    H7 3232   2.534   3.350  16.188 -0.0317 -2.9274 -0.4773
  213MPD1     C 3233   0.381   0.156  15.325  0.6411  0.2516 -0.7320
  213MPD1    C1 3234   0.456   0.150  15.211 -0.1398  0.3187  0.2816
  213MPD1    C2 3235   0.428   0.049  15.125  0.3666  0.1801  0.4438
  213MPD1    C3 3236   0.311   4.696  15.139  0.2117 -0.1573 -0.5429
  213MPD1    C4 3237   0.227   4.718  15.253 -0.0879  0.3716  0.1604
  213MPD1    C5 3238   0.260   0.096  15.338 -0.3773  0.0936  0.3822
  213MPD1     H 3239   0.490   0.023  15.040 -0.3640  2.9628 -0.9177
  213MPD1    H1 3240   0.129   4.677  15.272  0.5630 -2.0460 -1.6454
  213MPD1    H2 3241   0.419   0.225  15.400  1.2788 -1.6127  0.6675
  213MPD1    H3 3242   0.202   0.127  15.424 -0.2984  1.0419  0.0990
  213MPD1     N 3243   0.281   4.601  15.039  0.0628 -0.2389 -0.4430
  213MPD1    H5 3244   0.352   4.584  14.969  2.7314 -1.3435  2.5330
  213MPD1    N1 3245   0.593   0.190  15.223 -0.6763  0.5659  0.8044
  213MPD1    H6 3246   0.631   0.201  15.129  1.6220 -1.0923  1.5412
  213MPD1    H7 3247   0.613   0.277  15.273  1.4286  1.2564 -1.2566
  214MPD1     C 3248   4.115   4.083  14.933 -0.5003 -0.4428 -0.1231
  214MPD1    C1 3249   4.201   4.044  14.834 -0.0400  0.4724  0.0871
  214MPD1    C2 3250   4.323   4.105  14.824 -0.3891  0.4024  0.4854
  214MPD1    C3 3251   4.357   4.209  14.903 -0.4689 -0.4404  0.0521
  214MPD1    C4 3252   4.256   4.262  14.993  0.3862  0.2318  0.0819
  214MPD1    C5 3253   4.138   4.194  15.011 -0.0181  0.0273 -0.1137
  214MPD1     H 3254   4.391   4.073  14.746 -4.2172 -0.8960 -2.3266
  214MPD1    H1 3255   4.272   4.355  15.046  2.9442 -0.0657 -0.1720
  214MPD1    H2 3256   4.027   4.026  14.962 -0.8543  1.8811  3.4545
  214MPD1    H3 3257   4.070   4.220  15.092  0.3092 -0.5037  0.3310
  214MPD1     N 3258   4.483   4.276  14.899 -0.2742  0.2033 -0.4056
  214MPD1    H5 3259   4.494   4.365  14.947  1.0333 -0.8935  1.3534
  214MPD1    N1 3260   4.179   3.916  14.783  0.4491 -0.5905 -0.7942
  214MPD1    H6 3261   4.240   3.902  14.703  2.8530  1.9437  0.5660
  214MPD1    H7 3262   4.084   3.883  14.768  0.5670 -1.3289  0.0971
  215MPD1     C 3263   3.922   0.265  10.127 -0.1792 -0.0946 -0.2606
  215MPD1    C1 3264   3.962   0.240  10.004 -0.7938 -0.3178 -0.0740
  215MPD1    C2 3265   4.070   0.155   9.988  0.5966 -0.0470  0.0282
  215MPD1    C3 3266   4.141   0.103  10.099  0.6085 -0.5475 -0.1725
  215MPD1    C4 3267   4.096   0.143  10.223 -0.1204  0.5096 -0.1596
  215MPD1    C5 3268   3.986   0.221  10.235  0.0245  0.2543  0.2950
  215MPD1     H 3269   4.111   0.135   9.890  1.0127 -1.9104  0.5900
  215MPD1    H1 3270   4.158   0.123  10.309 -1.1207  0.5298  0.5590
  215MPD1    H2 3271   3.842   0.336  10.145  0.4319  0.1475  1.4985
  215MPD1    H3 3272   3.947   0.255  10.330  0.0829 -1.3662  0.9037
  215MPD1     N 3273   4.251   0.017  10.078 -0.3899 -0.3432  0.0061
  215MPD1    H5 3274   4.258   4.716   9.980 -2.2254 -2.4546  0.3905
  215MPD1    N1 3275   3.883   0.278   9.897  0.1206  0.3624 -0.1305
  215MPD1    H6 3276   3.841   0.371   9.904 -0.7401 -0.0717  0.4326
  215MPD1    H7 3277   3.946   0.276   9.817 -0.0851  0.1637 -0.2857
  216MPD1     C 3278   2.169   3.502  17.428 -0.0181  0.0373  0.3053
  216MPD1    C1 3279   2.061   3.420  17.384  0.2904  0.1156  0.0973
  216MPD1    C2 3280   2.081   3.289  17.374  0.4458 -0.0573  0.3198
  216MPD1    C3 3281   2.198   3.230  17.425  0.1177  0.4138 -0.0961
  216MPD1    C4 3282   2.294   3.309  17.475 -0.3956 -0.0042 -0.4134
  216MPD1    C5 3283   2.277   3.449  17.483  0.0276  0.1913 -0.6625
  216MPD1     H 3284   2.005   3.221  17.336  0.0867 -0.0242  0.9749
  216MPD1    H1 3285   2.384   3.270  17.522 -0.9953 -0.3690  0.4258
  216MPD1    H2 3286   2.166   3.611  17.422  0.1717 -0.1815 -3.2581
  216MPD1    H3 3287   2.358   3.505  17.529 -1.7450  0.9202  1.6072
  216MPD1     N 3288   2.205   3.088  17.411  0.6752  0.0304 -0.0325
  216MPD1    H5 3289   2.138   3.041  17.352  0.4056 -3.2622  2.8828
  216MPD1    N1 3290   1.953   3.481  17.317 -0.5599  0.3316 -0.2316
  216MPD1    H6 3291   1.930   3.573  17.354  0.9902  0.4832  0.3311
  216MPD1    H7 3292   1.867   3.429  17.335 -0.6257  0.7793  0.7462
  217MPD1     C 3293   3.361   3.695   8.234 -0.5104  0.6291 -0.0988
  217MPD1    C1 3294   3.468   3.615   8.214 -0.3378 -0.0057  0.7161
  217MPD1    C2 3295   3.514   3.531   8.311 -0.1904 -0.2309  0.1366
  217MPD1    C3 3296   3.460   3.549   8.440  0.1438 -0.1972  0.4503
  217MPD1    C4 3297   3.354   3.629   8.458  0.0184 -0.4298 -0.1607
  217MPD1    C5 3298   3.294   3.699   8.354 -0.9237 -0.2229 -0.7647
  217MPD1     H 3299   3.585   3.452   8.288 -2.1366 -1.2188 -2.4973
  217MPD1    H1 3300   3.321   3.631   8.561  0.5591  1.0089 -0.0106
  217MPD1    H2 3301   3.318   3.742   8.146  2.0722  4.9825  0.9798
  217MPD1    H3 3302   3.209   3.765   8.367 -0.5892  0.3175 -1.3574
  217MPD1     N 3303   3.509   3.487   8.555  1.0093 -0.0151  0.1737
  217MPD1    H5 3304   3.454   3.504   8.638 -1.1447  0.1092 -1.2982
  217MPD1    N1 3305   3.504   3.596   8.082  0.1653 -0.0542 -0.3046
  217MPD1    H6 3306   3.600   3.563   8.074  0.6393  0.6364  2.4029
  217MPD1    H7 3307   3.487   3.674   8.019  0.9602  1.4433  1.3453
  218MPD1     C 3308   4.365   0.760  12.398  0.4566 -0.1226 -0.0636
  218MPD1    C1 3309   4.458   0.811  12.309  0.2976  0.2816  0.0704
  218MPD1    C2 3310   4.567   0.733  12.279  0.2216 -0.3988  0.2827
  218MPD1    C3 3311   4.591   0.614  12.344  0.4192 -0.0547 -0.0423
  218MPD1    C4 3312   4.503   0.572  12.445 -0.7380  0.7035 -0.2038
  218MPD1    C5 3313   4.392   0.645  12.472 -0.1541 -0.1010  0.3881
  218MPD1     H 3314   4.629   0.757  12.193 -0.8242 -3.1591 -1.2510
  218MPD1    H1 3315   4.515   0.480  12.501 -1.9649 -0.3965 -1.7530
  218MPD1    H2 3316   4.273   0.807  12.429  0.5620 -0.8518  1.3516
  218MPD1    H3 3317   4.318   0.602  12.539 -0.5428  0.2271  0.1645
  218MPD1     N 3318   4.688   0.529  12.295 -0.3227 -0.1900  0.0385
  218MPD1    H5 3319   0.042   0.570  12.244 -0.9345 -0.6350 -1.2249
  218MPD1    N1 3320   4.424   0.927  12.230  0.0889 -0.5991  0.3295
  218MPD1    H6 3321   4.355   0.990  12.272  0.6362 -0.4670  1.0351
  218MPD1    H7 3322   4.504   0.986  12.211 -1.5352  1.8839  1.2024
  219MPD1     C 3323   0.385   4.625  11.588 -0.5028  0.2385 -0.5780
  219MPD1    C1 3324   0.376   0.037  11.605 -0.4989  0.1710 -0.7311
  219MPD1    C2 3325   0.335   0.095  11.723 -0.0261 -0.6264 -0.0266
  219MPD1    C3 3326   0.309   0.019  11.834  0.2119  0.3413 -0.0732
  219MPD1    C4 3327   0.323   4.607  11.814 -0.0213  0.1492 -0.2182
  219MPD1    C5 3328   0.353   4.551  11.699 -0.2212  0.2570 -0.4434
  219MPD1     H 3329   0.323   0.203  11.723  0.3131 -0.5908 -1.1396
  219MPD1    H1 3330   0.287   4.541  11.892 -0.2549 -0.8036 -1.1267
  219MPD1    H2 3331   0.414   4.577  11.495  1.0796 -0.7775  0.4391
  219MPD1    H3 3332   0.346   4.443  11.687  1.2083  0.0422  0.5428
  219MPD1     N 3333   0.270   0.062  11.957 -0.0241 -0.3552  0.3833
  219MPD1    H5 3334   0.247   4.713  12.025  0.9946 -0.2269  0.8582
  219MPD1    N1 3335   0.400   0.123  11.492  0.3536 -0.1652 -0.0964
  219MPD1    H6 3336   0.445   0.205  11.532  1.1779 -0.5697 -0.1954
  219MPD1    H7 3337   0.475   0.078  11.441  1.6088 -0.9775  2.5076
  220MPD1     C 3338   3.551   0.232   8.606 -0.4113  0.1225 -0.3007
  220MPD1    C1 3339   3.595   0.325   8.694  0.2615 -0.3082  0.3584
  220MPD1    C2 3340   3.723   0.302   8.756  0.7516  0.3526 -0.4445
  220MPD1    C3 3341   3.789   0.180   8.752 -0.2083 -0.1000 -0.0919
  220MPD1    C4 3342   3.729   0.082   8.680 -0.2528 -0.3035 -0.5803
  220MPD1    C5 3343   3.617   0.111   8.602 -0.0298 -0.8189  0.1623
  220MPD1     H 3344   3.778   0.377   8.811  1.3407  0.4449 -1.1541
  220MPD1    H1 3345   3.777   4.709   8.661  2.1211  0.7475  0.1073
  220MPD1    H2 3346   3.452   0.244   8.562 -1.5366 -0.6279  2.0261
  220MPD1    H3 3347   3.577   0.036   8.536 -0.7189 -0.6784  0.4256
  220MPD1     N 3348   3.901   0.164   8.833 -0.3154  0.4290  0.0601
  220MPD1    H5 3349   3.931   0.249   8.879 -1.3610  0.4169  0.7531
  220MPD1    N1 3350   3.535   0.455   8.702 -0.1424 -0.4515 -0.1848
  220MPD1    H6 3351   3.442   0.460   8.661  0.6539  1.1905 -1.7961
  220MPD1    H7 3352   3.558   0.507   8.786  0.4779  0.3456 -0.8467
  221MPD1     C 3353   3.002   4.142  17.493 -0.5377  0.6844  0.3836
  221MPD1    C1 3354   2.892   4.067  17.452  0.4387 -0.4009 -0.0035
  221MPD1    C2 3355   2.822   4.124  17.348 -0.0944  0.1987 -0.3479
  221MPD1    C3 3356   2.833   4.255  17.310 -0.1121  0.4394  0.6189
  221MPD1    C4 3357   2.927   4.331  17.372  0.0954 -0.4103 -0.6647
  221MPD1    C5 3358   3.007   4.273  17.466 -0.5462  0.8574 -0.7453
  221MPD1     H 3359   2.749   4.060  17.301 -1.8047  1.7100  0.2862
  221MPD1    H1 3360   2.932   4.439  17.362  3.2527 -0.5393 -0.5920
  221MPD1    H2 3361   3.078   4.098  17.556  0.5507  2.1590  0.0863
  221MPD1    H3 3362   3.088   4.333  17.505 -1.2059  2.2629 -1.5450
  221MPD1     N 3363   2.765   4.305  17.198  0.6163  0.0486 -0.0055
  221MPD1    H5 3364   2.787   4.400  17.170  0.1870  0.3646  0.7497
  221MPD1    N1 3365   2.889   3.928  17.479 -0.0148 -0.0324  0.5885
  221MPD1    H6 3366   2.889   3.920  17.581 -0.9273 -3.0450  0.3457
  221MPD1    H7 3367   2.801   3.888  17.449  0.6618  0.1032 -1.5962
  222MPD1     C 3368   1.976   2.468  17.313  0.6678 -0.1536 -0.2400
  222MPD1    C1 3369   1.962   2.603  17.306  0.5258  0.1446 -0.0815
  222MPD1    C2 3370   1.967   2.672  17.426 -0.2567 -0.3304  0.1021
  222MPD1    C3 3371   2.008   2.619  17.551  0.8296  0.2393 -0.6581
  222MPD1    C4 3372   2.036   2.487  17.549  0.7727 -0.4922 -0.8987
  222MPD1    C5 3373   2.005   2.409  17.439 -0.1491  0.1915  1.3164
  222MPD1     H 3374   1.954   2.778  17.409  0.4868  0.0728  2.0444
  222MPD1    H1 3375   2.064   2.431  17.638  1.2623  1.3489  0.1060
  222MPD1    H2 3376   1.958   2.407  17.226  1.9537 -1.4183  0.3781
  222MPD1    H3 3377   1.999   2.301  17.448 -0.0362  0.0606 -0.1569
  222MPD1     N 3378   2.042   2.690  17.668 -0.0666  0.1337  0.6410
  222MPD1    H5 3379   2.081   2.651   0.059  0.7221  0.1681  0.2954
  222MPD1    N1 3380   1.910   2.661  17.194  0.2024  0.1838 -0.1231
  222MPD1    H6 3381   1.952   2.624  17.109 -1.8211  2.1065 -1.9858
  222MPD1    H7 3382   1.916   2.762  17.179  0.7190 -0.0090 -1.2469
  223MPD1     C 3383   2.187   2.391   0.754 -0.1604  0.2345  0.4336
  223MPD1    C1 3384   2.083   2.370   0.672 -0.0779 -0.0226  0.0783
  223MPD1    C2 3385   2.041   2.470   0.595 -0.0644  0.1731 -0.1378
  223MPD1    C3 3386   2.119   2.580   0.570  0.9308 -0.5413 -0.1599
  223MPD1    C4 3387   2.230   2.600   0.650 -0.3113  1.1910 -0.1832
  223MPD1    C5 3388   2.265   2.509   0.749 -0.5391  0.3734 -0.4737
  223MPD1     H 3389   1.961   2.442   0.527  0.3879  0.4704 -0.7992
  223MPD1    H1 3390   2.293   2.689   0.651  0.8866  0.3429 -0.8508
  223MPD1    H2 3391   2.212   2.311   0.823 -1.5946 -0.1290  0.5469
  223MPD1    H3 3392   2.344   2.521   0.822 -0.1806 -0.4363 -0.7229
  223MPD1     N 3393   2.077   2.680   0.479  1.1154  0.7595 -0.8194
  223MPD1    H5 3394   1.987   2.661   0.436 -0.7438  2.0086  2.6244
  223MPD1    N1 3395   2.007   2.256   0.697 -0.0735  0.3344 -0.0763
  223MPD1    H6 3396   2.062   2.175   0.725 -0.5404 -0.3931 -1.2537
  223MPD1    H7 3397   1.954   2.220   0.618 -1.3307 -0.3572  1.0783
  224MPD1     C 3398   4.300   3.637   8.978  0.8273 -0.4792 -0.5340
  224MPD1    C1 3399   4.215   3.742   8.980 -0.2526 -0.2206  0.4188
  224MPD1    C2 3400   4.141   3.755   9.099  0.5904  0.1229  0.3154
  224MPD1    C3 3401   4.170   3.683   9.215  0.3900 -0.2438 -0.1800
  224MPD1    C4 3402   4.273   3.591   9.216 -0.6444  0.1660 -1.1366
  224MPD1    C5 3403   4.337   3.571   9.098  0.1486 -0.3157 -0.2222
  224MPD1     H 3404   4.063   3.830   9.099  0.8610  0.3983 -1.7240
  224MPD1    H1 3405   4.309   3.543   9.305 -0.5005  0.2586 -1.1444
  224MPD1    H2 3406   4.339   3.602   8.884 -0.4589 -0.5648 -1.0386
  224MPD1    H3 3407   4.410   3.490   9.106  1.2368  0.2501 -4.2232
  224MPD1     N 3408   4.105   3.707   9.341  0.0529 -0.0369  0.0483
  224MPD1    H5 3409   4.131   3.641   9.414 -0.6242  0.0082  0.3414
  224MPD1    N1 3410   4.162   3.801   8.866 -0.9176  0.2336 -0.3926
  224MPD1    H6 3411   4.229   3.804   8.789  0.1265  0.2198  0.5099
  224MPD1    H7 3412   4.127   3.896   8.879  0.7911  0.6350  1.3155
  225MPD1     C 3413   0.145   1.483  12.467  0.1656 -0.1797 -0.8910
  225MPD1    C1 3414   0.141   1.345  12.447 -0.2723  0.1597 -0.1360
  225MPD1    C2 3415   0.053   1.300  12.345 -0.5349  0.1839  0.9648
  225MPD1    C3 3416   4.688   1.389  12.285 -0.4960 -0.5193  0.0444
  225MPD1    C4 3417   4.694   1.523  12.305  0.9032 -0.0622  0.2263
  225MPD1    C5 3418   0.070   1.566  12.391  0.5570 -0.2652 -0.6667
  225MPD1     H 3419   0.041   1.195  12.323  1.9836  0.8874 -3.6357
  225MPD1    H1 3420   4.628   1.594  12.257  0.8019 -0.4486 -0.1962
  225MPD1    H2 3421   0.201   1.531  12.547  0.7227 -2.8632  0.3148
  225MPD1    H3 3422   0.072   1.674  12.406 -1.3787 -0.1868 -0.9411
  225MPD1     N 3423   4.589   1.348  12.197 -0.4449 -0.4097 -0.0944
  225MPD1    H5 3424   4.531   1.420  12.156  0.5409  0.0980 -0.5985
  225MPD1    N1 3425   0.225   1.259  12.516  0.1927 -0.6148 -0.1432
  225MPD1    H6 3426   0.260   1.294  12.605 -1.4158  0.8417 -0.0864
  225MPD1    H7 3427   0.193   1.165  12.536  0.0631 -0.5846 -0.2117
  226MPD1     C 3428   2.764   1.626   9.342 -0.0008  0.1123 -0.3713
  226MPD1    C1 3429   2.729   1.495   9.350 -0.7278 -0.5153 -0.4142
  226MPD1    C2 3430   2.829   1.407   9.310  0.4587  0.0970  0.3627
  226MPD1    C3 3431   2.953   1.436   9.268  0.5873  0.5472  0.7164
  226MPD1    C4 3432   2.985   1.572   9.258  0.1534  0.2202 -0.0878
  226MPD1    C5 3433   2.890   1.662   9.291  0.5021  0.4852 -0.0055
  226MPD1     H 3434   2.802   1.302   9.307  0.5622  0.1080 -1.0655
  226MPD1    H1 3435   3.077   1.617   9.221  0.9566 -0.9317  0.5038
  226MPD1    H2 3436   2.696   1.709   9.355 -0.0621  0.1716 -1.0402
  226MPD1    H3 3437   2.917   1.765   9.271 -1.6124  0.9636 -0.3756
  226MPD1     N 3438   3.040   1.326   9.236  0.3319 -0.1046  0.3645
  226MPD1    H5 3439   3.005   1.231   9.246 -1.3661  0.4378 -0.5569
  226MPD1    N1 3440   2.598   1.449   9.363  0.1151 -0.4646 -0.4144
  226MPD1    H6 3441   2.577   1.353   9.388 -0.3459 -0.6295 -1.4289
  226MPD1    H7 3442   2.531   1.520   9.390  1.7796  1.5335 -1.5234
  227MPD1     C 3443   4.063   1.232   9.288  0.1535  0.1005  0.4179
  227MPD1    C1 3444   3.986   1.344   9.293 -0.3805 -0.1410  0.7276
  227MPD1    C2 3445   3.852   1.336   9.266 -0.0001  0.6731 -0.0505
  227MPD1    C3 3446   3.793   1.212   9.252 -0.1428 -0.1770  0.1960
  227MPD1    C4 3447   3.876   1.098   9.274  0.1486  0.2407  0.7306
  227MPD1    C5 3448   4.010   1.107   9.283  0.1343 -0.6630  0.5997
  227MPD1     H 3449   3.801   1.430   9.247  4.1346  3.0305  0.4163
  227MPD1    H1 3450   3.831   1.000   9.262  1.4408 -0.6788  3.3690
  227MPD1    H2 3451   4.171   1.233   9.292  0.2243  1.2555 -1.4976
  227MPD1    H3 3452   4.075   1.022   9.271  1.5442  0.6993 -1.3943
  227MPD1     N 3453   3.653   1.207   9.215 -0.4057 -0.1399 -0.2427
  227MPD1    H5 3454   3.610   1.294   9.182 -0.4790 -0.3832 -0.7937
  227MPD1    N1 3455   4.060   1.462   9.278  0.0436  0.1842  0.4471
  227MPD1    H6 3456   4.017   1.539   9.329  0.8455 -0.7304  2.5140
  227MPD1    H7 3457   4.143   1.444   9.335 -1.1318  0.2544  2.1888
  228MPD1     C 3458   1.662   3.271  13.002  0.2561 -0.1156 -0.4991
  228MPD1    C1 3459   1.604   3.395  12.984  0.3542 -0.5550  0.2578
  228MPD1    C2 3460   1.481   3.416  13.044 -1.0792 -0.8624 -0.2389
  228MPD1    C3 3461   1.407   3.313  13.102 -0.3515 -0.1434 -0.3112
  228MPD1    C4 3462   1.468   3.186  13.116  0.0811  0.2314 -0.0794
  228MPD1    C5 3463   1.589   3.169  13.059 -0.5964 -0.2172  0.5027
  228MPD1     H 3464   1.443   3.518  13.043 -0.8431 -0.7814 -1.2271
  228MPD1    H1 3465   1.418   3.103  13.165  1.3790  0.0481  0.9438
  228MPD1    H2 3466   1.760   3.251  12.960 -0.2118 -1.5671 -0.8853
  228MPD1    H3 3467   1.639   3.073  13.062 -0.0790  0.0656  1.0282
  228MPD1     N 3468   1.274   3.335  13.124 -0.0485  0.1199 -0.4632
  228MPD1    H5 3469   1.247   3.431  13.108  2.1195  0.4684 -1.9553
  228MPD1    N1 3470   1.673   3.496  12.915  0.1207  0.8863  0.2759
  228MPD1    H6 3471   1.605   3.568  12.891 -1.4260  0.1588  2.4624
  228MPD1    H7 3472   1.712   3.464  12.827 -0.4736  0.5431  0.1389
  229MPD1     C 3473   0.440   2.639  14.401 -0.6002 -0.1735  0.2711
  229MPD1    C1 3474   0.502   2.519  14.425  0.2922  0.0781 -0.4637
  229MPD1    C2 3475   0.499   2.466  14.547 -0.5735  0.2826 -0.3435
  229MPD1    C3 3476   0.435   2.532  14.646  0.0298  0.6578  0.0589
  229MPD1    C4 3477   0.386   2.655  14.629 -0.4715 -0.0126 -0.1328
  229MPD1    C5 3478   0.389   2.712  14.502 -0.0011  0.2219  0.4174
  229MPD1     H 3479   0.550   2.373  14.571 -0.4488  0.5081  0.2660
  229MPD1    H1 3480   0.345   2.711  14.712 -0.5637 -1.0156  0.5034
  229MPD1    H2 3481   0.446   2.691  14.306  0.8940 -0.4135  0.2384
  229MPD1    H3 3482   0.339   2.804  14.476 -1.6723 -1.1563 -1.2129
  229MPD1     N 3483   0.427   2.474  14.777 -0.1499 -1.0509  0.5092
  229MPD1    H5 3484   0.369   2.528  14.841 -0.0606 -0.5904  0.2051
  229MPD1    N1 3485   0.573   2.453  14.326 -0.1414 -0.3377  0.4568
  229MPD1    H6 3486   0.561   2.352  14.330 -1.8246 -0.1775 -0.4868
  229MPD1    H7 3487   0.544   2.488  14.235  1.5438 -1.2355 -0.4413
  230MPD1     C 3488   0.561   2.724  15.758 -0.0998  0.2239  0.1648
  230MPD1    C1 3489   0.589   2.590  15.754 -0.2968  0.5302 -0.4090
  230MPD1    C2 3490   0.598   2.521  15.635 -0.3438  0.0154  0.4308
  230MPD1    C3 3491   0.567   2.580  15.511  0.1854 -0.4403 -0.2231
  230MPD1    C4 3492   0.541   2.721  15.515  0.5445 -0.0094  0.1624
  230MPD1    C5 3493   0.544   2.788  15.638  0.2051 -0.2680 -0.5981
  230MPD1     H 3494   0.628   2.417  15.629 -1.5217 -0.3455  0.6931
  230MPD1    H1 3495   0.517   2.775  15.424 -1.6182  1.9735  1.9139
  230MPD1    H2 3496   0.557   2.783  15.848 -3.0390  1.0152 -0.4667
  230MPD1    H3 3497   0.510   2.891  15.644  1.4620  0.0623  1.0886
  230MPD1     N 3498   0.573   2.504  15.400 -0.3856 -0.3521 -0.0514
  230MPD1    H5 3499   0.590   2.405  15.407  0.7387 -0.0909  0.9789
  230MPD1    N1 3500   0.618   2.526  15.878  0.3836 -0.0448  0.1757
  230MPD1    H6 3501   0.602   2.426  15.867 -0.2102 -0.1454  2.0046
  230MPD1    H7 3502   0.555   2.549  15.955  0.2139 -0.2631  0.1023
  231MPD1     C 3503   3.405   4.296  15.222  0.2608  0.8335  0.1610
  231MPD1    C1 3504   3.447   4.417  15.173 -0.0415  0.1767 -0.3414
  231MPD1    C2 3505   3.547   4.427  15.075 -0.0905 -0.3085 -0.9404
  231MPD1    C3 3506   3.601   4.310  15.033 -0.0201  0.6172 -0.6121
  231MPD1    C4 3507   3.555   4.182  15.082  0.0737 -0.1457 -0.5758
  231MPD1    C5 3508   3.464   4.179  15.180  0.3145  0.2951  0.1944
  231MPD1     H 3509   3.590   4.522  15.047 -0.6168  1.0712  2.9244
  231MPD1    H1 3510   3.592   4.091  15.037 -0.2788 -0.3034 -0.5477
  231MPD1    H2 3511   3.339   4.291  15.308  0.0021  0.8865 -0.0351
  231MPD1    H3 3512   3.430   4.088  15.227 -1.4015  1.2791  0.8619
  231MPD1     N 3513   3.711   4.323  14.938 -0.2500  0.2981 -0.7115
  231MPD1    H5 3514   3.759   4.412  14.932 -1.8912  1.2311 -0.0188
  231MPD1    N1 3515   3.415   4.535  15.247  0.6825  0.1093 -0.3098
  231MPD1    H6 3516   3.326   4.541  15.296 -0.1565  1.0594 -1.9785
  231MPD1    H7 3517   3.433   4.614  15.186  0.2861  0.5848  0.1862
  232MPD1     C 3518   0.905   2.552  17.385  0.0160  0.3956  0.4332
  232MPD1    C1 3519   0.986   2.612  17.480 -0.4846 -0.0329  0.1591
  232MPD1    C2 3520   1.097   2.534  17.518  0.4453  0.1437  0.5052
  232MPD1    C3 3521   1.126   2.414  17.455  0.5796 -0.5507  0.2051
  232MPD1    C4 3522   1.047   2.362  17.355 -0.6454 -0.2312 -0.3574
  232MPD1    C5 3523   0.940   2.436  17.320  0.0793  1.0485  0.8426
  232MPD1     H 3524   1.161   2.571  17.597  0.3253 -3.0502  2.0900
  232MPD1    H1 3525   1.064   2.270  17.301  1.5146 -1.1011  1.7758
  232MPD1    H2 3526   0.809   2.594  17.355 -0.0074  0.4621  0.6041
  232MPD1    H3 3527   0.863   2.400  17.253  1.7695  0.0899 -0.5577
  232MPD1     N 3528   1.230   2.341  17.514 -0.5211 -0.9970  0.1278
  232MPD1    H5 3529   1.293   2.399  17.568 -1.1614 -1.1999  1.1026
  232MPD1    N1 3530   0.935   2.726  17.551  0.3425 -0.0334 -0.5136
  232MPD1    H6 3531   0.904   2.793  17.481 -0.4570  1.2334  1.0590
  232MPD1    H7 3532   1.011   2.762  17.608  0.6341 -0.4551 -0.6371
  233MPD1     C 3533   4.076   0.657   2.054  0.3563  0.0111  0.4834
  233MPD1    C1 3534   3.945   0.611   2.066 -0.0294 -0.2496  0.3342
  233MPD1    C2 3535   3.926   0.484   2.115  0.4287  0.2212  0.6349
  233MPD1    C3 3536   4.034   0.395   2.135  0.2845 -0.2788 -0.5043
  233MPD1    C4 3537   4.159   0.447   2.140  0.2851 -0.3364  0.3296
  233MPD1    C5 3538   4.175   0.572   2.095  0.1647  0.6509 -0.3481
  233MPD1     H 3539   3.821   0.457   2.121  0.3662  0.3561  0.1203
  233MPD1    H1 3540   4.242   0.380   2.158 -0.2087 -1.3723 -1.3451
  233MPD1    H2 3541   4.100   0.758   2.023 -1.2568 -0.2487 -1.6234
  233MPD1    H3 3542   4.280   0.593   2.081  0.2690  0.9155  0.8085
  233MPD1     N 3543   4.015   0.255   2.170 -0.9268 -0.2736 -0.0341
  233MPD1    H5 3544   4.098   0.196   2.167  0.9546  2.3084  1.8074
  233MPD1    N1 3545   3.836   0.702   2.046 -0.0158 -0.2966 -0.0720
  233MPD1    H6 3546   3.860   0.766   1.971  1.6947  1.0039  1.5820
  233MPD1    H7 3547   3.764   0.640   2.010  0.2990 -0.0720 -1.0919
  234MPD1     C 3548   3.888   2.057  10.070 -0.1499  0.0717 -0.3308
  234MPD1    C1 3549   3.924   2.169  10.132 -0.0212  0.7422  0.2604
  234MPD1    C2 3550   3.897   2.291  10.070  0.3052 -0.0215 -0.6406
  234MPD1    C3 3551   3.829   2.306   9.945 -0.7074  0.2628  0.4192
  234MPD1    C4 3552   3.802   2.185   9.882 -0.3134 -1.1316 -0.0196
  234MPD1    C5 3553   3.837   2.067   9.940 -0.0049 -0.8201 -0.2706
  234MPD1     H 3554   3.907   2.387  10.121 -1.9854 -0.8793  1.4253
  234MPD1    H1 3555   3.761   2.174   9.782 -1.3228  1.2296  0.1426
  234MPD1    H2 3556   3.903   1.960  10.114 -0.6749 -0.1453 -0.6344
  234MPD1    H3 3557   3.801   1.977   9.892 -0.8736  0.2135 -1.5643
  234MPD1     N 3558   3.810   2.433   9.888 -0.0462  0.2577  0.0740
  234MPD1    H5 3559   3.801   2.510   9.954 -2.6050 -0.1823  0.2302
  234MPD1    N1 3560   3.962   2.172  10.267  0.4068 -0.1194  0.5066
  234MPD1    H6 3561   4.012   2.256  10.294  0.7059 -0.1884  0.1795
  234MPD1    H7 3562   4.016   2.091  10.297  2.6706  2.0741  2.4029
  235MPD1     C 3563   4.496   2.469   8.835 -0.2973 -0.4750  0.6698
  235MPD1    C1 3564   4.500   2.492   8.973 -0.0390 -0.1445 -0.1627
  235MPD1    C2 3565   4.616   2.444   9.039  0.1349 -0.1128 -0.2451
  235MPD1    C3 3566   4.715   2.372   8.969  0.7396 -0.1301  0.0363
  235MPD1    C4 3567   4.708   2.352   8.836 -0.1212 -0.4035  0.1107
  235MPD1    C5 3568   4.607   2.419   8.774  0.2911  0.2605 -0.2499
  235MPD1     H 3569   4.619   2.449   9.147  0.4113  0.5470 -0.2837
  235MPD1    H1 3570   0.057   2.294   8.779  1.7862  1.2170  0.8492
  235MPD1    H2 3571   4.416   2.502   8.770 -0.7817  0.3683  1.6925
  235MPD1    H3 3572   4.595   2.415   8.666 -3.7824 -1.5893  0.2681
  235MPD1     N 3573   0.094   2.308   9.043  0.7512 -0.5357 -0.4639
  235MPD1    H5 3574   0.106   2.340   9.138  1.5578 -1.8697 -0.1212
  235MPD1    N1 3575   4.384   2.511   9.050  0.4088  0.7999  0.1405
  235MPD1    H6 3576   4.320   2.573   9.002  1.9927  1.9883 -0.4455
  235MPD1    H7 3577   4.402   2.544   9.145 -2.1626  1.2910  0.4582
  236MPD1     C 3578   4.330   2.532   9.485 -0.3474  0.1980 -0.0554
  236MPD1    C1 3579   4.302   2.420   9.563  0.0277 -0.5931  0.5146
  236MPD1    C2 3580   4.405   2.367   9.641 -0.6543 -0.0869  0.1792
  236MPD1    C3 3581   4.526   2.430   9.638  0.1246 -0.0700 -0.6978
  236MPD1    C4 3582   4.557   2.535   9.544  0.7231  0.6869  0.5013
  236MPD1    C5 3583   4.456   2.584   9.470  0.6392 -0.3705 -0.2936
  236MPD1     H 3584   4.381   2.278   9.698  0.5084  0.2098  1.1379
  236MPD1    H1 3585   4.655   2.578   9.526  0.6223  0.5390 -0.3937
  236MPD1    H2 3586   4.249   2.595   9.448 -1.8086 -1.8800 -0.4504
  236MPD1    H3 3587   4.480   2.672   9.411 -1.0623 -0.8152 -1.6290
  236MPD1     N 3588   4.635   2.392   9.714  0.3432  0.3808  0.0034
  236MPD1    H5 3589   4.722   2.444   9.724  0.4467 -0.1175  1.7218
  236MPD1    N1 3590   4.170   2.386   9.588 -0.2455  0.3502  0.1052
  236MPD1    H6 3591   4.139   2.295   9.620  0.6318 -0.5111 -1.5131
  236MPD1    H7 3592   4.107   2.425   9.518  2.4289 -0.7910 -2.9238
  237MPD1     C 3593   3.992   1.452  15.281  0.1078 -0.6892 -1.0331
  237MPD1    C1 3594   3.874   1.380  15.307  0.8234 -0.3101 -0.0397
  237MPD1    C2 3595   3.881   1.246  15.336 -0.2592 -0.2640 -0.6672
  237MPD1    C3 3596   3.999   1.184  15.313  0.0689 -0.2368 -0.1319
  237MPD1    C4 3597   4.116   1.256  15.296 -0.6085 -0.1091 -0.2399
  237MPD1    C5 3598   4.115   1.390  15.278 -0.6117  0.5639  0.4895
  237MPD1     H 3599   3.795   1.190  15.372 -0.5542 -0.1780 -1.2350
  237MPD1    H1 3600   4.214   1.209  15.289 -0.9970 -1.1613  1.4104
  237MPD1    H2 3601   4.000   1.559  15.266 -1.4321 -0.5989 -1.2073
  237MPD1    H3 3602   4.202   1.454  15.268  1.0280 -1.8784 -0.6710
  237MPD1     N 3603   4.015   1.044  15.321 -1.0389 -0.4188 -0.5678
  237MPD1    H5 3604   4.105   1.011  15.287 -1.5992 -1.0162 -1.4556
  237MPD1    N1 3605   3.751   1.450  15.317 -0.0588 -0.3182 -0.5097
  237MPD1    H6 3606   3.668   1.393  15.302 -1.2592  1.2147  0.1736
  237MPD1    H7 3607   3.740   1.530  15.254 -2.6076  0.4463  0.9171
  238MPD1     C 3608   1.291   4.402  15.491 -0.2790 -0.6351  0.2029
  238MPD1    C1 3609   1.359   4.338  15.388  0.3542 -0.7041  0.6376
  238MPD1    C2 3610   1.281   4.276  15.291  0.0528 -0.2503 -0.6604
  238MPD1    C3 3611   1.139   4.286  15.293  0.4681  0.3844  0.0221
  238MPD1    C4 3612   1.081   4.349  15.397  0.2149 -0.4128 -0.2641
  238MPD1    C5 3613   1.155   4.410  15.494 -0.1503 -0.4033  0.8075
  238MPD1     H 3614   1.330   4.200  15.231  1.3894  0.7640 -0.8690
  238MPD1    H1 3615   0.973   4.359  15.406  0.2317 -0.2293 -0.2497
  238MPD1    H2 3616   1.335   4.438  15.583 -0.6291 -1.0290  0.5205
  238MPD1    H3 3617   1.111   4.466  15.576  0.9623 -0.5242  1.4940
  238MPD1     N 3618   1.056   4.220  15.200  0.3908 -0.7944  0.3690
  238MPD1    H5 3619   0.957   4.222  15.222  0.2797  0.1791 -0.2468
  238MPD1    N1 3620   1.495   4.301  15.402  0.0000  0.5792  0.1427
  238MPD1    H6 3621   1.538   4.282  15.311  0.7431  0.7757  0.4576
  238MPD1    H7 3622   1.545   4.381  15.440 -0.3715  0.4602  0.8786
  239MPD1     C 3623   2.025   0.578  14.668  0.4303  0.0276  0.3264
  239MPD1    C1 3624   2.126   0.534  14.587 -0.4113  0.1102 -0.9039
  239MPD1    C2 3625   2.092   0.494  14.454 -0.0680  0.8521 -0.4757
  239MPD1    C3 3626   1.968   0.525  14.396 -0.0767 -0.5915 -1.0136
  239MPD1    C4 3627   1.874   0.587  14.477  0.0207  0.0141 -0.2061
  239MPD1    C5 3628   1.903   0.609  14.608 -0.3496  0.0239 -0.4700
  239MPD1     H 3629   2.165   0.435  14.401 -0.1648  3.0893 -3.0665
  239MPD1    H1 3630   1.776   0.622  14.446  1.0887  1.5760 -1.7594
  239MPD1    H2 3631   2.047   0.605  14.770 -0.1042  0.5257  0.3048
  239MPD1    H3 3632   1.824   0.652  14.669  0.4937  0.7120  0.1435
  239MPD1     N 3633   1.928   0.506  14.263 -0.3535 -0.4953 -0.8692
  239MPD1    H5 3634   1.835   0.526  14.227  0.1052  0.7922 -1.3570
  239MPD1    N1 3635   2.256   0.509  14.638 -0.4640 -0.0913  0.2886
  239MPD1    H6 3636   2.273   0.586  14.703 -3.6518  0.0680  0.9395
  239MPD1    H7 3637   2.327   0.509  14.566  1.0759  0.1332  1.7959
  240MPD1     C 3638   0.556   4.324  13.497 -0.3332 -0.6236  0.3315
  240MPD1    C1 3639   0.483   4.267  13.601 -0.0925  0.1437  0.5630
  240MPD1    C2 3640   0.513   4.295  13.733 -0.1399  0.0209  0.5981
  240MPD1    C3 3641   0.612   4.380  13.764 -0.1001 -0.3045  0.2785
  240MPD1    C4 3642   0.697   4.418  13.663 -0.1168  0.1901  0.1557
  240MPD1    C5 3643   0.669   4.395  13.530  0.5580 -0.1128  0.1312
  240MPD1     H 3644   0.444   4.264  13.811 -0.1105 -0.6237  0.3689
  240MPD1    H1 3645   0.788   4.475  13.676 -1.1954  2.0710 -0.7157
  240MPD1    H2 3646   0.537   4.293  13.394 -0.1623  0.3095  0.0260
  240MPD1    H3 3647   0.726   4.442  13.451 -0.3932  1.1424  0.1923
  240MPD1     N 3648   0.639   4.403  13.910 -0.5970 -0.3361  0.2937
  240MPD1    H5 3649   0.574   4.373  13.983  0.9368 -2.5834  0.7383
  240MPD1    N1 3650   0.383   4.183  13.554 -0.5203 -0.2681 -0.3788
  240MPD1    H6 3651   0.312   4.232  13.500 -1.3360 -0.7698  0.2470
  240MPD1    H7 3652   0.331   4.147  13.633 -0.1427  0.6833  0.3043
  241MPD1     C 3653   1.240   0.097  14.768 -0.1963 -0.3127 -0.7998
  241MPD1    C1 3654   1.242   0.136  14.634 -0.3110 -0.2511  0.2329
  241MPD1    C2 3655   1.142   0.088  14.549  0.2405  0.0389  0.4195
  241MPD1    C3 3656   1.053   4.712  14.587  0.1040  0.7077  0.3487
  241MPD1    C4 3657   1.061   4.675  14.719 -0.4224 -0.0940  0.5138
  241MPD1    C5 3658   1.151   0.002  14.801  0.3220  0.0606  0.2458
  241MPD1     H 3659   1.148   0.110  14.443 -1.3865 -0.4848  0.2235
  241MPD1    H1 3660   0.990   4.602  14.757 -0.8726  0.7429  1.2510
  241MPD1    H2 3661   1.305   0.138  14.845  0.9867  0.6418 -2.2940
  241MPD1    H3 3662   1.166   4.690  14.903  0.6052  0.9306  0.4981
  241MPD1     N 3663   0.970   4.640  14.498 -0.2617  0.0956  0.4228
  241MPD1    H5 3664   0.919   4.573  14.554 -0.2071 -1.5170 -1.4414
  241MPD1    N1 3665   1.303   0.257  14.613 -0.1038  0.0580  0.7465
  241MPD1    H6 3666   1.323   0.271  14.514  0.5982  1.0413  1.0297
  241MPD1    H7 3667   1.386   0.262  14.672  1.0799  1.9187 -1.0453
  242MPD1     C 3668   0.215   3.715  15.549  0.9711 -0.3325 -0.6474
  242MPD1    C1 3669   0.160   3.596  15.544  0.5984 -0.5930  0.3810
  242MPD1    C2 3670   0.172   3.519  15.435  0.9543  0.4323  0.3363
  242MPD1    C3 3671   0.251   3.564  15.332 -0.1014 -0.6602  0.7588
  242MPD1    C4 3672   0.312   3.688  15.335  0.4154  0.3695  0.6228
  242MPD1    C5 3673   0.292   3.757  15.445 -0.8082 -0.0519  0.3033
  242MPD1     H 3674   0.124   3.422  15.438 -0.7287  1.2868  0.8280
  242MPD1    H1 3675   0.376   3.729  15.258 -0.1030  1.5236  0.7979
  242MPD1    H2 3676   0.220   3.773  15.641  0.5659 -2.5359  0.7676
  242MPD1    H3 3677   0.336   3.856  15.455  0.8315 -0.8118  0.5460
  242MPD1     N 3678   0.287   3.483  15.226  0.2980 -0.0975 -0.4509
  242MPD1    H5 3679   0.360   3.519  15.165  1.5433  0.0772  1.1447
  242MPD1    N1 3680   0.068   3.557  15.650  0.2326  0.3353 -0.5742
  242MPD1    H6 3681   0.117   3.577  15.737 -0.5278  2.1775 -0.5574
  242MPD1    H7 3682   0.044   3.459  15.641  0.7675  0.2017 -0.5133
  243MPD1     C 3683   2.686   3.285  17.357  0.2991 -0.5364  0.3340
  243MPD1    C1 3684   2.671   3.318  17.226  0.4167  0.2396 -0.3434
  243MPD1    C2 3685   2.656   3.214  17.137 -0.0146 -0.4951  0.4179
  243MPD1    C3 3686   2.636   3.084  17.167 -0.1349 -0.4801 -0.4578
  243MPD1    C4 3687   2.635   3.056  17.304  0.7444 -0.6993 -0.4941
  243MPD1    C5 3688   2.663   3.156  17.393 -0.7011  0.3510  0.2136
  243MPD1     H 3689   2.647   3.239  17.032 -2.1779 -0.1372  0.7010
  243MPD1    H1 3690   2.617   2.957  17.345  0.3989 -0.7987 -0.8891
  243MPD1    H2 3691   2.715   3.356  17.434  0.4521 -0.5874  0.3238
  243MPD1    H3 3692   2.667   3.132  17.499  0.6326 -0.0161  0.0796
  243MPD1     N 3693   2.623   2.997  17.057  0.1134  0.4936 -0.0399
  243MPD1    H5 3694   2.616   3.035  16.963 -0.5576 -1.7096 -0.8648
  243MPD1    N1 3695   2.700   3.447  17.175 -0.1903 -0.0212 -0.9229
  243MPD1    H6 3696   2.678   3.520  17.242  0.9720 -1.3600  0.9087
  243MPD1    H7 3697   2.651   3.466  17.087 -0.8799 -1.2922 -0.8041
  244MPD1     C 3698   2.917   2.048  17.131 -0.2492  1.1028  0.5972
  244MPD1    C1 3699   2.881   2.144  17.223  0.6912  0.0254  0.4504
  244MPD1    C2 3700   2.842   2.265  17.170  0.4477  0.0272  0.9372
  244MPD1    C3 3701   2.821   2.282  17.032 -0.3478  0.3578 -1.1555
  244MPD1    C4 3702   2.836   2.172  16.940  0.0629 -0.7543  0.0587
  244MPD1    C5 3703   2.888   2.061  16.998 -0.6264  0.2589 -0.7712
  244MPD1     H 3704   2.837   2.356  17.229  1.2237 -0.3414  1.5674
  244MPD1    H1 3705   2.821   2.176  16.832  2.8227 -1.6058 -0.3631
  244MPD1    H2 3706   2.967   1.955  17.154 -1.6290  0.0241 -0.7558
  244MPD1    H3 3707   2.918   1.977  16.935  0.9237  1.3066 -1.4306
  244MPD1     N 3708   2.777   2.408  16.993  0.1070  0.1441  0.0140
  244MPD1    H5 3709   2.749   2.473  17.066 -0.7743 -2.0092  1.6157
  244MPD1    N1 3710   2.933   2.137  17.353  0.4719 -0.5416 -0.0611
  244MPD1    H6 3711   2.947   2.039  17.377 -0.3476 -1.0158 -1.5483
  244MPD1    H7 3712   2.888   2.189  17.428  2.0927  0.5053  0.1893
  245MPD1     C 3713   4.115   1.992  12.981  0.6398 -0.2766  0.2166
  245MPD1    C1 3714   4.024   2.072  13.047  0.0193 -0.0864  0.4753
  245MPD1    C2 3715   4.062   2.204  13.081  0.1518  0.3311  0.2367
  245MPD1    C3 3716   4.186   2.257  13.052  0.4505 -0.7410 -0.5154
  245MPD1    C4 3717   4.265   2.181  12.971 -0.0856  0.2876  0.0670
  245MPD1    C5 3718   4.233   2.054  12.939 -0.4676 -0.2216  0.2054
  245MPD1     H 3719   3.989   2.260  13.138  1.8838  0.8965  1.9055
  245MPD1    H1 3720   4.365   2.210  12.941 -0.4190  0.8246 -0.5249
  245MPD1    H2 3721   4.097   1.889  12.954 -1.5102  0.0389  0.4517
  245MPD1    H3 3722   4.300   1.997  12.876  1.4033  2.4140 -0.1822
  245MPD1     N 3723   4.220   2.384  13.106  0.0126 -0.9914 -0.1368
  245MPD1    H5 3724   4.150   2.435  13.159  0.8586 -0.5082  0.5035
  245MPD1    N1 3725   3.912   2.012  13.106  0.2655 -0.6175  0.2905
  245MPD1    H6 3726   3.838   2.080  13.122  0.5975 -0.3595  0.7488
  245MPD1    H7 3727   3.875   1.930  13.060  0.2708 -0.2121 -0.4367
  246MPD1     C 3728   1.813   3.246   8.749 -0.3544  0.1939 -0.0194
  246MPD1    C1 3729   1.787   3.378   8.781 -0.6256 -0.3057  0.0536
  246MPD1    C2 3730   1.652   3.413   8.763  0.7984 -0.8419 -0.8306
  246MPD1    C3 3731   1.547   3.323   8.747 -0.5593 -0.4010  0.4186
  246MPD1    C4 3732   1.577   3.186   8.729 -0.4136  0.4661 -0.3038
  246MPD1    C5 3733   1.712   3.162   8.724  0.0820 -0.1339 -0.1621
  246MPD1     H 3734   1.630   3.518   8.777  0.5685 -0.7572 -1.8625
  246MPD1    H1 3735   1.511   3.108   8.695 -0.1526 -0.1957  0.7124
  246MPD1    H2 3736   1.912   3.203   8.742  0.3427  1.9280 -0.8330
  246MPD1    H3 3737   1.747   3.065   8.690 -1.1811 -0.3123 -0.9448
  246MPD1     N 3738   1.421   3.381   8.727  1.1225 -0.2139 -0.1064
  246MPD1    H5 3739   1.416   3.482   8.729  2.6795 -0.1088 -1.7106
  246MPD1    N1 3740   1.893   3.477   8.784 -0.0104 -0.0569  0.3719
  246MPD1    H6 3741   1.977   3.449   8.834 -0.9102  0.2707  2.0611
  246MPD1    H7 3742   1.858   3.556   8.838 -1.4466 -0.8282  0.5642
  247MPD1     C 3743   3.199   2.960  16.518  0.1495  0.2837 -0.0072
  247MPD1    C1 3744   3.235   2.901  16.636 -0.3406 -0.2545 -0.2854
  247MPD1    C2 3745   3.289   2.770  16.629 -0.3096  0.0417 -0.3714
  247MPD1    C3 3746   3.283   2.694  16.512 -0.0235 -0.6727  0.2816
  247MPD1    C4 3747   3.233   2.756  16.402 -0.2329  0.4783  0.2974
  247MPD1    C5 3748   3.203   2.885  16.404 -0.4358 -0.6255 -0.5973
  247MPD1     H 3749   3.319   2.725  16.723  0.3001  0.8465 -0.1825
  247MPD1    H1 3750   3.231   2.709  16.304 -1.4608 -0.2657  0.6738
  247MPD1    H2 3751   3.166   3.062  16.510  0.6159  0.4993  0.7843
  247MPD1    H3 3752   3.185   2.933  16.308  2.0705  1.5239 -0.0047
  247MPD1     N 3753   3.339   2.564  16.506  0.2829 -0.1506  0.1523
  247MPD1    H5 3754   3.333   2.518  16.415 -1.9991 -0.2270  0.3358
  247MPD1    N1 3755   3.250   2.986  16.741 -0.0704  0.1665  0.5399
  247MPD1    H6 3756   3.240   2.934  16.828  0.5464  0.1815  0.6236
  247MPD1    H7 3757   3.183   3.063  16.743  1.0072  1.0620  2.4950
  248MPD1     C 3758   4.411   0.111   0.582 -0.0167 -0.3777 -0.0114
  248MPD1    C1 3759   4.504   0.193   0.639  0.0243  0.4056 -0.4069
  248MPD1    C2 3760   4.455   0.307   0.702  0.2153  0.6537 -0.3783
  248MPD1    C3 3761   4.321   0.324   0.716 -0.5018  0.1913 -0.1169
  248MPD1    C4 3762   4.234   0.236   0.661 -0.7611 -0.2296 -0.0285
  248MPD1    C5 3763   4.278   0.121   0.602  0.3927 -0.1144 -0.0165
  248MPD1     H 3764   4.516   0.382   0.751  0.8617 -0.4621  0.5258
  248MPD1    H1 3765   4.127   0.254   0.664 -0.4765  1.2641  1.1318
  248MPD1    H2 3766   4.441   0.021   0.530 -1.5304 -0.1645 -1.2397
  248MPD1    H3 3767   4.205   0.052   0.561  1.4057 -2.2027  1.7365
  248MPD1     N 3768   4.270   0.439   0.778  0.8134  0.0374  0.0519
  248MPD1    H5 3769   4.335   0.511   0.807  0.4083 -0.6094  2.6049
  248MPD1    N1 3770   4.642   0.175   0.625 -0.2691  0.0457  0.7581
  248MPD1    H6 3771   4.661   0.075   0.629  3.1120  0.5719 -3.1546
  248MPD1    H7 3772   4.701   0.223   0.692  0.6429 -0.1008  0.0529
  249MPD1     C 3773   0.933   3.929  10.794 -0.1782 -0.3052  0.7816
  249MPD1    C1 3774   0.829   3.848  10.771  0.2394  0.1062  0.3438
  249MPD1    C2 3775   0.779   3.848  10.639 -0.5126 -0.1066 -1.0078
  249MPD1    C3 3776   0.831   3.930  10.538  0.5047 -0.2995  0.2620
  249MPD1    C4 3777   0.952   4.002  10.565 -0.3091  0.4053  0.6783
  249MPD1    C5 3778   1.001   4.004  10.690 -0.0061 -0.3498 -0.3646
  249MPD1     H 3779   0.687   3.793  10.623 -1.7869  1.6842  0.1858
  249MPD1    H1 3780   1.016   4.030  10.481 -0.3551 -2.1243 -0.2163
  249MPD1    H2 3781   0.976   3.939  10.893  0.5055 -0.0056  0.4558
  249MPD1    H3 3782   1.094   4.053  10.716 -1.2923  1.4333  0.9578
  249MPD1     N 3783   0.766   3.922  10.416 -0.5947 -0.1490 -0.5490
  249MPD1    H5 3784   0.686   3.858  10.415 -0.4711 -0.3377  1.0007
  249MPD1    N1 3785   0.753   3.792  10.873 -0.4736  0.1436  0.6604
  249MPD1    H6 3786   0.704   3.704  10.853  1.8808 -0.4469 -2.3513
  249MPD1    H7 3787   0.811   3.781  10.956  0.5723 -0.0891 -0.1017
  250MPD2     C 3788   2.684   0.801  12.956  0.2128  0.3383 -1.0267
  250MPD2    C1 3789   2.606   0.879  12.876 -0.0625 -0.1991  0.5296
  250MPD2    C2 3790   2.511   0.814  12.792  0.1252  0.1621  0.4386
  250MPD2    C3 3791   2.514   0.670  12.796  0.1922 -0.0204  0.6399
  250MPD2    C4 3792   2.596   0.601  12.879 -0.2492  0.1498  0.0670
  250MPD2    C5 3793   2.689   0.666  12.956  0.3146 -0.3587  0.3439
  250MPD2     H 3794   2.445   0.870  12.726  0.6790 -2.2854 -2.1524
  250MPD2    H1 3795   2.592   0.493  12.888 -1.6207  0.1740 -0.2270
  250MPD2    H2 3796   2.770   0.838  13.010  0.7175 -0.6737 -1.1318
  250MPD2    H3 3797   2.755   0.606  13.018 -2.0281 -1.6819  1.5136
  250MPD2     N 3798   2.427   0.599  12.707  0.5185  0.0967 -0.4369
  250MPD2    H5 3799   2.418   0.500  12.728 -1.5796  0.2371 -0.6830
  250MPD2    N1 3800   2.628   1.020  12.879 -0.3064 -0.9080  0.2794
  250MPD2    H7 3801   2.696   1.063  12.942  1.9323  1.1722 -3.4818
  251TMC3    C1 3802   2.571   1.238  12.889 -0.3236 -0.3966  0.4638
  251TMC3    C2 3803   2.477   1.338  12.886  0.3304  0.4736  0.5311
  251TMC3    C3 3804   2.527   1.462  12.914  0.0949  0.1735 -0.1245
  251TMC3    C4 3805   2.701   1.262  12.926  0.3496 -0.6827 -0.2947
  251TMC3    C5 3806   2.739   1.385  12.964  0.0018 -0.3965  0.3063
  251TMC3    C6 3807   2.661   1.487  12.952 -0.6280 -0.0770 -0.0104
  251TMC3     C 3808   2.538   1.109  12.831 -0.3280  0.3941 -0.1937
  251TMC3     O 3809   2.431   1.102  12.774  0.2721 -0.4513 -0.3929
  251TMC3     H 3810   2.373   1.309  12.873  0.1667  0.6007  1.5177
  251TMC3    H1 3811   2.781   1.191  12.909  0.9358  0.1109 -0.8194
  251TMC3    H2 3812   2.693   1.586  12.983 -0.6618  0.3260 -1.2751
  251TMC3    C7 3813   2.882   1.396  12.988 -0.1244 -0.1620 -0.6971
  251TMC3    C8 3814   2.436   1.577  12.911 -0.0114  0.1890  0.6318
  251TMC3    O1 3815   2.943   1.313  13.058 -0.5590  0.1772 -0.0687
  251TMC3    O2 3816   2.473   1.670  12.978 -0.1171  0.7317 -0.2065
  252TMC3    C1 3817   2.958   0.460   9.253 -0.6532 -0.6649  0.2142
  252TMC3    C2 3818   2.994   0.587   9.277 -0.0352  0.0435  0.2216
  252TMC3    C3 3819   3.083   0.609   9.376 -0.1893 -0.1565 -0.6989
  252TMC3    C4 3820   3.010   0.354   9.311  0.5766 -0.0376 -0.1532
  252TMC3    C5 3821   3.114   0.381   9.395  0.4702  0.1642  0.2112
  252TMC3    C6 3822   3.154   0.506   9.430  0.5373 -0.1627  0.7346
  252TMC3     C 3823   2.822   0.453   9.195 -0.7425 -0.6104  1.3153
  252TMC3     O 3824   2.763   0.560   9.190 -0.4145  0.0112  0.3023
  252TMC3     H 3825   2.968   0.665   9.207 -1.7201 -1.6764 -1.0566
  252TMC3    H1 3826   2.953   0.262   9.309  0.0472  0.2506  1.7335
  252TMC3    H2 3827   3.236   0.522   9.499  1.8251 -0.6646 -0.6780
  252TMC3    C7 3828   3.212   0.280   9.423  0.0962  0.5992  0.0131
  252TMC3    C8 3829   3.109   0.745   9.412 -0.3588 -0.6568  0.7462
  252TMC3    O1 3830   3.298   0.308   9.504  0.1280 -0.1250 -0.1584
  252TMC3    O2 3831   3.013   0.816   9.384  0.3741 -0.4172 -0.2307
  253MPD2     C 3832   3.392   0.514  15.315  0.2187  0.2071 -0.1556
  253MPD2    C1 3833   3.360   0.642  15.329  0.6323  0.1654 -0.2979
  253MPD2    C2 3834   3.339   0.688  15.458  0.2231 -0.4209 -0.6075
  253MPD2    C3 3835   3.344   0.607  15.572 -0.5866  0.0968 -0.7282
  253MPD2    C4 3836   3.374   0.478  15.546 -0.3447 -0.0560 -0.1628
  253MPD2    C5 3837   3.401   0.435  15.418 -0.4160 -0.0072  0.2708
  253MPD2     H 3838   3.319   0.794  15.462  0.5087 -0.4089  0.5864
  253MPD2    H1 3839   3.383   0.410  15.629  0.9429  1.0420  0.5937
  253MPD2    H2 3840   3.422   0.467  15.222  1.6772 -0.6438  0.7368
  253MPD2    H3 3841   3.426   0.332  15.396 -0.8810  0.2013 -1.2600
  253MPD2     N 3842   3.326   0.641  15.698  1.0833 -0.5995  0.2834
  253MPD2    H5 3843   3.343   0.566  15.765 -0.8446 -0.6139  0.7509
  253MPD2    N1 3844   3.354   0.723  15.219  0.0462  0.3946 -0.6659
  253MPD2    H7 3845   3.317   0.817  15.232 -0.5278  0.2612 -1.3711
  254TMC3    C1 3846   3.311   0.780  15.878  0.0442  0.4706 -0.0280
  254TMC3    C2 3847   3.222   0.867  15.943 -0.3496 -0.2128 -0.0710
  254TMC3    C3 3848   3.219   0.861  16.078 -0.4203 -0.1995 -0.0178
  254TMC3    C4 3849   3.397   0.698  15.946 -0.6812  0.4635 -0.4121
  254TMC3    C5 3850   3.408   0.721  16.081 -0.3481  0.4150  0.7475
  254TMC3    C6 3851   3.315   0.796  16.145 -0.1034  0.2469 -0.2541
  254TMC3     C 3852   3.293   0.767  15.741  1.0535 -0.0100 -0.2162
  254TMC3     O 3853   3.253   0.864  15.677 -0.1238  0.5427 -0.6449
  254TMC3     H 3854   3.150   0.926  15.887  1.8804  0.1803 -2.4930
  254TMC3    H1 3855   3.469   0.631  15.899  1.3383  3.7826 -2.0620
  254TMC3    H2 3856   3.310   0.789  16.253 -1.5694  0.7911 -0.2876
  254TMC3    C7 3857   3.479   0.632  16.166  0.1778  0.4949  0.0577
  254TMC3    C8 3858   3.187   0.985  16.147 -0.6026  0.1379 -0.1294
  254TMC3    O1 3859   3.519   0.685  16.266  0.1582 -0.8175 -0.0128
  254TMC3    O2 3860   3.247   1.013  16.248  0.2311  0.7289  0.0491
  255MPD2     C 3861   2.009   2.378  10.215  0.6553 -0.1105 -1.2420
  255MPD2    C1 3862   2.122   2.449  10.244  0.0235  0.3363  0.1004
  255MPD2    C2 3863   2.204   2.398  10.346  0.5468  0.2131  0.1358
  255MPD2    C3 3864   2.181   2.268  10.379  0.6404 -0.0927 -0.1007
  255MPD2    C4 3865   2.063   2.199  10.346  0.1957  0.3874 -0.4317
  255MPD2    C5 3866   1.971   2.263  10.274  0.7068 -0.2208  0.2530
  255MPD2     H 3867   2.289   2.455  10.380  0.1524  0.4541  0.7107
  255MPD2    H1 3868   2.039   2.096  10.368 -0.3395  0.2209 -1.7996
  255MPD2    H2 3869   1.940   2.424  10.146 -0.8486  1.0992  1.0704
  255MPD2    H3 3870   1.874   2.221  10.252  0.5348 -0.5160  1.5938
  255MPD2     N 3871   2.286   2.208  10.445  0.0961 -0.2337  0.1872
  255MPD2    H5 3872   2.364   2.265  10.476 -1.7385  1.6179  1.3460
  255MPD2    N1 3873   2.138   2.573  10.177 -0.3424  0.3891 -0.5892
  255MPD2    H7 3874   2.063   2.598  10.113 -0.9028  1.1842  0.3813
  256TMC3    C1 3875   2.256   2.755  10.092 -0.5503  0.5649 -0.6909
  256TMC3    C2 3876   2.379   2.802  10.062  0.1081  1.2139  0.4385
  256TMC3    C3 3877   2.389   2.904   9.980 -1.4902  0.0733 -0.1245
  256TMC3    C4 3878   2.143   2.825  10.055 -0.3126  0.1097  0.0118
  256TMC3    C5 3879   2.158   2.923   9.962 -0.5090 -0.3543 -0.6407
  256TMC3    C6 3880   2.286   2.963   9.916  0.4111 -0.2356 -0.1264
  256TMC3     C 3881   2.257   2.638  10.176 -0.2297 -0.1205  0.0538
  256TMC3     O 3882   2.366   2.599  10.216  0.4133 -0.2347  0.2903
  256TMC3     H 3883   2.471   2.768  10.108  0.7205  2.1396 -0.0909
  256TMC3    H1 3884   2.040   2.805  10.084  0.3360 -0.0440  2.1926
  256TMC3    H2 3885   2.311   3.031   9.835  3.5442 -0.4309  0.6549
  256TMC3    C7 3886   2.036   3.006   9.938  1.2639  0.1509  0.0120
  256TMC3    C8 3887   2.521   2.919   9.919  0.3898  0.3909  0.4006
  256TMC3    O1 3888   1.930   2.947   9.941  0.5022  0.0521 -0.4050
  256TMC3    O2 3889   2.605   2.833   9.942  0.5198  0.1058  0.0020
  257MPD2     C 3890   1.806   0.909  12.965  0.0788  0.2387  0.0012
  257MPD2    C1 3891   1.736   0.809  12.901  0.7228 -0.0017  0.0545
  257MPD2    C2 3892   1.719   0.686  12.957  0.9988  0.1670  0.5230
  257MPD2    C3 3893   1.756   0.670  13.087  0.0897 -0.5126 -0.4388
  257MPD2    C4 3894   1.824   0.777  13.154 -0.4108  0.6396  0.4746
  257MPD2    C5 3895   1.844   0.895  13.095 -0.2247 -0.5720 -0.5704
  257MPD2     H 3896   1.669   0.608  12.899  2.3829 -0.4677  0.1763
  257MPD2    H1 3897   1.859   0.773  13.256 -1.3342  0.1832  0.7713
  257MPD2    H2 3898   1.824   1.001  12.909  0.3700 -0.5411 -1.1927
  257MPD2    H3 3899   1.900   0.968  13.152 -0.7989  0.2229 -1.0099
  257MPD2     N 3900   1.727   0.541  13.146  0.2257 -0.3390 -0.4577
  257MPD2    H5 3901   1.679   0.475  13.085 -1.3769 -1.5179  2.0952
  257MPD2    N1 3902   1.692   0.842  12.775 -0.0429  0.9632  0.2412
  257MPD2    H7 3903   1.708   0.938  12.745  0.0415  0.7850 -0.2940
  258TMC3    C1 3904   1.701   0.365  13.300 -0.0287 -0.5984 -0.0005
  258TMC3    C2 3905   1.630   0.301  13.200 -0.2426  0.4654  0.3515
  258TMC3    C3 3906   1.572   0.186  13.232 -0.1487 -0.2410  0.4925
  258TMC3    C4 3907   1.699   0.323  13.429 -0.2525 -0.4183 -0.4305
  258TMC3    C5 3908   1.639   0.201  13.445 -0.4122 -0.3394 -0.4480
  258TMC3    C6 3909   1.575   0.133  13.354  0.6455  0.0783  0.0468
  258TMC3     C 3910   1.738   0.510  13.277  0.1546  0.3606  0.4744
  258TMC3     O 3911   1.778   0.585  13.368 -0.0046  0.5191 -0.4087
  258TMC3     H 3912   1.613   0.346  13.103 -0.2658  0.2972  0.2781
  258TMC3    H1 3913   1.718   0.404  13.498 -1.7867 -1.4554  1.1943
  258TMC3    H2 3914   1.542   0.036  13.388  0.6011  0.0339 -0.1241
  258TMC3    C7 3915   1.624   0.158  13.583  0.6831  0.3862 -0.0115
  258TMC3    C8 3916   1.480   0.114  13.137  0.5346  0.2541 -0.4307
  258TMC3    O1 3917   1.519   0.098  13.612 -0.3962  0.1134  0.5372
  258TMC3    O2 3918   1.409   0.022  13.186 -0.2063  0.5246 -0.2495
  259MPD2     C 3919   0.147   2.064   1.331  0.3184  0.3762 -0.1754
  259MPD2    C1 3920   0.218   1.956   1.276  0.5687 -0.5143 -0.5391
  259MPD2    C2 3921   0.291   1.977   1.163 -0.0972  0.4405 -0.1400
  259MPD2    C3 3922   0.291   2.099   1.092 -0.8654  0.8290  0.2213
  259MPD2    C4 3923   0.204   2.200   1.145 -0.5120 -0.3066  0.5287
  259MPD2    C5 3924   0.136   2.181   1.262  0.0132 -0.8589  0.2128
  259MPD2     H 3925   0.355   1.898   1.124 -1.1850 -0.4235 -0.1694
  259MPD2    H1 3926   0.207   2.303   1.109 -0.9356 -0.9860 -1.4557
  259MPD2    H2 3927   0.107   2.053   1.431 -1.5739  1.6540 -0.7904
  259MPD2    H3 3928   0.077   2.260   1.307 -3.0060 -2.2095 -1.3890
  259MPD2     N 3929   0.363   2.119   0.973 -0.3300 -0.0897 -0.8928
  259MPD2    H5 3930   0.428   2.044   0.951 -1.0588 -1.8412  3.0227
  259MPD2    N1 3931   0.210   1.836   1.346  0.0121 -0.3994 -0.5402
  259MPD2    H7 3932   0.169   1.839   1.439  1.8380 -1.0362  0.2774
  260TMC3    C1 3933   0.455   2.210   0.774 -0.9568  0.1589  0.3127
  260TMC3    C2 3934   0.536   2.317   0.742  0.0502 -0.1554 -0.2703
  260TMC3    C3 3935   0.653   2.295   0.672 -0.1703  0.3403 -0.0090
  260TMC3    C4 3936   0.481   2.086   0.743 -0.4149  0.4187 -0.0071
  260TMC3    C5 3937   0.600   2.070   0.678  0.4760  0.3629  0.0717
  260TMC3    C6 3938   0.683   2.165   0.635  1.0472 -0.2551 -0.1602
  260TMC3     C 3939   0.376   2.234   0.895 -0.1446  0.4330 -0.0042
  260TMC3     O 3940   0.346   2.349   0.934  0.1630 -0.3643 -0.4765
  260TMC3     H 3941   0.508   2.409   0.792 -0.0990 -0.6006  0.4690
  260TMC3    H1 3942   0.410   2.006   0.763  1.2303 -1.4217 -1.4633
  260TMC3    H2 3943   0.772   2.136   0.580  2.1725 -0.1637  1.6129
  260TMC3    C7 3944   0.631   1.931   0.632  0.1485 -0.3703  0.5708
  260TMC3    C8 3945   0.729   2.409   0.633 -0.0866  0.2963 -0.6831
  260TMC3    O1 3946   0.695   1.914   0.523 -0.2583  0.1640 -0.3751
  260TMC3    O2 3947   0.680   2.521   0.651  0.5943  0.0913  0.3650
  261MPD2     C 3948   2.348   0.496  11.933 -0.7015 -0.2876 -0.1732
  261MPD2    C1 3949   2.268   0.599  11.985 -0.8243 -0.4986 -0.2591
  261MPD2    C2 3950   2.246   0.711  11.911 -0.8200 -0.0985  0.0893
  261MPD2    C3 3951   2.292   0.714  11.779  0.2330 -0.1221  0.2924
  261MPD2    C4 3952   2.365   0.604  11.730 -0.4280 -0.4987  0.3040
  261MPD2    C5 3953   2.392   0.500  11.808 -0.5043 -1.1797 -0.1684
  261MPD2     H 3954   2.183   0.790  11.949 -1.5685 -0.9821  0.6859
  261MPD2    H1 3955   2.407   0.618  11.631  0.4988 -0.7607  0.6601
  261MPD2    H2 3956   2.368   0.408  11.993 -1.0865  0.6070  1.2765
  261MPD2    H3 3957   2.445   0.414  11.771  1.8912  1.0633 -1.9952
  261MPD2     N 3958   2.266   0.816  11.687  0.0406 -0.0065 -1.1373
  261MPD2    H5 3959   2.305   0.803  11.594  0.6818 -1.9264 -0.6113
  261MPD2    N1 3960   2.224   0.590  12.118  0.4510 -0.6299  0.9079
  261MPD2    H7 3961   2.188   0.671  12.169  1.4371  0.1262  0.4097
  262TMC3    C1 3962   2.226   1.040  11.599 -0.1389  0.5518 -0.6173
  262TMC3    C2 3963   2.163   1.159  11.621  1.2223  0.7690  0.2620
  262TMC3    C3 3964   2.148   1.244  11.511  0.3915 -0.0992  0.1275
  262TMC3    C4 3965   2.261   1.006  11.471 -0.1870  0.4841  0.6452
  262TMC3    C5 3966   2.253   1.091  11.367  0.3429 -0.2059  0.4349
  262TMC3    C6 3967   2.197   1.218  11.383  0.3276  0.0444 -0.4309
  262TMC3     C 3968   2.213   0.939  11.707  0.8739  0.3425  0.5987
  262TMC3     O 3969   2.175   0.974  11.816 -0.1562  0.2081  0.1564
  262TMC3     H 3970   2.129   1.186  11.720 -0.7618  2.0564 -0.7756
  262TMC3    H1 3971   2.304   0.908  11.451  0.8492  1.4841 -2.0608
  262TMC3    H2 3972   2.181   1.278  11.294  0.7915  1.3483  0.3636
  262TMC3    C7 3973   2.288   1.037  11.236 -0.1479 -0.3917  0.4014
  262TMC3    C8 3974   2.062   1.364  11.534  0.2688 -0.1367 -0.4470
  262TMC3    O1 3975   2.305   0.917  11.235  0.1301 -0.1425  0.4186
  262TMC3    O2 3976   2.076   1.463  11.465  0.2571  0.1310  0.0203
  263MPD2     C 3977   2.687   0.124  11.233 -0.5797  0.0443 -0.4236
  263MPD2    C1 3978   2.811   0.172  11.266 -0.2138 -0.9819 -1.0177
  263MPD2    C2 3979   2.864   0.273  11.189 -0.1129  0.2427  0.1014
  263MPD2    C3 3980   2.797   0.322  11.079  0.1192 -0.0454 -0.1194
  263MPD2    C4 3981   2.677   0.259  11.038  0.1379  0.0964  0.6928
  263MPD2    C5 3982   2.617   0.168  11.125 -0.0643  0.1114 -0.2572
  263MPD2     H 3983   2.960   0.315  11.215 -0.4481  0.4353  1.0267
  263MPD2    H1 3984   2.624   0.278  10.946 -0.7619  2.0563  1.6080
  263MPD2    H2 3985   2.629   0.054  11.291 -0.3610  1.3545  1.3673
  263MPD2    H3 3986   2.515   0.138  11.109  0.7071 -1.1952 -2.5685
  263MPD2     N 3987   2.856   0.422  10.998  0.2239  0.2119 -0.8084
  263MPD2    H5 3988   2.939   0.465  11.038  0.7418 -2.3683  0.9465
  263MPD2    N1 3989   2.873   0.117  11.384 -0.3735  0.4919 -0.3318
  263MPD2    H7 3990   2.830   0.040  11.435 -0.5030  0.3297 -0.6842
  264TMC3    C1 3991   2.926   0.528  10.798 -0.5383 -0.7141 -0.2028
  264TMC3    C2 3992   2.947   0.639  10.869  0.5984 -0.3697 -0.0935
  264TMC3    C3 3993   2.962   0.759  10.805  0.4032  0.7793 -0.5038
  264TMC3    C4 3994   2.935   0.531  10.663 -0.2758  0.4467 -0.1634
  264TMC3    C5 3995   2.950   0.650  10.600  0.2837 -0.4577  0.1559
  264TMC3    C6 3996   2.954   0.765  10.669  0.0667  0.1089  0.4631
  264TMC3     C 3997   2.842   0.425  10.863 -0.0229 -0.2088 -0.6020
  264TMC3     O 3998   2.783   0.343  10.786  0.4343  0.6201  0.2978
  264TMC3     H 3999   2.948   0.627  10.976 -1.5908  1.3513  0.1368
  264TMC3    H1 4000   2.928   0.445  10.598 -2.2593  0.8536 -0.5114
  264TMC3    H2 4001   2.974   0.862  10.625 -0.2819 -0.1165 -0.2009
  264TMC3    C7 4002   3.060   0.643  10.500 -0.5784 -0.1111  0.2005
  264TMC3    C8 4003   3.075   0.835  10.851  0.5162  0.5475  0.0512
  264TMC3    O1 4004   3.056   0.549  10.418  0.7182  0.4288  0.5599
  264TMC3    O2 4005   3.151   0.873  10.760  0.6947 -0.0069 -0.1702
  265MPD2     C 4006   1.266   0.529  15.114  0.1178 -0.8001 -0.8237
  265MPD2    C1 4007   1.124   0.530  15.114  0.6121  0.4347 -0.9535
  265MPD2    C2 4008   1.065   0.481  14.998  0.0754 -0.0354  0.5871
  265MPD2    C3 4009   1.142   0.443  14.888  0.1325 -0.1857 -0.0982
  265MPD2    C4 4010   1.278   0.441  14.899 -0.0805  0.1191 -0.0889
  265MPD2    C5 4011   1.340   0.483  15.012  0.4375  0.2398  0.3026
  265MPD2     H 4012   0.956   0.482  14.994  0.0933 -2.4808 -0.8449
  265MPD2    H1 4013   1.340   0.410  14.815  0.2786 -1.0477  0.6041
  265MPD2    H2 4014   1.316   0.567  15.203  2.0053 -1.7772 -1.4782
  265MPD2    H3 4015   1.449   0.487  15.013  0.4706 -0.4651 -0.1566
  265MPD2     N 4016   1.090   0.397  14.768 -0.4089 -0.8381 -0.4502
  265MPD2    H5 4017   1.158   0.351  14.708  1.6078 -0.8386  1.8547
  265MPD2    N1 4018   1.045   0.576  15.221 -0.4428 -0.2499  0.1705
  265MPD2    H7 4019   0.944   0.568  15.210 -0.7025  0.6610  1.9322
  266TMC3    C1 4020   0.989   0.670  15.427  0.0175  0.1274  0.3802
  266TMC3    C2 4021   1.013   0.673  15.564  0.1282 -0.3657 -0.5434
  266TMC3    C3 4022   0.915   0.708  15.648  0.4468 -0.5646  0.3549
  266TMC3    C4 4023   0.865   0.682  15.373 -0.2803  0.2495 -0.3875
  266TMC3    C5 4024   0.766   0.704  15.469 -0.0883 -0.0740  0.1231
  266TMC3    C6 4025   0.786   0.728  15.602 -0.5095  0.2371 -0.0328
  266TMC3     C 4026   1.096   0.631  15.334 -0.3012 -0.5411 -0.5027
  266TMC3     O 4027   1.211   0.657  15.366 -0.6144  0.1407 -0.1438
  266TMC3     H 4028   1.116   0.669  15.597 -0.3172  2.3679  1.1140
  266TMC3    H1 4029   0.844   0.690  15.267 -1.3413 -0.8704 -0.2688
  266TMC3    H2 4030   0.699   0.759  15.658 -0.9846  2.4053 -1.9411
  266TMC3    C7 4031   0.628   0.732  15.423 -0.0834  0.1414 -0.0894
  266TMC3    C8 4032   0.920   0.665  15.783  0.5139  0.0642  0.5174
  266TMC3    O1 4033   0.550   0.796  15.487  0.5096 -0.6174 -0.2984
  266TMC3    O2 4034   1.004   0.577  15.803 -0.8620 -0.0256  0.1097
  267MPD2     C 4035   2.503   2.077   0.007  0.0134  0.2614 -0.1301
  267MPD2    C1 4036   2.567   2.190   0.042 -0.6010  0.2349 -0.3547
  267MPD2    C2 4037   2.525   2.312  17.679  0.5963  0.0460  0.4221
  267MPD2    C3 4038   2.404   2.322  17.602 -0.2924 -0.0433  0.4817
  267MPD2    C4 4039   2.332   2.206  17.586  0.2019  0.0360  0.6143
  267MPD2    C5 4040   2.387   2.096  17.640 -0.6327 -0.4707 -0.2793
  267MPD2     H 4041   2.583   2.401   0.010  1.5805  0.2971 -2.8462
  267MPD2    H1 4042   2.248   2.192  17.520  1.1234  0.5327 -0.6571
  267MPD2    H2 4043   2.534   1.978   0.040  2.4259  1.3273  0.8539
  267MPD2    H3 4044   2.329   2.006  17.626  0.4415 -0.8493 -2.1818
  267MPD2     N 4045   2.368   2.431  17.523 -0.0450 -0.0559 -0.7224
  267MPD2    H5 4046   2.298   2.402  17.455 -0.6153 -0.3453 -0.0009
  267MPD2    N1 4047   2.679   2.177   0.137 -0.0494  0.2471  0.8537
  267MPD2    H7 4048   2.702   2.083   0.167  0.8099  0.1837  0.0116
  268TMC3    C1 4049   2.860   2.252   0.273 -0.2736  0.6589  0.0984
  268TMC3    C2 4050   2.947   2.358   0.273  0.3900  0.2835  0.0498
  268TMC3    C3 4051   2.999   2.401   0.391 -0.3394 -0.0310  0.8804
  268TMC3    C4 4052   2.825   2.190   0.386 -0.2547  0.5408 -0.0794
  268TMC3    C5 4053   2.883   2.233   0.503  0.1854  0.8692  0.0926
  268TMC3    C6 4054   2.971   2.334   0.504  0.0032  0.3056  0.0946
  268TMC3     C 4055   2.744   2.289   0.189  0.6059  0.2422 -0.2781
  268TMC3     O 4056   2.731   2.409   0.170 -0.5086 -0.5521 -0.2386
  268TMC3     H 4057   2.967   2.407   0.179 -2.3638 -0.8727 -1.1617
  268TMC3    H1 4058   2.745   2.116   0.385  0.4120 -0.1606 -2.4323
  268TMC3    H2 4059   3.013   2.365   0.599  0.5532  2.0680 -0.7155
  268TMC3    C7 4060   2.874   2.146   0.616 -0.2556 -0.3072 -0.4077
  268TMC3    C8 4061   3.038   2.536   0.407  0.2585 -0.3499 -0.2041
  268TMC3    O1 4062   2.900   2.025   0.595  0.2859  0.1489  0.0420
  268TMC3    O2 4063   3.104   2.562   0.509 -0.2201 -0.3713 -0.6755
  269MPD2     C 4064   2.722   1.135  15.618 -0.6820 -0.2094 -0.2783
  269MPD2    C1 4065   2.642   1.126  15.510  0.4076  0.2418 -0.1907
  269MPD2    C2 4066   2.609   1.251  15.450 -0.7754 -0.8363  0.4955
  269MPD2    C3 4067   2.666   1.370  15.483 -0.5140 -0.4291 -0.0047
  269MPD2    C4 4068   2.752   1.374  15.594  0.9451  0.0214 -0.9339
  269MPD2    C5 4069   2.774   1.253  15.661 -0.4080  0.0748  0.0739
  269MPD2     H 4070   2.532   1.254  15.374 -1.3785  0.9022  1.1859
  269MPD2    H1 4071   2.809   1.462  15.622 -0.1008  0.9210 -1.6525
  269MPD2    H2 4072   2.739   1.049  15.680  1.6460  0.5458  0.1046
  269MPD2    H3 4073   2.851   1.250  15.737  3.4758  0.7746 -3.7861
  269MPD2     N 4074   2.636   1.488  15.402 -0.3806  0.4577 -0.0787
  269MPD2    H5 4075   2.566   1.484  15.327  0.1708  1.4997 -0.6412
  269MPD2    N1 4076   2.596   1.000  15.472  0.9448  0.8581 -0.2730
  269MPD2    H7 4077   2.620   0.923  15.533 -0.0111 -0.4521 -1.5771
  270TMC3    C1 4078   2.484   0.834  15.366  0.0691 -0.1215  0.2089
  270TMC3    C2 4079   2.375   0.804  15.281 -0.7552 -0.3349 -0.0814
  270TMC3    C3 4080   2.375   0.681  15.216  0.1403  0.5463 -0.2612
  270TMC3    C4 4081   2.595   0.752  15.379  0.1371  0.1009  0.8171
  270TMC3    C5 4082   2.587   0.633  15.311 -0.0486 -0.4596  0.3230
  270TMC3    C6 4083   2.482   0.594  15.231  0.1138  0.5424  0.1474
  270TMC3     C 4084   2.502   0.977  15.376  0.4122  0.7829 -0.4530
  270TMC3     O 4085   2.440   1.054  15.301  0.5145  0.2963 -0.0775
  270TMC3     H 4086   2.300   0.881  15.271 -0.7881 -0.5493 -1.4788
  270TMC3    H1 4087   2.685   0.775  15.435 -0.6795  2.2886  1.2150
  270TMC3    H2 4088   2.471   0.488  15.212  0.0094  0.8398 -1.4380
  270TMC3    C7 4089   2.711   0.555  15.304  0.1774  0.1341 -0.5336
  270TMC3    C8 4090   2.302   0.684  15.082  0.0718 -0.1638  1.0210
  270TMC3    O1 4091   2.787   0.587  15.394  0.3096  0.0266  0.0338
  270TMC3    O2 4092   2.359   0.625  14.992 -0.2283 -0.0615 -0.4841
  271MPD2     C 4093   2.184   1.122  13.490 -0.1790 -0.5710 -0.0099
  271MPD2    C1 4094   2.109   1.016  13.540 -0.3773 -0.4985 -0.3093
  271MPD2    C2 4095   1.975   1.013  13.507 -0.1209 -0.6746  0.7279
  271MPD2    C3 4096   1.922   1.108  13.417  0.3206 -0.0574 -0.4811
  271MPD2    C4 4097   1.991   1.215  13.371 -0.3906 -0.0644  0.0251
  271MPD2    C5 4098   2.127   1.222  13.409 -0.4301 -0.3916  0.1650
  271MPD2     H 4099   1.918   0.932  13.552  1.7538 -1.2495  2.0853
  271MPD2    H1 4100   1.951   1.290  13.305  0.2695 -0.6627 -1.0593
  271MPD2    H2 4101   2.287   1.134  13.520 -0.4620  1.8987 -0.0551
  271MPD2    H3 4102   2.190   1.302  13.371 -0.1126  0.1826  1.9330
  271MPD2     N 4103   1.786   1.103  13.378  0.2045  0.0080 -0.0083
  271MPD2    H5 4104   1.749   1.175  13.316  0.2577 -0.1629 -0.2390
  271MPD2    N1 4105   2.158   0.907  13.609 -0.2558  0.2303 -0.9011
  271MPD2    H7 4106   2.081   0.852  13.644 -0.0196  0.8468  0.6348
  272TMC3    C1 4107   2.309   0.806  13.757  0.3852  0.2515 -0.1310
  272TMC3    C2 4108   2.439   0.802  13.806 -0.0422 -0.0660  0.2574
  272TMC3    C3 4109   2.453   0.764  13.938  0.6062 -0.1938 -0.0011
  272TMC3    C4 4110   2.201   0.768  13.831 -0.1093 -0.4024  0.2476
  272TMC3    C5 4111   2.226   0.727  13.959  0.7054 -0.3527 -0.4620
  272TMC3    C6 4112   2.345   0.732  14.020 -0.0283 -0.0416 -0.3139
  272TMC3     C 4113   2.286   0.896  13.641  0.4276 -0.3354 -0.0878
  272TMC3     O 4114   2.386   0.947  13.590 -0.5762  0.5439 -0.3551
  272TMC3     H 4115   2.528   0.830  13.750 -0.3685 -2.4103 -1.4197
  272TMC3    H1 4116   2.105   0.763  13.782 -0.5949 -0.8064  1.2347
  272TMC3    H2 4117   2.362   0.717  14.126  0.9096 -0.8935 -0.5819
  272TMC3    C7 4118   2.113   0.769  14.036 -0.2445 -0.0156 -0.7620
  272TMC3    C8 4119   2.583   0.743  13.989  0.1866 -0.4538 -0.5180
  272TMC3    O1 4120   2.005   0.749  13.981  0.3333 -0.1647  0.1135
  272TMC3    O2 4121   2.669   0.799  13.926  0.1157 -0.1259 -0.2209
  273MPD2     C 4122   3.505   3.648  11.630  0.1707  0.0845 -0.3777
  273MPD2    C1 4123   3.434   3.579  11.726  0.6359  0.1008 -0.1858
  273MPD2    C2 4124   3.305   3.535  11.699 -0.3681  0.1043 -0.0502
  273MPD2    C3 4125   3.242   3.583  11.584  0.1559  0.7703 -0.1267
  273MPD2    C4 4126   3.312   3.651  11.489 -0.1403 -0.0225 -0.4349
  273MPD2    C5 4127   3.448   3.674  11.511  0.4635  0.6888  0.4191
  273MPD2     H 4128   3.257   3.474  11.774  0.2465  1.7375  1.6567
  273MPD2    H1 4129   3.263   3.674  11.395 -1.8922  0.4503  0.5928
  273MPD2    H2 4130   3.603   3.689  11.652  0.2136  0.0454 -0.4943
  273MPD2    H3 4131   3.507   3.722  11.433  2.6842 -1.2614  0.9013
  273MPD2     N 4132   3.105   3.565  11.561 -0.2820 -0.3830 -0.3382
  273MPD2    H5 4133   3.062   3.623  11.490  0.1207  0.8351  0.4147
  273MPD2    N1 4134   3.503   3.567  11.854 -0.5496 -0.3066  1.2997
  273MPD2    H7 4135   3.579   3.634  11.864  0.0518 -1.1006  2.0292
  274TMC3    C1 4136   2.894   3.581  11.630 -0.0850 -0.0271  0.0899
  274TMC3    C2 4137   2.803   3.543  11.534  0.7024  0.1857  0.0008
  274TMC3    C3 4138   2.732   3.648  11.475  0.2706  0.2906 -0.0625
  274TMC3    C4 4139   2.913   3.715  11.667  0.5659 -0.1821 -0.1301
  274TMC3    C5 4140   2.834   3.816  11.604  0.1009 -0.6137  0.6424
  274TMC3    C6 4141   2.752   3.778  11.500 -0.3320  0.6485  0.0783
  274TMC3     C 4142   3.015   3.507  11.651 -0.3538  0.5137 -0.0829
  274TMC3     O 4143   3.037   3.447  11.754  0.0486 -0.1650 -0.1895
  274TMC3     H 4144   2.775   3.441  11.511 -0.9022  1.2158 -2.6685
  274TMC3    H1 4145   2.989   3.752  11.734  2.8427 -1.9037 -1.7821
  274TMC3    H2 4146   2.672   3.838  11.457  0.2200  0.4474 -1.2545
  274TMC3    C7 4147   2.902   3.939  11.596 -0.0288  0.3429  0.5964
  274TMC3    C8 4148   2.648   3.630  11.363 -0.1196  0.1471  0.2687
  274TMC3    O1 4149   2.929   4.006  11.697 -0.2144  0.3424  0.9265
  274TMC3    O2 4150   2.663   3.702  11.265 -0.3175 -0.3648  0.1057
  275MPD2     C 4151   3.004   2.318  14.588 -0.1356 -0.4580 -0.1284
  275MPD2    C1 4152   3.000   2.185  14.572 -0.5585 -0.8055  0.3783
  275MPD2    C2 4153   2.955   2.128  14.450  0.1101  0.1181  0.0848
  275MPD2    C3 4154   2.897   2.208  14.359 -0.0250 -0.0574  0.2226
  275MPD2    C4 4155   2.901   2.345  14.367 -0.0616  1.4125  0.5924
  275MPD2    C5 4156   2.964   2.398  14.479  0.3473  0.5629  0.3859
  275MPD2     H 4157   2.952   2.019  14.451  1.2792  0.0852 -0.5701
  275MPD2    H1 4158   2.858   2.420  14.303 -0.3501 -1.0700 -2.1076
  275MPD2    H2 4159   3.032   2.368  14.680 -2.9520 -1.2528  1.1732
  275MPD2    H3 4160   2.972   2.506  14.490 -0.8636  0.8722 -1.7762
  275MPD2     N 4161   2.825   2.149  14.251  0.3604  0.5272  0.1614
  275MPD2    H5 4162   2.768   2.213  14.197 -1.5689 -0.4611  1.0174
  275MPD2    N1 4163   3.044   2.099  14.676  0.4961 -0.4904  0.0677
  275MPD2    H7 4164   3.025   2.000  14.665 -0.8186  0.0665 -2.7048
  276TMC3    C1 4165   3.151   2.037  14.877 -0.1272 -0.1641 -0.2750
  276TMC3    C2 4166   3.057   1.954  14.927  1.2157 -1.0461  0.1244
  276TMC3    C3 4167   3.095   1.870  15.035  1.1502 -0.5192  0.1463
  276TMC3    C4 4168   3.279   2.032  14.919  0.7585 -0.4113  0.1115
  276TMC3    C5 4169   3.314   1.939  15.013  0.7568  0.4742  0.5846
  276TMC3    C6 4170   3.225   1.864  15.082  0.3712  0.3353  0.3375
  276TMC3     C 4171   3.118   2.136  14.790 -0.1777  0.6224 -0.5370
  276TMC3     O 4172   3.175   2.243  14.823  0.3021 -0.0829 -0.3704
  276TMC3     H 4173   2.951   1.960  14.905  0.8640  0.1407  2.1519
  276TMC3    H1 4174   3.356   2.100  14.884 -0.1150  2.0456  2.9865
  276TMC3    H2 4175   3.254   1.786  15.152  0.1879 -1.1580 -1.2645
  276TMC3    C7 4176   3.445   1.950  15.073 -0.5662  0.2768  0.2156
  276TMC3    C8 4177   3.003   1.756  15.047  0.3419 -0.2997 -0.1540
  276TMC3    O1 4178   3.444   1.948  15.198 -0.4887  0.4086 -0.1141
  276TMC3    O2 4179   2.885   1.774  15.055 -0.3127 -0.0370  0.1742
  277MPD2     C 4180   0.652   0.443  12.996  0.0993 -1.1300  0.1244
  277MPD2    C1 4181   0.512   0.441  12.980 -0.0418 -0.7765  0.5754
  277MPD2    C2 4182   0.434   0.366  13.069 -0.4331 -0.5691 -0.6457
  277MPD2    C3 4183   0.492   0.286  13.164 -0.3220 -0.2093 -0.2233
  277MPD2    C4 4184   0.636   0.284  13.174  0.4451  0.4141 -1.2342
  277MPD2    C5 4185   0.709   0.367  13.096  0.0532 -0.5647  0.0796
  277MPD2     H 4186   0.328   0.387  13.067 -0.5305 -1.0401 -0.3812
  277MPD2    H1 4187   0.689   0.216  13.239  0.0888  2.4557  1.2126
  277MPD2    H2 4188   0.714   0.497  12.926 -1.0765 -2.7375 -2.1686
  277MPD2    H3 4189   0.817   0.367  13.106  0.2070  0.0755 -1.5160
  277MPD2     N 4190   0.400   0.201  13.236  0.0054 -0.5842  0.9063
  277MPD2    H5 4191   0.299   0.204  13.228  0.1371  3.5676  0.8635
  277MPD2    N1 4192   0.450   0.508  12.871  0.2149 -0.3135 -0.1954
  277MPD2    H7 4193   0.505   0.574  12.817  0.4195 -0.9595 -0.7722
  278TMC3    C1 4194   0.319   0.047  13.382  0.0403  0.4346  0.0889
  278TMC3    C2 4195   0.309   4.633  13.363  0.3156  0.6233 -0.5096
  278TMC3    C3 4196   0.200   4.582  13.300 -0.3558 -0.3790  0.1617
  278TMC3    C4 4197   0.211   0.127  13.353 -0.4706  0.3346  0.2234
  278TMC3    C5 4198   0.103   0.065  13.287  0.4028 -0.9101  0.5534
  278TMC3    C6 4199   0.097   4.657  13.260 -0.1973  0.3067 -0.0694
  278TMC3     C 4200   0.434   0.109  13.334 -0.3830 -0.1812 -0.8103
  278TMC3     O 4201   0.542   0.054  13.357  0.2859 -0.2924 -0.2906
  278TMC3     H 4202   0.401   4.578  13.378  0.1164 -0.1760 -2.2872
  278TMC3    H1 4203   0.218   0.233  13.377 -2.6841 -0.0957  2.7033
  278TMC3    H2 4204   0.018   4.613  13.200 -0.6882 -0.2796  1.0119
  278TMC3    C7 4205   4.714   0.152  13.239 -0.1438  0.4486 -0.1821
  278TMC3    C8 4206   0.216   4.443  13.255  0.6890  0.6701  0.5587
  278TMC3    O1 4207   0.021   0.267  13.193  0.1968  0.3668 -0.1823
  278TMC3    O2 4208   0.266   4.377  13.348 -0.0998 -0.8048  0.6813
  279MPD2     C 4209   4.306   0.020   0.161 -0.0446  0.1034  0.3854
  279MPD2    C1 4210   4.331   0.150   0.196 -0.1101  0.4578 -0.6461
  279MPD2    C2 4211   4.429   0.231   0.137 -0.2182 -0.3477  0.0851
  279MPD2    C3 4212   4.502   0.179   0.035  0.1531 -0.2257 -0.6679
  279MPD2    C4 4213   4.470   0.053  17.685  0.2973  0.7765 -0.1111
  279MPD2    C5 4214   4.374   4.698   0.049  0.7355  0.8370 -0.5279
  279MPD2     H 4215   4.451   0.332   0.170 -0.6252 -0.9623  2.2189
  279MPD2    H1 4216   4.512   0.014  17.593 -0.6951  1.2498 -0.7696
  279MPD2    H2 4217   4.217   4.690   0.193 -1.3828  2.3762  0.3543
  279MPD2    H3 4218   4.350   4.600   0.010  2.1300  0.2777  0.0196
  279MPD2     N 4219   4.595   0.254  17.651  0.6194  0.3890  0.4427
  279MPD2    H5 4220   4.613   0.212  17.560  0.0077  2.3077 -0.5590
  279MPD2    N1 4221   4.233   0.208   0.283  0.3107  0.6749  0.4807
  279MPD2    H7 4222   4.158   0.146   0.310 -0.7168  1.9407  0.5094
  280TMC3    C1 4223   4.102   0.382   0.360 -0.2065  0.6934 -0.1712
  280TMC3    C2 4224   4.013   0.338   0.262 -0.0365 -0.4002 -0.2206
  280TMC3    C3 4225   3.904   0.413   0.237 -0.0113 -0.0963  0.0412
  280TMC3    C4 4226   4.090   0.512   0.402  0.3637  0.1814 -0.5933
  280TMC3    C5 4227   3.988   0.592   0.355  0.6324  0.4708 -0.4503
  280TMC3    C6 4228   3.894   0.546   0.268 -0.1594 -0.7423  0.0740
  280TMC3     C 4229   4.233   0.343   0.318 -0.0660 -0.2846  0.4444
  280TMC3     O 4230   4.325   0.419   0.322 -0.1842  0.0681 -0.2394
  280TMC3     H 4231   4.005   0.234   0.232  1.3544 -0.5832  0.0238
  280TMC3    H1 4232   4.173   0.554   0.457 -0.2160  0.6525 -0.0865
  280TMC3    H2 4233   3.815   0.604   0.223  2.2436  1.0995 -1.7934
  280TMC3    C7 4234   3.979   0.726   0.415  0.5172  0.3662 -0.2591
  280TMC3    C8 4235   3.808   0.362   0.136 -0.0403 -0.0941  0.2196
  280TMC3    O1 4236   4.016   0.743   0.529 -0.3683  0.0480  0.0816
  280TMC3    O2 4237   3.743   0.449   0.077 -0.0624  0.1179 -0.4797
  281TMC3    C1 4238   3.247   1.531  13.339  0.1533  0.2045  0.3087
  281TMC3    C2 4239   3.330   1.508  13.238 -0.3757 -0.1247 -0.4015
  281TMC3    C3 4240   3.358   1.380  13.217 -0.2769  0.2272  0.1324
  281TMC3    C4 4241   3.191   1.438  13.416 -0.1595 -1.3883 -0.0049
  281TMC3    C5 4242   3.232   1.305  13.399  0.4084  0.8304 -0.2990
  281TMC3    C6 4243   3.325   1.280  13.301  0.1085 -0.0770 -0.0591
  281TMC3     C 4244   3.193   1.672  13.342  0.1644  0.2680  0.4797
  281TMC3     O 4245   3.165   1.711  13.456  0.5799  0.0412 -0.3880
  281TMC3     H 4246   3.369   1.586  13.172  2.2450 -1.2850 -0.2417
  281TMC3    H1 4247   3.105   1.475  13.470  0.0263  0.5989 -1.0555
  281TMC3    H2 4248   3.356   1.180  13.273  0.0336  0.7044 -2.9993
  281TMC3    C7 4249   3.122   1.216  13.406  0.1615  0.2476  1.4567
  281TMC3    C8 4250   3.443   1.341  13.109  0.5312  0.1792 -0.0621
  281TMC3    O1 4251   3.005   1.264  13.410 -0.1593  0.1480  0.5780
  281TMC3    O2 4252   3.541   1.274  13.135 -0.0624  0.1281 -0.8591
  282MPD2     C 4253   0.068   2.484  15.169  0.3046  0.6252 -0.4491
  282MPD2    C1 4254   4.656   2.491  15.177 -0.0456 -0.3887 -0.0630
  282MPD2    C2 4255   4.573   2.467  15.072 -0.1042  0.1596  0.1830
  282MPD2    C3 4256   4.638   2.439  14.947  0.1082 -0.1278 -0.2295
  282MPD2    C4 4257   0.052   2.422  14.945  0.4818 -0.5570  0.1149
  282MPD2    C5 4258   0.126   2.442  15.058  1.0055 -0.2124 -0.1298
  282MPD2     H 4259   4.470   2.492  15.093 -0.7109 -1.4061 -0.9502
  282MPD2    H1 4260   0.100   2.381  14.858 -0.8923 -1.7820 -0.0712
  282MPD2    H2 4261   0.134   2.491  15.255  0.4139  0.9352 -0.5613
  282MPD2    H3 4262   0.233   2.425  15.063  1.1448  1.1696  1.5720
  282MPD2     N 4263   4.566   2.441  14.823 -0.1416  0.0195 -0.0995
  282MPD2    H5 4264   4.467   2.463  14.826  0.0337  0.9054 -0.8089
  282MPD2    N1 4265   4.593   2.532  15.298  0.0084 -0.2765  0.1733
  282MPD2    H7 4266   4.492   2.531  15.307 -0.0606  0.5064 -0.4962
  283TMC3    C1 4267   4.566   2.625  15.499 -0.4179  0.4492 -0.1743
  283TMC3    C2 4268   4.605   2.736  15.576  0.1259 -0.0456 -0.2842
  283TMC3    C3 4269   4.535   2.746  15.691 -0.1723  0.4241  0.0128
  283TMC3    C4 4270   4.477   2.533  15.537  0.7532  0.1453  0.0188
  283TMC3    C5 4271   4.423   2.546  15.658  0.0489 -0.2876 -0.0097
  283TMC3    C6 4272   4.460   2.651  15.738 -1.0083  0.7782  0.3190
  283TMC3     C 4273   4.659   2.603  15.393 -0.0840  0.8168  0.2474
  283TMC3     O 4274   0.045   2.651  15.405 -0.3740 -0.3575  0.5623
  283TMC3     H 4275   4.677   2.811  15.544  0.4280  0.2043  0.9992
  283TMC3    H1 4276   4.466   2.439  15.484  3.2570 -0.1537  0.0322
  283TMC3    H2 4277   4.412   2.653  15.836  1.9081 -2.0911  1.7882
  283TMC3    C7 4278   4.355   2.434  15.733  0.2208  0.2570 -0.8513
  283TMC3    C8 4279   4.519   2.884  15.751 -0.3704 -0.1457  0.6527
  283TMC3    O1 4280   4.346   2.439  15.857 -0.0392 -0.1892  0.4409
  283TMC3    O2 4281   4.511   2.896  15.871  0.5026  0.8740 -0.3629
  284MPD2     C 4282   2.872   1.740  11.423 -0.1038  0.4431  0.3272
  284MPD2    C1 4283   2.988   1.713  11.362 -0.0072  0.4301 -0.0170
  284MPD2    C2 4284   3.054   1.595  11.393  0.9350 -0.2782  0.1627
  284MPD2    C3 4285   3.006   1.509  11.492 -0.2927  0.0258 -0.3656
  284MPD2    C4 4286   2.884   1.533  11.540 -0.3637  0.5287  0.4126
  284MPD2    C5 4287   2.821   1.641  11.510  0.0253 -0.9931  0.1677
  284MPD2     H 4288   3.151   1.585  11.347  0.8290 -1.3915  0.1930
  284MPD2    H1 4289   2.832   1.463  11.605  0.0709 -0.4112 -0.2482
  284MPD2    H2 4290   2.821   1.834  11.405 -1.6014 -0.6193 -0.9108
  284MPD2    H3 4291   2.731   1.666  11.565 -2.0573 -3.5492 -2.0268
  284MPD2     N 4292   3.083   1.404  11.550  0.6077 -0.5943 -0.7432
  284MPD2    H5 4293   3.055   1.355  11.635  2.2749  2.5291  1.5700
  284MPD2    N1 4294   3.061   1.811  11.284 -0.3722  0.0059  0.3444
  284MPD2    H7 4295   3.155   1.784  11.258 -0.5896  1.5959 -2.0721
  285TMC3    C1 4296   3.132   2.007  11.181  0.0408 -0.4903  0.7475
  285TMC3    C2 4297   3.228   1.921  11.128 -1.0170  0.1420  0.1728
  285TMC3    C3 4298   3.357   1.957  11.130 -0.2403  0.3587  1.2088
  285TMC3    C4 4299   3.162   2.125  11.232  0.0912 -0.0089  0.8577
  285TMC3    C5 4300   3.295   2.159  11.232 -0.5838  0.1257 -0.1072
  285TMC3    C6 4301   3.397   2.072  11.194  0.1615  0.0722 -0.2151
  285TMC3     C 4302   3.027   1.940  11.252 -0.1756 -0.0437  0.7533
  285TMC3     O 4303   2.917   1.997  11.261 -0.6759  0.0107  0.1418
  285TMC3     H 4304   3.199   1.826  11.086 -0.8630  0.6890 -1.1525
  285TMC3    H1 4305   3.081   2.176  11.282  0.9550  1.0930  1.1255
  285TMC3    H2 4306   3.496   2.094  11.231 -0.1384 -1.5680  1.5456
  285TMC3    C7 4307   3.334   2.293  11.287  0.6632  0.2390 -0.5792
  285TMC3    C8 4308   3.456   1.860  11.094  0.3474  0.5999  0.3853
  285TMC3    O1 4309   3.454   2.324  11.270 -0.5757 -0.2681 -0.2468
  285TMC3    O2 4310   3.408   1.747  11.089 -0.0077  0.4488  0.0477
  286MPD2     C 4311   3.074   0.299   1.973  0.6641  0.0167 -0.2828
  286MPD2    C1 4312   3.070   0.263   1.844 -0.6945  0.4168  0.6796
  286MPD2    C2 4313   3.189   0.208   1.785  0.5746 -0.7831 -0.1729
  286MPD2    C3 4314   3.302   0.176   1.865 -0.1159  0.4281  0.4305
  286MPD2    C4 4315   3.298   0.218   1.996 -0.7698  0.4211  0.1933
  286MPD2    C5 4316   3.187   0.283   2.048 -0.7885  0.9169  0.3968
  286MPD2     H 4317   3.188   0.197   1.677  1.7065  0.6644 -0.3313
  286MPD2    H1 4318   3.377   0.200   2.068 -0.0463  0.0152 -0.7047
  286MPD2    H2 4319   2.985   0.350   2.008  1.1141 -0.8874  2.1780
  286MPD2    H3 4320   3.186   0.315   2.151 -0.5173  0.3510  0.5783
  286MPD2     N 4321   3.421   0.112   1.825 -0.2100  0.0379  0.0338
  286MPD2    H5 4322   3.493   0.116   1.895 -0.9703 -1.9940  0.9246
  286MPD2    N1 4323   2.966   0.291   1.753  0.0062 -0.3120  0.8284
  286MPD2    H7 4324   2.977   0.245   1.664  0.9996  2.0321 -0.2788
  287TMC3    C1 4325   3.550   4.715   1.680  0.1320  0.0261 -0.2555
  287TMC3    C2 4326   3.566   4.644   1.561 -0.3996  0.2754 -0.2460
  287TMC3    C3 4327   3.690   4.580   1.544 -0.2051 -0.2018  0.7893
  287TMC3    C4 4328   3.645   4.711   1.786  0.2577 -0.0090 -0.2309
  287TMC3    C5 4329   3.754   4.631   1.764  0.2773 -0.5710  0.1731
  287TMC3    C6 4330   3.781   4.574   1.642  0.2197 -0.1223 -0.0641
  287TMC3     C 4331   3.430   0.065   1.700  0.2297  0.2729  0.0667
  287TMC3     O 4332   3.355   0.055   1.609  0.0904  0.5481  0.3172
  287TMC3     H 4333   3.489   4.635   1.485 -1.9019 -1.0815  1.4484
  287TMC3    H1 4334   3.652   0.054   1.872  0.8807  0.0987 -0.3598
  287TMC3    H2 4335   3.872   4.519   1.620  1.4241  1.3936  1.0855
  287TMC3    C7 4336   3.873   4.649   1.846 -0.1937  0.1882 -0.0396
  287TMC3    C8 4337   3.711   4.527   1.408 -0.2687 -0.0814  0.1820
  287TMC3    O1 4338   3.891   0.035   1.901  0.7162  0.6458  0.3819
  287TMC3    O2 4339   3.809   4.453   1.404 -0.7367 -0.3562 -0.2861
  288TMC3    C1 4340   0.147   0.134  14.240 -0.4122 -0.4958 -0.0072
  288TMC3    C2 4341   0.086   0.083  14.353  0.3307 -0.3947  0.1823
  288TMC3    C3 4342   0.140   0.111  14.482  0.4585 -0.1927 -0.3532
  288TMC3    C4 4343   0.244   0.227  14.252  0.0170  0.4143  0.3144
  288TMC3    C5 4344   0.287   0.268  14.376 -0.1902 -0.1898  0.7632
  288TMC3    C6 4345   0.240   0.212  14.494  0.3366 -0.4301 -0.4860
  288TMC3     C 4346   0.138   0.044  14.124 -1.0052 -0.0340 -0.2979
  288TMC3     O 4347   0.078   4.659  14.126 -0.0738  0.2087 -0.2137
  288TMC3     H 4348   0.034   4.712  14.341  1.2637 -0.8175 -0.5266
  288TMC3    H1 4349   0.283   0.285  14.169  1.8492 -0.7035  0.3778
  288TMC3    H2 4350   0.269   0.241  14.595 -1.8075  2.4360 -0.7117
  288TMC3    C7 4351   0.382   0.375  14.378 -0.7179  1.0659 -0.3951
  288TMC3    C8 4352   0.083   0.059  14.601  0.7499 -0.0397  0.0244
  288TMC3    O1 4353   0.417   0.429  14.274  0.1324 -0.4507 -0.0884
  288TMC3    O2 4354   0.157   0.047  14.693  0.1101  0.3255  0.6044
  289MPD2     C 4355   0.516   4.247  14.732 -0.3727 -0.1110 -0.0450
  289MPD2    C1 4356   0.511   4.236  14.601 -0.4783  0.1859  0.4851
  289MPD2    C2 4357   0.405   4.165  14.547  0.2231  0.2738 -0.2746
  289MPD2    C3 4358   0.305   4.107  14.621 -0.7353  0.3385  0.3942
  289MPD2    C4 4359   0.316   4.109  14.755  0.0135  0.2861  0.2306
  289MPD2    C5 4360   0.420   4.183  14.809  0.0322 -0.2803 -0.2180
  289MPD2     H 4361   0.400   4.156  14.439 -3.7919  0.6532 -0.1118
  289MPD2    H1 4362   0.250   4.057  14.823 -0.3036  2.5985  1.6930
  289MPD2    H2 4363   0.592   4.304  14.784 -1.9287  0.1693  1.9501
  289MPD2    H3 4364   0.434   4.189  14.916  3.9180  1.4016 -0.8405
  289MPD2     N 4365   0.187   4.062  14.563 -0.5879  0.3060 -0.0941
  289MPD2    H5 4366   0.132   4.009  14.631 -0.0269  1.2568  1.0935
  289MPD2    N1 4367   0.608   4.308  14.524 -0.0477  0.0531 -0.4322
  289MPD2    H7 4368   0.681   4.349  14.582 -0.5118 -0.1394  0.2965
  290TMC3    C1 4369   0.009   4.037  14.416 -0.6102 -0.0379 -0.0177
  290TMC3    C2 4370   4.662   4.141  14.358 -0.3797 -0.2311 -0.3600
  290TMC3    C3 4371   4.536   4.168  14.387 -0.1366 -1.1652 -0.4774
  290TMC3    C4 4372   4.658   3.955  14.498 -0.5178 -0.7875  0.0822
  290TMC3    C5 4373   4.525   3.980  14.511  0.6688 -0.1666  0.0444
  290TMC3    C6 4374   4.456   4.087  14.461  0.2157  0.6390 -0.1442
  290TMC3     C 4375   0.154   4.061  14.432 -0.7467 -0.1839 -0.0424
  290TMC3     O 4376   0.204   4.103  14.329  0.2979  0.7148  0.0569
  290TMC3     H 4377   4.722   4.216  14.308 -0.6432  0.1819 -0.0563
  290TMC3    H1 4378   4.702   3.866  14.542 -0.5573 -0.4535  0.7996
  290TMC3    H2 4379   4.361   4.128  14.492 -0.1051 -0.0656 -0.2094
  290TMC3    C7 4380   4.435   3.870  14.542  0.5691  0.1664 -0.1739
  290TMC3    C8 4381   4.473   4.284  14.331  0.4761  0.1869  0.1009
  290TMC3    O1 4382   4.495   3.776  14.591 -0.4554 -0.3067 -0.4171
  290TMC3    O2 4383   4.403   4.351  14.404  0.1404 -0.3830 -0.2345
  291MPD2     C 4384   4.227   3.691   0.582 -0.6382  0.5347  0.0188
  291MPD2    C1 4385   4.307   3.610   0.506 -0.2180  0.3095 -0.1702
  291MPD2    C2 4386   4.436   3.640   0.470  0.4277  0.0763 -0.0080
  291MPD2    C3 4387   4.487   3.762   0.499 -0.3726 -0.1258 -0.8606
  291MPD2    C4 4388   4.405   3.848   0.573 -1.3693 -0.7278 -0.0468
  291MPD2    C5 4389   4.278   3.816   0.610 -0.7694 -0.6623  0.0219
  291MPD2     H 4390   4.483   3.570   0.402 -1.6872 -1.1919 -0.1668
  291MPD2    H1 4391   4.442   3.945   0.606 -0.0507 -1.6058  1.0620
  291MPD2    H2 4392   4.122   3.678   0.605 -1.0418  0.2706 -1.9339
  291MPD2    H3 4393   4.213   3.883   0.666 -0.9977  0.6644 -1.8480
  291MPD2     N 4394   4.615   3.812   0.464  0.0221  0.0588 -0.4468
  291MPD2    H5 4395   4.640   3.905   0.496  2.9574 -0.7865 -0.2754
  291MPD2    N1 4396   4.262   3.483   0.452  0.5727  0.5283 -0.8803
  291MPD2    H7 4397   4.310   3.441   0.373  1.2178  0.8156 -0.6438
  292TMC3    C1 4398   4.125   3.296   0.424 -0.1000  0.0387  0.2666
  292TMC3    C2 4399   3.992   3.271   0.399  0.0998  0.4688  0.3311
  292TMC3    C3 4400   3.956   3.192   0.293 -0.7318 -0.2412 -0.9155
  292TMC3    C4 4401   4.225   3.226   0.360 -0.1046 -0.4048 -0.0353
  292TMC3    C5 4402   4.189   3.138   0.272  0.1918 -0.3637  0.3189
  292TMC3    C6 4403   4.057   3.130   0.229 -0.6162 -0.1821  0.6874
  292TMC3     C 4404   4.157   3.416   0.503 -0.2595 -0.3185  0.2235
  292TMC3     O 4405   4.084   3.441   0.596 -0.4674  0.1110 -0.4042
  292TMC3     H 4406   3.918   3.332   0.449 -1.4708 -1.3678  0.2327
  292TMC3    H1 4407   4.326   3.235   0.400 -0.1418  0.4856 -0.1401
  292TMC3    H2 4408   4.032   3.078   0.136  1.3949  0.1307 -0.0250
  292TMC3    C7 4409   4.285   3.037   0.222 -0.2622  0.8394  0.4508
  292TMC3    C8 4410   3.819   3.160   0.269 -1.0248  0.7178  0.2327
  292TMC3    O1 4411   4.271   3.009   0.100  0.0212  0.2570 -0.2287
  292TMC3    O2 4412   3.740   3.241   0.310 -0.3324 -0.7041  0.0870
  293MPD2     C 4413   1.857   0.723  12.161  0.6191 -0.4866 -1.1152
  293MPD2    C1 4414   1.795   0.632  12.236 -0.4232  0.1902  0.3794
  293MPD2    C2 4415   1.840   0.622  12.364 -0.5645 -0.0744 -0.0077
  293MPD2    C3 4416   1.936   0.710  12.419  0.0239  0.4506  0.5958
  293MPD2    C4 4417   2.003   0.793  12.331 -0.6249 -0.1645 -0.0064
  293MPD2    C5 4418   1.965   0.791  12.200  0.1558 -0.1633 -0.2656
  293MPD2     H 4419   1.789   0.560  12.437 -0.1602 -0.7315 -0.2788
  293MPD2    H1 4420   2.093   0.846  12.362 -0.1838 -1.0780  0.2674
  293MPD2    H2 4421   1.842   0.716  12.054 -0.9947  0.5167 -0.9562
  293MPD2    H3 4422   2.022   0.848  12.126 -2.5256 -1.4639 -3.3453
  293MPD2     N 4423   1.970   0.713  12.555 -0.2225 -0.7457 -0.4852
  293MPD2    H5 4424   1.921   0.647  12.616 -0.7467 -1.1725 -1.3689
  293MPD2    N1 4425   1.685   0.567  12.177 -0.2681  0.5986 -0.0479
  293MPD2    H7 4426   1.664   0.584  12.079 -0.5933 -1.6779 -0.3668
  294TMC3    C1 4427   1.508   0.413  12.164 -0.1969 -0.2537 -0.5466
  294TMC3    C2 4428   1.395   0.373  12.223 -0.0699  0.8427 -0.0556
  294TMC3    C3 4429   1.321   0.268  12.178 -0.2892 -0.5384  0.5683
  294TMC3    C4 4430   1.561   0.337  12.058  0.4713 -0.1335 -0.1501
  294TMC3    C5 4431   1.487   0.228  12.021 -0.0386  0.5768 -0.7907
  294TMC3    C6 4432   1.365   0.196  12.068  0.9635 -0.6763  0.4191
  294TMC3     C 4433   1.600   0.489  12.246  0.3666  0.6614  0.4359
  294TMC3     O 4434   1.587   0.488  12.368 -0.0948 -0.0305  0.1481
  294TMC3     H 4435   1.364   0.428  12.311 -0.4396 -0.3915  0.5764
  294TMC3    H1 4436   1.652   0.364  12.007 -0.9411  1.4628 -1.8230
  294TMC3    H2 4437   1.299   0.117  12.033  0.3266 -0.7467  1.7843
  294TMC3    C7 4438   1.525   0.136  11.914 -0.0737 -0.0891 -0.3882
  294TMC3    C8 4439   1.193   0.236  12.249  0.2987 -0.4953 -0.1157
  294TMC3    O1 4440   1.483   0.018  11.923  0.6832  0.1858 -0.7156
  294TMC3    O2 4441   1.191   0.280  12.362 -0.3760 -0.3443  0.0207
  295MPD2     C 4442   2.851   3.800   0.750 -0.0640 -0.3629  0.4751
  295MPD2    C1 4443   2.715   3.807   0.745  0.3208  0.5384  0.8098
  295MPD2    C2 4444   2.645   3.757   0.849  0.1847 -0.5296  0.5208
  295MPD2    C3 4445   2.701   3.711   0.969 -0.4085 -0.3591  0.9268
  295MPD2    C4 4446   2.836   3.695   0.966 -0.4443  0.6485 -0.5662
  295MPD2    C5 4447   2.911   3.747   0.864 -0.0915  1.0065 -0.0936
  295MPD2     H 4448   2.537   3.755   0.843  0.2508 -0.4322 -0.7068
  295MPD2    H1 4449   2.894   3.664   1.052  1.2671  0.4348 -1.7721
  295MPD2    H2 4450   2.908   3.829   0.662  1.0499 -2.2625  0.5805
  295MPD2    H3 4451   3.019   3.737   0.861  0.0444  2.4220  0.1181
  295MPD2     N 4452   2.634   3.674   1.089  0.0042  0.2776  0.6000
  295MPD2    H5 4453   2.684   3.656   1.176 -0.1214 -2.0009  0.2056
  295MPD2    N1 4454   2.657   3.858   0.632 -0.7172 -0.2656 -0.1621
  295MPD2    H7 4455   2.724   3.905   0.572 -0.6497  0.5263  0.5373
  296TMC3    C1 4456   2.470   3.684   1.248  0.2829  0.5535  0.0049
  296TMC3    C2 4457   2.488   3.812   1.297 -0.0679 -0.6308 -0.2141
  296TMC3    C3 4458   2.387   3.863   1.370 -0.3858  0.3739  0.6204
  296TMC3    C4 4459   2.363   3.612   1.293 -0.9284  0.0712 -0.0897
  296TMC3    C5 4460   2.266   3.668   1.371 -0.0340  0.2979  0.2065
  296TMC3    C6 4461   2.272   3.798   1.411  0.2529 -0.2020  0.3810
  296TMC3     C 4462   2.499   3.688   1.105 -0.6550 -0.4348  0.5687
  296TMC3     O 4463   2.416   3.725   1.026  0.1884  0.1253  0.1067
  296TMC3     H 4464   2.565   3.877   1.258  1.0147 -3.1938 -2.3762
  296TMC3    H1 4465   2.365   3.508   1.264  1.8541 -0.4161  1.8383
  296TMC3    H2 4466   2.193   3.840   1.473 -0.2849  0.4896 -0.7691
  296TMC3    C7 4467   2.156   3.591   1.427 -1.5098  0.2222 -0.3583
  296TMC3    C8 4468   2.380   4.009   1.384  0.3437 -0.3640 -0.2661
  296TMC3    O1 4469   2.085   3.651   1.509  0.4259  0.2077 -0.5905
  296TMC3    O2 4470   2.488   4.065   1.395  0.0885  0.0369 -0.2161
  297MPD2     C 4471   4.004   1.255  16.444  0.2412 -0.5083  0.3212
  297MPD2    C1 4472   3.946   1.370  16.403  0.4763  0.0504  0.6428
  297MPD2    C2 4473   4.032   1.476  16.369 -0.4772 -0.4016  0.1080
  297MPD2    C3 4474   4.169   1.461  16.367 -0.2710 -0.0625  0.6147
  297MPD2    C4 4475   4.223   1.349  16.420 -0.0399  0.4807  0.2519
  297MPD2    C5 4476   4.139   1.251  16.465  0.0916 -0.5948 -0.8248
  297MPD2     H 4477   3.986   1.569  16.338 -1.6321 -0.5038  1.5065
  297MPD2    H1 4478   4.328   1.323  16.420 -0.6677 -2.0759  4.0406
  297MPD2    H2 4479   3.950   1.162  16.460  0.5434 -0.2014  3.0624
  297MPD2    H3 4480   4.174   1.157  16.506  1.3296 -0.6243 -1.9553
  297MPD2     N 4481   4.241   1.572  16.319 -0.1680  0.1056  0.1420
  297MPD2    H5 4482   4.183   1.650  16.289  1.4215  1.1090 -0.3390
  297MPD2    N1 4483   3.812   1.381  16.370  0.2352  0.2466  0.4489
  297MPD2    H7 4484   3.771   1.472  16.350  0.3543  0.7265  2.4427
  298TMC3    C1 4485   3.596   1.333  16.308 -0.0333 -0.0805  0.4658
  298TMC3    C2 4486   3.535   1.263  16.206 -0.7376 -0.0948 -0.2975
  298TMC3    C3 4487   3.417   1.324  16.152  0.1623 -0.2047 -0.3271
  298TMC3    C4 4488   3.555   1.454  16.352  0.4315  0.0837  0.1015
  298TMC3    C5 4489   3.440   1.505  16.300 -0.3288 -0.0392  0.7761
  298TMC3    C6 4490   3.371   1.447  16.196  0.5607  0.4006  0.1569
  298TMC3     C 4491   3.729   1.275  16.347  0.9393 -0.0976  0.6660
  298TMC3     O 4492   3.760   1.155  16.334  0.2788  0.7020  0.0869
  298TMC3     H 4493   3.558   1.161  16.177 -1.7053 -0.9678  1.9684
  298TMC3    H1 4494   3.606   1.509  16.430  0.1702  0.7486 -0.1940
  298TMC3    H2 4495   3.278   1.495  16.167  1.9777  2.8422 -0.4220
  298TMC3    C7 4496   3.393   1.624  16.360  0.9754  0.5706  0.0235
  298TMC3    C8 4497   3.374   1.267  16.022 -0.3488 -0.0346  0.0588
  298TMC3    O1 4498   3.438   1.656  16.469  0.5404 -0.1284 -0.2756
  298TMC3    O2 4499   3.414   1.155  15.990 -0.2516 -0.6260  0.1795
  299MPD2     C 4500   0.310   0.259  10.194 -0.4427  0.2642  0.1724
  299MPD2    C1 4501   0.245   0.308  10.085 -0.3277 -0.3084 -0.1000
  299MPD2    C2 4502   0.111   0.292  10.079 -0.0522 -0.2012 -0.5079
  299MPD2    C3 4503   0.031   0.230  10.175  0.6633  0.2361  0.3358
  299MPD2    C4 4504   0.097   0.178  10.282 -0.7703  0.6183  0.0947
  299MPD2    C5 4505   0.235   0.197  10.291 -0.2473  0.4874  0.9183
  299MPD2     H 4506   0.058   0.334   9.993 -1.3008 -0.3978  0.1619
  299MPD2    H1 4507   0.049   0.135  10.369 -2.9451  1.1424 -0.8495
  299MPD2    H2 4508   0.416   0.268  10.214 -0.5855 -2.6898  2.4088
  299MPD2    H3 4509   0.283   0.153  10.377 -0.7600 -0.2411  0.8309
  299MPD2     N 4510   4.614   0.239  10.187  0.2002  0.4083  0.3136
  299MPD2    H5 4511   4.569   0.231  10.277  2.1189 -1.2497  1.1268
  299MPD2    N1 4512   0.319   0.388   9.991 -0.3050  0.4438 -0.0975
  299MPD2    H7 4513   0.418   0.398  10.010 -0.6435  0.9249  1.4323
  300TMC3    C1 4514   4.394   0.335  10.118  0.0434 -0.6030  0.1641
  300TMC3    C2 4515   4.325   0.374  10.008 -0.2329 -0.2472  0.0703
  300TMC3    C3 4516   4.220   0.464  10.026  0.1742 -0.3767  0.2825
  300TMC3    C4 4517   4.365   0.359  10.247  1.0368 -1.5260 -0.8033
  300TMC3    C5 4518   4.258   0.449  10.259 -0.0159 -0.1195 -0.6257
  300TMC3    C6 4519   4.189   0.506  10.154 -0.1791 -0.8557  0.5363
  300TMC3     C 4520   4.528   0.283  10.088  1.6208  0.3337  0.2772
  300TMC3     O 4521   4.557   0.271   9.969 -0.0666  0.5602  0.2620
  300TMC3     H 4522   4.363   0.353   9.909 -0.2988  1.4288 -0.3098
  300TMC3    H1 4523   4.412   0.315  10.334  1.7864 -0.4769 -0.6765
  300TMC3    H2 4524   4.104   0.571  10.171  1.0534  0.5592  1.1770
  300TMC3    C7 4525   4.208   0.462  10.387 -0.4015 -1.1716  0.5339
  300TMC3    C8 4526   4.176   0.545   9.915  0.1122 -0.0577  0.1957
  300TMC3    O1 4527   4.221   0.359  10.456  0.3706  0.3233 -0.5979
  300TMC3    O2 4528   4.163   0.505   9.803 -0.0299  0.7129 -0.3109
  301MPD2     C 4529   2.487   1.549   1.330 -0.5284 -0.2818 -0.4465
  301MPD2    C1 4530   2.353   1.536   1.319 -0.2604  0.2648  0.0458
  301MPD2    C2 4531   2.309   1.411   1.284 -0.3653  0.3057  0.4534
  301MPD2    C3 4532   2.403   1.308   1.258  0.2722  0.2184  1.1236
  301MPD2    C4 4533   2.532   1.332   1.290 -0.2434  0.3141  0.4799
  301MPD2    C5 4534   2.577   1.453   1.308  0.2259  0.0729  0.1065
  301MPD2     H 4535   2.203   1.399   1.267  0.0532  0.3676 -2.2324
  301MPD2    H1 4536   2.605   1.254   1.267 -2.8984 -1.4205 -2.0797
  301MPD2    H2 4537   2.541   1.642   1.342  0.9350 -1.1284 -0.4578
  301MPD2    H3 4538   2.682   1.472   1.326 -0.9420  2.6257  4.2205
  301MPD2     N 4539   2.368   1.179   1.201 -0.3859  0.0604 -0.1847
  301MPD2    H5 4540   2.443   1.115   1.178  0.5275  1.1777 -0.2684
  301MPD2    N1 4541   2.259   1.642   1.318 -0.1116  0.0293 -0.1963
  301MPD2    H7 4542   2.173   1.630   1.265  0.5272 -2.9964 -0.5588
  302TMC3    C1 4543   2.245   0.998   1.109 -0.4538  0.1151  0.2200
  302TMC3    C2 4544   2.352   0.911   1.138  0.4879  0.5948 -0.0431
  302TMC3    C3 4545   2.330   0.778   1.114 -0.5785  1.0715 -0.3787
  302TMC3    C4 4546   2.125   0.951   1.056 -0.2362  0.3697  0.2874
  302TMC3    C5 4547   2.106   0.816   1.023  0.1978  0.4717 -0.5577
  302TMC3    C6 4548   2.217   0.734   1.050 -0.0280  0.7687  0.7096
  302TMC3     C 4549   2.243   1.132   1.163 -0.3250  1.0620 -0.0668
  302TMC3     O 4550   2.135   1.186   1.168 -0.4048 -0.5298  0.2425
  302TMC3     H 4551   2.441   0.946   1.189  2.1401 -2.2805 -0.9301
  302TMC3    H1 4552   2.036   1.012   1.047 -0.1205  0.4199 -0.4808
  302TMC3    H2 4553   2.206   0.627   1.039 -0.5615  0.9239 -0.2412
  302TMC3    C7 4554   2.076   0.805   0.878  0.5776  0.4447  0.1536
  302TMC3    C8 4555   2.449   0.707   1.085 -0.7539  0.3053  0.4901
  302TMC3    O1 4556   2.123   0.705   0.829  0.4523 -0.8421 -0.3398
  302TMC3    O2 4557   2.552   0.773   1.079  0.4809 -0.3404  0.0980
  303MPD2     C 4558   2.561   4.504   9.664  0.4276 -0.0717  0.1260
  303MPD2    C1 4559   2.440   4.444   9.694 -0.8198 -0.6033 -0.1231
  303MPD2    C2 4560   2.421   4.314   9.658  0.0646 -0.7393  0.9096
  303MPD2    C3 4561   2.527   4.234   9.609 -0.4811 -0.1004 -0.4073
  303MPD2    C4 4562   2.650   4.295   9.597  0.0217 -0.6664 -0.6444
  303MPD2    C5 4563   2.665   4.433   9.618 -0.2946 -0.0103  0.9383
  303MPD2     H 4564   2.318   4.279   9.667  0.0633 -1.2290 -0.9157
  303MPD2    H1 4565   2.740   4.242   9.568  1.4694  2.3467 -1.6608
  303MPD2    H2 4566   2.577   4.609   9.685 -0.1563  0.2215 -0.8661
  303MPD2    H3 4567   2.761   4.483   9.615  0.6496 -1.8254  0.8396
  303MPD2     N 4568   2.503   4.107   9.558  0.0625  0.2684 -0.4513
  303MPD2    H5 4569   2.579   4.058   9.511  0.4632  0.9293 -0.4952
  303MPD2    N1 4570   2.334   4.522   9.749  0.7855 -0.6173 -0.3516
  303MPD2    H7 4571   2.345   4.622   9.739  1.8557 -0.6812  0.1590
  304TMC3    C1 4572   2.133   4.584   9.848  0.0552 -0.8717 -0.1082
  304TMC3    C2 4573   2.076   4.654   9.740  0.0054  0.0054 -0.2033
  304TMC3    C3 4574   1.942   4.682   9.742  0.3822  0.9124  0.4945
  304TMC3    C4 4575   2.063   4.556   9.958 -0.2105 -0.0254  0.6434
  304TMC3    C5 4576   1.926   4.596   9.961  0.2499  0.1675  0.2752
  304TMC3    C6 4577   1.871   4.670   9.862  0.9363  0.7191 -1.1465
  304TMC3     C 4578   2.223   4.474   9.820  0.7316 -0.3262 -0.4411
  304TMC3     O 4579   2.196   4.360   9.856 -0.0347 -0.2139 -0.6062
  304TMC3     H 4580   2.136   4.681   9.653  0.5630 -1.7203 -0.3608
  304TMC3    H1 4581   2.102   4.505  10.046 -1.1282 -0.4352  0.8131
  304TMC3    H2 4582   1.767   4.702   9.865  0.8370  0.5370 -2.4304
  304TMC3    C7 4583   1.839   4.513  10.031  0.4192 -0.3884  0.4445
  304TMC3    C8 4584   1.874   4.624   9.627 -0.4421  0.0987  0.3636
  304TMC3    O1 4585   1.730   4.504   9.984 -0.0508  0.2096  0.2623
  304TMC3    O2 4586   1.940   4.608   9.524  0.4373 -0.0561  0.3020
  305MPD2     C 4587   4.718   2.739  13.772  0.3929  0.0657  0.7321
  305MPD2    C1 4588   0.059   2.615  13.794 -0.8837  0.0832 -0.4377
  305MPD2    C2 4589   0.097   2.543  13.687  0.5554  1.2477 -0.5906
  305MPD2    C3 4590   0.056   2.580  13.557  0.2809 -0.4015  0.3275
  305MPD2    C4 4591   4.712   2.699  13.533  0.0803  0.4545  0.1119
  305MPD2    C5 4592   4.675   2.771  13.647  0.1195  0.1935 -0.1849
  305MPD2     H 4593   0.160   2.455  13.688 -0.0096  0.8450 -0.1898
  305MPD2    H1 4594   4.689   2.742  13.435  0.9374 -0.5112 -0.5075
  305MPD2    H2 4595   4.695   2.798  13.860 -1.2663 -0.9011  0.9306
  305MPD2    H3 4596   4.616   2.859  13.629  0.4713  0.6715  0.9808
  305MPD2     N 4597   0.108   2.514  13.442 -0.1850 -0.7762  0.3548
  305MPD2    H5 4598   0.087   2.561  13.355 -0.1972 -0.7827  0.3542
  305MPD2    N1 4599   0.086   2.583  13.931 -0.4132 -1.0703 -0.3094
  305MPD2    H7 4600   0.053   2.647  14.002 -0.3131 -1.0065 -0.3200
  306TMC3    C1 4601   0.152   2.483  14.128 -0.2079 -0.3495 -0.6594
  306TMC3    C2 4602   0.210   2.382  14.195  0.5563 -0.0207 -0.4735
  306TMC3    C3 4603   0.200   2.386  14.335  0.0290  0.5646 -0.1750
  306TMC3    C4 4604   0.079   2.590  14.190 -0.0792 -0.6689 -0.2527
  306TMC3    C5 4605   0.072   2.585  14.328 -0.6477 -0.1621  0.6877
  306TMC3    C6 4606   0.138   2.483  14.401 -0.1813 -0.2169 -0.4416
  306TMC3     C 4607   0.149   2.470  13.984 -0.2514 -0.3393 -0.4555
  306TMC3     O 4608   0.199   2.376  13.931 -0.3549 -0.2308 -0.0251
  306TMC3     H 4609   0.263   2.308  14.136  0.5370 -0.3362 -0.0851
  306TMC3    H1 4610   0.021   2.668  14.144 -0.8367 -1.2759 -0.3166
  306TMC3    H2 4611   0.137   2.495  14.509 -0.3780 -0.2282 -0.4421
  306TMC3    C7 4612   4.701   2.672  14.395  0.1038  0.2430 -0.1332
  306TMC3    C8 4613   0.264   2.278  14.407 -0.3806  1.2310  0.5609
  306TMC3    O1 4614   4.591   2.691  14.345 -0.1957  0.1909 -0.3683
  306TMC3    O2 4615   0.344   2.214  14.340 -0.3336  0.1393 -0.7406
  307MPD2     C 4616   2.861   4.149   0.918  0.3645  0.3213 -0.3029
  307MPD2    C1 4617   2.840   4.288   0.891  0.3700  0.2803 -0.6309
  307MPD2    C2 4618   2.725   4.346   0.944  0.1159  0.4993  0.7840
  307MPD2    C3 4619   2.621   4.270   0.993 -0.2885 -0.4257  0.2692
  307MPD2    C4 4620   2.644   4.137   1.020 -0.0337 -0.1068  0.8073
  307MPD2    C5 4621   2.765   4.078   0.986  0.1752 -0.4076 -0.4561
  307MPD2     H 4622   2.705   4.448   0.914  0.1350 -0.0667 -1.1731
  307MPD2    H1 4623   2.568   4.070   1.057 -1.1183 -0.3205 -1.7843
  307MPD2    H2 4624   2.950   4.099   0.881  0.2422  0.2268 -0.4678
  307MPD2    H3 4625   2.774   3.972   1.007 -2.3048 -0.7847 -1.3727
  307MPD2     N 4626   2.491   4.322   1.008  0.1546  0.0103 -0.6150
  307MPD2    H5 4627   2.491   4.423   0.996 -0.3906 -0.0467 -1.1282
  307MPD2    N1 4628   2.925   4.369   0.801 -0.0040  0.1594  0.4063
  307MPD2    H7 4629   2.905   4.468   0.796 -0.0587  0.1478  0.3901
  308TMC3    C1 4630   2.051   4.376   0.917 -0.6550  0.0843  0.8127
  308TMC3    C2 4631   2.053   4.501   0.974 -0.2041  0.5696 -0.5538
  308TMC3    C3 4632   2.168   4.541   1.041 -0.1350 -0.4547  0.1354
  308TMC3    C4 4633   2.157   4.286   0.939  0.2331  0.0013  0.1557
  308TMC3    C5 4634   2.264   4.338   1.006 -0.4359  0.3042 -0.2313
  308TMC3    C6 4635   2.284   4.465   1.046  0.5291  0.2590 -0.6813
  308TMC3     C 4636   1.963   4.343   0.811 -0.3601  0.0193 -0.7937
  308TMC3     O 4637   1.946   4.222   0.779 -0.6522  0.0437 -0.1481
  308TMC3     H 4638   1.960   4.556   0.967  0.8410  2.3735 -0.2091
  308TMC3    H1 4639   2.155   4.184   0.905  0.5492 -0.2330  0.8363
  308TMC3    H2 4640   2.363   4.504   1.108  1.0566  1.6396 -2.2301
  308TMC3    C7 4641   2.377   4.250   0.999  0.3288  0.6067 -0.0124
  308TMC3    C8 4642   2.198   4.689   1.043 -0.0062 -0.4100 -0.0753
  308TMC3    O1 4643   2.369   4.128   0.982 -0.0424 -0.2765  0.6496
  308TMC3    O2 4644   2.307   0.005   1.020  0.6993 -0.2932 -0.1060
  309MPD2     C 4645   2.198   1.219  16.898 -0.0717 -0.0098  0.0904
  309MPD2    C1 4646   2.134   1.153  16.791 -0.9774  0.0747  0.9679
  309MPD2    C2 4647   2.000   1.133  16.805 -0.3391 -0.2427  0.6961
  309MPD2    C3 4648   1.927   1.168  16.921 -0.0344  0.5692  0.4887
  309MPD2    C4 4649   1.989   1.244  17.024 -0.2069 -0.0268 -0.0589
  309MPD2    C5 4650   2.120   1.278  16.997 -0.0234  0.0845  0.0176
  309MPD2     H 4651   1.955   1.070  16.729  0.0312 -0.4394  0.6401
  309MPD2    H1 4652   1.944   1.265  17.121 -0.8130  1.4387 -0.6551
  309MPD2    H2 4653   2.301   1.252  16.887 -0.2660  0.9676  1.1359
  309MPD2    H3 4654   2.177   1.347  17.059  0.7849  0.6838 -1.3849
  309MPD2     N 4655   1.801   1.112  16.946 -0.0118 -0.1028  0.1009
  309MPD2    H5 4656   1.762   1.147  17.033  1.1504  0.9807  0.1839
  309MPD2    N1 4657   2.188   1.100  16.671 -0.3396 -0.2950  0.3900
  309MPD2    H7 4658   2.121   1.080  16.597 -0.8662 -1.2462  1.1323
  310TMC3    C1 4659   2.356   1.002  16.538  0.4900 -0.4621  0.2658
  310TMC3    C2 4660   2.282   1.017  16.431 -0.4166  0.2190  0.1148
  310TMC3    C3 4661   2.318   0.966  16.311  0.5848  0.2791 -0.2332
  310TMC3    C4 4662   2.471   0.927  16.531 -0.7317  0.6199  0.3622
  310TMC3    C5 4663   2.503   0.867  16.413 -0.1799 -0.2689 -0.3568
  310TMC3    C6 4664   2.424   0.883  16.302  0.0100 -0.7537  0.4854
  310TMC3     C 4665   2.323   1.084  16.654  0.1657  0.5976  0.0307
  310TMC3     O 4666   2.411   1.087  16.738  0.0243 -0.0896 -0.0333
  310TMC3     H 4667   2.196   1.083  16.435  0.3165  1.1926 -0.0146
  310TMC3    H1 4668   2.540   0.933  16.614  0.4180 -1.1370 -0.4567
  310TMC3    H2 4669   2.463   0.837  16.211  1.6914  0.1102  0.7663
  310TMC3    C7 4670   2.616   0.785  16.429  0.7476  0.4245  0.7763
  310TMC3    C8 4671   2.252   1.002  16.189  0.4639 -0.1114 -0.5897
  310TMC3    O1 4672   2.622   0.736  16.542 -0.1602  0.0865 -0.2965
  310TMC3    O2 4673   2.137   1.042  16.212  0.7285  0.0720  0.3787
  311MPD2     C 4674   4.021   1.865  12.630  0.2196 -0.0711 -0.2696
  311MPD2    C1 4675   3.976   1.989  12.653 -0.5768 -0.4910  0.0510
  311MPD2    C2 4676   3.851   2.006  12.710  0.2211  0.0260 -0.2822
  311MPD2    C3 4677   3.773   1.904  12.751 -0.1655  0.1899 -0.4685
  311MPD2    C4 4678   3.821   1.777  12.720  0.0949  0.1514 -0.1081
  311MPD2    C5 4679   3.946   1.755  12.670  0.3588 -0.0943  0.2822
  311MPD2     H 4680   3.823   2.110  12.726 -1.0730  0.0198 -2.5292
  311MPD2    H1 4681   3.752   1.695  12.741 -1.3974  0.7325 -2.7625
  311MPD2    H2 4682   4.118   1.854  12.582 -0.8842  0.0523 -2.5163
  311MPD2    H3 4683   3.978   1.654  12.649  1.9794  0.8034 -1.6313
  311MPD2     N 4684   3.653   1.941  12.819  0.1658 -0.8872  0.0341
  311MPD2    H5 4685   3.628   2.037  12.841 -0.9588 -0.5441 -2.6966
  311MPD2    N1 4686   4.054   2.102  12.632  0.2345 -0.4116  0.4275
  311MPD2    H7 4687   3.999   2.186  12.641 -0.4419 -0.6951 -1.1422
  312TMC3    C1 4688   3.441   1.943  12.849  0.2985  0.0240  0.6254
  312TMC3    C2 4689   3.332   1.963  12.765  0.0785  0.0637  0.4343
  312TMC3    C3 4690   3.233   2.033  12.820 -0.1138 -0.5571  0.3209
  312TMC3    C4 4691   3.439   1.972  12.982 -0.2548 -0.0560 -0.4050
  312TMC3    C5 4692   3.332   2.047  13.031 -0.0698  0.0703  0.5237
  312TMC3    C6 4693   3.229   2.078  12.947 -0.1155 -0.7624  0.2002
  312TMC3     C 4694   3.547   1.864  12.801  0.3919  0.2763 -0.5675
  312TMC3     O 4695   3.532   1.790  12.708 -0.1577  0.0723 -0.2119
  312TMC3     H 4696   3.334   1.935  12.661 -0.4303  0.7672  0.2305
  312TMC3    H1 4697   3.530   1.962  13.041 -0.1373  0.3052 -0.5255
  312TMC3    H2 4698   3.146   2.132  12.993 -0.4586 -1.7768  0.7609
  312TMC3    C7 4699   3.348   2.108  13.158 -0.6783  0.3304  0.2809
  312TMC3    C8 4700   3.113   2.055  12.735 -0.4582  0.0049  1.2477
  312TMC3    O1 4701   3.290   2.216  13.164 -0.0169 -0.0600 -0.2386
  312TMC3    O2 4702   3.096   1.977  12.638 -0.2446 -1.2609 -0.0952
  313MPD2     C 4703   3.150   1.439  10.047 -0.9320  0.6728  0.3922
  313MPD2    C1 4704   3.160   1.349  10.161 -0.4981  0.3214  0.5383
  313MPD2    C2 4705   3.140   1.216  10.135  0.1223 -0.2345 -0.0311
  313MPD2    C3 4706   3.092   1.167  10.008 -0.0599  0.2327  0.4653
  313MPD2    C4 4707   3.089   1.255   9.898  0.1716  0.1691  0.3201
  313MPD2    C5 4708   3.117   1.390   9.924 -0.0693  0.0226  0.8592
  313MPD2     H 4709   3.142   1.148  10.220 -1.7003 -1.2089 -0.7765
  313MPD2    H1 4710   3.077   1.234   9.792 -0.4834 -0.4150  0.5096
  313MPD2    H2 4711   3.180   1.543  10.051 -0.3451  0.4508  1.6592
  313MPD2    H3 4712   3.109   1.468   9.850 -0.3574 -1.6240 -0.8406
  313MPD2     N 4713   3.064   1.026   9.997 -0.6908 -0.6950  0.5138
  313MPD2    H5 4714   3.072   0.968  10.079  0.5877 -0.7010  0.3749
  313MPD2    N1 4715   3.188   1.385  10.291 -0.3621 -0.3403 -0.4113
  313MPD2    H7 4716   3.173   1.324  10.371  1.3871  0.4875  0.5622
  314TMC3    C1 4717   3.259   1.530  10.472  0.2550  0.6446  0.2091
  314TMC3    C2 4718   3.316   1.653  10.499 -0.0668  0.1058  0.6455
  314TMC3    C3 4719   3.419   1.646  10.584  0.4204  0.0627  0.4683
  314TMC3    C4 4720   3.296   1.417  10.535  0.0313 -1.0026  0.3751
  314TMC3    C5 4721   3.401   1.421  10.623  0.4992 -0.3320  0.1071
  314TMC3    C6 4722   3.467   1.536  10.641  0.3522  0.3426  0.0874
  314TMC3     C 4723   3.200   1.515  10.339 -0.6217 -0.1251  0.4297
  314TMC3     O 4724   3.193   1.618  10.273 -0.0275 -0.0803  0.1694
  314TMC3     H 4725   3.283   1.750  10.462 -1.0579 -0.7724 -0.7429
  314TMC3    H1 4726   3.237   1.326  10.529 -1.5096 -0.0173  0.3615
  314TMC3    H2 4727   3.545   1.538  10.716 -0.4612 -2.2971  1.0309
  314TMC3    C7 4728   3.481   1.305  10.618  0.4096 -0.6195 -0.6531
  314TMC3    C8 4729   3.500   1.768  10.578  0.7296  0.5251 -0.1544
  314TMC3    O1 4730   3.500   1.246  10.723 -0.1835 -0.0234 -0.4192
  314TMC3    O2 4731   3.444   1.875  10.565  0.2831  0.1981  0.2297
  315MPD2     C 4732   3.144   0.873  17.450 -1.0187 -0.6678  0.0082
  315MPD2    C1 4733   3.234   0.859  17.545  0.1182 -0.1600  0.7732
  315MPD2    C2 4734   3.327   0.955  17.567 -0.3326 -1.1246  0.6294
  315MPD2    C3 4735   3.312   1.080  17.508  0.1352 -0.2863 -0.4718
  315MPD2    C4 4736   3.216   1.096  17.405  0.6954 -0.6087  0.3660
  315MPD2    C5 4737   3.140   0.987  17.377  0.0389 -0.1923  0.3176
  315MPD2     H 4738   3.401   0.938  17.644 -0.9052 -2.7981  0.8168
  315MPD2    H1 4739   3.229   1.174  17.331 -0.0308 -2.9485 -2.2251
  315MPD2    H2 4740   3.083   0.787  17.427 -1.2116 -0.9223  1.4422
  315MPD2    H3 4741   3.068   0.988  17.296  1.6654 -0.3319 -1.1438
  315MPD2     N 4742   3.401   1.178  17.550  0.2818  0.3509  0.2869
  315MPD2    H5 4743   3.475   1.144  17.610  1.8750 -0.8543 -2.3592
  315MPD2    N1 4744   3.254   0.736  17.610  0.0618  0.2208 -0.0622
  315MPD2    H7 4745   3.313   0.743  17.692  0.4882 -1.6412 -0.2108
  316TMC3    C1 4746   3.496   1.397  17.581  0.6163  0.0246 -0.3446
  316TMC3    C2 4747   3.582   1.334  17.665  0.3373 -0.1829  0.8305
  316TMC3    C3 4748   3.698   1.402   0.008  0.3608 -0.7965  0.6079
  316TMC3    C4 4749   3.523   1.512  17.519  0.3987 -0.1753 -0.2033
  316TMC3    C5 4750   3.632   1.583  17.563 -1.1659  0.2670  0.8112
  316TMC3    C6 4751   3.720   1.528  17.652  0.3824 -0.2117 -0.3937
  316TMC3     C 4752   3.391   1.314  17.526  0.5763 -0.8262  0.0107
  316TMC3     O 4753   3.312   1.364  17.449 -0.4461  0.2834 -0.5297
  316TMC3     H 4754   3.550   1.242   0.020 -0.2773 -1.0081 -1.1067
  316TMC3    H1 4755   3.445   1.554  17.457 -1.0233 -0.1029  1.6371
  316TMC3    H2 4756   3.811   1.572  17.692  0.4738  1.3697 -2.3740
  316TMC3    C7 4757   3.620   1.724  17.564 -0.7226 -0.5136 -0.0485
  316TMC3    C8 4758   3.773   1.357   0.131  0.4556 -0.7021 -0.3750
  316TMC3    O1 4759   3.709   1.774  17.631 -0.1179 -0.5516  0.3824
  316TMC3    O2 4760   3.833   1.442   0.198 -0.0350 -0.0275  0.4306
  317MPD2     C 4761   0.160   3.910  12.505 -0.3632  0.4648 -0.0489
  317MPD2    C1 4762   0.276   3.838  12.526  0.2180  0.0569  0.0222
  317MPD2    C2 4763   0.302   3.791  12.649 -0.0084 -0.4066  0.1079
  317MPD2    C3 4764   0.224   3.823  12.760  0.2669  0.7891 -0.1143
  317MPD2    C4 4765   0.111   3.898  12.741 -0.4707  0.0632  0.3138
  317MPD2    C5 4766   0.080   3.936  12.613  0.2973 -0.0256 -0.2031
  317MPD2     H 4767   0.388   3.727  12.662  0.9080  0.1821 -2.9307
  317MPD2    H1 4768   0.054   3.924  12.829 -0.1947 -0.8271  0.7539
  317MPD2    H2 4769   0.116   3.931  12.408 -0.9062  0.7856  0.2659
  317MPD2    H3 4770   4.708   3.984  12.591  0.3717  1.4370  2.6670
  317MPD2     N 4771   0.269   3.759  12.878  0.0015 -0.3894  0.7697
  317MPD2    H5 4772   0.360   3.716  12.884  0.3777  0.6988  3.2018
  317MPD2    N1 4773   0.356   3.786  12.422  0.1699  0.1475  0.3741
  317MPD2    H7 4774   0.419   3.708  12.441 -1.0347 -0.8285  0.3624
  318TMC3    C1 4775   0.267   3.650  13.077 -0.3629 -0.5452  0.4908
  318TMC3    C2 4776   0.203   3.549  13.140 -0.3006  0.3748  0.1486
  318TMC3    C3 4777   0.252   3.499  13.260 -0.5190  0.9355 -0.0460
  318TMC3    C4 4778   0.390   3.691  13.119  0.7350  0.5198 -0.0204
  318TMC3    C5 4779   0.448   3.619  13.223 -0.3453 -0.9358  0.2467
  318TMC3    C6 4780   0.375   3.531  13.296 -0.1092 -0.0464 -0.2648
  318TMC3     C 4781   0.189   3.725  12.982 -0.1861  0.0651  0.0497
  318TMC3     O 4782   0.070   3.750  13.005 -0.6691  0.0930  0.0014
  318TMC3     H 4783   0.112   3.514  13.093 -0.1696  0.5227 -0.2171
  318TMC3    H1 4784   0.447   3.768  13.069  1.1747  0.7125  0.7795
  318TMC3    H2 4785   0.419   3.503  13.391  1.8591  0.6966 -0.9611
  318TMC3    C7 4786   0.569   3.680  13.277 -0.3232 -0.1541 -1.2969
  318TMC3    C8 4787   0.185   3.398  13.331  0.7381 -0.7594 -0.3765
  318TMC3    O1 4788   0.627   3.761  13.209  0.5299 -0.1343 -0.0630
  318TMC3    O2 4789   0.247   3.323  13.402  0.4672 -0.8459 -0.0222
  319MPD2     C 4790   2.039   0.760  16.495  0.5500  0.2313 -0.3221
  319MPD2    C1 4791   1.962   0.713  16.602 -0.1869  0.1818  0.7718
  319MPD2    C2 4792   1.825   0.689  16.588  0.5287 -0.2156  0.2696
  319MPD2    C3 4793   1.769   0.700  16.470  0.6450 -0.3590  0.0224
  319MPD2    C4 4794   1.848   0.737  16.358  0.5749 -0.3746 -0.1357
  319MPD2    C5 4795   1.980   0.770  16.369  0.0493  0.0448 -0.4807
  319MPD2     H 4796   1.759   0.659  16.669  3.6311  0.2124  2.9722
  319MPD2    H1 4797   1.802   0.752  16.261  0.1341 -1.1127 -0.0404
  319MPD2    H2 4798   2.141   0.797  16.499  1.2059 -1.6453  0.0797
  319MPD2    H3 4799   2.024   0.803  16.276 -0.7735 -0.8746 -1.1977
  319MPD2     N 4800   1.634   0.661  16.438  0.1240  0.2006 -0.3994
  319MPD2    H5 4801   1.615   0.661  16.338 -0.7619 -0.3442 -0.2288
  319MPD2    N1 4802   2.012   0.694  16.730  0.0815 -0.0268  0.4207
  319MPD2    H7 4803   1.954   0.680  16.812 -2.7091 -2.2605 -1.9255
  320TMC3    C1 4804   1.424   0.569  16.451 -0.4798 -0.1197  0.7604
  320TMC3    C2 4805   1.367   0.673  16.384 -0.0360  0.7502  0.7560
  320TMC3    C3 4806   1.234   0.660  16.369 -0.1883  0.1797  0.2986
  320TMC3    C4 4807   1.354   0.469  16.509  0.0122 -0.6601  0.0005
  320TMC3    C5 4808   1.216   0.477  16.513  0.5319 -0.0954  0.1045
  320TMC3    C6 4809   1.158   0.590  16.454 -0.8200 -0.1988 -0.8046
  320TMC3     C 4810   1.552   0.593  16.519  0.6179  0.0728 -0.5350
  320TMC3     O 4811   1.558   0.570  16.640 -0.3545  0.2490  0.2790
  320TMC3     H 4812   1.420   0.758  16.342 -2.1974  2.5215  1.6306
  320TMC3    H1 4813   1.397   0.386  16.563 -1.3327 -0.9565  0.6109
  320TMC3    H2 4814   1.050   0.600  16.450 -0.8530 -1.2839 -2.3341
  320TMC3    C7 4815   1.154   0.349  16.477 -0.0049  0.2993 -0.2405
  320TMC3    C8 4816   1.159   0.773  16.331 -0.6098 -0.0252  0.1067
  320TMC3    O1 4817   1.205   0.293  16.382 -0.4361  0.2248  0.3432
  320TMC3    O2 4818   1.094   0.841  16.408 -0.0374  0.6762 -0.2714
  321TMC3    C1 4819   2.150   0.747  16.909  0.5918 -0.0009  0.0737
  321TMC3    C2 4820   2.043   0.687  16.973 -0.1475  0.1496 -0.6246
  321TMC3    C3 4821   2.017   0.733  17.098  0.2621  1.0162  0.6067
  321TMC3    C4 4822   2.218   0.858  16.954  0.1976 -0.1376  0.0361
  321TMC3    C5 4823   2.173   0.913  17.075 -0.0766 -0.3505  0.4673
  321TMC3    C6 4824   2.072   0.847  17.140  0.1943  0.4941  0.0620
  321TMC3     C 4825   2.145   0.711  16.763 -0.1056  0.4906 -0.6067
  321TMC3     O 4826   2.245   0.738  16.699 -0.4338 -0.3764 -0.3758
  321TMC3     H 4827   2.014   0.585  16.951 -0.1090  0.3282 -1.4912
  321TMC3    H1 4828   2.289   0.907  16.888  1.1659 -0.2607  0.9835
  321TMC3    H2 4829   2.034   0.884  17.234 -0.4637  0.5177 -0.2133
  321TMC3    C7 4830   2.272   0.957  17.167 -0.4248 -0.3374  0.3930
  321TMC3    C8 4831   2.023   0.637  17.209  0.2606 -1.0668  0.0675
  321TMC3    O1 4832   2.322   1.068  17.159  0.3079 -0.3597 -0.2229
  321TMC3    O2 4833   2.086   0.672  17.310 -0.3269  0.3194 -0.3960
  322MPD2     C 4834   4.711   1.452  12.917 -0.4302  0.5076 -0.6783
  322MPD2    C1 4835   0.039   1.409  13.042 -0.2660  0.0627 -0.6471
  322MPD2    C2 4836   0.098   1.286  13.055 -0.1506 -0.4339  0.3594
  322MPD2    C3 4837   0.109   1.201  12.948 -0.1804 -0.9201 -0.5492
  322MPD2    C4 4838   0.060   1.238  12.827 -0.4153 -0.8603  1.1241
  322MPD2    C5 4839   0.000   1.364  12.818 -0.3767  0.5174 -0.3558
  322MPD2     H 4840   0.143   1.241  13.142  0.6752 -1.1148 -0.4135
  322MPD2    H1 4841   0.074   1.170  12.743 -2.2526  2.1924 -1.6031
  322MPD2    H2 4842   4.676   1.552  12.894  0.3695  0.7940 -0.6170
  322MPD2    H3 4843   4.680   1.393  12.723 -0.3743  0.2328 -0.4448
  322MPD2     N 4844   0.194   1.092  12.964  0.2541  0.4193 -0.3815
  322MPD2    H5 4845   0.225   1.067  13.057  0.5973 -0.6432 -0.7812
  322MPD2    N1 4846   0.028   1.505  13.144 -0.4107  0.1813 -0.1436
  322MPD2    H7 4847   4.715   1.596  13.116  3.0968  1.6385  0.0773
  323TMC3    C1 4848   0.067   1.582  13.367  0.9584  0.1399  0.0036
  323TMC3    C2 4849   0.139   1.688  13.314 -0.9335 -0.2935 -0.3248
  323TMC3    C3 4850   0.206   1.766  13.401  0.2756 -0.4714 -0.0505
  323TMC3    C4 4851   0.090   1.551  13.497 -0.6045  0.0421 -0.1652
  323TMC3    C5 4852   0.156   1.630  13.581  0.7181  0.0692  0.3421
  323TMC3    C6 4853   0.214   1.747  13.535  0.3650 -0.1540 -0.3554
  323TMC3     C 4854   0.041   1.466  13.280  0.3215  0.2382 -0.6140
  323TMC3     O 4855   0.059   1.354  13.333  0.4710 -0.0113 -0.3691
  323TMC3     H 4856   0.127   1.709  13.208 -0.1660 -1.6327 -0.6729
  323TMC3    H1 4857   0.035   1.465  13.533  0.7818 -0.3109  1.0992
  323TMC3    H2 4858   0.258   1.817  13.606  2.1538 -1.5405 -0.0958
  323TMC3    C7 4859   0.214   1.575  13.711 -0.2107  0.2859 -0.4810
  323TMC3    C8 4860   0.279   1.881  13.347  0.0311 -0.5669 -0.6758
  323TMC3    O1 4861   0.235   1.454  13.706  0.7212 -0.2022  0.5317
  323TMC3    O2 4862   0.307   1.957  13.436 -0.2086  0.0945 -0.2271
  324MPD2     C 4863   1.549   2.434  14.008  0.5076 -0.0846 -0.2622
  324MPD2    C1 4864   1.579   2.565  13.962 -0.1227  0.0196 -0.1838
  324MPD2    C2 4865   1.480   2.655  13.968 -0.2704  0.4838  0.4141
  324MPD2    C3 4866   1.351   2.616  14.008 -0.5071  0.6943  1.2541
  324MPD2    C4 4867   1.321   2.491  14.047  0.5985 -0.2690 -1.0256
  324MPD2    C5 4868   1.427   2.403  14.051 -0.3478  0.3748 -0.1853
  324MPD2     H 4869   1.503   2.760  13.952 -0.6049  0.2155 -1.8431
  324MPD2    H1 4870   1.222   2.460  14.079  0.6764 -2.0238 -2.5603
  324MPD2    H2 4871   1.617   2.350  14.013  0.8368  0.3634  2.7543
  324MPD2    H3 4872   1.416   2.299  14.078 -1.6149  1.0687  1.9624
  324MPD2     N 4873   1.252   2.716  14.031 -0.6202 -0.2033  0.2753
  324MPD2    H5 4874   1.166   2.674  14.064 -2.4097  1.6046 -2.0843
  324MPD2    N1 4875   1.710   2.596  13.916 -0.2255  0.4044 -0.1735
  324MPD2    H7 4876   1.728   2.690  13.884 -1.8337  1.5565  2.2628
  325TMC3    C1 4877   1.143   2.921  14.051 -0.3452  0.3080 -0.7540
  325TMC3    C2 4878   1.075   2.871  14.160  0.1962  0.5604 -0.5719
  325TMC3    C3 4879   0.967   2.944  14.202  0.4403  0.4513  0.2177
  325TMC3    C4 4880   1.115   3.040  13.991  0.2997  0.3642 -0.2334
  325TMC3    C5 4881   1.008   3.117  14.040  0.5022  0.3674  0.3657
  325TMC3    C6 4882   0.931   3.060  14.133  0.0936 -0.1576 -0.2803
  325TMC3     C 4883   1.260   2.852  14.011  0.2517 -0.1658  0.3044
  325TMC3     O 4884   1.337   2.909  13.938  0.5719  0.2858 -0.0527
  325TMC3     H 4885   1.112   2.783  14.211  1.3957  1.1058 -0.5202
  325TMC3    H1 4886   1.170   3.070  13.903  0.6314 -0.1647 -0.2080
  325TMC3    H2 4887   0.832   3.101  14.154  0.9296  2.7926 -2.1716
  325TMC3    C7 4888   0.951   3.212  13.946  0.1299  0.4033 -0.6677
  325TMC3    C8 4889   0.851   2.864  14.249 -0.0683  0.4965 -0.5788
  325TMC3    O1 4890   0.946   3.183  13.828 -0.1271  0.2500  0.0039
  325TMC3    O2 4891   0.853   2.746  14.221 -0.2844  0.3856 -0.6608
  326MPD2     C 4892   2.457   4.336  10.952 -0.0676  0.5028 -0.0640
  326MPD2    C1 4893   2.460   4.275  10.827 -0.2280 -0.2880 -0.2224
  326MPD2    C2 4894   2.538   4.337  10.727 -0.0599 -0.4677 -0.2095
  326MPD2    C3 4895   2.620   4.447  10.762  0.0012  0.5720 -0.0345
  326MPD2    C4 4896   2.628   4.490  10.892 -0.0410 -0.2500 -0.1728
  326MPD2    C5 4897   2.546   4.433  10.987  0.2189 -0.0239 -0.1602
  326MPD2     H 4898   2.546   4.293  10.628  2.7555 -0.2354 -0.1066
  326MPD2    H1 4899   2.696   4.571  10.918  0.5551 -1.1441  1.0843
  326MPD2    H2 4900   2.393   4.295  11.029  0.3468 -1.7590 -0.9295
  326MPD2    H3 4901   2.543   4.468  11.090 -1.6372 -1.0813  0.1457
  326MPD2     N 4902   2.708   4.517  10.671  0.3814  0.7015 -0.0433
  326MPD2    H5 4903   2.737   4.612  10.690  0.3940  0.8043 -0.5641
  326MPD2    N1 4904   2.364   4.175  10.793  0.1055 -0.0088 -0.4285
  326MPD2    H7 4905   2.355   4.155  10.694  0.1123 -0.9932 -0.2344
  327TMC3    C1 4906   2.206   4.012  10.830 -0.5500  0.1301  0.3437
  327TMC3    C2 4907   2.198   4.011  10.691  0.1497  0.2580 -0.4337
  327TMC3    C3 4908   2.173   3.893  10.628  0.0461 -0.3854 -0.3174
  327TMC3    C4 4909   2.194   3.896  10.897 -0.5365  0.3276 -0.1794
  327TMC3    C5 4910   2.178   3.774  10.824  0.0865  0.0896 -0.1350
  327TMC3    C6 4911   2.166   3.771  10.682 -0.4728 -0.2972 -0.2356
  327TMC3     C 4912   2.285   4.106  10.889  0.1354  0.4862  0.8821
  327TMC3     O 4913   2.288   4.106  11.011 -0.0014  0.1877 -0.6503
  327TMC3     H 4914   2.188   4.105  10.637 -1.1064 -0.4247 -1.4047
  327TMC3    H1 4915   2.192   3.894  11.005  1.0474  0.4451 -0.1460
  327TMC3    H2 4916   2.166   3.675  10.631  3.7050  1.2185 -3.0616
  327TMC3    C7 4917   2.185   3.654  10.907  0.4029  0.1492  0.8486
  327TMC3    C8 4918   2.168   3.895  10.478 -0.8883  0.4479 -0.2769
  327TMC3    O1 4919   2.098   3.568  10.892 -0.3221  0.4437 -0.0041
  327TMC3    O2 4920   2.164   4.006  10.426 -0.8497 -0.6780  0.0467
  328MPD2     C 4921   0.586   3.481  16.814  1.0423 -0.8912  0.3262
  328MPD2    C1 4922   0.621   3.532  16.934  0.4527  0.0431  0.2951
  328MPD2    C2 4923   0.602   3.672  16.959 -0.3248  0.1656 -0.3213
  328MPD2    C3 4924   0.539   3.753  16.855  0.0348 -0.5148  0.2453
  328MPD2    C4 4925   0.504   3.693  16.736  0.8169 -0.0772  0.0998
  328MPD2    C5 4926   0.530   3.561  16.717  0.0646 -0.0765  0.1974
  328MPD2     H 4927   0.631   3.710  17.057  1.5619 -1.3280 -0.3039
  328MPD2    H1 4928   0.439   3.738  16.661  1.7454 -0.9271 -1.2298
  328MPD2    H2 4929   0.595   3.376  16.791  0.9103 -1.0752  1.1275
  328MPD2    H3 4930   0.483   3.518  16.629  0.6449 -0.7401  0.2128
  328MPD2     N 4931   0.482   3.882  16.886 -0.2690  0.0787 -0.0899
  328MPD2    H5 4932   0.423   3.924  16.815  1.1991  3.2847  0.6000
  328MPD2    N1 4933   0.674   3.443  17.037 -0.2377 -0.2279 -0.2715
  328MPD2    H7 4934   0.704   3.351  17.005 -1.5033 -1.2616  1.5391
  329TMC3    C1 4935   0.736   3.371  17.259 -0.3308 -0.0630  0.1538
  329TMC3    C2 4936   0.786   3.424  17.375 -0.1648  0.9668  0.0488
  329TMC3    C3 4937   0.884   3.354  17.442  0.0940 -0.5437  0.3262
  329TMC3    C4 4938   0.783   3.254  17.208 -0.0229  0.4157  0.4652
  329TMC3    C5 4939   0.885   3.191  17.278  0.6079 -0.5788 -0.3691
  329TMC3    C6 4940   0.929   3.233  17.397  0.2039 -0.2218  0.5586
  329TMC3     C 4941   0.671   3.468  17.175 -0.7533 -0.5142  0.6827
  329TMC3     O 4942   0.627   3.565  17.233 -0.1665  0.0063 -0.4574
  329TMC3     H 4943   0.760   3.520  17.418  0.4249  0.6953  1.0093
  329TMC3    H1 4944   0.746   3.208  17.117 -1.6539  1.0093  0.8280
  329TMC3    H2 4945   1.016   3.186  17.442  1.2422  0.4494 -0.7735
  329TMC3    C7 4946   0.899   3.053  17.249  0.5281  0.2922 -0.4560
  329TMC3    C8 4947   0.898   3.379  17.583  0.4608 -0.0107 -0.5297
  329TMC3    O1 4948   0.919   2.970  17.333 -0.2076  0.0128  0.3015
  329TMC3    O2 4949   0.996   3.330  17.633 -0.2142 -0.4610  0.0615
  330TMC3    C1 4950   3.241   3.223   9.418  0.3059  0.2172 -0.3680
  330TMC3    C2 4951   3.229   3.087   9.401 -0.0977 -0.4303 -0.3475
  330TMC3    C3 4952   3.337   3.005   9.430 -0.2261 -0.0438 -0.1469
  330TMC3    C4 4953   3.357   3.273   9.468 -0.4793  0.6875 -0.0299
  330TMC3    C5 4954   3.459   3.191   9.505  0.0417  0.0531 -0.1060
  330TMC3    C6 4955   3.451   3.055   9.485 -0.9285 -0.1314 -0.1382
  330TMC3     C 4956   3.153   3.320   9.357 -0.4916  0.1936  0.3273
  330TMC3     O 4957   3.202   3.428   9.325 -0.4468  0.0781 -0.0338
  330TMC3     H 4958   3.145   3.046   9.346  0.3374  1.4874 -2.4331
  330TMC3    H1 4959   3.371   3.380   9.467  0.0744  0.6120 -0.3673
  330TMC3    H2 4960   3.534   2.989   9.510 -0.1380 -0.5485 -3.8081
  330TMC3    C7 4961   3.584   3.255   9.480 -0.0560  0.7701 -0.0234
  330TMC3    C8 4962   3.347   2.872   9.376 -0.6789 -0.2562  0.3699
  330TMC3    O1 4963   3.591   3.368   9.522  0.2360 -0.1073 -0.4785
  330TMC3    O2 4964   3.380   2.866   9.259 -0.3705  0.6586  0.0790
  331MPD2     C 4965   0.771   1.894  12.275 -1.4280 -0.6102 -0.0496
  331MPD2    C1 4966   0.879   1.974  12.303  0.2661  0.1220 -0.0420
  331MPD2    C2 4967   1.002   1.937  12.241  0.2347 -0.4000 -0.0112
  331MPD2    C3 4968   1.009   1.833  12.155 -0.1317  0.6722  0.0268
  331MPD2    C4 4969   0.897   1.760  12.124 -0.2511  0.6903 -0.1668
  331MPD2    C5 4970   0.781   1.786  12.190 -0.2612 -0.3471 -0.6341
  331MPD2     H 4971   1.096   1.984  12.266  0.9112 -1.6912 -0.1153
  331MPD2    H1 4972   0.896   1.677  12.054  1.9670  0.9144 -0.4782
  331MPD2    H2 4973   0.671   1.919  12.310 -0.2338 -0.0848  2.9672
  331MPD2    H3 4974   0.687   1.737  12.173 -0.9714  0.6385  0.4488
  331MPD2     N 4975   1.132   1.810  12.096  0.0218  0.3338  0.0485
  331MPD2    H5 4976   1.216   1.845  12.141 -0.7138  0.0067  1.6818
  331MPD2    N1 4977   0.862   2.101  12.361 -0.1954  0.0618  0.2764
  331MPD2    H7 4978   0.765   2.124  12.377 -0.3070 -0.7145  0.7002
  332TMC3    C1 4979   1.302   1.725  11.947 -0.0371 -0.4283  0.2429
  332TMC3    C2 4980   1.318   1.815  11.840 -0.2576  0.5798 -0.0105
  332TMC3    C3 4981   1.407   1.910  11.857 -0.4982  0.2593 -0.1728
  332TMC3    C4 4982   1.368   1.729  12.062  0.8816 -0.4929 -0.3042
  332TMC3    C5 4983   1.469   1.817  12.067 -0.7730  0.7717  0.3345
  332TMC3    C6 4984   1.488   1.907  11.966  0.2885  0.2795 -0.6174
  332TMC3     C 4985   1.156   1.736  11.979 -0.1765 -0.3691  0.5851
  332TMC3     O 4986   1.074   1.672  11.917  0.3896  0.4252  0.8598
  332TMC3     H 4987   1.245   1.825  11.761  1.7359  1.5423 -1.7527
  332TMC3    H1 4988   1.347   1.662  12.145 -0.9595  2.3953  1.5394
  332TMC3    H2 4989   1.565   1.982  11.977  0.1763  0.1489  1.0428
  332TMC3    C7 4990   1.558   1.815  12.186 -0.4605  0.4751  0.2557
  332TMC3    C8 4991   1.449   1.988  11.746 -0.4076  0.0228  0.1990
  332TMC3    O1 4992   1.528   1.734  12.272 -0.0445  0.4643 -0.0988
  332TMC3    O2 4993   1.424   1.946  11.631 -0.1191  0.4019 -0.2515
  333MPD2     C 4994   1.277   2.467  11.051  0.4321 -0.0000  0.2752
  333MPD2    C1 4995   1.301   2.344  10.998 -0.0045  0.1204  0.5347
  333MPD2    C2 4996   1.265   2.232  11.073  0.2344  0.1536 -0.7998
  333MPD2    C3 4997   1.187   2.248  11.187 -0.0852 -1.0482  0.3308
  333MPD2    C4 4998   1.144   2.371  11.223 -0.5412 -0.8853  0.0282
  333MPD2    C5 4999   1.199   2.481  11.163  0.0922 -0.4181 -0.3589
  333MPD2     H 5000   1.291   2.133  11.035  0.1217 -1.1147  2.3992
  333MPD2    H1 5001   1.085   2.386  11.313 -0.7866  1.5568 -0.5373
  333MPD2    H2 5002   1.308   2.554  10.994  1.1056  0.4292  1.2902
  333MPD2    H3 5003   1.177   2.582  11.196 -1.7273 -0.3864 -1.7169
  333MPD2     N 5004   1.168   2.136  11.274  0.1855 -0.1664 -0.1948
  333MPD2    H5 5005   1.231   2.057  11.261  0.9351  0.2075  1.2193
  333MPD2    N1 5006   1.374   2.324  10.877  0.2470  0.3640 -0.6633
  333MPD2    H7 5007   1.383   2.402  10.813  2.1199 -0.0077 -0.8584
  334TMC3    C1 5008   1.508   2.213  10.702  0.6309 -0.1116  0.4709
  334TMC3    C2 5009   1.599   2.111  10.679 -0.0674  0.1249 -0.3473
  334TMC3    C3 5010   1.723   2.146  10.635  0.5566 -0.5137  0.7456
  334TMC3    C4 5011   1.531   2.335  10.645  0.1859  0.3326  0.2948
  334TMC3    C5 5012   1.649   2.367  10.585  0.0851 -0.5055 -1.0089
  334TMC3    C6 5013   1.752   2.272  10.588 -0.1460 -0.4115 -0.0177
  334TMC3     C 5014   1.445   2.209  10.836 -0.2114 -1.1852  0.1557
  334TMC3     O 5015   1.476   2.110  10.905  0.3120 -0.1754 -0.4775
  334TMC3     H 5016   1.587   2.018  10.735  1.3008  0.7671  1.0165
  334TMC3    H1 5017   1.458   2.414  10.656  0.9384  1.6340 -4.1083
  334TMC3    H2 5018   1.847   2.287  10.538  0.8302 -0.2628  1.8897
  334TMC3    C7 5019   1.675   2.505  10.552  0.4503  0.0416 -0.2883
  334TMC3    C8 5020   1.835   2.052  10.662  0.6658  0.2223 -0.4946
  334TMC3    O1 5021   1.593   2.590  10.559 -0.4746  0.2707 -0.7017
  334TMC3    O2 5022   1.807   1.932  10.678 -0.9337 -0.0108 -0.6184
  335TMC3    C1 5023   1.221   3.790  17.165 -1.2058 -0.6903 -0.3061
  335TMC3    C2 5024   1.202   3.758  17.032 -0.4486 -0.6558  0.1228
  335TMC3    C3 5025   1.302   3.685  16.973  0.0119 -0.7064 -0.5359
  335TMC3    C4 5026   1.335   3.760  17.230 -0.1596  0.6565  0.2084
  335TMC3    C5 5027   1.436   3.689  17.164  0.3552 -0.6267  0.4079
  335TMC3    C6 5028   1.416   3.653  17.035 -0.0182 -0.0884 -0.4479
  335TMC3     C 5029   1.105   3.818  17.238  0.2945 -0.1918 -0.3834
  335TMC3     O 5030   1.022   3.883  17.178  0.0281 -0.1345 -1.1072
  335TMC3     H 5031   1.116   3.792  16.975 -0.1262 -0.5709 -0.3061
  335TMC3    H1 5032   1.374   3.801  17.322  1.1355 -0.5741  0.2119
  335TMC3    H2 5033   1.490   3.602  16.974  0.7693  1.6847 -1.0042
  335TMC3    C7 5034   1.580   3.697  17.193 -0.1626 -0.2156 -0.6690
  335TMC3    C8 5035   1.257   3.606  16.857 -0.5970 -0.9556  0.1345
  335TMC3    O1 5036   1.662   3.645  17.114  0.1054 -0.2569 -0.3712
  335TMC3    O2 5037   1.159   3.647  16.793  0.1368  0.4806 -1.2100
  336MPD2     C 5038   1.060   1.836  16.280 -0.0836 -0.3453 -0.0099
  336MPD2    C1 5039   1.032   1.761  16.169 -0.6737 -0.0186 -0.6591
  336MPD2    C2 5040   1.093   1.635  16.156 -0.1258 -0.0445 -0.4513
  336MPD2    C3 5041   1.179   1.595  16.256 -0.1573 -0.0374 -0.4992
  336MPD2    C4 5042   1.220   1.681  16.358 -0.2231 -0.1715  0.4183
  336MPD2    C5 5043   1.148   1.796  16.370 -0.0834  0.0300  0.1119
  336MPD2     H 5044   1.083   1.576  16.065  0.8385 -3.7529  1.8615
  336MPD2    H1 5045   1.291   1.663  16.438  0.7733 -0.2499 -0.4822
  336MPD2    H2 5046   1.003   1.924  16.306  0.2971  0.1127 -0.7131
  336MPD2    H3 5047   1.145   1.852  16.463 -0.6831 -1.2524  0.8649
  336MPD2     N 5048   1.245   1.471  16.245 -0.2655 -0.3217  0.0194
  336MPD2    H5 5049   1.308   1.449  16.321 -1.3502  1.0143  1.2870
  336MPD2    N1 5050   0.927   1.800  16.080  0.0341  0.3139 -0.3919
  336MPD2    H7 5051   0.906   1.727  16.013  0.3838  1.1079 -1.3552
  337TMC3    C1 5052   0.750   1.914  15.975 -0.1842 -0.2407  0.5742
  337TMC3    C2 5053   0.709   1.793  15.917  0.0046 -0.5338 -0.9031
  337TMC3    C3 5054   0.589   1.787  15.858 -0.7382 -0.2012 -0.4873
  337TMC3    C4 5055   0.688   2.029  15.941  0.2512  0.5768 -0.7178
  337TMC3    C5 5056   0.573   2.022  15.869 -0.1742  0.0872  0.2300
  337TMC3    C6 5057   0.516   1.902  15.840 -0.4013  0.2616  0.1244
  337TMC3     C 5058   0.854   1.916  16.080  0.1585 -0.0266  0.1985
  337TMC3     O 5059   0.890   2.023  16.125  0.7334  0.2028  0.3367
  337TMC3     H 5060   0.760   1.699  15.935 -0.0845 -0.2672  0.7527
  337TMC3    H1 5061   0.727   2.125  15.972  0.7607  0.1515 -0.0526
  337TMC3    H2 5062   0.429   1.901  15.776 -0.9901  1.2133  0.8984
  337TMC3    C7 5063   0.497   2.145  15.868 -0.2357 -0.5310 -0.3145
  337TMC3    C8 5064   0.540   1.650  15.823 -0.2374  0.0144  0.4435
  337TMC3    O1 5065   0.567   2.246  15.851 -0.6206  0.0800  0.5807
  337TMC3    O2 5066   0.616   1.560  15.805 -0.2515  0.7964 -0.4637
  338MPD2     C 5067   1.733   0.675   0.683 -0.4680 -0.1298  0.4748
  338MPD2    C1 5068   1.670   0.674   0.563 -0.6498 -0.6405 -0.0079
  338MPD2    C2 5069   1.573   0.767   0.534 -0.5123 -0.2589 -0.4582
  338MPD2    C3 5070   1.539   0.871   0.625  0.2220  0.4145  1.0222
  338MPD2    C4 5071   1.611   0.872   0.743  0.0771  0.0993 -0.0749
  338MPD2    C5 5072   1.702   0.774   0.771  0.2325 -0.0217  0.1496
  338MPD2     H 5073   1.532   0.785   0.435  1.6290  1.7140 -0.9829
  338MPD2    H1 5074   1.590   0.943   0.821  2.0426 -1.2280  1.6476
  338MPD2    H2 5075   1.804   0.604   0.723  2.1484  1.8956 -0.5537
  338MPD2    H3 5076   1.753   0.786   0.866  1.8523  0.6640 -0.7912
  338MPD2     N 5077   1.436   0.965   0.595  0.4586  0.6203  0.1224
  338MPD2    H5 5078   1.411   0.958   0.497 -1.4931  0.3204  0.6562
  338MPD2    N1 5079   1.700   0.575   0.465 -0.6855  0.2506 -0.8224
  338MPD2    H7 5080   1.648   0.571   0.378 -1.0275 -1.1540 -0.5633
  339TMC3    C1 5081   1.238   1.069   0.618  0.1400  0.1393 -0.4400
  339TMC3    C2 5082   1.135   1.072   0.703 -0.3422  0.1678  0.1345
  339TMC3    C3 5083   1.037   1.164   0.683 -0.2312 -0.4197 -0.0823
  339TMC3    C4 5084   1.258   1.162   0.519 -0.7560  0.1486 -0.1792
  339TMC3    C5 5085   1.157   1.258   0.501  0.4376 -0.0954 -0.8419
  339TMC3    C6 5086   1.044   1.259   0.583  0.4044  0.2489 -0.7523
  339TMC3     C 5087   1.354   1.019   0.687 -0.1087 -0.1793 -0.7084
  339TMC3     O 5088   1.346   1.009   0.812  0.0288 -0.0557 -0.4822
  339TMC3     H 5089   1.130   0.989   0.773  1.0155 -0.4531 -0.4878
  339TMC3    H1 5090   1.353   1.169   0.468 -0.5857 -1.2728 -0.0828
  339TMC3    H2 5091   0.967   1.335   0.572  1.2655  1.2573  0.2131
  339TMC3    C7 5092   1.189   1.369   0.407 -0.0342 -0.3261 -0.2615
  339TMC3    C8 5093   0.921   1.160   0.770  0.1480  0.1937 -0.4917
  339TMC3    O1 5094   1.129   1.472   0.433 -0.2890 -0.1569 -0.4488
  339TMC3    O2 5095   0.818   1.212   0.729  0.8697 -0.3098 -0.3224
  340MPD2     C 5096   1.802   3.456   9.891  0.4786  0.9535  0.4936
  340MPD2    C1 5097   1.751   3.334   9.870  0.1136  0.1276 -0.5861
  340MPD2    C2 5098   1.832   3.229   9.896 -0.4376 -0.0242  0.4165
  340MPD2    C3 5099   1.968   3.247   9.908  0.2883  1.0681  0.2874
  340MPD2    C4 5100   2.019   3.372   9.910  0.1606  0.3779  0.0118
  340MPD2    C5 5101   1.932   3.475   9.917  0.4297 -0.2267  0.2668
  340MPD2     H 5102   1.804   3.125   9.900 -2.2653  0.3922 -1.9557
  340MPD2    H1 5103   2.126   3.393   9.910  0.7414 -2.6502  1.4355
  340MPD2    H2 5104   1.751   3.547   9.861 -3.4496 -1.2181  0.5717
  340MPD2    H3 5105   1.959   3.580   9.914  0.1895 -0.2362 -2.0876
  340MPD2     N 5106   2.064   3.136   9.910  0.1430  0.5015  0.1223
  340MPD2    H5 5107   2.162   3.164   9.901 -0.4216  2.3758 -0.1689
  340MPD2    N1 5108   1.613   3.321   9.832 -0.2285 -0.9199  0.0114
  340MPD2    H7 5109   1.559   3.407   9.835 -1.0360 -1.3394 -2.5960
  341TMC3    C1 5110   1.619   3.093   9.750 -0.6854  0.3236 -0.5627
  341TMC3    C2 5111   1.570   2.965   9.762  0.6327 -0.7095 -0.3058
  341TMC3    C3 5112   1.613   2.866   9.670  0.0574 -0.3922 -0.0835
  341TMC3    C4 5113   1.708   3.123   9.650  0.3519 -0.0597 -0.4576
  341TMC3    C5 5114   1.753   3.019   9.566 -0.3760 -0.9176  0.7346
  341TMC3    C6 5115   1.706   2.893   9.578  0.5748 -0.2725  0.3066
  341TMC3     C 5116   1.539   3.202   9.804  0.1789 -0.2257 -0.6609
  341TMC3     O 5117   1.419   3.184   9.812  0.4510  0.3461 -0.0091
  341TMC3     H 5118   1.492   2.958   9.837  1.2662  0.0008  0.4175
  341TMC3    H1 5119   1.726   3.228   9.629 -0.9727  0.3841  0.6683
  341TMC3    H2 5120   1.737   2.812   9.513  0.3322  1.0099 -1.3835
  341TMC3    C7 5121   1.892   3.014   9.533 -0.0201  0.0076  0.5248
  341TMC3    C8 5122   1.588   2.727   9.712 -1.1975  0.0219  0.3461
  341TMC3    O1 5123   1.942   2.903   9.530  0.1494 -0.1118  0.7721
  341TMC3    O2 5124   1.617   2.645   9.628 -0.1813  0.2793  0.2651
  342MPD2     C 5125   4.260   1.754  17.180 -1.0093 -0.5889 -0.3062
  342MPD2    C1 5126   4.323   1.744  17.302  0.6592  0.0927 -0.4233
  342MPD2    C2 5127   4.348   1.857  17.373  0.2938 -0.1408 -0.0588
  342MPD2    C3 5128   4.317   1.978  17.324  0.7897 -0.5255  0.7166
  342MPD2    C4 5129   4.239   1.990  17.213 -0.1903 -0.4699  0.7205
  342MPD2    C5 5130   4.218   1.877  17.134  0.2800  0.6749 -0.3271
  342MPD2     H 5131   4.413   1.844  17.458  0.9000  1.5552 -0.2647
  342MPD2    H1 5132   4.205   2.087  17.177 -1.9595 -1.7543 -1.0817
  342MPD2    H2 5133   4.232   1.666  17.123 -0.5235 -0.2445 -1.0757
  342MPD2    H3 5134   4.172   1.884  17.036  2.2283  1.2577 -1.1938
  342MPD2     N 5135   4.364   2.097  17.383  0.1619  0.3932 -0.6199
  342MPD2    H5 5136   4.324   2.185  17.353 -1.0040  0.0593 -0.0320
  342MPD2    N1 5137   4.360   1.624  17.362 -0.2960 -0.4048  0.1969
  342MPD2    H7 5138   4.389   1.639  17.458  0.9196  0.3508 -0.2847
  343TMC3    C1 5139   4.355   1.402  17.411  0.2683 -0.6560  0.6051
  343TMC3    C2 5140   4.476   1.403  17.470 -0.1886 -0.3545  0.4118
  343TMC3    C3 5141   4.538   1.278  17.488  0.8225 -0.3775  0.3213
  343TMC3    C4 5142   4.293   1.282  17.375 -0.5336  0.0987  0.0846
  343TMC3    C5 5143   4.361   1.163  17.396 -0.2692 -0.7838 -0.0222
  343TMC3    C6 5144   4.483   1.161  17.451 -0.0152  1.2755  0.3257
  343TMC3     C 5145   4.322   1.505  17.318  0.2986  0.6686  0.2447
  343TMC3     O 5146   4.251   1.472  17.225  0.2165  0.5067  0.1036
  343TMC3     H 5147   4.518   1.492  17.515  1.5628 -0.7807 -0.3853
  343TMC3    H1 5148   4.189   1.274  17.346 -0.2348 -1.0314 -0.7309
  343TMC3    H2 5149   4.544   1.072  17.444  5.5354  4.9909  0.8827
  343TMC3    C7 5150   4.280   1.045  17.369  0.6342 -0.2830  0.7306
  343TMC3    C8 5151   4.675   1.287  17.529 -0.1340  0.4722 -0.3451
  343TMC3    O1 5152   4.195   1.044  17.277 -0.4158 -0.2427  0.0062
  343TMC3    O2 5153   4.694   1.361  17.623  0.0007  0.0014 -0.4339
  344MPD2     C 5154   0.114   1.124   9.667 -0.4731 -0.2909  0.0911
  344MPD2    C1 5155   0.251   1.117   9.667  0.0955  0.2318  0.5835
  344MPD2    C2 5156   0.332   1.227   9.640  0.0756  0.3995  0.6290
  344MPD2    C3 5157   0.267   1.337   9.590 -0.1307  0.5990  0.1793
  344MPD2    C4 5158   0.131   1.341   9.573 -0.4004  0.1734  0.6812
  344MPD2    C5 5159   0.057   1.231   9.613  0.2266  0.9110 -0.4993
  344MPD2     H 5160   0.439   1.216   9.650  0.0120 -2.6020 -2.0203
  344MPD2    H1 5161   0.085   1.425   9.523 -1.1889 -1.9709 -2.2305
  344MPD2    H2 5162   0.048   1.043   9.693  0.2710 -0.7700  0.4792
  344MPD2    H3 5163   4.672   1.235   9.614  0.2083  0.5324 -0.8382
  344MPD2     N 5164   0.336   1.457   9.558 -0.4424  0.8211  0.3157
  344MPD2    H5 5165   0.279   1.535   9.525  0.0057  0.8095 -0.4949
  344MPD2    N1 5166   0.319   1.008   9.708  0.3450  0.0361  0.2943
  344MPD2    H7 5167   0.418   1.015   9.730 -0.2060  1.9878  2.1048
  345TMC3    C1 5168   0.523   1.613   9.548  0.4753 -0.6381  0.0274
  345TMC3    C2 5169   0.658   1.627   9.582  0.3427 -0.3096  0.8398
  345TMC3    C3 5170   0.697   1.744   9.643  0.0772 -0.4550  0.0189
  345TMC3    C4 5171   0.431   1.716   9.569  0.4412 -1.1278  0.7109
  345TMC3    C5 5172   0.479   1.838   9.625 -0.7575  0.1879  0.3140
  345TMC3    C6 5173   0.606   1.850   9.670  0.7025 -0.1322  0.0787
  345TMC3     C 5174   0.470   1.478   9.574  0.4417 -0.3037 -0.5385
  345TMC3     O 5175   0.562   1.399   9.606 -0.1734 -0.3621 -0.2707
  345TMC3     H 5176   0.726   1.545   9.562  1.2996  0.4874  0.8101
  345TMC3    H1 5177   0.331   1.708   9.529  1.6527  1.4806 -2.8773
  345TMC3    H2 5178   0.639   1.938   9.724 -2.0104  1.0004 -0.1121
  345TMC3    C7 5179   0.422   1.962   9.583  0.3254  0.3258  0.9330
  345TMC3    C8 5180   0.809   1.720   9.739 -0.4169 -0.5898 -0.4239
  345TMC3    O1 5181   0.487   2.066   9.594 -0.4795 -0.1176  0.0244
  345TMC3    O2 5182   0.825   1.607   9.778  0.1793  0.7976  0.0591
  346MPD2     C 5183   4.564   3.456  14.189  0.2478  0.4779 -0.3906
  346MPD2    C1 5184   4.679   3.378  14.160  0.0993  1.6610 -0.1826
  346MPD2    C2 5185   0.073   3.409  14.224  0.3346  0.0100 -0.4916
  346MPD2    C3 5186   0.092   3.513  14.314 -0.4886  0.4217 -0.5241
  346MPD2    C4 5187   4.700   3.581  14.349  0.1189  0.1038 -0.1617
  346MPD2    C5 5188   4.574   3.554  14.286 -0.2205 -0.3618  0.1574
  346MPD2     H 5189   0.157   3.344  14.201  0.7997  0.4828 -0.1212
  346MPD2    H1 5190   4.708   3.668  14.413  1.7509  0.6275 -1.0657
  346MPD2    H2 5191   4.472   3.452  14.132  1.6631  1.0767 -2.7237
  346MPD2    H3 5192   4.491   3.620  14.309 -0.0248 -0.0777  0.0544
  346MPD2     N 5193   0.215   3.550  14.360 -0.7915 -0.3020  0.6896
  346MPD2    H5 5194   0.288   3.491  14.320  0.4275  2.0321 -0.5046
  346MPD2    N1 5195   4.682   3.290  14.052 -0.4933 -0.1251 -0.2293
  346MPD2    H7 5196   0.052   3.259  14.022 -0.0954  1.7406 -0.9159
  347TMC3    C1 5197   0.380   3.696  14.444 -0.0654 -0.3487 -0.0162
  347TMC3    C2 5198   0.451   3.716  14.327  0.0339  0.6011  0.1758
  347TMC3    C3 5199   0.588   3.731  14.339 -0.7098 -0.6940  0.2845
  347TMC3    C4 5200   0.451   3.691  14.565 -0.2892 -0.0187 -0.3391
  347TMC3    C5 5201   0.587   3.704  14.568  0.6905  0.7433  0.2848
  347TMC3    C6 5202   0.656   3.727  14.458  0.1368  0.4002 -0.2890
  347TMC3     C 5203   0.243   3.651  14.450  0.4886 -0.2304 -0.4521
  347TMC3     O 5204   0.170   3.699  14.537  0.7714  0.1290 -0.3400
  347TMC3     H 5205   0.397   3.704  14.234  0.5198  0.5668 -0.0979
  347TMC3    H1 5206   0.403   3.662  14.658 -0.1464 -0.3824 -0.3793
  347TMC3    H2 5207   0.764   3.741  14.456  0.4636 -2.1318 -0.5190
  347TMC3    C7 5208   0.653   3.669  14.693  0.2427  0.1903  0.0789
  347TMC3    C8 5209   0.670   3.706  14.225 -0.4738 -0.0226 -0.2552
  347TMC3    O1 5210   0.585   3.608  14.776 -0.0637 -0.4155  0.0249
  347TMC3    O2 5211   0.789   3.710  14.239 -0.1144 -0.3843  0.1497
  348MPD2     C 5212   3.496   2.810  12.254  0.3396 -0.0226  0.6560
  348MPD2    C1 5213   3.619   2.842  12.203 -0.9959  0.2546 -0.1349
  348MPD2    C2 5214   3.616   2.928  12.086  0.4772 -0.2859 -0.2700
  348MPD2    C3 5215   3.499   2.965  12.025 -0.2803 -0.0621 -0.4034
  348MPD2    C4 5216   3.380   2.910  12.070 -0.4230 -0.0259 -0.2994
  348MPD2    C5 5217   3.382   2.832  12.182  0.0397  0.2526  0.0547
  348MPD2     H 5218   3.716   2.947  12.048  0.4051 -0.0786 -0.3517
  348MPD2    H1 5219   3.285   2.924  12.021 -0.6768  1.9567  0.7870
  348MPD2    H2 5220   3.490   2.739  12.337  0.1121 -2.0691 -1.1049
  348MPD2    H3 5221   3.291   2.788  12.220  1.3966 -1.7517  1.0451
  348MPD2     N 5222   3.486   3.061  11.913  0.5690  0.8188  0.1564
  348MPD2    H5 5223   3.396   3.079  11.869  1.2244  1.2021 -1.0167
  348MPD2    N1 5224   3.742   2.799  12.249  0.5635 -0.0235  0.0405
  348MPD2    H7 5225   3.829   2.817  12.199 -0.8264  2.0462 -1.6772
  349TMC3    C1 5226   3.904   2.708  12.387  1.1949  0.5320  0.4109
  349TMC3    C2 5227   3.950   2.580  12.392 -0.8174 -0.3040  0.4306
  349TMC3    C3 5228   4.072   2.545  12.339 -0.1088  0.0426 -0.1279
  349TMC3    C4 5229   3.989   2.807  12.345  0.4558 -0.0558 -0.8352
  349TMC3    C5 5230   4.117   2.773  12.298  0.5089  0.2681 -0.5238
  349TMC3    C6 5231   4.157   2.641  12.287  0.5967  0.1204 -0.0876
  349TMC3     C 5232   3.761   2.725  12.364  0.8690 -0.2564  0.2022
  349TMC3     O 5233   3.686   2.648  12.426  0.3101  0.2114  0.3082
  349TMC3     H 5234   3.880   2.498  12.408  0.3301 -1.6694 -1.5499
  349TMC3    H1 5235   3.948   2.907  12.353  0.0534 -0.2920  0.0079
  349TMC3    H2 5236   4.253   2.625  12.240  0.0183  0.2441 -1.3045
  349TMC3    C7 5237   4.191   2.861  12.211 -0.2178  0.4492  0.3322
  349TMC3    C8 5238   4.099   2.402  12.306 -0.4578  0.6708  0.0954
  349TMC3    O1 5239   4.305   2.829  12.183 -0.0149  0.1165  0.3763
  349TMC3    O2 5240   4.037   2.310  12.366  0.2044 -0.2307  0.1401
  350MPD2     C 5241   2.784   0.091   9.461 -0.4343 -0.2265  0.2654
  350MPD2    C1 5242   2.906   0.074   9.520 -0.1174 -0.9971  0.1182
  350MPD2    C2 5243   2.954   0.170   9.608  0.4309 -0.5600  0.3940
  350MPD2    C3 5244   2.881   0.286   9.625  0.8637 -0.3005  0.5100
  350MPD2    C4 5245   2.777   0.315   9.544  0.6880 -0.4122 -0.0310
  350MPD2    C5 5246   2.718   0.218   9.467  0.2188 -0.2530 -0.1926
  350MPD2     H 5247   3.047   0.157   9.662  1.6206  0.8205 -1.3088
  350MPD2    H1 5248   2.721   0.408   9.550  0.2937 -0.7108  0.9222
  350MPD2    H2 5249   2.733   0.019   9.399  1.2217 -0.7494 -0.4585
  350MPD2    H3 5250   2.631   0.232   9.404  0.1985 -1.2097 -0.3843
  350MPD2     N 5251   2.932   0.395   9.701 -0.1027 -0.8804 -0.3391
  350MPD2    H5 5252   3.008   0.369   9.763  0.4557 -0.0877 -0.7002
  350MPD2    N1 5253   2.976   4.677   9.502  0.0327  0.2874  0.4037
  350MPD2    H7 5254   3.055   4.666   9.565  0.6132  0.4581 -0.2804
  351TMC3    C1 5255   3.021   4.449   9.428  0.3151  0.4945 -0.6883
  351TMC3    C2 5256   3.116   4.426   9.527 -0.5198  0.1504  0.1469
  351TMC3    C3 5257   3.169   4.296   9.533 -0.0219  0.0572 -0.3865
  351TMC3    C4 5258   2.996   4.360   9.330  0.1042 -0.1293  0.5250
  351TMC3    C5 5259   3.067   4.248   9.326 -0.1968  0.3121  0.0167
  351TMC3    C6 5260   3.153   4.205   9.433 -0.0547  0.7199  0.2079
  351TMC3     C 5261   2.940   4.575   9.418 -0.1023 -0.1149  0.0394
  351TMC3     O 5262   2.850   4.574   9.333  0.1305  0.3769 -0.1960
  351TMC3     H 5263   3.147   4.490   9.609 -2.4813 -1.3522  2.0947
  351TMC3    H1 5264   2.934   4.390   9.247 -0.4783 -0.6390  0.7807
  351TMC3    H2 5265   3.226   4.125   9.426 -0.5244  0.4447 -1.6386
  351TMC3    C7 5266   3.053   4.162   9.205  0.1662 -0.4638  0.0214
  351TMC3    C8 5267   3.291   4.271   9.601 -0.4092  0.4018 -0.6656
  351TMC3    O1 5268   2.965   4.187   9.126  0.0219 -0.1846  0.0977
  351TMC3    O2 5269   3.402   4.271   9.546 -0.2143  0.4419 -0.4082
  352MPD2     C 5270   2.248   2.625   1.079 -0.4469 -0.3195 -0.8400
  352MPD2    C1 5271   2.117   2.584   1.069  0.0503 -0.0986  0.0239
  352MPD2    C2 5272   2.095   2.454   1.115 -0.5238 -0.4179  0.0455
  352MPD2    C3 5273   2.189   2.372   1.171  0.4866 -0.5062  0.6932
  352MPD2    C4 5274   2.322   2.413   1.171  0.7255 -0.0552  0.7585
  352MPD2    C5 5275   2.346   2.542   1.135  0.5198 -0.1509  0.1200
  352MPD2     H 5276   1.994   2.417   1.100 -1.1525  1.3114 -0.0535
  352MPD2    H1 5277   2.405   2.357   1.212  1.3862 -0.5584 -1.2955
  352MPD2    H2 5278   2.283   2.724   1.051 -0.2755  0.1741  1.0994
  352MPD2    H3 5279   2.449   2.575   1.147  0.1703  1.5256 -1.6233
  352MPD2     N 5280   2.171   2.239   1.221  0.2821  0.4863 -0.2438
  352MPD2    H5 5281   2.248   2.197   1.273 -0.2389 -1.9458 -1.4090
  352MPD2    N1 5282   2.020   2.682   1.029  0.1272  0.6891  0.1957
  352MPD2    H7 5283   2.063   2.770   1.001  1.5396 -0.3582 -0.9706
  353TMC3    C1 5284   2.057   2.041   1.276 -0.5361 -0.7650  0.7388
  353TMC3    C2 5285   2.180   1.981   1.322 -0.7717  0.7311 -0.2277
  353TMC3    C3 5286   2.169   1.852   1.375  0.4236 -0.2755  0.0661
  353TMC3    C4 5287   1.938   1.975   1.266  0.2909  0.6111 -0.1935
  353TMC3    C5 5288   1.939   1.848   1.320  0.0116 -0.0757 -0.3718
  353TMC3    C6 5289   2.046   1.789   1.381 -0.1758 -0.2091  0.0957
  353TMC3     C 5290   2.059   2.168   1.200 -0.9696  0.3844 -0.6356
  353TMC3     O 5291   1.958   2.197   1.141  0.4347  0.0311 -0.0570
  353TMC3     H 5292   2.270   2.042   1.324  0.1692 -0.6734  0.1979
  353TMC3    H1 5293   1.850   2.010   1.214 -1.0290  2.9771  3.5680
  353TMC3    H2 5294   2.039   1.684   1.411  4.1723 -0.2159  1.0396
  353TMC3    C7 5295   1.818   1.771   1.305 -0.1971 -0.5498  0.7789
  353TMC3    C8 5296   2.284   1.764   1.370  0.4001  0.3723  0.3484
  353TMC3    O1 5297   1.792   1.695   1.399 -0.0935  0.0220 -0.4099
  353TMC3    O2 5298   2.386   1.815   1.421  0.5823  0.7048  0.2228
  354TMC3    C1 5299   2.860   3.885  13.323 -0.4147 -0.0943 -0.1264
  354TMC3    C2 5300   2.774   3.995  13.303  0.1083 -0.7064 -0.1391
  354TMC3    C3 5301   2.812   4.084  13.204 -0.0696  0.1290  0.2375
  354TMC3    C4 5302   2.973   3.869  13.255  0.2170  0.3689 -0.3062
  354TMC3    C5 5303   3.010   3.967  13.166  0.4839  0.7030  0.0455
  354TMC3    C6 5304   2.933   4.071  13.143  0.2693  1.1503 -0.1595
  354TMC3     C 5305   2.854   3.820  13.453  0.0846  0.0598  0.2373
  354TMC3     O 5306   2.757   3.859  13.520 -0.4987  0.6492 -0.5116
  354TMC3     H 5307   2.676   4.006  13.349 -0.1260  1.4599 -1.1855
  354TMC3    H1 5308   3.048   3.792  13.274 -1.3548 -0.6022  2.0003
  354TMC3    H2 5309   2.965   4.143  13.068  0.3712  0.5299 -0.7075
  354TMC3    C7 5310   3.120   3.929  13.081 -0.2561 -0.4108  0.5727
  354TMC3    C8 5311   2.751   4.218  13.231 -0.2067  0.2425  0.1539
  354TMC3    O1 5312   3.171   3.821  13.089 -0.2211 -0.1709 -0.1983
  354TMC3    O2 5313   2.655   4.221  13.306  0.2359 -0.1365  0.5654
  355MPD2     C 5314   3.159   0.615  11.667  0.8293  0.4117  0.0602
  355MPD2    C1 5315   3.185   0.576  11.540 -1.1042 -0.4961  0.0963
  355MPD2    C2 5316   3.305   0.508  11.525 -0.1820  0.5313  0.5744
  355MPD2    C3 5317   3.403   0.509  11.621  0.2577  0.6541  0.1529
  355MPD2    C4 5318   3.378   0.563  11.740  0.2810 -0.7368  0.8319
  355MPD2    C5 5319   3.253   0.614  11.765  0.0954  0.1349  0.0239
  355MPD2     H 5320   3.330   0.448  11.438 -2.6577 -0.5070  0.5709
  355MPD2    H1 5321   3.457   0.577  11.813  0.1498  2.1912  0.4254
  355MPD2    H2 5322   3.063   0.660  11.692  0.7572  0.0929  0.3536
  355MPD2    H3 5323   3.238   0.655  11.864  0.4555 -0.4892  0.3410
  355MPD2     N 5324   3.531   0.455  11.604 -0.2400 -0.4287 -0.1988
  355MPD2    H5 5325   3.593   0.467  11.683  0.0161  1.6251 -0.7261
  355MPD2    N1 5326   3.095   0.603  11.432  0.3157  0.8706  1.0391
  355MPD2    H7 5327   3.003   0.634  11.462  0.2853  2.5251 -0.7916
  356TMC3    C1 5328   3.730   0.397  11.488  0.8292  0.5333 -0.9859
  356TMC3    C2 5329   3.782   0.415  11.362 -0.0960 -0.0540  0.2099
  356TMC3    C3 5330   3.915   0.418  11.342  0.1108 -0.6202  0.2706
  356TMC3    C4 5331   3.814   0.381  11.595 -0.6757 -0.1864  0.0898
  356TMC3    C5 5332   3.951   0.382  11.571 -0.5558  0.1227 -0.1115
  356TMC3    C6 5333   4.000   0.405  11.448 -0.7051 -0.2475 -0.3917
  356TMC3     C 5334   3.583   0.407  11.486  0.0415 -0.5392  0.2013
  356TMC3     O 5335   3.522   0.408  11.375 -0.1341 -0.2561  0.6487
  356TMC3     H 5336   3.719   0.441  11.277 -0.6844 -0.2852  0.5758
  356TMC3    H1 5337   3.778   0.378  11.698 -1.0667  0.9532 -0.0113
  356TMC3    H2 5338   4.105   0.410  11.425 -1.0533  2.7059 -1.3563
  356TMC3    C7 5339   4.030   0.396  11.689  0.5157  0.0526  0.0269
  356TMC3    C8 5340   3.956   0.461  11.212 -0.3946 -0.6971  0.1857
  356TMC3    O1 5341   4.022   0.305  11.775  0.0503 -0.2625  0.1543
  356TMC3    O2 5342   3.874   0.454  11.119  0.0192  0.6690  0.5580
  357MPD2     C 5343   3.415   4.336   1.791 -1.0452  0.2303 -0.9873
  357MPD2    C1 5344   3.549   4.317   1.800 -0.1485 -0.5624  1.0363
  357MPD2    C2 5345   3.620   4.372   1.912 -0.1951 -0.2248 -0.5302
  357MPD2    C3 5346   3.554   4.457   1.995 -0.2970 -0.1526 -1.5795
  357MPD2    C4 5347   3.420   4.486   1.978  0.6005 -0.8428 -0.2621
  357MPD2    C5 5348   3.354   4.431   1.873  0.5281  0.8845  0.1614
  357MPD2     H 5349   3.720   4.343   1.942 -0.7667 -1.3315  0.3431
  357MPD2    H1 5350   3.366   4.543   2.053  1.9516  0.2919 -0.1654
  357MPD2    H2 5351   3.354   4.288   1.715 -1.5814 -0.0786 -0.3565
  357MPD2    H3 5352   3.247   4.449   1.871  0.6178  1.2739 -1.5330
  357MPD2     N 5353   3.621   4.520   2.102  0.2945  0.5331  0.4237
  357MPD2    H5 5354   3.575   4.600   2.145  0.9722  1.1553 -0.0100
  357MPD2    N1 5355   3.616   4.235   1.708 -0.6765 -0.6621 -0.0523
  357MPD2    H7 5356   3.561   4.190   1.636  0.8668 -0.8859 -1.0894
  358TMC3    C1 5357   3.796   4.161   1.585 -0.2558 -1.3025 -0.1341
  358TMC3    C2 5358   3.711   4.129   1.486 -0.8059 -0.1349 -0.0001
  358TMC3    C3 5359   3.775   4.097   1.372  0.1834  0.3629  0.0606
  358TMC3    C4 5360   3.929   4.134   1.582 -0.1057 -0.1989 -0.0979
  358TMC3    C5 5361   3.985   4.111   1.462  0.0973  0.6857  0.2220
  358TMC3    C6 5362   3.908   4.089   1.353 -0.3324 -0.6005  0.2745
  358TMC3     C 5363   3.748   4.241   1.691 -0.4149 -0.0543  0.5520
  358TMC3     O 5364   3.833   4.304   1.751  0.7257  0.3439 -0.0112
  358TMC3     H 5365   3.603   4.137   1.490 -0.7031  1.0147  0.5632
  358TMC3    H1 5366   3.974   4.138   1.680  0.4586  0.1639 -0.3752
  358TMC3    H2 5367   3.952   4.061   1.258  0.2353 -0.4509  0.4964
  358TMC3    C7 5368   4.108   4.040   1.463 -0.3825  0.4744 -0.4956
  358TMC3    C8 5369   3.698   4.086   1.245 -0.3989 -0.7696 -0.5227
  358TMC3    O1 5370   4.123   3.944   1.392  0.3321 -0.7159  0.3629
  358TMC3    O2 5371   3.737   4.122   1.134  0.2260  0.3869 -0.0181
  359MPD2     C 5372   3.325   3.509  12.674 -0.1554  0.0895 -0.1897
  359MPD2    C1 5373   3.277   3.562  12.556 -0.5102 -0.2100 -0.1377
  359MPD2    C2 5374   3.142   3.582  12.543 -0.2619  0.2782 -0.0989
  359MPD2    C3 5375   3.056   3.545  12.651  0.3988  0.3539 -0.3091
  359MPD2    C4 5376   3.100   3.482  12.760 -0.4396 -0.4964 -0.0836
  359MPD2    C5 5377   3.239   3.480  12.776  0.4683  0.0376  0.0021
  359MPD2     H 5378   3.099   3.614  12.449  0.8260 -1.2867 -1.1117
  359MPD2    H1 5379   3.032   3.447  12.837  1.1065 -1.5929  0.7931
  359MPD2    H2 5380   3.430   3.519  12.700 -0.3883  0.8469  0.4685
  359MPD2    H3 5381   3.268   3.444  12.874 -0.3774 -1.6724 -0.3611
  359MPD2     N 5382   2.917   3.561  12.640  0.2708 -0.2577 -0.1741
  359MPD2    H5 5383   2.860   3.524  12.715  1.1992  1.2517  1.2660
  359MPD2    N1 5384   3.356   3.588  12.442  0.4400  0.5023 -0.1731
  359MPD2    H7 5385   3.318   3.636  12.361 -1.2716  0.1749  0.4228
  360TMC3    C1 5386   3.556   3.563  12.306  0.1455  0.4045  0.0377
  360TMC3    C2 5387   3.692   3.556  12.297 -0.1373 -0.9107  0.4441
  360TMC3    C3 5388   3.748   3.537  12.172 -0.1701 -0.3994  0.4327
  360TMC3    C4 5389   3.475   3.544  12.196 -0.2519  0.5694 -0.6049
  360TMC3    C5 5390   3.538   3.518  12.074 -0.2892  0.3078  0.2820
  360TMC3    C6 5391   3.674   3.516  12.057  0.3269  0.0241 -0.6157
  360TMC3     C 5392   3.498   3.563  12.439 -0.1578 -0.3766  0.4623
  360TMC3     O 5393   3.583   3.551  12.523  0.1379  0.1395 -0.3053
  360TMC3     H 5394   3.747   3.581  12.387 -0.3035  0.2712  0.2210
  360TMC3    H1 5395   3.373   3.512  12.216  0.4284 -1.2159 -0.0439
  360TMC3    H2 5396   3.718   3.493  11.960  3.1201  1.4345  0.3156
  360TMC3    C7 5397   3.452   3.504  11.963  0.2759 -0.1355  0.7835
  360TMC3    C8 5398   3.894   3.492  12.174 -0.0396  0.3679  0.6215
  360TMC3    O1 5399   3.360   3.426  11.977 -0.6810  0.0437 -0.1084
  360TMC3    O2 5400   3.951   3.490  12.278 -0.0771  0.7996 -0.3297
  361MPD2     C 5401   0.680   2.369  16.728 -0.4366  0.1408 -0.2234
  361MPD2    C1 5402   0.659   2.381  16.871  0.6619  0.1040  0.4471
  361MPD2    C2 5403   0.750   2.309  16.953  0.2570  0.1015  0.2741
  361MPD2    C3 5404   0.845   2.226  16.891 -0.5720 -0.1993 -0.6386
  361MPD2    C4 5405   0.855   2.212  16.760 -0.0653 -0.7197  0.2417
  361MPD2    C5 5406   0.783   2.288  16.675 -0.6155  0.5578  1.0696
  361MPD2     H 5407   0.740   2.321  17.061 -1.4504 -1.0357  0.2435
  361MPD2    H1 5408   0.939   2.155  16.722  1.3948  0.7865  1.1963
  361MPD2    H2 5409   0.614   2.422  16.661  0.3621  2.2789  0.6901
  361MPD2    H3 5410   0.804   2.267  16.571 -1.6798 -1.1917  1.1942
  361MPD2     N 5411   0.944   2.162  16.976  0.2962 -0.4749  0.3213
  361MPD2    H5 5412   1.009   2.100  16.929 -0.4159  0.7631 -2.3368
  361MPD2    N1 5413   0.557   2.466  16.935 -0.0593 -0.6139  0.3971
  361MPD2    H7 5414   0.552   2.464  17.037 -0.3566  0.0916  0.3945
  362TMC3    C1 5415   0.402   2.643  16.943  0.3839  0.2421 -0.4971
  362TMC3    C2 5416   0.358   2.632  17.074  0.2265 -0.1179  0.0451
  362TMC3    C3 5417   0.267   2.720  17.124 -0.3809 -0.4397  0.0244
  362TMC3    C4 5418   0.361   2.760  16.878 -0.5559  0.3684 -0.2853
  362TMC3    C5 5419   0.269   2.845  16.932 -0.5244  0.5609 -0.4207
  362TMC3    C6 5420   0.216   2.828  17.058 -0.0131 -0.9099  0.0350
  362TMC3     C 5421   0.488   2.561  16.868 -0.1681 -0.1483  0.1077
  362TMC3     O 5422   0.490   2.576  16.743 -0.0209 -0.3930 -0.3885
  362TMC3     H 5423   0.371   2.540  17.130  1.0782  1.8087  3.0257
  362TMC3    H1 5424   0.384   2.762  16.772 -2.3934  0.4028 -0.6775
  362TMC3    H2 5425   0.138   2.897  17.089  2.9199  1.7670  1.5574
  362TMC3    C7 5426   0.231   2.973  16.868  0.3789  0.1124  0.4780
  362TMC3    C8 5427   0.223   2.697  17.262  0.6476  0.1798  0.2712
  362TMC3    O1 5428   0.127   3.028  16.899 -0.3635  0.3913 -0.0720
  362TMC3    O2 5429   0.272   2.602  17.320  0.1047  0.3303 -0.5432
  363TMC3    C1 5430   3.579   4.706   9.005 -0.1877  0.1907 -0.4460
  363TMC3    C2 5431   3.673   4.686   9.102  0.1715  0.1476  0.2057
  363TMC3    C3 5432   3.694   0.064   9.189  0.6120  0.5433 -0.4136
  363TMC3    C4 5433   3.508   0.101   8.989  0.5904 -0.6520 -0.2360
  363TMC3    C5 5434   3.536   0.204   9.076 -0.3831  0.3097 -0.2874
  363TMC3    C6 5435   3.633   0.184   9.175  0.0761 -0.2722 -0.4139
  363TMC3     C 5436   3.548   4.595   8.912 -0.2272 -0.5477 -0.6107
  363TMC3     O 5437   3.641   4.522   8.900  0.6932  0.3133  0.2837
  363TMC3     H 5438   3.714   4.586   9.113  2.9515  1.0935 -1.5489
  363TMC3    H1 5439   3.435   0.117   8.911 -0.1884 -0.9521  0.4282
  363TMC3    H2 5440   3.644   0.254   9.258  1.3737  0.1226 -0.9217
  363TMC3    C7 5441   3.450   0.325   9.088  0.3656 -0.5680  0.0624
  363TMC3    C8 5442   3.760   0.046   9.316 -0.3478  0.0242 -0.2473
  363TMC3    O1 5443   3.486   0.411   9.165 -0.7474  0.0512 -0.2236
  363TMC3    O2 5444   3.733   0.113   9.415  0.0888 -0.3152  0.3445
  364MPD2     C 5445   2.298   3.706  10.017  0.0840  0.6387  0.8771
  364MPD2    C1 5446   2.317   3.831  10.070 -0.4885 -0.1311  0.1136
  364MPD2    C2 5447   2.275   3.850  10.202  0.8908 -0.1215  0.4275
  364MPD2    C3 5448   2.210   3.758  10.274  0.5067 -0.0593 -0.0101
  364MPD2    C4 5449   2.188   3.632  10.218  0.5415  0.1071  0.0308
  364MPD2    C5 5450   2.236   3.603  10.091  0.0319  0.5057 -0.5774
  364MPD2     H 5451   2.293   3.949  10.245  1.1331  0.6484 -1.4472
  364MPD2    H1 5452   2.141   3.548  10.269  0.1663 -0.2144 -0.8345
  364MPD2    H2 5453   2.324   3.688   9.913  0.5374  0.2294  1.0620
  364MPD2    H3 5454   2.226   3.498  10.063  1.0992  0.1618  0.3112
  364MPD2     N 5455   2.180   3.771  10.412  0.2767 -0.1354  0.1689
  364MPD2    H5 5456   2.166   3.683  10.460 -1.4692 -0.4799 -0.9812
  364MPD2    N1 5457   2.385   3.925   9.982 -0.1939 -0.2737 -0.4810
  364MPD2    H7 5458   2.430   3.887   9.899 -0.2175  1.7971 -1.4478
  365TMC3    C1 5459   2.520   4.125   9.952 -0.2230 -0.9563 -0.2856
  365TMC3    C2 5460   2.642   4.052   9.946 -0.5649 -0.9925 -1.1099
  365TMC3    C3 5461   2.763   4.111   9.973 -0.3336 -0.9784 -0.2058
  365TMC3    C4 5462   2.527   4.256   9.981  0.0230  0.4058  0.0255
  365TMC3    C5 5463   2.651   4.314   9.995  0.3429  0.6735 -0.4357
  365TMC3    C6 5464   2.767   4.248   9.993 -0.7878 -0.1621 -0.6128
  365TMC3     C 5465   2.411   4.055  10.018  0.1184 -0.2495  0.0784
  365TMC3     O 5466   2.362   4.116  10.114 -0.1831 -0.1432 -0.2688
  365TMC3     H 5467   2.635   3.946   9.926 -3.2773 -0.8018 -1.1762
  365TMC3    H1 5468   2.438   4.318   9.984  0.8828  1.7502 -2.3953
  365TMC3    H2 5469   2.854   4.307  10.019 -0.9022 -0.4471  0.4240
  365TMC3    C7 5470   2.648   4.435  10.066  0.1940 -0.9110  0.0203
  365TMC3    C8 5471   2.886   4.043   9.975 -0.4597 -1.0317 -0.0970
  365TMC3    O1 5472   2.713   4.535  10.029  0.2350 -0.0353 -0.2177
  365TMC3    O2 5473   2.980   4.119   9.964 -0.1760  0.1219  0.6021
  366MPD2     C 5474   0.599   1.315  15.421  1.0598  0.1752 -0.1911
  366MPD2    C1 5475   0.722   1.382  15.396  0.7444 -0.4501  0.6869
  366MPD2    C2 5476   0.828   1.308  15.339 -0.5638  0.3308 -0.4758
  366MPD2    C3 5477   0.818   1.170  15.323 -0.0391 -0.7857 -0.0373
  366MPD2    C4 5478   0.697   1.105  15.348 -0.4758 -0.6097  0.3338
  366MPD2    C5 5479   0.592   1.178  15.404  0.3530  0.8486  0.2376
  366MPD2     H 5480   0.921   1.356  15.311  0.7789 -0.8839  1.8876
  366MPD2    H1 5481   0.679   1.002  15.323  0.4492 -0.6602 -0.1355
  366MPD2    H2 5482   0.513   1.361  15.469 -0.4368  1.6688 -4.3290
  366MPD2    H3 5483   0.496   1.135  15.429  2.4047 -2.2269  2.9464
  366MPD2     N 5484   0.927   1.099  15.276 -0.3039  0.5558  0.3214
  366MPD2    H5 5485   1.015   1.151  15.276 -0.0802  0.1801 -1.7539
  366MPD2    N1 5486   0.747   1.519  15.418  0.0278  0.4255 -0.7108
  366MPD2    H7 5487   0.843   1.554  15.421  0.3189 -0.3779 -0.5853
  367TMC3    C1 5488   0.674   1.739  15.464 -0.2732  0.4153 -0.8801
  367TMC3    C2 5489   0.799   1.763  15.518  0.1373 -0.0725 -0.3720
  367TMC3    C3 5490   0.816   1.891  15.568  0.2339 -0.6907 -0.6485
  367TMC3    C4 5491   0.578   1.833  15.460 -0.0838  0.0776 -0.9468
  367TMC3    C5 5492   0.599   1.955  15.509 -0.6203 -0.7949  0.1958
  367TMC3    C6 5493   0.718   1.990  15.565 -0.5303 -0.9328 -0.0664
  367TMC3     C 5494   0.641   1.606  15.421 -0.2930  0.4729  0.2246
  367TMC3     O 5495   0.521   1.591  15.407  0.8555  0.6736 -0.1978
  367TMC3     H 5496   0.871   1.684  15.535  0.0229  0.0707  0.7689
  367TMC3    H1 5497   0.489   1.818  15.399 -0.6227  1.5655 -0.5364
  367TMC3    H2 5498   0.735   2.087  15.608 -1.3652 -0.3834 -0.9745
  367TMC3    C7 5499   0.498   2.055  15.489 -0.1558 -0.1812 -0.0180
  367TMC3    C8 5500   0.937   1.912  15.644  0.2141  0.6850 -0.5903
  367TMC3    O1 5501   0.535   2.171  15.492  0.5704  0.0638  0.5501
  367TMC3    O2 5502   0.939   2.009  15.719 -0.1350  0.0621 -0.4582
  368MPD2     C 5503   1.381   2.743  13.037  0.2181 -0.1963  0.3069
  368MPD2    C1 5504   1.396   2.857  12.968  0.3139 -0.0784  0.1052
  368MPD2    C2 5505   1.514   2.865  12.893 -0.3386  0.2039  0.0872
  368MPD2    C3 5506   1.597   2.758  12.878 -0.1571 -0.2736 -0.3948
  368MPD2    C4 5507   1.574   2.644  12.951  0.2651 -0.0171  0.3985
  368MPD2    C5 5508   1.463   2.636  13.033  0.0303 -0.2427 -0.3788
  368MPD2     H 5509   1.526   2.954  12.833 -0.6609 -0.4700 -0.9758
  368MPD2    H1 5510   1.647   2.565  12.950  1.3905  1.0214  0.6963
  368MPD2    H2 5511   1.293   2.740  13.101 -0.2875 -0.6726 -0.4149
  368MPD2    H3 5512   1.451   2.547  13.095  1.8511 -0.2350 -0.0174
  368MPD2     N 5513   1.699   2.752  12.777  0.4639  0.1423 -0.0686
  368MPD2    H5 5514   1.762   2.673  12.786 -0.0459 -0.3870 -1.3162
  368MPD2    N1 5515   1.284   2.939  12.952 -0.0033  0.2879 -0.7488
  368MPD2    H7 5516   1.201   2.915  13.005  0.8897 -1.6246 -0.2181
  369TMC3    C1 5517   1.140   3.098  12.868 -0.0908 -0.6634 -0.5281
  369TMC3    C2 5518   1.116   3.185  12.765 -0.7689  0.5113 -0.3832
  369TMC3    C3 5519   0.997   3.191  12.700  0.6305  0.4945 -0.5128
  369TMC3    C4 5520   1.034   3.020  12.917 -0.2721 -0.8625 -0.3622
  369TMC3    C5 5521   0.910   3.043  12.866 -0.2609  0.0934 -0.0943
  369TMC3    C6 5522   0.891   3.120  12.752  0.2051  0.9379  0.1030
  369TMC3     C 5523   1.279   3.044  12.860 -0.0520 -0.2529 -0.0249
  369TMC3     O 5524   1.364   3.107  12.800  0.1990 -0.3511  0.0252
  369TMC3     H 5525   1.196   3.253  12.737 -2.5913  2.3922 -1.0402
  369TMC3    H1 5526   1.058   2.950  12.996  2.4678  1.1433  0.5981
  369TMC3    H2 5527   0.793   3.127  12.707  0.0972  0.6716  0.2967
  369TMC3    C7 5528   0.795   3.011  12.955  0.3959 -0.3912 -0.0066
  369TMC3    C8 5529   0.987   3.242  12.566  0.7301  0.6898  0.3511
  369TMC3    O1 5530   0.835   2.947  13.055 -0.0131 -0.3371 -0.2718
  369TMC3    O2 5531   0.880   3.221  12.508 -0.3424  0.4649  0.5692
  370TMC3    C1 5532   1.452   3.165  16.321  0.0378 -0.4768  0.4298
  370TMC3    C2 5533   1.413   3.059  16.392  0.4214  0.6490  0.4662
  370TMC3    C3 5534   1.359   2.942  16.331  0.5537  0.7618  0.4359
  370TMC3    C4 5535   1.403   3.180  16.192  0.0594  0.0643  0.1785
  370TMC3    C5 5536   1.332   3.077  16.143 -0.3621 -0.2555 -0.8658
  370TMC3    C6 5537   1.311   2.949  16.206  0.2375 -0.2628 -0.6962
  370TMC3     C 5538   1.586   3.214  16.345 -0.3089 -0.0519  0.2528
  370TMC3     O 5539   1.657   3.160  16.431 -0.2229  0.3810 -0.2829
  370TMC3     H 5540   1.425   3.058  16.500  2.4221  0.7030  0.2396
  370TMC3    H1 5541   1.440   3.250  16.119  2.0791 -0.8874  0.2901
  370TMC3    H2 5542   1.257   2.874  16.150 -0.0444  0.1522 -0.9823
  370TMC3    C7 5543   1.313   3.084  15.995 -0.1809 -0.7598  0.1086
  370TMC3    C8 5544   1.383   2.815  16.388 -0.2621 -0.1940  0.7157
  370TMC3    O1 5545   1.279   3.195  15.944 -0.3162 -0.3003  0.1330
  370TMC3    O2 5546   1.356   2.716  16.319 -0.1482  0.1464  0.3611
  371TMC3    C1 5547   2.625   1.718  15.362 -0.0433  0.3132 -0.0656
  371TMC3    C2 5548   2.487   1.692  15.346  0.4885  0.2495  0.3695
  371TMC3    C3 5549   2.418   1.781  15.265 -0.2211 -0.1869  0.2773
  371TMC3    C4 5550   2.689   1.829  15.311 -0.1213  0.3310 -0.0191
  371TMC3    C5 5551   2.613   1.909  15.227 -0.3615 -0.1342 -0.0827
  371TMC3    C6 5552   2.480   1.886  15.202 -0.1872 -0.1116  0.5698
  371TMC3     C 5553   2.695   1.611  15.422 -0.3020 -0.5379  0.1361
  371TMC3     O 5554   2.793   1.644  15.482  0.0645 -0.2337 -0.3365
  371TMC3     H 5555   2.434   1.610  15.391  1.6774  0.1815  1.6638
  371TMC3    H1 5556   2.795   1.846  15.326 -0.3253  0.0876  1.7337
  371TMC3    H2 5557   2.426   1.942  15.127  0.1331  1.0564  1.2077
  371TMC3    C7 5558   2.669   2.034  15.181 -0.4690 -0.0904  0.0648
  371TMC3    C8 5559   2.284   1.771  15.246 -0.6304  0.4045 -0.6375
  371TMC3    O1 5560   2.601   2.115  15.119 -0.5320  0.2890  0.4809
  371TMC3    O2 5561   2.226   1.664  15.263  0.2542  0.0374 -0.0136
  372MPD2     C 5562   2.176   3.277  13.207 -0.3211  0.5027  0.6673
  372MPD2    C1 5563   2.250   3.165  13.187  0.4509  0.0221 -0.3860
  372MPD2    C2 5564   2.194   3.035  13.195 -0.1666 -0.5664  0.1712
  372MPD2    C3 5565   2.052   3.022  13.198 -0.0416  0.1919  0.3246
  372MPD2    C4 5566   1.981   3.143  13.220  0.1444  0.7681 -0.0424
  372MPD2    C5 5567   2.040   3.269  13.221  0.1737 -0.2493 -0.4984
  372MPD2     H 5568   2.266   2.955  13.183 -1.4189 -1.7947  0.8123
  372MPD2    H1 5569   1.874   3.140  13.201 -0.1449  3.2857  1.1810
  372MPD2    H2 5570   2.209   3.380  13.201  0.5807  0.2126  0.6809
  372MPD2    H3 5571   1.984   3.362  13.224  2.0882  0.9166 -1.8037
  372MPD2     N 5572   1.991   2.896  13.195 -0.3776  0.0209 -0.2348
  372MPD2    H5 5573   2.057   2.824  13.167 -1.1403 -1.1993  1.1141
  372MPD2    N1 5574   2.392   3.173  13.180 -0.1156  0.0365  0.6408
  372MPD2    H7 5575   2.451   3.090  13.177 -0.7195 -0.2749 -2.0442
  373TMC3    C1 5576   1.810   2.733  13.185 -0.9748 -0.3702 -1.0327
  373TMC3    C2 5577   1.730   2.663  13.269 -0.1606 -0.4160 -0.1902
  373TMC3    C3 5578   1.720   2.529  13.260 -0.0299  0.0843  0.0217
  373TMC3    C4 5579   1.896   2.662  13.098 -0.1227  0.5620 -0.3536
  373TMC3    C5 5580   1.892   2.530  13.095  0.2238  0.2151 -0.0029
  373TMC3    C6 5581   1.805   2.458  13.180  0.3401  1.1871  0.2681
  373TMC3     C 5582   1.859   2.866  13.224  0.6708  0.3117 -0.3480
  373TMC3     O 5583   1.774   2.939  13.268 -0.3457 -0.5277  0.4186
  373TMC3     H 5584   1.662   2.717  13.334  0.2538 -0.3369  0.1774
  373TMC3    H1 5585   1.960   2.711  13.025  2.1784 -3.7591 -1.2545
  373TMC3    H2 5586   1.806   2.350  13.187 -0.3193  0.9694 -2.9226
  373TMC3    C7 5587   2.013   2.460  13.069 -0.3291  0.2757  0.1739
  373TMC3    C8 5588   1.694   2.462  13.386  0.0361 -1.1672 -0.5895
  373TMC3    O1 5589   2.053   2.445  12.955  0.0888  0.0136 -0.4837
  373TMC3    O2 5590   1.593   2.396  13.391 -0.4100 -0.4538 -0.2381
  374TMC3    C1 5591   3.059   2.451   9.650 -0.2842 -0.0357  0.3939
  374TMC3    C2 5592   3.041   2.372   9.759 -0.6694  1.0288  0.3900
  374TMC3    C3 5593   3.045   2.439   9.878  0.5789 -0.2946 -0.0415
  374TMC3    C4 5594   3.099   2.583   9.659  0.1943  0.6409 -0.3496
  374TMC3    C5 5595   3.098   2.648   9.778 -1.0212  0.0055  0.1041
  374TMC3    C6 5596   3.071   2.573   9.892 -0.1607  0.3224 -0.3869
  374TMC3     C 5597   3.096   2.383   9.529 -0.8863 -0.6321  0.3101
  374TMC3     O 5598   3.132   2.452   9.434 -0.1422  0.4270 -0.0295
  374TMC3     H 5599   3.007   2.269   9.758  1.0330  0.4763 -0.0017
  374TMC3    H1 5600   3.136   2.629   9.568 -1.6258 -1.5079 -2.1805
  374TMC3    H2 5601   3.072   2.629   9.985  0.2799  0.4759 -0.4833
  374TMC3    C7 5602   3.150   2.780   9.775 -0.0085 -0.2641  0.7582
  374TMC3    C8 5603   3.021   2.356   9.998  0.3085  0.1203 -0.8455
  374TMC3    O1 5604   3.155   2.833   9.666  0.4057 -0.0771  0.2515
  374TMC3    O2 5605   3.021   2.238   9.979 -0.1679 -0.6038  0.4703
  375MPD2     C 5606   2.916   3.978  17.026 -0.5809  0.2469 -0.1606
  375MPD2    C1 5607   2.810   3.968  16.936 -0.6193 -0.5189 -0.7881
  375MPD2    C2 5608   2.836   4.023  16.812  1.1221  0.7981  0.0376
  375MPD2    C3 5609   2.949   4.101  16.783 -0.0561  0.3319  0.2727
  375MPD2    C4 5610   3.037   4.126  16.883  0.2632 -0.1987 -0.2084
  375MPD2    C5 5611   3.029   4.050  16.999  0.6049  0.3333 -0.5365
  375MPD2     H 5612   2.760   4.004  16.737  1.1910 -0.3642  0.2549
  375MPD2    H1 5613   3.129   4.183  16.875  1.2678 -1.5287  1.7588
  375MPD2    H2 5614   2.910   3.922  17.118  0.4557 -1.1411 -0.9301
  375MPD2    H3 5615   3.109   4.052  17.073 -1.3198 -2.6527  1.6500
  375MPD2     N 5616   2.978   4.151  16.652  0.2488  0.2004  0.0200
  375MPD2    H5 5617   3.067   4.200  16.640 -0.3472  1.4213  0.6755
  375MPD2    N1 5618   2.685   3.911  16.958 -0.1091  0.3839  0.1190
  375MPD2    H7 5619   2.616   3.906  16.884 -1.6529 -0.5328  1.6193
  376TMC3    C1 5620   2.959   4.210  16.426 -0.3991  0.4836  0.1026
  376TMC3    C2 5621   3.096   4.203  16.407 -0.0500 -0.2637 -0.0443
  376TMC3    C3 5622   3.144   4.267  16.296  0.6038  0.7009  0.4255
  376TMC3    C4 5623   2.869   4.280  16.337  0.0110  0.4654 -1.1334
  376TMC3    C5 5624   2.927   4.338  16.230 -0.7526  0.5665 -0.4235
  376TMC3    C6 5625   3.060   4.330  16.203  0.5774 -0.2738  0.1305
  376TMC3     C 5626   2.895   4.158  16.543 -0.6849  0.7449  0.8017
  376TMC3     O 5627   2.770   4.147  16.541  0.1708  0.1092  0.8494
  376TMC3     H 5628   3.154   4.148  16.479  0.7261 -0.5392 -0.8729
  376TMC3    H1 5629   2.761   4.281  16.351  0.2170  1.9486  0.3076
  376TMC3    H2 5630   3.109   4.373  16.117  1.3827  1.1630  1.3082
  376TMC3    C7 5631   2.838   4.406  16.136 -0.2418 -0.1215 -0.0946
  376TMC3    C8 5632   3.274   4.220  16.255  0.1558 -0.0202 -0.1648
  376TMC3    O1 5633   2.728   4.440  16.184  0.5785  0.3426 -0.1665
  376TMC3    O2 5634   3.338   4.299  16.186  0.3304  0.0548  0.1730
  377MPD2     C 5635   0.295   3.384  12.147  0.7883 -0.4835  0.6996
  377MPD2    C1 5636   0.317   3.293  12.258  0.4038 -0.7145 -0.3337
  377MPD2    C2 5637   0.263   3.326  12.382  0.0812  0.6693 -0.2286
  377MPD2    C3 5638   0.191   3.445  12.396  0.0443 -0.0765  1.0589
  377MPD2    C4 5639   0.170   3.533  12.293 -0.1208 -0.5288 -0.3281
  377MPD2    C5 5640   0.228   3.501  12.170 -0.1797  0.4430  0.4678
  377MPD2     H 5641   0.284   3.264  12.469  1.7636  0.7740 -0.5714
  377MPD2    H1 5642   0.118   3.627  12.310 -0.6294 -0.8202 -0.3028
  377MPD2    H2 5643   0.327   3.364  12.046 -1.4258 -1.2070  0.1527
  377MPD2    H3 5644   0.208   3.578  12.096 -0.4752  1.2421  1.3633
  377MPD2     N 5645   0.146   3.485  12.525  0.5416 -0.4120  0.3772
  377MPD2    H5 5646   0.055   3.530  12.528 -0.3389 -2.3495  2.7423
  377MPD2    N1 5647   0.394   3.174  12.223 -0.6141  0.1718  0.0144
  377MPD2    H7 5648   0.426   3.158  12.128 -0.0227  3.2964 -0.3166
  378TMC3    C1 5649   0.661   2.911  12.091  0.0197 -0.3384 -0.6634
  378TMC3    C2 5650   0.540   2.976  12.116  0.2802 -0.1332  0.1931
  378TMC3    C3 5651   0.494   2.971  12.250 -0.1369 -0.0241 -0.0393
  378TMC3    C4 5652   0.734   2.858  12.188  0.0991  0.1638  0.4460
  378TMC3    C5 5653   0.689   2.840  12.315  0.7932 -0.3837 -0.0444
  378TMC3    C6 5654   0.572   2.899  12.343  1.1317  0.0654  0.2299
  378TMC3     C 5655   0.711   2.926  11.956  0.3758  0.2062 -0.2304
  378TMC3     O 5656   0.633   2.964  11.870  0.1893 -0.8384 -0.3932
  378TMC3     H 5657   0.479   3.012  12.035  0.9625 -1.6819 -0.9999
  378TMC3    H1 5658   0.822   2.800  12.162 -1.3522 -1.5107 -0.7909
  378TMC3    H2 5659   0.530   2.878  12.440  1.2784  0.8607  0.4680
  378TMC3    C7 5660   0.773   2.807  12.426 -1.3843 -0.3461  0.5580
  378TMC3    C8 5661   0.415   3.071  12.312 -0.2551  0.4022 -0.1679
  378TMC3    O1 5662   0.727   2.725  12.505 -0.4009  0.2513  0.2097
  378TMC3    O2 5663   0.385   3.055  12.427 -0.1301  0.1953 -0.6033
  379MPD2     C 5664   2.239   1.213  15.721 -0.4254  0.1534  0.3711
  379MPD2    C1 5665   2.134   1.173  15.805  0.6660 -0.8332 -0.4627
  379MPD2    C2 5666   2.159   1.098  15.917  0.5054 -0.2997  0.2486
  379MPD2    C3 5667   2.292   1.076  15.951  0.5223 -0.2084 -0.3128
  379MPD2    C4 5668   2.390   1.121  15.875 -0.2813  0.3947 -0.6598
  379MPD2    C5 5669   2.364   1.183  15.758  0.0332 -0.2371 -0.0755
  379MPD2     H 5670   2.074   1.075  15.980  0.9561 -1.1428  0.5483
  379MPD2    H1 5671   2.492   1.090  15.895 -0.7424  0.7671  2.2937
  379MPD2    H2 5672   2.216   1.275  15.635  1.4790 -2.1518 -1.7939
  379MPD2    H3 5673   2.451   1.201  15.695 -2.8050  2.2880 -3.2496
  379MPD2     N 5674   2.335   1.018  16.079  0.1169 -0.8652  0.1269
  379MPD2    H5 5675   2.428   0.980  16.088  0.4518 -0.1192 -0.1603
  379MPD2    N1 5676   2.004   1.208  15.763  0.2807 -0.3078 -0.7554
  379MPD2    H7 5677   2.007   1.258  15.675  0.2127  1.4754  0.2638
  380TMC3    C1 5678   1.782   1.262  15.760 -0.1796  0.4014 -0.1510
  380TMC3    C2 5679   1.767   1.238  15.629 -0.3754 -0.1160 -1.2478
  380TMC3    C3 5680   1.647   1.278  15.573 -0.0171  0.0667  0.3647
  380TMC3    C4 5681   1.689   1.328  15.837 -0.0261  0.4931 -0.6172
  380TMC3    C5 5682   1.574   1.362  15.773  0.2967 -0.8562  0.6339
  380TMC3    C6 5683   1.557   1.341  15.640  0.3313  0.2685  0.2967
  380TMC3     C 5684   1.890   1.202  15.833 -0.9240  0.2857  0.0416
  380TMC3     O 5685   1.867   1.160  15.942  0.5592  0.3673 -0.2767
  380TMC3     H 5686   1.840   1.181  15.571  0.8939  0.1615  0.0726
  380TMC3    H1 5687   1.708   1.340  15.944  0.3926 -0.3713 -0.5867
  380TMC3    H2 5688   1.478   1.385  15.581 -0.5863 -1.4843  0.2319
  380TMC3    C7 5689   1.485   1.455  15.836 -0.5409 -0.1133 -0.4001
  380TMC3    C8 5690   1.634   1.285  15.431 -0.5896  0.1408  0.2028
  380TMC3    O1 5691   1.514   1.489  15.953 -0.3582 -0.6375  0.1065
  380TMC3    O2 5692   1.524   1.291  15.383  0.2806 -0.0515 -0.0599
  381TMC3    C1 5693   1.483   2.142  15.862 -0.0245  0.4624 -0.2673
  381TMC3    C2 5694   1.512   2.279  15.848 -0.1361 -0.2175  0.4389
  381TMC3    C3 5695   1.504   2.357  15.960  0.4443  0.2718 -0.0796
  381TMC3    C4 5696   1.441   2.094  15.982 -0.7895 -0.3575 -0.0559
  381TMC3    C5 5697   1.414   2.172  16.088  0.5193  0.7014  1.0562
  381TMC3    C6 5698   1.452   2.307  16.078 -0.3580 -0.1460  0.7336
  381TMC3     C 5699   1.475   2.068  15.738  0.2524 -0.7744  0.2158
  381TMC3     O 5700   1.458   2.127  15.634  1.0041 -0.0644 -0.5673
  381TMC3     H 5701   1.532   2.311  15.746 -0.7670  0.0390  0.3996
  381TMC3    H1 5702   1.429   1.987  15.992 -1.7006 -0.3807 -1.3625
  381TMC3    H2 5703   1.435   2.373  16.162 -1.8831 -0.1463  0.4333
  381TMC3    C7 5704   1.401   2.110  16.216  0.5877 -0.5661  0.0829
  381TMC3    C8 5705   1.561   2.489  15.951 -0.3517  0.0811  0.3722
  381TMC3    O1 5706   1.458   2.005  16.227 -0.5033  0.6450  0.1192
  381TMC3    O2 5707   1.575   2.537  15.837  0.3619  0.2784 -0.4058
  382MPD2     C 5708   1.092   4.704  17.283  0.3574 -0.1864 -0.0065
  382MPD2    C1 5709   1.071   0.063  17.398  0.0477  0.1331  0.0087
  382MPD2    C2 5710   0.997   0.010  17.506  0.2347  0.3894  0.7040
  382MPD2    C3 5711   0.932   4.615  17.482 -0.7788 -0.5261  0.8827
  382MPD2    C4 5712   0.953   4.531  17.374  0.1063 -0.1367 -0.6535
  382MPD2    C5 5713   1.032   4.583  17.277  0.4381 -0.5922  0.3611
  382MPD2     H 5714   0.997   0.058  17.603  1.5900  2.6211 -0.3876
  382MPD2    H1 5715   0.908   4.433  17.365 -1.7362  0.8268 -2.0175
  382MPD2    H2 5716   1.140   0.025  17.197 -2.1767 -0.4839 -1.5841
  382MPD2    H3 5717   1.042   4.516  17.192  0.5382  0.6277 -0.5773
  382MPD2     N 5718   0.843   4.562  17.574  0.7615 -0.2327 -0.0286
  382MPD2    H5 5719   0.803   4.476  17.537 -0.0028  0.1664 -0.1213
  382MPD2    N1 5720   1.127   0.197  17.418 -0.4579 -0.5316 -0.6338
  382MPD2    H7 5721   1.127   0.234  17.513 -0.5351 -3.1551  0.3958
  383TMC3    C1 5722   0.681   4.552   0.058  0.5375 -0.5332  0.0743
  383TMC3    C2 5723   0.607   4.460  17.681 -0.5952 -0.8302  0.0523
  383TMC3    C3 5724   0.499   4.407   0.055 -0.2513  0.4181  0.1150
  383TMC3    C4 5725   0.659   4.575   0.193 -0.3160 -0.3103  0.4495
  383TMC3    C5 5726   0.556   4.514   0.256 -0.1194 -0.3580  0.1574
  383TMC3    C6 5727   0.468   4.434   0.185 -0.1632  0.0146  0.2901
  383TMC3     C 5728   0.792   4.620  17.688 -0.5031 -0.5685 -0.0652
  383TMC3     O 5729   0.824   0.003   0.048  0.1318  0.1207 -0.3513
  383TMC3     H 5730   0.619   4.456  17.573  0.6688 -2.8760  0.2792
  383TMC3    H1 5731   0.725   4.648   0.239 -0.6422 -0.8454  1.7569
  383TMC3    H2 5732   0.396   4.371   0.235 -0.1139 -0.6149 -0.4142
  383TMC3    C7 5733   0.509   4.593   0.375  0.9240  0.0516 -0.4734
  383TMC3    C8 5734   0.395   4.361  17.663  0.0059  0.6717 -0.2536
  383TMC3    O1 5735   0.571   4.690   0.413 -0.1656  0.2817  0.3734
  383TMC3    O2 5736   0.281   4.404  17.678 -0.4601 -0.0657 -0.2718
  384MPD2     C 5737   2.616   1.213  11.467 -0.0112  0.5271  0.0302
  384MPD2    C1 5738   2.591   1.107  11.555 -0.0173  0.0458  0.2952
  384MPD2    C2 5739   2.590   0.979  11.502  0.0838 -0.4057 -0.1868
  384MPD2    C3 5740   2.622   0.953  11.370 -0.2604 -0.3935 -0.8733
  384MPD2    C4 5741   2.664   1.055  11.289  0.1955 -0.4117  0.2533
  384MPD2    C5 5742   2.651   1.186  11.337 -0.3004  0.2901  0.1814
  384MPD2     H 5743   2.573   0.891  11.564 -0.8264 -0.9976 -1.2851
  384MPD2    H1 5744   2.704   1.042  11.189  2.1454  0.9146  0.8776
  384MPD2    H2 5745   2.606   1.316  11.498 -2.3632  0.2812  0.0984
  384MPD2    H3 5746   2.657   1.275  11.275 -0.9722  1.0070  1.1370
  384MPD2     N 5747   2.619   0.823  11.309 -0.6657  1.2494  0.4854
  384MPD2    H5 5748   2.691   0.814  11.238 -2.4269 -0.8534 -1.0401
  384MPD2    N1 5749   2.577   1.122  11.693 -0.2581  0.2169 -0.0702
  384MPD2    H7 5750   2.600   1.033  11.736  0.2445 -0.4197 -1.6235
  385TMC3    C1 5751   2.600   0.578  11.332  0.1440 -0.4779 -0.5447
  385TMC3    C2 5752   2.491   0.491  11.353  0.1180 -0.4523  0.6721
  385TMC3    C3 5753   2.513   0.388  11.440 -0.1196 -0.1564  0.2183
  385TMC3    C4 5754   2.719   0.561  11.400  0.1739  0.1006 -0.4166
  385TMC3    C5 5755   2.729   0.457  11.492  0.5629  0.3701 -0.1119
  385TMC3    C6 5756   2.628   0.371  11.506  0.2149  0.2727  0.1097
  385TMC3     C 5757   2.544   0.714  11.359 -0.2404  0.4770  0.5364
  385TMC3     O 5758   2.440   0.714  11.425  0.6057 -0.2777 -0.2462
  385TMC3     H 5759   2.402   0.514  11.296  0.7377  1.0940  0.3554
  385TMC3    H1 5760   2.799   0.633  11.385  0.4082 -0.1720 -0.4897
  385TMC3    H2 5761   2.629   0.287  11.574 -1.0118 -0.0976 -0.3248
  385TMC3    C7 5762   2.769   0.511  11.619 -0.1385  0.7321  0.1046
  385TMC3    C8 5763   2.401   0.307  11.482 -0.3108  0.3934  0.6619
  385TMC3    O1 5764   2.828   0.623  11.619  0.3315 -0.5802  0.4288
  385TMC3    O2 5765   2.406   0.252  11.592  0.3128 -0.1425  0.5146
  386TMC3    C1 5766   1.696   3.602  11.298 -0.5090  0.0479  0.3144
  386TMC3    C2 5767   1.734   3.584  11.172  0.2307  0.6997 -0.1392
  386TMC3    C3 5768   1.630   3.578  11.078 -0.6702  0.8359 -0.3415
  386TMC3    C4 5769   1.568   3.613  11.338 -0.4948 -0.3612  0.0363
  386TMC3    C5 5770   1.465   3.603  11.250  0.0487  0.2130 -0.2640
  386TMC3    C6 5771   1.501   3.591  11.116  0.0495  0.4231  0.0804
  386TMC3     C 5772   1.787   3.574  11.412 -0.3672 -0.4866  0.4579
  386TMC3     O 5773   1.762   3.644  11.507 -0.0424 -0.7190 -0.3381
  386TMC3     H 5774   1.839   3.575  11.147  0.6167 -0.7296  2.0227
  386TMC3    H1 5775   1.546   3.593  11.443 -0.4329  2.7207  0.6601
  386TMC3    H2 5776   1.431   3.592  11.033  2.0104  0.7821 -1.5965
  386TMC3    C7 5777   1.333   3.590  11.291  0.5828  0.1271 -0.6918
  386TMC3    C8 5778   1.654   3.568  10.934 -0.3333 -0.3788  0.0042
  386TMC3    O1 5779   1.305   3.606  11.408  0.1094  0.0234 -0.2828
  386TMC3    O2 5780   1.575   3.514  10.854  0.1015  0.3052  0.0159
  387MPD2     C 5781   4.666   3.414   9.207 -0.2427  0.1151 -0.0384
  387MPD2    C1 5782   0.023   3.424   9.316 -0.3713 -0.0284  0.0577
  387MPD2    C2 5783   0.112   3.319   9.338  0.9040  0.2592 -0.1206
  387MPD2    C3 5784   0.119   3.205   9.256 -1.1439 -0.6956  0.0494
  387MPD2    C4 5785   0.035   3.200   9.144 -0.3666  0.3993  0.2285
  387MPD2    C5 5786   4.677   3.309   9.123 -0.5540 -1.0488  0.1174
  387MPD2     H 5787   0.171   3.319   9.429 -0.4667 -0.9442  0.7686
  387MPD2    H1 5788   0.040   3.116   9.075 -1.1478  1.6574 -1.3631
  387MPD2    H2 5789   4.603   3.494   9.170  1.0210  1.9264  1.7786
  387MPD2    H3 5790   4.622   3.312   9.030 -0.1434 -1.3839 -0.1352
  387MPD2     N 5791   0.197   3.097   9.304 -0.1055  0.3232 -0.1550
  387MPD2    H5 5792   0.237   3.099   9.397 -0.2323 -0.5181 -0.0835
  387MPD2    N1 5793   0.019   3.525   9.410  0.4791  0.2269 -0.8400
  387MPD2    H7 5794   0.086   3.508   9.484 -0.7858 -1.0179  0.0126
  388TMC3    C1 5795   4.652   3.688   9.553  0.3406 -0.4659 -0.4955
  388TMC3    C2 5796   4.695   3.811   9.592  0.2780  0.0173  0.4968
  388TMC3    C3 5797   4.695   3.832   9.729 -0.2158  0.1467 -0.5734
  388TMC3    C4 5798   4.616   3.594   9.640  0.3471 -0.6699 -0.2314
  388TMC3    C5 5799   4.628   3.608   9.778 -0.2722  0.8933 -0.2767
  388TMC3    C6 5800   4.667   3.732   9.820  0.5792  0.1376  0.5529
  388TMC3     C 5801   4.660   3.643   9.411 -0.1062 -0.4261  0.4805
  388TMC3     O 5802   4.600   3.698   9.319 -0.1910 -0.0201 -0.1764
  388TMC3     H 5803   4.712   3.883   9.512  1.0335  1.3411  1.8626
  388TMC3    H1 5804   4.566   3.509   9.596 -1.9677  0.8525 -0.5863
  388TMC3    H2 5805   4.663   3.748   9.927 -0.3531 -0.8116  0.6559
  388TMC3    C7 5806   4.678   3.495   9.858 -0.4675  0.5913 -0.3219
  388TMC3    C8 5807   4.637   3.958   9.765 -0.0143 -1.0646  0.2357
  388TMC3    O1 5808   4.710   3.522   9.973 -0.5574 -0.5157 -0.1901
  388TMC3    O2 5809   4.569   4.020   9.682  0.2593 -0.4006  0.3261
  389MPD2     C 5810   4.642   1.540  10.475 -0.0381 -0.2703 -0.6699
  389MPD2    C1 5811   4.538   1.453  10.443 -0.1904 -0.5403 -0.3605
  389MPD2    C2 5812   4.452   1.410  10.540  0.0012 -0.6726 -0.5302
  389MPD2    C3 5813   4.477   1.436  10.672  0.0379  0.0735  0.0688
  389MPD2    C4 5814   4.576   1.529  10.702  0.6907 -0.0994 -0.4001
  389MPD2    C5 5815   4.654   1.579  10.602 -0.0502 -0.2317  0.0964
  389MPD2     H 5816   4.372   1.340  10.520 -0.3403 -0.5968  0.5677
  389MPD2    H1 5817   4.598   1.561  10.803  0.3306  1.8038 -0.9172
  389MPD2    H2 5818   4.711   1.586  10.406 -0.5839  1.3571 -0.1452
  389MPD2    H3 5819   0.015   1.642  10.631  1.3140 -1.9884 -0.0214
  389MPD2     N 5820   4.396   1.388  10.781 -0.6536 -0.6397  0.6424
  389MPD2    H5 5821   4.422   1.425  10.872 -0.4719  0.7224  0.0442
  389MPD2    N1 5822   4.526   1.415  10.307  0.3429  0.0842 -0.9781
  389MPD2    H7 5823   4.598   1.455  10.248 -0.0481  1.9273 -0.1875
  390TMC3    C1 5824   4.246   1.273  10.907 -0.4190  0.0341 -0.2348
  390TMC3    C2 5825   4.231   1.136  10.938  0.5745  0.2390 -0.4421
  390TMC3    C3 5826   4.217   1.104  11.071 -1.0081 -0.4149 -0.0138
  390TMC3    C4 5827   4.246   1.372  10.994  0.0299  0.5675  0.3224
  390TMC3    C5 5828   4.226   1.334  11.124  0.6899 -0.3424 -0.3615
  390TMC3    C6 5829   4.227   1.205  11.167 -0.0154  0.2177  0.0261
  390TMC3     C 5830   4.294   1.297  10.774 -0.4264 -0.3727  0.0901
  390TMC3     O 5831   4.254   1.235  10.677 -0.0995  0.0646 -1.0063
  390TMC3     H 5832   4.223   1.054  10.867  1.2662 -1.8854  1.9657
  390TMC3    H1 5833   4.259   1.473  10.957 -0.7511  0.2935 -0.6946
  390TMC3    H2 5834   4.228   1.189  11.274 -3.1101  2.2485  0.3545
  390TMC3    C7 5835   4.173   1.434  11.220 -0.4555  0.0486 -0.2166
  390TMC3    C8 5836   4.129   0.998  11.109  0.8010  0.4331  0.7762
  390TMC3    O1 5837   4.204   1.551  11.213  0.4259 -0.6291  0.9957
  390TMC3    O2 5838   4.065   0.957  11.014 -0.8140  0.4880  0.2521
  391MPD2     C 5839   3.054   3.047  11.483 -0.6367  0.5846  0.7094
  391MPD2    C1 5840   3.168   3.084  11.415  0.0777 -0.1131 -0.1504
  391MPD2    C2 5841   3.183   3.049  11.286  0.3430  0.2844 -0.0050
  391MPD2    C3 5842   3.094   2.962  11.222 -0.1646  0.3841 -0.5753
  391MPD2    C4 5843   2.982   2.924  11.287 -0.2177  0.0977  0.1343
  391MPD2    C5 5844   2.961   2.968  11.416 -0.0395 -0.4279  0.2932
  391MPD2     H 5845   3.272   3.083  11.235  0.2223 -0.1636 -0.5175
  391MPD2    H1 5846   2.905   2.865  11.238  2.5445 -2.7837 -0.7314
  391MPD2    H2 5847   3.029   3.084  11.582 -1.9342 -1.3088  1.0785
  391MPD2    H3 5848   2.871   2.937  11.469  0.3309 -0.8039  0.6983
  391MPD2     N 5849   3.130   2.908  11.098 -0.1386 -0.2335  0.1991
  391MPD2    H5 5850   3.221   2.937  11.064  0.7866 -1.9701  1.2216
  391MPD2    N1 5851   3.269   3.150  11.488 -0.4900 -0.2271 -0.7389
  391MPD2    H7 5852   3.245   3.180  11.581 -1.8343 -1.4203 -0.7005
  392TMC3    C1 5853   3.119   2.809  10.878 -0.6448  0.1780 -0.4894
  392TMC3    C2 5854   3.076   2.715  10.792 -0.0842  0.3520 -0.3770
  392TMC3    C3 5855   3.120   2.709  10.664 -0.1191  0.2445 -0.1502
  392TMC3    C4 5856   3.202   2.909  10.839 -0.5815  0.0244  0.1019
  392TMC3    C5 5857   3.243   2.902  10.705 -0.1077  0.0174  0.3392
  392TMC3    C6 5858   3.202   2.802  10.620  0.6313 -0.3432  0.1377
  392TMC3     C 5859   3.063   2.824  11.013  1.0943  0.6051  0.4634
  392TMC3     O 5860   2.958   2.766  11.033  0.0621  0.1770  0.1602
  392TMC3     H 5861   3.006   2.646  10.838  0.2326  0.0882 -0.2932
  392TMC3    H1 5862   3.231   2.991  10.904 -0.7575 -1.4868  2.0762
  392TMC3    H2 5863   3.232   2.816  10.516 -2.0373 -0.5156 -0.6631
  392TMC3    C7 5864   3.357   2.978  10.663  0.2247 -0.2938  0.2834
  392TMC3    C8 5865   3.041   2.654  10.558  0.1324 -0.1275  0.1640
  392TMC3    O1 5866   3.367   3.070  10.741  0.0127  0.0578 -0.0034
  392TMC3    O2 5867   3.037   2.733  10.461  0.2235  0.6300  0.1108
  393TMC3    C1 5868   2.269   0.957  10.564 -0.1278 -0.1700 -0.3141
  393TMC3    C2 5869   2.185   0.963  10.667 -0.5830  0.3183  0.3744
  393TMC3    C3 5870   2.143   0.843  10.733 -0.3737 -0.6755  0.1208
  393TMC3    C4 5871   2.314   0.836  10.518 -0.2143  0.2849  0.1462
  393TMC3    C5 5872   2.286   0.726  10.589 -0.0542 -0.7570  0.3205
  393TMC3    C6 5873   2.197   0.720  10.698  0.4659 -1.1116  0.6515
  393TMC3     C 5874   2.254   1.055  10.458  0.1427  0.0555  0.1039
  393TMC3     O 5875   2.341   1.075  10.374  0.1244  0.6470  0.7365
  393TMC3     H 5876   2.165   1.056  10.720 -2.6262  1.0799 -1.7403
  393TMC3    H1 5877   2.397   0.852  10.451 -1.9463  0.6266 -1.9161
  393TMC3    H2 5878   2.186   0.631  10.758  0.6649 -2.0531 -0.7133
  393TMC3    C7 5879   2.373   0.610  10.568 -0.5538 -0.1698 -0.0027
  393TMC3    C8 5880   2.100   0.859  10.869 -0.4582  0.0847 -0.2753
  393TMC3    O1 5881   2.346   0.514  10.640  0.8123 -0.0899 -0.1196
  393TMC3    O2 5882   2.130   0.775  10.951 -0.1000  0.0572  0.3407
  394TMC3    C1 5883   4.430   1.339  10.103 -0.2061 -0.3769 -0.1753
  394TMC3    C2 5884   4.319   1.333  10.020 -0.1401  0.4631  0.0093
  394TMC3    C3 5885   4.334   1.347   9.886 -0.2898  0.1195  0.2546
  394TMC3    C4 5886   4.559   1.347  10.053  1.0030  0.6058 -0.2882
  394TMC3    C5 5887   4.562   1.372   9.918  0.2919  0.6169 -0.0211
  394TMC3    C6 5888   4.451   1.373   9.836  0.0930  0.3172  0.0986
  394TMC3     C 5889   4.420   1.341  10.249 -0.6729  0.6607  0.3705
  394TMC3     O 5890   4.307   1.321  10.293 -0.2525 -1.0085 -0.0151
  394TMC3     H 5891   4.217   1.332  10.056  0.1473 -0.1102  0.8097
  394TMC3    H1 5892   4.651   1.356  10.110  0.4779  0.5533  0.5575
  394TMC3    H2 5893   4.461   1.399   9.731 -0.9231 -0.8568 -0.2766
  394TMC3    C7 5894   4.661   1.476   9.875 -0.2727 -0.3657 -0.2235
  394TMC3    C8 5895   4.251   1.260   9.807 -0.3633  0.2882  0.4085
  394TMC3    O1 5896   4.624   1.570   9.811 -0.3345 -0.1972 -0.6182
  394TMC3    O2 5897   4.249   1.284   9.688  0.0273 -0.1488 -0.3524
  395TMC3    C1 5898   3.375   3.486  14.086 -0.1214  0.9416 -0.2324
  395TMC3    C2 5899   3.262   3.464  14.167  0.0499 -0.0572  0.5231
  395TMC3    C3 5900   3.236   3.555  14.259 -0.0390  0.0992  0.1121
  395TMC3    C4 5901   3.456   3.595  14.103  0.0195 -0.5802 -0.2327
  395TMC3    C5 5902   3.423   3.687  14.188  0.8996  0.2697  0.2986
  395TMC3    C6 5903   3.322   3.665  14.278  0.2781 -0.1217  0.4207
  395TMC3     C 5904   3.456   3.361  14.082 -0.0762 -0.6787  0.6056
  395TMC3     O 5905   3.559   3.377  14.152  0.1729  0.0412 -0.3492
  395TMC3     H 5906   3.194   3.385  14.140 -0.6731  0.1083  1.8640
  395TMC3    H1 5907   3.550   3.601  14.049  1.1698 -0.1101  1.8164
  395TMC3    H2 5908   3.304   3.745  14.348 -2.2607  1.2123 -1.7930
  395TMC3    C7 5909   3.513   3.802  14.208  1.0630 -0.1715 -0.7828
  395TMC3    C8 5910   3.195   3.502  14.390  0.1794 -0.2237  0.0660
  395TMC3    O1 5911   3.491   3.868  14.311  0.2869  0.1839 -0.2231
  395TMC3    O2 5912   3.196   3.583  14.480 -0.7611  0.5977  0.9271
  396MPD2     C 5913   3.489   4.463  17.267  0.8446 -0.5054  0.7903
  396MPD2    C1 5914   3.622   4.469  17.245 -0.2512  0.8120 -0.8572
  396MPD2    C2 5915   3.674   4.572  17.165 -0.3485  0.3777  0.9872
  396MPD2    C3 5916   3.596   4.668  17.120  0.6877  0.2492 -0.4867
  396MPD2    C4 5917   3.460   4.659  17.139  0.1922  0.0525 -0.2462
  396MPD2    C5 5918   3.405   4.554  17.211 -0.4938 -0.3646  0.0300
  396MPD2     H 5919   3.778   4.569  17.138 -0.3128  0.9510  1.0661
  396MPD2    H1 5920   3.387   0.013  17.115 -1.9998 -1.8026  0.3813
  396MPD2    H2 5921   3.447   4.382  17.326 -1.2953 -0.1259 -0.1824
  396MPD2    H3 5922   3.300   4.560  17.239 -0.5491 -0.1642 -0.2137
  396MPD2     N 5923   3.653   0.052  17.047  0.5888 -0.6117 -0.0550
  396MPD2    H5 5924   3.751   0.062  17.026  1.2881 -2.2998  2.3561
  396MPD2    N1 5925   3.703   4.368  17.310  0.3927 -0.5003 -0.3890
  396MPD2    H7 5926   3.651   4.318  17.382 -0.6365 -0.2708 -0.9737
  397TMC3    C1 5927   3.886   4.227  17.342 -0.2192  0.8484 -0.5539
  397TMC3    C2 5928   3.924   4.150  17.240  0.3671 -1.2901 -0.3131
  397TMC3    C3 5929   3.867   4.029  17.205 -0.4492 -0.6741  0.3315
  397TMC3    C4 5930   3.803   4.164  17.431  0.0867 -0.3320 -0.5061
  397TMC3    C5 5931   3.757   4.036  17.412  0.7505 -0.4113 -0.2510
  397TMC3    C6 5932   3.785   3.965  17.293 -0.0920 -0.1867 -0.1196
  397TMC3     C 5933   3.836   4.348  17.288 -0.3642  0.4112 -0.1441
  397TMC3     O 5934   3.906   4.399  17.200  0.1673 -0.6999 -0.3071
  397TMC3     H 5935   3.985   4.208  17.171 -0.6399  2.2875  1.8128
  397TMC3    H1 5936   3.759   4.203  17.522  2.9149 -1.9002  1.5438
  397TMC3    H2 5937   3.731   3.873  17.278  0.3863 -1.0024  3.2111
  397TMC3    C7 5938   3.674   3.966  17.513 -0.0950 -0.4203 -0.5651
  397TMC3    C8 5939   3.859   4.008  17.057  0.1930  0.8299  0.2873
  397TMC3    O1 5940   3.591   3.891  17.469  0.1584 -0.0148 -0.0954
  397TMC3    O2 5941   3.919   4.073  16.976 -0.2924  0.4175  0.3670
  398MPD2     C 5942   1.996   0.392   0.030 -0.3216 -0.4345 -0.6928
  398MPD2    C1 5943   2.029   0.300   0.140 -0.0632 -0.4570  0.0931
  398MPD2    C2 5944   2.099   0.352   0.247  0.2306 -0.1123 -0.1859
  398MPD2    C3 5945   2.135   0.486   0.252 -0.1661  0.0792  0.3858
  398MPD2    C4 5946   2.109   0.572   0.147  0.5353 -0.2393  0.4175
  398MPD2    C5 5947   2.044   0.519   0.036  0.9479 -1.1217  0.1464
  398MPD2     H 5948   2.126   0.284   0.327 -0.6146  0.0304  0.2202
  398MPD2    H1 5949   2.142   0.675   0.141 -0.7274  0.1636  0.4456
  398MPD2    H2 5950   1.952   0.374  17.627 -0.2848 -1.3755 -0.5360
  398MPD2    H3 5951   2.020   0.588  17.649  1.0400 -1.9874 -0.6204
  398MPD2     N 5952   2.209   0.529   0.367 -0.2544  0.8778  0.3073
  398MPD2    H5 5953   2.223   0.454   0.433  0.5587 -1.6385 -2.6925
  398MPD2    N1 5954   2.002   0.161   0.131  0.4183  0.1633 -0.2337
  398MPD2    H7 5955   2.031   0.118   0.218  0.3726 -0.8308 -0.7037
  399TMC3    C1 5956   1.940   4.681   0.051 -0.3029  0.0281  0.4897
  399TMC3    C2 5957   2.020   4.630   0.147  0.5469  0.4700 -0.1206
  399TMC3    C3 5958   1.997   4.503   0.193  0.4407  0.4626  0.2845
  399TMC3    C4 5959   1.830   4.609   0.005 -0.3468  0.0185 -0.2950
  399TMC3    C5 5960   1.802   4.484   0.064  0.0402  1.0177  0.4409
  399TMC3    C6 5961   1.877   4.441   0.166  0.4616  0.0709 -0.0032
  399TMC3     C 5962   1.927   0.095   0.037  0.4564 -0.0879  0.4666
  399TMC3     O 5963   1.845   0.135  17.648  0.4653  0.1641  0.5259
  399TMC3     H 5964   2.118   4.673   0.167  0.6859 -0.1499  0.5101
  399TMC3    H1 5965   1.773   4.655  17.618 -1.4377 -0.0659  0.4253
  399TMC3    H2 5966   1.851   4.348   0.217 -0.3265 -0.5260 -1.4916
  399TMC3    C7 5967   1.670   4.414   0.041  0.9818  0.3734  0.5649
  399TMC3    C8 5968   2.070   4.475   0.317 -0.1875 -0.3023  0.7590
  399TMC3    O1 5969   1.656   4.291   0.059 -0.3192 -0.1326  0.0224
  399TMC3    O2 5970   2.123   4.570   0.375 -0.1674 -0.6467  0.1403
  400TMC3    C1 5971   0.407   4.056  17.017  0.4935  0.7061  0.8484
  400TMC3    C2 5972   0.269   4.041  16.980  0.2433  0.0229 -0.0596
  400TMC3    C3 5973   0.189   4.133  17.040  0.0435 -0.3284  0.9853
  400TMC3    C4 5974   0.452   4.152  17.104  0.1634  0.3014 -0.5894
  400TMC3    C5 5975   0.362   4.239  17.157 -0.0878 -0.5915 -0.0211
  400TMC3    C6 5976   0.230   4.224  17.134  0.1580  0.4911  0.0593
  400TMC3     C 5977   0.505   3.951  16.998 -0.0249  0.0771  0.1722
  400TMC3     O 5978   0.602   3.946  17.071 -0.0244  0.3989  0.2610
  400TMC3     H 5979   0.234   3.958  16.920  0.4279 -0.4851  0.5320
  400TMC3    H1 5980   0.559   4.158  17.116  0.4406 -2.4012 -1.7573
  400TMC3    H2 5981   0.157   4.292  17.175 -0.3755 -0.5181  0.7703
  400TMC3    C7 5982   0.399   4.362  17.230  0.0242  0.2376  0.4367
  400TMC3    C8 5983   0.051   4.111  17.033  0.6364 -0.2941  0.2924
  400TMC3    O1 5984   0.315   4.433  17.285  0.2377  0.1416  0.6414
  400TMC3    O2 5985   4.711   4.158  17.121 -0.4534 -0.5935 -0.3046
  401MPD2     C 5986   3.325   2.204   0.626  0.0206  0.8529 -0.6079
  401MPD2    C1 5987   3.410   2.114   0.563 -0.2486 -1.0775 -0.1194
  401MPD2    C2 5988   3.426   1.990   0.618 -0.4165  0.5096  0.5348
  401MPD2    C3 5989   3.351   1.950   0.734  1.4429 -0.4302 -0.1322
  401MPD2    C4 5990   3.255   2.039   0.782  0.8187  0.4628 -0.1840
  401MPD2    C5 5991   3.246   2.161   0.727 -0.3861  0.0193 -0.3411
  401MPD2     H 5992   3.503   1.924   0.581 -1.0207  0.1790 -0.1287
  401MPD2    H1 5993   3.183   2.017   0.860  2.0296  0.5799  0.9725
  401MPD2    H2 5994   3.312   2.308   0.598  1.2357  1.0232 -0.5323
  401MPD2    H3 5995   3.177   2.234   0.767 -0.2201  0.1957 -0.3759
  401MPD2     N 5996   3.378   1.822   0.792  0.1195 -0.4907 -0.5352
  401MPD2    H5 5997   3.422   1.747   0.740 -1.1422 -0.3503 -1.8043
  401MPD2    N1 5998   3.482   2.145   0.449 -0.8731  0.2061 -0.0810
  401MPD2    H7 5999   3.527   2.068   0.399 -1.0472 -0.6192  1.0233
  402TMC3    C1 6000   3.369   1.646   0.946  0.2588  0.4407  0.4654
  402TMC3    C2 6001   3.389   1.618   1.079  0.8009 -0.3979  0.9000
  402TMC3    C3 6002   3.434   1.493   1.106  0.5672 -0.4782 -0.7916
  402TMC3    C4 6003   3.395   1.557   0.845 -0.3878  0.5170  0.3637
  402TMC3    C5 6004   3.437   1.429   0.875 -0.3236  0.1999  0.7659
  402TMC3    C6 6005   3.458   1.396   1.007 -0.3152 -0.1861  0.0633
  402TMC3     C 6006   3.322   1.774   0.912  0.1836 -0.4086 -0.0569
  402TMC3     O 6007   3.261   1.826   1.003 -0.1707 -0.2313  0.3808
  402TMC3     H 6008   3.381   1.698   1.152  1.3017 -1.1315  1.7680
  402TMC3    H1 6009   3.357   1.577   0.746 -2.4769 -2.6357  0.5088
  402TMC3    H2 6010   3.480   1.295   1.039 -1.3365 -0.1421  0.9120
  402TMC3    C7 6011   3.451   1.324   0.773 -0.1071 -0.3566 -0.1229
  402TMC3    C8 6012   3.491   1.470   1.235 -0.2475  0.3083  0.2848
  402TMC3    O1 6013   3.409   1.352   0.664 -0.3682  0.0617  0.3384
  402TMC3    O2 6014   3.586   1.394   1.239 -0.0512  0.1133 -0.5064
  403MPD2     C 6015   2.216   1.284  13.068 -0.1996  0.1965 -0.1469
  403MPD2    C1 6016   2.274   1.162  13.095 -0.1787  0.8064 -0.3817
  403MPD2    C2 6017   2.370   1.156  13.189 -0.1575  0.3257 -0.1890
  403MPD2    C3 6018   2.417   1.270  13.251 -0.4759 -0.3739 -0.3987
  403MPD2    C4 6019   2.352   1.388  13.221  0.7031 -0.4722  0.0107
  403MPD2    C5 6020   2.252   1.399  13.127 -0.5027 -0.6916 -0.2347
  403MPD2     H 6021   2.415   1.063  13.221  0.2179  0.9130  1.0132
  403MPD2    H1 6022   2.386   1.481  13.265  0.5582 -0.4207  0.0121
  403MPD2    H2 6023   2.140   1.299  12.992  0.2316 -1.4244 -0.9087
  403MPD2    H3 6024   2.195   1.488  13.104  1.2938  0.3095 -0.7745
  403MPD2     N 6025   2.523   1.254  13.355 -0.2840  0.3096  0.4918
  403MPD2    H5 6026   2.546   1.158  13.376  1.6494  0.7454  0.4500
  403MPD2    N1 6027   2.229   1.052  13.016  0.4779 -0.0104  0.3468
  403MPD2    H7 6028   2.155   1.069  12.948 -2.0511 -0.4229  2.9918
  404TMC3    C1 6029   2.213   0.828  12.940  0.4217 -0.2414 -0.0939
  404TMC3    C2 6030   2.209   0.702  12.985 -0.2724  0.3840 -0.0959
  404TMC3    C3 6031   2.137   0.611  12.914 -0.2072  0.2576  0.1262
  404TMC3    C4 6032   2.155   0.871  12.828 -0.7056 -0.1679  0.3560
  404TMC3    C5 6033   2.087   0.777  12.756 -0.3162  0.0579 -0.1746
  404TMC3    C6 6034   2.074   0.647  12.799 -0.2222 -0.0405 -0.5051
  404TMC3     C 6035   2.279   0.922  13.026 -0.3554  0.7247  0.1408
  404TMC3     O 6036   2.346   0.871  13.118  0.4590  0.6848  0.0418
  404TMC3     H 6037   2.267   0.667  13.069 -0.1790 -0.9096 -0.7062
  404TMC3    H1 6038   2.158   0.972  12.789 -0.0898  0.7958  2.9031
  404TMC3    H2 6039   2.025   0.563  12.752 -1.3910  0.6954 -0.6054
  404TMC3    C7 6040   2.051   0.808  12.618  0.3599  0.6028 -0.3053
  404TMC3    C8 6041   2.100   0.490  12.979  0.1420 -0.4269  0.6396
  404TMC3    O1 6042   2.104   0.906  12.575  0.1499  0.0303  0.3574
  404TMC3    O2 6043   2.079   0.395  12.905  0.2702  0.5981 -0.1668
  405MPD2     C 6044   1.659   1.268  14.346 -0.0432  0.2320 -0.0488
  405MPD2    C1 6045   1.770   1.322  14.293  0.3800  1.0018 -0.1919
  405MPD2    C2 6046   1.829   1.430  14.348 -0.0709 -0.7433  0.2410
  405MPD2    C3 6047   1.789   1.467  14.472 -0.2801 -0.9150 -0.1947
  405MPD2    C4 6048   1.675   1.412  14.533 -0.1885  0.5428  0.5353
  405MPD2    C5 6049   1.615   1.314  14.470  0.3229  0.1220 -0.1201
  405MPD2     H 6050   1.909   1.487  14.302 -0.4733 -1.1525 -0.9615
  405MPD2    H1 6051   1.631   1.461  14.619 -2.2365  0.4398 -0.4635
  405MPD2    H2 6052   1.610   1.180  14.307 -1.3162  0.8870  0.0724
  405MPD2    H3 6053   1.522   1.277  14.511  1.1705 -1.1584  0.6224
  405MPD2     N 6054   1.853   1.584  14.525 -0.2189 -0.3531 -0.3564
  405MPD2    H5 6055   1.936   1.615  14.475  0.5392 -0.2376  0.9704
  405MPD2    N1 6056   1.818   1.266  14.169  0.4506 -0.6467 -1.1477
  405MPD2    H7 6057   1.758   1.194  14.130  1.4895 -1.9022 -0.4228
  406TMC3    C1 6058   1.758   2.023  14.589  0.6236  0.1952 -0.0387
  406TMC3    C2 6059   1.863   2.074  14.512  1.3518  0.4927 -1.0769
  406TMC3    C3 6060   1.951   1.971  14.468  0.1034 -0.0260 -0.1148
  406TMC3    C4 6061   1.755   1.906  14.643 -0.4520  0.4667 -0.2556
  406TMC3    C5 6062   1.832   1.808  14.596 -0.2221  0.4001 -0.1584
  406TMC3    C6 6063   1.934   1.840  14.506 -0.5009  0.5035 -0.5249
  406TMC3     C 6064   1.643   2.108  14.608  0.0578 -0.0233  0.1390
  406TMC3     O 6065   1.660   2.227  14.605  0.4584  0.3770 -0.2291
  406TMC3     H 6066   1.878   2.177  14.481 -0.7050  0.8647 -0.8667
  406TMC3    H1 6067   1.694   1.884  14.730  0.1651 -2.1698 -0.5001
  406TMC3    H2 6068   2.005   1.763  14.479  0.0525  1.9346 -3.1860
  406TMC3    C7 6069   1.802   1.667  14.624  0.9050  0.1749 -0.6020
  406TMC3    C8 6070   2.029   2.000  14.343  0.0699 -0.1567 -0.7409
  406TMC3    O1 6071   1.725   1.636  14.714 -0.1368  0.2352 -0.3688
  406TMC3    O2 6072   2.084   2.109  14.320  0.5308  0.3435 -0.1947
  407MPD2     C 6073   4.473   2.882   8.972  0.0604  0.2737  0.9816
  407MPD2    C1 6074   4.590   2.869   9.045  0.0483  0.1575 -0.4585
  407MPD2    C2 6075   4.594   2.891   9.179  0.1275 -0.5650 -0.8289
  407MPD2    C3 6076   4.477   2.932   9.244  0.4581  0.1142  0.5344
  407MPD2    C4 6077   4.360   2.954   9.171  0.2544  0.7023 -0.1473
  407MPD2    C5 6078   4.366   2.935   9.034 -0.1151  0.2286 -0.1832
  407MPD2     H 6079   4.693   2.880   9.222 -0.0511  0.1514 -0.2339
  407MPD2    H1 6080   4.276   3.004   9.216 -0.0804  1.2220 -1.3316
  407MPD2    H2 6081   4.469   2.862   8.866 -0.9370 -0.0123  1.0763
  407MPD2    H3 6082   4.274   2.954   8.981 -0.7561 -0.0637  0.8111
  407MPD2     N 6083   4.472   2.966   9.380 -0.8028  0.6750 -0.3130
  407MPD2    H5 6084   4.381   2.996   9.415 -1.7193 -1.1050 -1.1706
  407MPD2    N1 6085   4.709   2.826   8.978  0.8510 -0.9615 -0.2458
  407MPD2    H7 6086   0.064   2.831   9.044 -2.4799 -0.3497  3.6566
  408TMC3    C1 6087   0.144   2.788   8.814  0.2726 -0.1715 -0.1116
  408TMC3    C2 6088   0.198   2.681   8.876  0.1500 -0.4320 -0.4250
  408TMC3    C3 6089   0.334   2.683   8.895 -0.1262  0.5681 -0.1222
  408TMC3    C4 6090   0.218   2.892   8.782  0.2613 -0.4920  0.5023
  408TMC3    C5 6091   0.354   2.889   8.792  0.1679  0.1454 -0.1654
  408TMC3    C6 6092   0.417   2.778   8.841 -0.3465 -0.0970 -0.0911
  408TMC3     C 6093   0.004   2.817   8.840  0.8292 -0.0288  0.2772
  408TMC3     O 6094   4.668   2.874   8.750 -0.3842 -0.3585 -0.2708
  408TMC3     H 6095   0.130   2.612   8.925 -0.4607  0.6431  0.2552
  408TMC3    H1 6096   0.163   2.978   8.745 -0.5532 -1.0507  0.4215
  408TMC3    H2 6097   0.525   2.786   8.850 -0.2672 -1.7966  0.4438
  408TMC3    C7 6098   0.437   2.995   8.742 -0.0006 -0.1965  0.4229
  408TMC3    C8 6099   0.394   2.568   8.952 -0.1831  0.1352  0.0093
  408TMC3    O1 6100   0.553   2.981   8.758  0.0444 -0.6486 -0.3060
  408TMC3    O2 6101   0.348   2.457   8.930  0.2520 -0.2383  0.1893
  409MPD2     C 6102   4.070   3.563  17.152  0.1081 -0.5163  0.1019
  409MPD2    C1 6103   4.090   3.563  17.288  0.0976  0.6924  0.2041
  409MPD2    C2 6104   4.114   3.687  17.342 -0.0797  0.3987  0.5135
  409MPD2    C3 6105   4.136   3.800  17.272  0.9403 -0.2104 -1.2615
  409MPD2    C4 6106   4.104   3.801  17.138  0.2225  0.3589 -0.0703
  409MPD2    C5 6107   4.064   3.679  17.085 -0.5568 -0.4186  0.5449
  409MPD2     H 6108   4.114   3.688  17.450  0.7342 -0.0048  0.5196
  409MPD2    H1 6109   4.101   3.897  17.088 -2.7418  0.2929 -0.0340
  409MPD2    H2 6110   4.039   3.468  17.111 -1.8717  0.1471  0.0408
  409MPD2    H3 6111   4.053   3.668  16.977 -0.2327  1.6077  0.2991
  409MPD2     N 6112   4.201   3.913  17.327 -0.4683  0.1788 -0.5131
  409MPD2    H5 6113   4.209   3.997  17.272  0.1344 -0.8269 -1.9441
  409MPD2    N1 6114   4.106   3.449  17.365  0.1802 -0.6282  0.3381
  409MPD2    H7 6115   4.118   3.470  17.463  0.3961  0.5811  0.0500
  410TMC3    C1 6116   4.333   4.031  17.473 -0.0901 -0.0813  0.1842
  410TMC3    C2 6117   4.465   4.054  17.487  0.2962  0.4828 -0.8758
  410TMC3    C3 6118   4.509   4.186  17.499  0.0628  0.7697 -0.4252
  410TMC3    C4 6119   4.244   4.134  17.491  0.4953  1.0315  0.1997
  410TMC3    C5 6120   4.289   4.265  17.498  0.6428  0.3430 -0.1120
  410TMC3    C6 6121   4.422   4.297  17.495 -0.4271  0.1968 -0.7906
  410TMC3     C 6122   4.277   3.898  17.439  0.3086 -0.2746  0.0513
  410TMC3     O 6123   4.333   3.796  17.469 -0.4001  0.6187 -0.3018
  410TMC3     H 6124   4.525   3.964  17.495  1.4943  1.5378  2.1703
  410TMC3    H1 6125   4.139   4.109  17.495  0.1718  2.0679 -1.6083
  410TMC3    H2 6126   4.452   4.401  17.501  0.1020 -0.0143  0.3862
  410TMC3    C7 6127   4.185   4.360  17.485  0.4049 -0.4913  0.0422
  410TMC3    C8 6128   4.648   4.208  17.498 -0.2236 -0.1648  0.3424
  410TMC3    O1 6129   4.073   4.331  17.514  0.0409 -0.0538  0.2287
  410TMC3    O2 6130   4.690   4.320  17.527  0.2716  0.3244  0.7191
  411MPD2     C 6131   4.255   0.365  14.595 -0.1298  0.4495 -0.2373
  411MPD2    C1 6132   4.200   0.408  14.477  0.5606 -0.1367  0.5139
  411MPD2    C2 6133   4.168   0.313  14.380  0.0177 -0.1496 -0.0063
  411MPD2    C3 6134   4.192   0.174  14.407 -0.0448  1.1340  0.1441
  411MPD2    C4 6135   4.239   0.143  14.527 -0.4379 -0.0239  0.1187
  411MPD2    C5 6136   4.283   0.232  14.618  0.1021 -0.2021  0.0322
  411MPD2     H 6137   4.135   0.336  14.279 -0.0505 -1.8533 -0.3722
  411MPD2    H1 6138   4.264   0.044  14.564  0.1138  0.3743  0.8254
  411MPD2    H2 6139   4.267   0.436  14.676 -0.2592 -0.7942  0.8700
  411MPD2    H3 6140   4.337   0.203  14.707  0.7907  1.5710  0.1969
  411MPD2     N 6141   4.160   0.084  14.306 -0.2937  0.4456 -0.3864
  411MPD2    H5 6142   4.140   0.112  14.210 -1.6847 -1.0302 -0.5323
  411MPD2    N1 6143   4.180   0.552  14.460  0.1182 -0.1096  0.3959
  411MPD2    H7 6144   4.190   0.612  14.541 -0.4643 -1.0462  1.1685
  412TMC3    C1 6145   4.091   4.599  14.222 -0.0212 -0.2493 -0.1601
  412TMC3    C2 6146   3.998   4.667  14.146 -0.0265  0.4209  0.0818
  412TMC3    C3 6147   3.959   4.603  14.031  0.4227  0.5803  0.3409
  412TMC3    C4 6148   4.126   4.469  14.193 -0.3970  0.2780  0.3813
  412TMC3    C5 6149   4.066   4.402  14.090  0.2917  0.0333 -0.2412
  412TMC3    C6 6150   3.979   4.473  14.006 -0.6121  0.7346 -0.9532
  412TMC3     C 6151   4.162   4.665  14.330  0.0847  0.6406 -0.3912
  412TMC3     O 6152   4.198   4.595  14.428  0.2670  0.4072  0.0174
  412TMC3     H 6153   3.974   0.049  14.152 -1.8459  0.0309 -0.3351
  412TMC3    H1 6154   4.210   4.432  14.251 -0.5333  1.3556  1.2721
  412TMC3    H2 6155   3.935   4.433  13.915  0.3782 -3.4729  0.4087
  412TMC3    C7 6156   4.150   4.303  14.019  0.0625  0.6429 -0.1128
  412TMC3    C8 6157   3.995   4.676  13.911 -0.2582  0.8531 -0.8102
  412TMC3    O1 6158   4.136   4.312  13.897 -0.2754 -0.0770 -0.1548
  412TMC3    O2 6159   3.965   0.068  13.891  0.6502 -0.4729  0.2052
  413MPD2     C 6160   0.916   3.316  15.176 -0.1326  0.6188  0.6107
  413MPD2    C1 6161   0.856   3.285  15.056 -0.4493  0.4262  0.8074
  413MPD2    C2 6162   0.937   3.219  14.964  0.2891  0.1565  0.3256
  413MPD2    C3 6163   1.072   3.197  14.983 -0.5975  0.2399  0.3193
  413MPD2    C4 6164   1.138   3.251  15.097  0.6890  0.2557 -0.2720
  413MPD2    C5 6165   1.052   3.316  15.195 -0.3807 -1.1364  0.7643
  413MPD2     H 6166   0.896   3.168  14.878  0.9483  0.0918  0.0537
  413MPD2    H1 6167   1.244   3.239  15.118  1.2877 -0.5116 -3.8511
  413MPD2    H2 6168   0.858   3.369  15.251 -1.1198  0.1179  0.1956
  413MPD2    H3 6169   1.092   3.351  15.290  2.0597  0.6724 -0.9137
  413MPD2     N 6170   1.139   3.122  14.888 -0.6021  0.3911 -0.5155
  413MPD2    H5 6171   1.090   3.074  14.813 -1.6807  0.8208 -0.0798
  413MPD2    N1 6172   0.718   3.278  15.050 -0.3858 -0.1566 -0.1559
  413MPD2    H7 6173   0.670   3.294  15.139 -1.1960 -2.5028 -0.1676
  414TMC3    C1 6174   1.280   2.959  14.828  0.1853  0.5633  0.0173
  414TMC3    C2 6175   1.308   2.851  14.903  0.1695  0.9389  0.3253
  414TMC3    C3 6176   1.259   2.729  14.866  0.8852 -0.3888  0.5898
  414TMC3    C4 6177   1.214   2.945  14.710  0.0807  0.0520 -0.1153
  414TMC3    C5 6178   1.178   2.820  14.672  0.7146  0.8239  0.0114
  414TMC3    C6 6179   1.192   2.709  14.750 -0.5145  0.2603 -0.0579
  414TMC3     C 6180   1.268   3.076  14.908 -0.1115 -0.4397  0.0042
  414TMC3     O 6181   1.360   3.104  14.986 -0.3487 -0.2257 -0.4767
  414TMC3     H 6182   1.350   2.870  15.001 -1.0818 -1.4496  1.3403
  414TMC3    H1 6183   1.193   3.032  14.649 -0.4616 -1.4566 -2.0919
  414TMC3    H2 6184   1.155   2.611  14.720 -0.7595  0.7617 -1.3732
  414TMC3    C7 6185   1.116   2.808  14.539  0.8446  0.2788 -0.2050
  414TMC3    C8 6186   1.307   2.608  14.935 -0.0637 -0.0413  0.4092
  414TMC3    O1 6187   1.033   2.899  14.515 -0.0832  0.0760 -0.9033
  414TMC3    O2 6188   1.240   2.504  14.921 -0.8613 -0.6773 -0.8320
  415TMC3    C1 6189   2.379   3.931   9.466 -0.2313  0.3784  0.1706
  415TMC3    C2 6190   2.448   3.938   9.343 -0.5402 -1.1744  0.3028
  415TMC3    C3 6191   2.412   3.842   9.250 -0.3010 -0.3373  0.2230
  415TMC3    C4 6192   2.277   3.841   9.494 -0.7313 -0.1179  0.2382
  415TMC3    C5 6193   2.248   3.747   9.397 -0.1623  0.1950 -0.0839
  415TMC3    C6 6194   2.312   3.747   9.271 -0.0685 -0.2895  0.1334
  415TMC3     C 6195   2.389   4.038   9.564 -0.4663  0.0880 -0.2289
  415TMC3     O 6196   2.286   4.062   9.622 -0.1235 -0.0235  0.3583
  415TMC3     H 6197   2.504   4.029   9.325 -1.5549 -0.7178 -0.5416
  415TMC3    H1 6198   2.242   3.828   9.595 -0.1033  0.9074  0.5923
  415TMC3    H2 6199   2.270   3.687   9.191 -1.5940 -0.7293  1.2585
  415TMC3    C7 6200   2.127   3.667   9.407  0.8365 -0.9993 -0.5103
  415TMC3    C8 6201   2.459   3.853   9.114 -0.3251 -0.4088 -0.1151
  415TMC3    O1 6202   2.131   3.561   9.346 -0.2595  0.3217  0.3311
  415TMC3    O2 6203   2.403   3.773   9.039 -0.4621 -0.2496 -0.6005
  416MPD2     C 6204   3.142   4.293  11.306  0.8045 -0.8535 -0.0711
  416MPD2    C1 6205   3.085   4.299  11.427 -0.0902 -0.4639 -0.2217
  416MPD2    C2 6206   3.017   4.192  11.488  0.2829  0.0459 -0.2073
  416MPD2    C3 6207   3.004   4.074  11.420  0.4660  0.6949  0.0877
  416MPD2    C4 6208   3.067   4.069  11.295 -0.4905  0.3283  0.3525
  416MPD2    C5 6209   3.134   4.173  11.234 -0.2606 -0.1809 -0.4931
  416MPD2     H 6210   2.974   4.205  11.586  2.0486 -1.7432  0.8034
  416MPD2    H1 6211   3.056   3.977  11.238  1.5201  0.6764 -0.6043
  416MPD2    H2 6212   3.184   4.380  11.257  0.6928 -0.0340  1.2791
  416MPD2    H3 6213   3.155   4.165  11.128 -0.5817  1.8361 -0.6956
  416MPD2     N 6214   2.939   3.954  11.469 -0.2287 -0.2102  0.3769
  416MPD2    H5 6215   2.937   3.865  11.421  0.4798 -0.4845  0.8535
  416MPD2    N1 6216   3.090   4.418  11.487 -0.0372  0.3723  0.7744
  416MPD2    H7 6217   3.118   4.500  11.433  0.5552  0.7344  1.6315
  417TMC3    C1 6218   3.041   4.587  11.644  0.4428  0.6087  0.2390
  417TMC3    C2 6219   3.057   4.629  11.770 -0.1136  0.9090 -1.2281
  417TMC3    C3 6220   3.056   0.039  11.788 -0.2493 -0.1478 -0.1070
  417TMC3    C4 6221   3.023   4.669  11.537  0.1160  0.5192 -0.5175
  417TMC3    C5 6222   3.022   0.083  11.565 -0.0932  0.2992  0.4603
  417TMC3    C6 6223   3.042   0.134  11.692 -0.6677 -0.4720 -0.1738
  417TMC3     C 6224   3.055   4.446  11.618 -1.0593 -0.3186  0.7031
  417TMC3     O 6225   3.071   4.377  11.717 -0.4276 -0.1686  0.4744
  417TMC3     H 6226   3.104   4.565  11.844 -1.7991  0.4542 -0.5652
  417TMC3    H1 6227   3.013   4.649  11.431 -1.5502  0.7223 -0.3921
  417TMC3    H2 6228   3.003   0.232  11.717 -1.1487 -0.3664 -1.3077
  417TMC3    C7 6229   2.982   0.169  11.448  0.3896  0.4758 -0.1932
  417TMC3    C8 6230   3.072   0.079  11.927  0.4162  0.2928  0.1226
  417TMC3    O1 6231   3.038   0.273  11.417  0.4432  0.6159 -0.2655
  417TMC3    O2 6232   3.046   0.004  12.020 -0.3218  0.2339 -0.3200
  418TMC3    C1 6233   2.566   0.557   0.554 -0.5324 -0.1877  0.7528
  418TMC3    C2 6234   2.481   0.625   0.477 -0.1442  0.0674 -0.2378
  418TMC3    C3 6235   2.349   0.637   0.508 -0.1069  0.5804  0.1897
  418TMC3    C4 6236   2.528   0.500   0.671  0.3970  0.0068  0.1641
  418TMC3    C5 6237   2.392   0.508   0.700 -0.1123 -0.1173  0.6760
  418TMC3    C6 6238   2.300   0.570   0.618 -1.0879  0.5870 -0.7590
  418TMC3     C 6239   2.708   0.556   0.512 -0.4765 -0.2133 -0.7428
  418TMC3     O 6240   2.746   0.658   0.455  0.2043 -0.0745 -0.0424
  418TMC3     H 6241   2.516   0.666   0.383 -1.6921  0.4737 -0.6479
  418TMC3    H1 6242   2.592   0.437   0.731 -0.3350 -1.0528 -0.1567
  418TMC3    H2 6243   2.193   0.559   0.633 -0.6305 -2.2528  0.4473
  418TMC3    C7 6244   2.332   0.406   0.788 -0.4513 -0.0684  0.1629
  418TMC3    C8 6245   2.260   0.652   0.393  0.0553  0.4430 -0.2584
  418TMC3    O1 6246   2.370   0.294   0.758  0.2718  0.6762  0.6296
  418TMC3    O2 6247   2.268   0.756   0.325 -0.0752  0.3869 -0.0912
  419MPD2     C 6248   0.784   4.056  12.147  0.5665  0.2085  0.5772
  419MPD2    C1 6249   0.673   4.143  12.157  0.2433  0.0131  1.0664
  419MPD2    C2 6250   0.599   4.148  12.273  0.4094  0.3818 -0.2042
  419MPD2    C3 6251   0.635   4.070  12.383  0.2026  0.3890 -0.1338
  419MPD2    C4 6252   0.748   3.986  12.373  0.4361  0.3221  0.5779
  419MPD2    C5 6253   0.812   3.974  12.251  0.2283 -0.0597 -0.5084
  419MPD2     H 6254   0.516   4.217  12.280  2.5157  3.0022 -0.9788
  419MPD2    H1 6255   0.769   3.914  12.452  0.0626  2.4164  2.5742
  419MPD2    H2 6256   0.848   4.062  12.060 -0.1736 -0.0218  0.0103
  419MPD2    H3 6257   0.887   3.899  12.233  0.9477  0.5232  0.0562
  419MPD2     N 6258   0.561   4.091  12.498  0.0801  0.0140 -0.3650
  419MPD2    H5 6259   0.490   4.163  12.502 -1.8004 -1.7796 -1.6829
  419MPD2    N1 6260   0.638   4.241  12.059 -0.0519  0.0201  0.6246
  419MPD2    H7 6261   0.553   4.294  12.072  0.1429  0.7558 -1.1448
  420TMC3    C1 6262   0.478   4.045  12.720 -0.1043 -0.3089 -0.3208
  420TMC3    C2 6263   0.375   4.131  12.700 -0.3507  0.2232 -0.1402
  420TMC3    C3 6264   0.313   4.194  12.804  0.7896 -0.1203 -0.7418
  420TMC3    C4 6265   0.528   4.020  12.846  0.1308  0.0325 -0.3548
  420TMC3    C5 6266   0.467   4.090  12.947  0.2635  0.4013  0.4638
  420TMC3    C6 6267   0.363   4.175  12.931 -0.0718  0.7880 -0.1505
  420TMC3     C 6268   0.562   4.002  12.606 -0.4493  0.0555  0.4782
  420TMC3     O 6269   0.638   3.910  12.632 -0.4088  0.4019 -0.0030
  420TMC3     H 6270   0.326   4.130  12.604 -0.7780  0.2071  0.0778
  420TMC3    H1 6271   0.600   3.940  12.858 -0.7458 -0.6319  0.4476
  420TMC3    H2 6272   0.313   4.209  13.021  0.3333 -0.0746  0.3982
  420TMC3    C7 6273   0.532   4.103  13.077 -0.4631 -0.0818 -0.1337
  420TMC3    C8 6274   0.256   4.322  12.777  0.4436  0.2465 -0.0890
  420TMC3    O1 6275   0.455   4.122  13.174  0.2713  0.7065  0.2327
  420TMC3    O2 6276   0.197   4.342  12.673 -0.2513 -0.0157 -0.0633
  421TMC3    C1 6277   2.676   1.326  13.526  0.7439 -0.7477  0.5900
  421TMC3    C2 6278   2.715   1.417  13.625  0.1380 -0.2623 -0.0757
  421TMC3    C3 6279   2.794   1.375  13.729 -0.0701  0.6869 -0.3923
  421TMC3    C4 6280   2.704   1.190  13.550 -0.2978 -0.6645  0.2172
  421TMC3    C5 6281   2.789   1.155  13.660  0.3728 -0.6776  0.2253
  421TMC3    C6 6282   2.833   1.245  13.749  0.4389  0.2644 -0.5507
  421TMC3     C 6283   2.585   1.361  13.419 -0.2585  0.1885  0.5109
  421TMC3     O 6284   2.571   1.483  13.409  0.2062 -0.1395  0.7782
  421TMC3     H 6285   2.694   1.522  13.611 -1.5570 -0.9374 -2.5775
  421TMC3    H1 6286   2.681   1.116  13.474  3.0202 -0.8853 -0.5473
  421TMC3    H2 6287   2.908   1.223  13.824  0.1566 -1.5850 -0.8174
  421TMC3    C7 6288   2.851   1.026  13.669  0.0488  0.3502 -0.1282
  421TMC3    C8 6289   2.881   1.472  13.793  0.0993  0.0749 -0.6009
  421TMC3    O1 6290   2.968   1.030  13.711 -0.2519  0.1146 -0.2821
  421TMC3    O2 6291   2.933   1.429  13.895  0.0271  0.5449 -1.2525
  422TMC3    C1 6292   4.394   2.404  12.541  0.0510 -0.0654 -0.0440
  422TMC3    C2 6293   4.319   2.503  12.601 -0.2585 -0.1593 -0.7258
  422TMC3    C3 6294   4.216   2.470  12.685  0.1986  0.0243 -0.4108
  422TMC3    C4 6295   4.350   2.277  12.549  0.0238  1.1064 -0.7632
  422TMC3    C5 6296   4.239   2.248  12.629  0.6634 -0.0086  0.0139
  422TMC3    C6 6297   4.173   2.342  12.701  0.1305 -0.8051 -0.3775
  422TMC3     C 6298   4.474   2.445  12.432  0.5756 -0.1039 -0.3326
  422TMC3     O 6299   4.470   2.558  12.388 -0.0255 -0.4422  0.8919
  422TMC3     H 6300   4.342   2.608  12.588 -1.8482  0.4985  1.8543
  422TMC3    H1 6301   4.408   2.195  12.508  0.4194 -0.0557  2.0912
  422TMC3    H2 6302   4.106   2.317  12.782  2.6584 -2.9054  1.0834
  422TMC3    C7 6303   4.190   2.113  12.610 -0.1766  0.6633  0.1350
  422TMC3    C8 6304   4.145   2.580  12.742  0.0784  0.6032  0.2175
  422TMC3    O1 6305   4.268   2.018  12.594 -0.3693  0.6902 -0.1824
  422TMC3    O2 6306   4.191   2.693  12.732  0.4331 -0.4683 -0.1356
  423MPD2     C 6307   1.876   3.198   0.530 -0.9260 -0.1000  1.1708
  423MPD2    C1 6308   1.827   3.071   0.537  0.5013  0.0058  0.1144
  423MPD2    C2 6309   1.782   3.001   0.427  0.2848 -0.3281 -0.0235
  423MPD2    C3 6310   1.788   3.055   0.298  0.3631  0.0382 -0.4211
  423MPD2    C4 6311   1.828   3.191   0.297  0.2012  0.0782 -0.6390
  423MPD2    C5 6312   1.884   3.249   0.403 -0.5624 -0.0617 -0.2026
  423MPD2     H 6313   1.734   2.906   0.446 -0.5310  0.1222  0.2024
  423MPD2    H1 6314   1.832   3.246   0.204 -1.8315  3.1454  1.0873
  423MPD2    H2 6315   1.930   3.237   0.616  3.8053  0.9516 -2.2934
  423MPD2    H3 6316   1.926   3.348   0.391  0.8043 -0.7320 -1.1086
  423MPD2     N 6317   1.744   2.993   0.183 -0.1114 -0.5699 -0.2861
  423MPD2    H5 6318   1.747   3.046   0.096  1.1152  0.7109  0.5287
  423MPD2    N1 6319   1.807   3.003   0.658 -0.1680 -0.3637 -0.3011
  423MPD2    H7 6320   1.779   2.905   0.663  0.9359 -0.3964  4.3572
  424TMC3    C1 6321   1.794   2.989   0.903  0.9283  0.4335 -0.2458
  424TMC3    C2 6322   1.843   2.861   0.910 -0.0613  0.1976 -0.4055
  424TMC3    C3 6323   1.818   2.796   1.028  1.1007 -0.0399  0.2097
  424TMC3    C4 6324   1.723   3.044   1.005 -0.0465 -0.2470  0.3004
  424TMC3    C5 6325   1.705   2.974   1.123 -0.1334  0.7233 -0.6905
  424TMC3    C6 6326   1.756   2.848   1.135  0.6861 -0.2307 -0.4097
  424TMC3     C 6327   1.810   3.068   0.783  0.4085  0.3363 -0.5882
  424TMC3     O 6328   1.824   3.184   0.815 -0.2085 -0.2564  0.0677
  424TMC3     H 6329   1.895   2.817   0.826  1.0852  0.8370 -0.0306
  424TMC3    H1 6330   1.687   3.145   0.998  0.7261 -0.0752 -1.2026
  424TMC3    H2 6331   1.759   2.797   1.231  1.1978 -3.2961 -2.0592
  424TMC3    C7 6332   1.627   3.035   1.222  0.2185 -0.2724 -0.4157
  424TMC3    C8 6333   1.881   2.671   1.042  0.5096 -0.8084  0.3153
  424TMC3    O1 6334   1.596   3.152   1.210 -0.5837  0.7649 -0.1027
  424TMC3    O2 6335   1.802   2.586   1.078 -0.0214 -0.2686 -0.5275
  425MPD2     C 6336   0.126   2.482  16.834 -0.0818 -0.0333  0.0425
  425MPD2    C1 6337   0.156   2.367  16.905  0.1623 -0.3710  0.8959
  425MPD2    C2 6338   0.083   2.349  17.018 -0.6338  0.6913 -0.1893
  425MPD2    C3 6339   0.003   2.443  17.085  0.1246  0.3655  0.2097
  425MPD2    C4 6340   4.697   2.560  17.012  0.3345  0.0759 -0.3252
  425MPD2    C5 6341   0.047   2.578  16.892  0.3549 -0.1109 -0.1375
  425MPD2     H 6342   0.101   2.255  17.069 -3.1274  0.8297  0.9811
  425MPD2    H1 6343   4.639   2.644  17.047  0.8238  1.4349 -2.7415
  425MPD2    H2 6344   0.170   2.512  16.739  1.4812 -1.0568  0.4564
  425MPD2    H3 6345   0.032   2.671  16.839 -2.8532  1.5293  3.5510
  425MPD2     N 6346   4.673   2.422  17.209 -0.6572 -0.6249 -0.3842
  425MPD2    H5 6347   4.695   2.332  17.250 -2.6714 -0.9619 -0.0701
  425MPD2    N1 6348   0.239   2.270  16.847 -0.3462 -0.0054  0.1125
  425MPD2    H7 6349   0.263   2.298  16.753 -1.9090  1.7588  0.2447
  426TMC3    C1 6350   0.412   2.113  16.852  0.0842  0.0244 -0.1071
  426TMC3    C2 6351   0.396   2.081  16.721 -1.1570  0.0986 -0.2027
  426TMC3    C3 6352   0.477   1.986  16.667 -0.9979 -0.0143 -0.0601
  426TMC3    C4 6353   0.508   2.058  16.933 -0.1181 -0.0658 -0.6181
  426TMC3    C5 6354   0.591   1.969  16.875 -0.7478 -0.0890  0.2046
  426TMC3    C6 6355   0.577   1.940  16.743  0.1476  0.3361 -0.1390
  426TMC3     C 6356   0.303   2.175  16.920  0.5338  0.7923 -0.3088
  426TMC3     O 6357   0.302   2.156  17.044 -0.0649  0.1132  0.5888
  426TMC3     H 6358   0.302   2.112  16.675 -0.8067 -0.3815 -1.2398
  426TMC3    H1 6359   0.509   2.069  17.041 -1.5198 -0.9593 -0.5155
  426TMC3    H2 6360   0.644   1.863  16.707 -1.9182 -0.4805 -2.1984
  426TMC3    C7 6361   0.697   1.882  16.939  0.3767 -0.1691  0.3911
  426TMC3    C8 6362   0.423   1.884  16.578 -0.2316 -0.1230 -0.0182
  426TMC3    O1 6363   0.778   1.816  16.876  0.6145  0.1916 -0.4287
  426TMC3    O2 6364   0.496   1.788  16.559  0.3830  0.0139 -0.2751
  427MPD2     C 6365   3.120   4.410  15.053  0.0051 -0.1641  0.2027
  427MPD2    C1 6366   3.116   4.420  14.920 -0.2086 -0.6416  0.5702
  427MPD2    C2 6367   3.056   4.538  14.867  0.4663 -0.3310  0.5464
  427MPD2    C3 6368   2.998   4.635  14.950  0.6541  0.8397 -0.3699
  427MPD2    C4 6369   3.002   4.622  15.087 -0.4012  0.1085 -0.5913
  427MPD2    C5 6370   3.075   4.509  15.132  0.5149 -0.5171 -0.2009
  427MPD2     H 6371   3.050   4.551  14.759  0.7363  0.3228  0.6073
  427MPD2    H1 6372   2.978   4.705  15.152 -0.0221 -0.5476  0.3981
  427MPD2    H2 6373   3.164   4.328  15.108  1.8416 -0.4071 -1.6211
  427MPD2    H3 6374   3.079   4.505  15.240 -0.3662  1.1742 -0.0947
  427MPD2     N 6375   2.923   0.015  14.902  0.1802  0.6153  0.4325
  427MPD2    H5 6376   2.867   0.075  14.963 -0.0214 -1.9223  2.7486
  427MPD2    N1 6377   3.184   4.334  14.835 -0.4787  0.2198 -0.0537
  427MPD2    H7 6378   3.202   4.362  14.739  0.3450 -1.4374 -0.3802
  428TMC3    C1 6379   3.346   4.174  14.789 -0.0892  0.4318  0.1284
  428TMC3    C2 6380   3.379   4.040  14.798 -0.5405 -0.0671  0.3741
  428TMC3    C3 6381   3.463   3.994  14.700  0.1239  0.4437  0.4380
  428TMC3    C4 6382   3.410   4.254  14.699  0.3336 -0.0767  0.0465
  428TMC3    C5 6383   3.509   4.201  14.617 -0.1504 -0.6520 -0.1476
  428TMC3    C6 6384   3.533   4.070  14.614 -0.2425  0.3271  0.4180
  428TMC3     C 6385   3.239   4.212  14.878  0.2767 -0.9534  0.2461
  428TMC3     O 6386   3.212   4.134  14.965 -0.8979  0.2473  0.4000
  428TMC3     H 6387   3.329   3.972  14.866 -0.1127  2.7220  3.4131
  428TMC3    H1 6388   3.384   4.359  14.693 -0.0085 -0.3770 -3.5007
  428TMC3    H2 6389   3.609   4.037  14.545 -0.7349  0.2833 -0.1010
  428TMC3    C7 6390   3.610   4.285  14.555  0.2938  0.8554 -0.2909
  428TMC3    C8 6391   3.522   3.865  14.733 -0.3613 -0.9257 -0.5332
  428TMC3    O1 6392   3.668   4.257  14.455 -0.4215  0.1374 -0.2174
  428TMC3    O2 6393   3.458   3.766  14.690 -0.0308  0.2676 -0.4462
  429MPD2     C 6394   4.651   4.611   0.254 -0.1146 -0.1432 -0.2488
  429MPD2    C1 6395   0.021   4.560   0.172 -0.5635 -0.0820  0.1619
  429MPD2    C2 6396   0.122   4.635   0.115 -0.4114  0.0551 -1.2770
  429MPD2    C3 6397   0.125   0.051   0.150  0.3229 -0.2570  0.3548
  429MPD2    C4 6398   0.038   0.107   0.240  0.2082 -0.1457 -0.0787
  429MPD2    C5 6399   4.667   0.019   0.281  0.4013  0.2473  0.1810
  429MPD2     H 6400   0.208   4.603   0.057  0.0112 -1.1029 -0.0020
  429MPD2    H1 6401   0.042   0.208   0.281 -0.1424 -0.6827  1.2688
  429MPD2    H2 6402   4.573   4.551   0.300 -1.4467  2.8400  1.3560
  429MPD2    H3 6403   4.591   0.055   0.350 -0.9998 -0.6230 -0.8995
  429MPD2     N 6404   0.232   0.129   0.095 -0.0563 -0.2287  0.8472
  429MPD2    H5 6405   0.294   0.084   0.028 -0.2624 -0.1466  0.5995
  429MPD2    N1 6406   0.032   4.426   0.150  0.4272 -0.4149 -0.3076
  429MPD2    H7 6407   0.092   4.403   0.071  1.4998 -0.5394  0.5422
  430TMC3    C1 6408   0.348   0.316   0.036 -0.3126 -0.1549  0.2466
  430TMC3    C2 6409   0.299   0.402  17.634  0.6983 -0.1031  0.3208
  430TMC3    C3 6410   0.370   0.418  17.516 -0.0033 -0.3040 -0.1009
  430TMC3    C4 6411   0.443   0.222   0.014  0.5716 -0.3209  0.2228
  430TMC3    C5 6412   0.501   0.227  17.581 -0.9281 -0.3356  0.3705
  430TMC3    C6 6413   0.464   0.320  17.486 -0.0049  0.3048 -0.3160
  430TMC3     C 6414   0.243   0.262   0.120 -0.4403  0.1402  0.0127
  430TMC3     O 6415   0.173   0.349   0.174 -0.3207  0.1204 -0.2444
  430TMC3     H 6416   0.227   0.477  17.663 -0.2051 -1.3071  1.1736
  430TMC3    H1 6417   0.470   0.139   0.078 -0.5609 -0.6346  0.3073
  430TMC3    H2 6418   0.496   0.313  17.382 -1.3943 -2.8178 -0.5322
  430TMC3    C7 6419   0.510   0.099  17.511  1.1308 -1.0530 -0.7319
  430TMC3    C8 6420   0.282   0.440  17.399 -0.2626 -0.2016 -0.7046
  430TMC3    O1 6421   0.437   0.011  17.554  0.0823  0.1343 -0.2524
  430TMC3    O2 6422   0.245   0.345  17.333 -0.4660 -0.1100  0.6047
  431MPD2     C 6423   0.957   0.116  12.365 -0.3719  0.1393  0.1161
  431MPD2    C1 6424   0.978   0.135  12.230  0.0964  0.3365 -0.1166
  431MPD2    C2 6425   0.884   0.095  12.142  0.2826 -0.1876 -0.6815
  431MPD2    C3 6426   0.762   0.043  12.175  0.0776  0.6405  0.0445
  431MPD2    C4 6427   0.728   0.042  12.311  0.3169  0.0152  0.0339
  431MPD2    C5 6428   0.830   0.079  12.402 -0.5189 -0.3618 -0.6605
  431MPD2     H 6429   0.915   0.107  12.039 -0.2056 -0.5011 -0.8666
  431MPD2    H1 6430   0.640   4.716  12.352  0.8289 -1.4616 -0.6112
  431MPD2    H2 6431   1.031   0.144  12.439  1.2723 -3.7500 -0.0481
  431MPD2    H3 6432   0.806   0.075  12.508 -0.9743  0.1401 -0.7442
  431MPD2     N 6433   0.680   4.705  12.081 -0.4145 -0.6075 -0.2457
  431MPD2    H5 6434   0.595   4.662  12.117  0.4617 -2.2393 -0.1197
  431MPD2    N1 6435   1.098   0.181  12.176  0.1401 -0.2304 -0.0187
  431MPD2    H7 6436   1.109   0.166  12.076 -0.3174  1.1241 -0.2709
  432TMC3    C1 6437   0.649   4.604  11.864  0.6422  0.2778  0.7203
  432TMC3    C2 6438   0.681   4.604  11.724  1.0211 -0.1398 -0.3376
  432TMC3    C3 6439   0.682   4.478  11.668  0.3252  0.5081 -0.1211
  432TMC3    C4 6440   0.634   4.498  11.936 -0.1461 -0.0326 -0.4123
  432TMC3    C5 6441   0.642   4.378  11.872 -1.3914  0.1179 -0.4468
  432TMC3    C6 6442   0.659   4.367  11.742 -0.3712 -0.0113  0.4896
  432TMC3     C 6443   0.693   4.713  11.941  0.4839 -0.4259  0.0611
  432TMC3     O 6444   0.762   0.074  11.883 -0.3679 -0.0856  0.9003
  432TMC3     H 6445   0.719   4.692  11.674  0.2217 -0.2196 -1.0794
  432TMC3    H1 6446   0.615   4.497  12.043  0.4654  1.0377 -0.2874
  432TMC3    H2 6447   0.678   4.271  11.696 -1.0785 -0.3791  0.9663
  432TMC3    C7 6448   0.689   4.265  11.944 -0.7536 -1.2463 -0.5975
  432TMC3    C8 6449   0.786   4.457  11.571 -0.6293 -0.3895 -0.3873
  432TMC3    O1 6450   0.777   4.202  11.886 -0.7835 -0.1471  0.1489
  432TMC3    O2 6451   0.774   4.527  11.471 -0.0297 -0.7994  0.3134
  433MPD2     C 6452   4.341   3.519  10.656  0.1107 -0.4121 -0.0029
  433MPD2    C1 6453   4.260   3.408  10.684  0.1739 -0.8143 -0.0932
  433MPD2    C2 6454   4.207   3.399  10.812  0.2537 -0.6356 -0.2580
  433MPD2    C3 6455   4.243   3.478  10.916 -0.4434 -0.5687  0.0689
  433MPD2    C4 6456   4.324   3.587  10.887 -0.6509  0.3344  0.2253
  433MPD2    C5 6457   4.370   3.606  10.758  0.5753 -0.1628 -0.0591
  433MPD2     H 6458   4.141   3.316  10.834 -0.9629  0.8052  1.5572
  433MPD2    H1 6459   4.353   3.655  10.966  0.9280  0.8967 -0.8379
  433MPD2    H2 6460   4.396   3.538  10.565 -0.1873  2.5405  0.4367
  433MPD2    H3 6461   4.439   3.686  10.733 -1.0135  0.9220 -0.9294
  433MPD2     N 6462   4.197   3.446  11.047  0.4346  0.8628 -0.2586
  433MPD2    H5 6463   4.121   3.380  11.056 -0.0122  1.2585 -1.1777
  433MPD2    N1 6464   4.245   3.314  10.579 -0.3203 -0.1858 -0.1071
  433MPD2    H7 6465   4.321   3.315  10.511 -0.9831  2.5524 -0.8025
  434TMC3    C1 6466   4.197   3.103  10.480  0.3379  0.6694 -0.3404
  434TMC3    C2 6467   4.234   2.979  10.523  0.2661 -0.3994 -0.4643
  434TMC3    C3 6468   4.321   2.897  10.465  0.2010 -0.5859  0.1811
  434TMC3    C4 6469   4.250   3.143  10.365  0.2144  0.3189 -0.2704
  434TMC3    C5 6470   4.320   3.052  10.289 -0.7246  0.2312  0.0056
  434TMC3    C6 6471   4.362   2.932  10.342 -0.2894 -0.0891  0.5001
  434TMC3     C 6472   4.167   3.201  10.585  0.3434  0.7067  0.1223
  434TMC3     O 6473   4.073   3.178  10.661 -0.8325  0.2815  0.9835
  434TMC3     H 6474   4.213   2.960  10.628 -1.3036 -0.4599 -0.7926
  434TMC3    H1 6475   4.239   3.245  10.329  0.8735  0.7213  0.6595
  434TMC3    H2 6476   4.439   2.877  10.289 -1.6450 -1.1569 -0.3894
  434TMC3    C7 6477   4.268   3.034  10.153  0.2760  0.0612  0.6385
  434TMC3    C8 6478   4.418   2.834  10.558 -0.8743 -0.2037 -0.2683
  434TMC3    O1 6479   4.238   3.133  10.087 -0.6784  0.0346  0.0975
  434TMC3    O2 6480   4.388   2.843  10.676  0.2799 -0.3716  0.2529
  435MPD2     C 6481   1.324   3.666  15.268  0.2323  0.2190 -0.0428
  435MPD2    C1 6482   1.323   3.664  15.409 -0.3303  0.1172 -0.5023
  435MPD2    C2 6483   1.388   3.562  15.469 -0.1846  0.8429  0.2306
  435MPD2    C3 6484   1.453   3.462  15.396 -0.8184  0.0434 -0.1021
  435MPD2    C4 6485   1.448   3.467  15.255 -0.4307  0.1802 -0.5576
  435MPD2    C5 6486   1.378   3.562  15.193  0.3353 -0.1961 -0.2745
  435MPD2     H 6487   1.400   3.559  15.577 -1.6528 -0.6314  0.3429
  435MPD2    H1 6488   1.497   3.394  15.191 -1.6201  0.6084 -1.9721
  435MPD2    H2 6489   1.279   3.746  15.209  1.0539  1.1161  0.5364
  435MPD2    H3 6490   1.369   3.567  15.085  1.2699 -3.1038 -0.4867
  435MPD2     N 6491   1.512   3.361  15.473  0.0257  0.2346 -0.5029
  435MPD2    H5 6492   1.504   3.366  15.574  0.5293 -0.7102 -0.4188
  435MPD2    N1 6493   1.254   3.764  15.488  0.2369  0.5221 -0.0453
  435MPD2    H7 6494   1.274   3.765  15.587 -0.3782 -2.1953  0.1281
  436TMC3    C1 6495   1.083   4.004  15.770 -1.0470 -0.4066  0.0443
  436TMC3    C2 6496   1.156   3.947  15.674  0.8823  0.6228  0.3858
  436TMC3    C3 6497   1.105   3.946  15.544 -1.2180  0.8852 -0.0578
  436TMC3    C4 6498   0.962   4.064  15.750  0.3545  0.1681 -0.6556
  436TMC3    C5 6499   0.906   4.056  15.621  0.0335  0.7951  0.0250
  436TMC3    C6 6500   0.979   3.994  15.522 -0.0558 -0.2710  0.1943
  436TMC3     C 6501   1.151   4.008  15.901  0.1614 -0.3177 -0.5196
  436TMC3     O 6502   1.270   3.974  15.910  0.2009  0.6697 -0.2061
  436TMC3     H 6503   1.250   3.904  15.706  1.1797  2.2673  1.7445
  436TMC3    H1 6504   0.924   4.131  15.827  0.9325  1.4463 -1.4932
  436TMC3    H2 6505   0.930   3.966  15.429  0.0116  1.3439 -0.3192
  436TMC3    C7 6506   0.781   4.122  15.581 -0.4029  0.2789  0.1186
  436TMC3    C8 6507   1.164   3.861  15.443 -0.2200  0.4416  0.6466
  436TMC3    O1 6508   0.765   4.157  15.464  0.1884  0.1897 -0.2230
  436TMC3    O2 6509   1.111   3.862  15.329 -0.0123  0.3501 -0.2382
  437TMC3    C1 6510   0.591   0.439  12.316 -0.1462  0.1698 -0.2773
  437TMC3    C2 6511   0.472   0.492  12.274 -0.5625 -0.1723  0.2450
  437TMC3    C3 6512   0.476   0.544  12.148 -0.4986 -0.0916  0.0054
  437TMC3    C4 6513   0.703   0.436  12.241 -0.2527  0.7622 -0.0215
  437TMC3    C5 6514   0.693   0.471  12.108 -0.6972 -0.7135 -0.6454
  437TMC3    C6 6515   0.576   0.527  12.054  0.0549  0.0418 -0.3378
  437TMC3     C 6516   0.586   0.387  12.449 -0.0095 -0.3513 -0.0153
  437TMC3     O 6517   0.481   0.345  12.501  0.0735  0.3005 -0.2600
  437TMC3     H 6518   0.399   0.518  12.349 -0.5673 -0.3321  0.2948
  437TMC3    H1 6519   0.787   0.378  12.278 -1.6317 -0.0015  1.8786
  437TMC3    H2 6520   0.562   0.566  11.954  0.3432  1.0636  0.0169
  437TMC3    C7 6521   0.813   0.477  12.029  0.2546  0.2655  0.2245
  437TMC3    C8 6522   0.353   0.612  12.113  0.4280 -0.9419  0.5204
  437TMC3    O1 6523   0.798   0.512  11.914 -0.3577  0.3214  0.1538
  437TMC3    O2 6524   0.261   0.597  12.188  0.0034 -0.4239 -0.2949
  438MPD2     C 6525   2.720   0.998  16.904 -0.7793 -0.1529  0.0579
  438MPD2    C1 6526   2.798   1.071  16.985 -0.2872 -0.2576 -0.6460
  438MPD2    C2 6527   2.798   1.034  17.114 -0.1442 -0.2260 -0.6683
  438MPD2    C3 6528   2.721   0.927  17.158 -0.1349  0.4242  0.1343
  438MPD2    C4 6529   2.627   0.867  17.076 -1.1596 -0.3065 -0.7947
  438MPD2    C5 6530   2.636   0.895  16.942 -0.8645  0.0547  0.3902
  438MPD2     H 6531   2.876   1.073  17.178  0.9636 -1.0904 -1.4690
  438MPD2    H1 6532   2.557   0.795  17.118 -2.3939  0.4457 -1.5562
  438MPD2    H2 6533   2.699   1.021  16.800 -0.8934  0.3224  0.1866
  438MPD2    H3 6534   2.574   0.845  16.869 -1.3951 -0.3990  1.1502
  438MPD2     N 6535   2.725   0.877  17.294 -0.5178 -0.1040  0.4787
  438MPD2    H5 6536   2.676   0.789  17.303 -1.4459  0.1909 -1.6169
  438MPD2    N1 6537   2.876   1.179  16.948 -0.6131  0.2804  0.4489
  438MPD2    H7 6538   2.933   1.227  17.017 -1.0726  0.4107  0.7418
  439TMC3    C1 6539   2.971   1.336  16.810  0.6770 -0.1564  0.2842
  439TMC3    C2 6540   2.978   1.390  16.685  0.3962 -0.0895  0.0929
  439TMC3    C3 6541   3.095   1.430  16.629 -0.1439 -0.6172  0.4677
  439TMC3    C4 6542   3.094   1.326  16.881 -0.4443 -0.2844 -0.3896
  439TMC3    C5 6543   3.213   1.365  16.817  0.2165 -0.0702  0.8618
  439TMC3    C6 6544   3.211   1.431  16.695 -0.1669  0.3301  0.1873
  439TMC3     C 6545   2.883   1.227  16.818 -0.6772  0.0222  0.3324
  439TMC3     O 6546   2.810   1.209  16.722  0.0902 -0.1711  0.5609
  439TMC3     H 6547   2.900   1.374  16.612  0.3058 -1.6835  0.5465
  439TMC3    H1 6548   3.086   1.280  16.979  1.2197  0.2805  0.0099
  439TMC3    H2 6549   3.304   1.451  16.644 -2.0128 -3.2013 -4.5508
  439TMC3    C7 6550   3.307   1.251  16.818  0.5119 -1.0035  0.5176
  439TMC3    C8 6551   3.112   1.375  16.496 -0.1600  0.2087  0.1742
  439TMC3    O1 6552   3.297   1.188  16.923  0.4569  0.1232 -0.1957
  439TMC3    O2 6553   3.223   1.328  16.469  0.3504  0.1853 -0.7954
  440MPD2     C 6554   0.629   1.755  15.093 -0.1716  0.6036 -0.5787
  440MPD2    C1 6555   0.701   1.871  15.091 -0.2007 -0.5162  0.0984
  440MPD2    C2 6556   0.831   1.867  15.072  0.0303 -1.0353  0.3365
  440MPD2    C3 6557   0.895   1.750  15.046  0.7650  0.1118 -0.0175
  440MPD2    C4 6558   0.830   1.634  15.047  0.5002  0.3352 -0.7552
  440MPD2    C5 6559   0.693   1.638  15.066  0.5497  0.2256  0.5279
  440MPD2     H 6560   0.882   1.962  15.078  2.2638 -2.2582  0.6465
  440MPD2    H1 6561   0.876   1.537  15.029  4.9576  1.8976  2.2771
  440MPD2    H2 6562   0.523   1.752  15.117  0.0394  0.6412  0.3827
  440MPD2    H3 6563   0.637   1.545  15.062 -1.2894  1.5046 -2.9679
  440MPD2     N 6564   1.039   1.744  15.030  0.1988 -0.1075 -0.6058
  440MPD2    H5 6565   1.076   1.650  15.022  1.2859  0.0719  2.4769
  440MPD2    N1 6566   0.634   1.994  15.114 -0.6445 -0.0042 -0.1264
  440MPD2    H7 6567   0.533   1.994  15.100 -0.8970 -1.2480  1.5851
  441TMC3    C1 6568   1.254   1.820  15.001 -0.2164  0.6255 -0.0035
  441TMC3    C2 6569   1.338   1.927  15.004 -0.9340  0.2112 -0.1578
  441TMC3    C3 6570   1.469   1.913  14.972 -0.6663 -0.3173  0.8666
  441TMC3    C4 6571   1.304   1.695  14.984  0.0140 -0.1836  0.2537
  441TMC3    C5 6572   1.433   1.680  14.942 -0.9519  0.5192 -0.4844
  441TMC3    C6 6573   1.518   1.789  14.935 -0.2679  0.5579 -0.1489
  441TMC3     C 6574   1.117   1.853  15.008  0.3682 -0.3752 -0.4401
  441TMC3     O 6575   1.083   1.970  15.000 -0.2248 -0.3794  0.0006
  441TMC3     H 6576   1.301   2.028  15.017 -0.1615  0.8264 -2.6294
  441TMC3    H1 6577   1.237   1.609  14.980 -1.7699  1.1320  2.2036
  441TMC3    H2 6578   1.620   1.772  14.903 -0.3168  0.5507 -0.2979
  441TMC3    C7 6579   1.486   1.553  14.985 -0.2485 -0.0506  0.3151
  441TMC3    C8 6580   1.567   2.023  14.993  0.2158  0.0070  0.2565
  441TMC3    O1 6581   1.415   1.480  15.054  0.3359 -0.3863 -0.2543
  441TMC3    O2 6582   1.685   1.997  14.978 -0.3142  0.1674 -0.4884
  442MPD2     C 6583   4.240   2.551  16.307  0.1970 -0.1938 -0.4037
  442MPD2    C1 6584   4.191   2.459  16.389  0.2988  0.0742 -0.5491
  442MPD2    C2 6585   4.229   2.328  16.363 -0.5291 -0.2328  0.1791
  442MPD2    C3 6586   4.312   2.294  16.261 -1.1877  0.1053  0.2110
  442MPD2    C4 6587   4.345   2.394  16.173 -0.2248  0.3067  0.0356
  442MPD2    C5 6588   4.317   2.525  16.198  0.2132  0.0750  0.4036
  442MPD2     H 6589   4.207   2.258  16.442 -0.5183  0.9654  1.2433
  442MPD2    H1 6590   4.405   2.378  16.085 -1.3853 -0.4356 -0.6127
  442MPD2    H2 6591   4.216   2.657  16.309 -0.9841 -0.4324 -1.7871
  442MPD2    H3 6592   4.356   2.606  16.138  0.9061 -1.0157 -0.6146
  442MPD2     N 6593   4.350   2.167  16.232 -0.2462 -0.1881  0.0568
  442MPD2    H5 6594   4.421   2.161  16.160 -0.5223 -2.7336 -0.0120
  442MPD2    N1 6595   4.127   2.484  16.514  0.3045  0.7049  0.5931
  442MPD2    H7 6596   4.115   2.410  16.582  0.8593 -1.5388 -1.7431
  443TMC3    C1 6597   4.030   2.623  16.686 -0.0073 -0.4570  0.2664
  443TMC3    C2 6598   3.943   2.727  16.701  0.5254  0.0983  0.6683
  443TMC3    C3 6599   3.837   2.710  16.791 -1.0691 -0.6811 -0.2590
  443TMC3    C4 6600   4.048   2.518  16.771 -0.1104  0.5430 -0.1796
  443TMC3    C5 6601   3.956   2.525  16.874 -0.6657  0.3744 -0.7085
  443TMC3    C6 6602   3.848   2.610  16.878 -0.2674  0.6238  0.1250
  443TMC3     C 6603   4.099   2.614  16.559 -0.7027 -0.3624  0.1972
  443TMC3     O 6604   4.128   2.719  16.505 -0.6465  0.1672 -0.6583
  443TMC3     H 6605   3.929   2.799  16.621  0.4775 -0.0070  0.5824
  443TMC3    H1 6606   4.129   2.446  16.773  0.9226  1.7484  1.5367
  443TMC3    H2 6607   3.769   2.600  16.951  0.6683  0.3143  1.1053
  443TMC3    C7 6608   3.961   2.419  16.972  0.7634 -0.1720 -0.0658
  443TMC3    C8 6609   3.718   2.797  16.792  0.4909 -0.3186  0.1610
  443TMC3    O1 6610   3.993   2.304  16.941  0.6311  0.3472  0.5074
  443TMC3    O2 6611   3.678   2.832  16.903  0.1139 -0.4878  0.2016
  444MPD2     C 6612   0.248   1.295  17.558 -1.0658 -0.1154 -0.1729
  444MPD2    C1 6613   0.176   1.230  17.457 -0.1083 -0.4029  0.0939
  444MPD2    C2 6614   0.241   1.178  17.345  0.4922 -0.6046 -0.8757
  444MPD2    C3 6615   0.377   1.197  17.335  0.0004  0.0506 -0.2322
  444MPD2    C4 6616   0.451   1.254  17.436  0.7930  0.4007 -0.6362
  444MPD2    C5 6617   0.385   1.303  17.545  0.5879  0.3769  0.3798
  444MPD2     H 6618   0.187   1.129  17.265  0.2061 -0.6973 -0.6261
  444MPD2    H1 6619   0.558   1.268  17.426  1.1469 -0.5678  1.8437
  444MPD2    H2 6620   0.206   1.334  17.650 -1.2179  0.6448 -0.5701
  444MPD2    H3 6621   0.442   1.349  17.625 -1.2710  1.1615  1.2545
  444MPD2     N 6622   0.435   1.145  17.218  0.0692 -0.4232 -0.4020
  444MPD2    H5 6623   0.378   1.086  17.158  0.8239 -1.8437  0.2916
  444MPD2    N1 6624   0.037   1.226  17.449  0.3388 -0.6519  0.5846
  444MPD2    H7 6625   4.718   1.190  17.364 -1.0873  0.9121  0.6151
  445TMC3    C1 6626   0.617   1.086  17.082  0.3085 -0.3961  0.3102
  445TMC3    C2 6627   0.561   0.956  17.085 -0.1661 -0.4848 -0.3918
  445TMC3    C3 6628   0.640   0.853  17.050 -0.0464  0.6238  0.7782
  445TMC3    C4 6629   0.724   1.118  17.000  0.7230 -0.0362  0.7737
  445TMC3    C5 6630   0.793   1.005  16.961  0.0692  0.7989  0.3314
  445TMC3    C6 6631   0.757   0.874  16.989  0.0722 -0.0283  0.8471
  445TMC3     C 6632   0.555   1.190  17.166 -0.5983 -0.1426 -0.3969
  445TMC3     O 6633   0.621   1.281  17.214 -0.3729  0.1067 -0.3426
  445TMC3     H 6634   0.474   0.923  17.140 -0.2014  0.6263  0.2203
  445TMC3    H1 6635   0.754   1.222  16.993 -0.3554  0.0237 -3.4311
  445TMC3    H2 6636   0.816   0.786  16.965 -0.4678  0.1389 -1.1395
  445TMC3    C7 6637   0.917   1.028  16.888 -0.3436  0.3711  0.5233
  445TMC3    C8 6638   0.579   0.724  17.044 -0.2957 -0.0270 -0.8904
  445TMC3    O1 6639   0.933   1.138  16.832 -0.0864  0.2933  0.0497
  445TMC3    O2 6640   0.478   0.704  17.111  0.6376  0.1754 -0.1172
  446MPD2     C 6641   3.923   2.808  11.000 -0.1164  0.0019  0.6113
  446MPD2    C1 6642   3.975   2.780  10.878  0.7409  0.6925 -0.6121
  446MPD2    C2 6643   4.107   2.821  10.849 -0.3713  0.3338  0.3226
  446MPD2    C3 6644   4.172   2.913  10.934 -0.5245  0.2582 -0.7116
  446MPD2    C4 6645   4.108   2.952  11.053  0.4697 -0.1377  0.4208
  446MPD2    C5 6646   3.991   2.894  11.081 -0.5191 -0.9243 -0.2702
  446MPD2     H 6647   4.158   2.790  10.759  0.5617  0.0683  0.9429
  446MPD2    H1 6648   4.155   3.008  11.132 -1.3122  1.2435  0.4955
  446MPD2    H2 6649   3.825   2.769  11.025  0.7436 -1.6946  1.3464
  446MPD2    H3 6650   3.947   2.913  11.177 -3.4358  1.7737 -2.1409
  446MPD2     N 6651   4.288   2.977  10.880 -0.4024  0.6499  0.1050
  446MPD2    H5 6652   4.326   2.930  10.798  1.7173  1.2392  0.7537
  446MPD2    N1 6653   3.900   2.701  10.790  0.4531 -0.4616 -0.8724
  446MPD2    H7 6654   3.803   2.677  10.810  0.3541 -0.1632 -0.9952
  447TMC3    C1 6655   4.495   3.095  10.890  0.4833 -0.3630  0.1310
  447TMC3    C2 6656   4.515   3.081  10.759 -0.8634 -0.4069  0.2882
  447TMC3    C3 6657   4.643   3.076  10.712 -0.6514 -0.2109 -0.1350
  447TMC3    C4 6658   4.603   3.101  10.984 -0.3776  0.2718 -0.0072
  447TMC3    C5 6659   0.005   3.083  10.932 -0.5201  0.3393  0.3876
  447TMC3    C6 6660   0.029   3.068  10.797  0.6797  0.2309 -0.3817
  447TMC3     C 6661   4.363   3.083  10.943  0.2569 -0.1246 -1.0929
  447TMC3     O 6662   4.339   3.134  11.050 -0.7886 -0.3866 -0.6286
  447TMC3     H 6663   4.428   3.092  10.694  0.8610  2.2525 -1.5780
  447TMC3    H1 6664   4.586   3.104  11.091  0.5457  2.0635  0.0860
  447TMC3    H2 6665   0.130   3.085  10.760  0.0285  0.4527 -2.0810
  447TMC3    C7 6666   0.111   3.059  11.032  0.1637 -0.8987 -0.3208
  447TMC3    C8 6667   4.659   3.079  10.571  0.1526 -0.1012 -0.1034
  447TMC3    O1 6668   0.083   3.087  11.148 -0.1676 -0.0247  0.2397
  447TMC3    O2 6669   4.560   3.116  10.504 -0.1193 -0.4673  0.7548
  448TMC3    C1 6670   3.050   3.301  17.375  0.3099 -0.6605  0.2906
  448TMC3    C2 6671   3.048   3.197  17.284 -0.5638  0.2458 -0.3381
  448TMC3    C3 6672   3.003   3.077  17.331 -0.7602 -0.1702 -0.4270
  448TMC3    C4 6673   3.024   3.280  17.508 -0.3930  0.2701 -0.4077
  448TMC3    C5 6674   2.994   3.156  17.548 -0.9271  0.6178 -0.3458
  448TMC3    C6 6675   2.988   3.045  17.465  0.2123 -0.1135  0.3689
  448TMC3     C 6676   3.098   3.435  17.335 -0.4110  0.1888  0.2417
  448TMC3     O 6677   3.120   3.520  17.421 -0.4553  0.5661  0.0572
  448TMC3     H 6678   3.076   3.209  17.180  0.2972 -0.3288 -0.1713
  448TMC3    H1 6679   3.038   3.361  17.578 -1.9168 -1.6477  2.0975
  448TMC3    H2 6680   2.952   2.945  17.488 -0.7379  0.8290  2.9442
  448TMC3    C7 6681   2.990   3.135   0.002  0.1537 -0.2503 -0.6688
  448TMC3    C8 6682   3.001   2.968  17.231 -0.3148  0.4879 -0.4779
  448TMC3    O1 6683   3.011   3.227   0.079  1.1288  0.4936  0.3905
  448TMC3    O2 6684   2.998   2.857  17.276 -0.3317 -0.5063 -0.3695
  449MPD2     C 6685   4.216   0.485  13.323  0.0896 -0.2307  0.4459
  449MPD2    C1 6686   4.114   0.579  13.333  0.1172  0.4465 -0.5818
  449MPD2    C2 6687   3.982   0.534  13.346 -0.4316  0.3459 -0.1743
  449MPD2    C3 6688   3.957   0.398  13.349  0.0575 -0.9553  0.4675
  449MPD2    C4 6689   4.065   0.304  13.349  0.4616  0.9108 -0.5656
  449MPD2    C5 6690   4.192   0.354  13.338 -0.5071 -0.0281  0.5820
  449MPD2     H 6691   3.903   0.598  13.382  0.4495  1.5592 -0.4112
  449MPD2    H1 6692   4.060   0.196  13.357  2.4101  1.0625  2.9002
  449MPD2    H2 6693   4.320   0.510  13.304 -0.0231 -1.1872 -1.4327
  449MPD2    H3 6694   4.278   0.288  13.333 -0.8019 -0.3029 -1.2252
  449MPD2     N 6695   3.826   0.355  13.366 -0.4039  0.1750 -0.0832
  449MPD2    H5 6696   3.751   0.423  13.362  0.9616  1.6886 -0.3266
  449MPD2    N1 6697   4.137   0.717  13.306  0.0529 -0.4387 -0.5484
  449MPD2    H7 6698   4.055   0.777  13.312  0.8646  0.7791 -1.6052
  450TMC3    C1 6699   4.227   0.916  13.226  0.0206  0.2064 -0.1145
  450TMC3    C2 6700   4.241   0.930  13.088  0.0742  0.2589 -0.1980
  450TMC3    C3 6701   4.148   0.993  13.011  0.0940  0.5266  0.6659
  450TMC3    C4 6702   4.115   0.974  13.289 -0.1139  0.3904  0.2139
  450TMC3    C5 6703   4.020   1.029  13.209 -0.1046  0.0127  0.8269
  450TMC3    C6 6704   4.038   1.043  13.072 -0.4233  0.4929  0.6838
  450TMC3     C 6705   4.257   0.783  13.270 -0.4918  0.2517  0.6753
  450TMC3     O 6706   4.367   0.738  13.237 -0.1376 -0.2477  0.0449
  450TMC3     H 6707   4.324   0.881  13.037 -0.7480 -2.1810  0.8213
  450TMC3    H1 6708   4.114   0.962  13.397  0.2828  0.2931  0.2068
  450TMC3    H2 6709   3.980   1.116  13.016  0.7165 -1.5061 -3.1289
  450TMC3    C7 6710   3.889   0.983  13.254 -0.2597  0.0321  0.0309
  450TMC3    C8 6711   4.185   1.043  12.887 -0.0577 -0.1468  0.4134
  450TMC3    O1 6712   3.902   0.889  13.330  0.5233 -0.2193 -0.0497
  450TMC3    O2 6713   4.135   1.143  12.836  0.3348  0.4148 -0.4730
  451MPD2     C 6714   0.084   4.472   1.502  0.5863  0.5880 -0.4997
  451MPD2    C1 6715   0.214   4.496   1.471 -0.0451 -0.3770 -0.0827
  451MPD2    C2 6716   0.299   4.383   1.448  0.1370  0.0219 -0.0956
  451MPD2    C3 6717   0.249   4.254   1.468 -0.0382  0.6881 -0.3620
  451MPD2    C4 6718   0.122   4.228   1.507  0.3783 -0.1583 -0.1057
  451MPD2    C5 6719   0.037   4.339   1.526 -0.4782  0.0798 -0.9387
  451MPD2     H 6720   0.403   4.396   1.419  0.8881  1.4571  3.2813
  451MPD2    H1 6721   0.078   4.134   1.539 -2.3522  1.4390  0.8197
  451MPD2    H2 6722   0.016   4.552   1.529 -0.9387 -0.4830 -1.2288
  451MPD2    H3 6723   4.654   4.327   1.547 -0.3506 -0.9885 -0.8738
  451MPD2     N 6724   0.327   4.145   1.430 -0.0251 -0.1428  0.4833
  451MPD2    H5 6725   0.279   4.056   1.441  0.2442 -0.4750 -1.1018
  451MPD2    N1 6726   0.241   4.637   1.473 -0.6411 -0.5299  0.4522
  451MPD2    H7 6727   0.162   4.699   1.488 -0.0625  0.2635  0.1926
  452TMC3    C1 6728   0.492   3.999   1.340 -1.0055 -0.1210  0.6433
  452TMC3    C2 6729   0.445   3.898   1.420 -0.3022  0.3020  0.4334
  452TMC3    C3 6730   0.477   3.769   1.392  0.1911 -0.0339 -0.2131
  452TMC3    C4 6731   0.562   3.967   1.224 -0.2630 -0.1328 -0.0906
  452TMC3    C5 6732   0.583   3.833   1.197  0.0719  0.8505  0.3407
  452TMC3    C6 6733   0.539   3.733   1.275  0.4889 -0.2378  0.7233
  452TMC3     C 6734   0.452   4.136   1.370 -0.1672 -0.1597  0.1294
  452TMC3     O 6735   0.524   4.221   1.324 -0.2161 -0.6939 -0.4963
  452TMC3     H 6736   0.419   3.923   1.522 -0.7040  0.6125  0.2511
  452TMC3    H1 6737   0.615   4.046   1.173 -0.0641  1.0771  1.9916
  452TMC3    H2 6738   0.548   3.628   1.249  1.9282 -0.0961  0.6914
  452TMC3    C7 6739   0.696   3.778   1.113 -0.4815  0.2352  0.0318
  452TMC3    C8 6740   0.467   3.675   1.499 -0.3529 -0.0749  0.1396
  452TMC3    O1 6741   0.750   3.679   1.157 -0.5177  0.6455  0.5248
  452TMC3    O2 6742   0.407   3.702   1.599 -0.1777  0.0084  0.1546
  453TMC3    C1 6743   1.991   2.269  11.846 -0.1176  0.4301 -0.8311
  453TMC3    C2 6744   1.977   2.132  11.862 -0.3905  0.1641 -0.7214
  453TMC3    C3 6745   1.908   2.058  11.762 -0.2298 -0.2241 -0.1391
  453TMC3    C4 6746   1.961   2.321  11.724  1.4342  0.3050  1.2180
  453TMC3    C5 6747   1.896   2.245  11.625 -0.2640 -0.7775  0.7626
  453TMC3    C6 6748   1.870   2.110  11.639 -0.4783 -0.2635 -0.2155
  453TMC3     C 6749   2.108   2.320  11.907 -0.0087  0.2106 -0.4679
  453TMC3     O 6750   2.113   2.418  11.979  0.2895  0.5508  0.2050
  453TMC3     H 6751   1.985   2.094  11.963  0.0954 -3.6294 -2.1583
  453TMC3    H1 6752   1.984   2.425  11.702  0.2703  1.1146  3.9090
  453TMC3    H2 6753   1.824   2.052  11.559  1.1189 -1.2447 -0.4069
  453TMC3    C7 6754   1.904   2.298  11.490  0.0479 -0.0241  0.3311
  453TMC3    C8 6755   1.848   1.928  11.801  0.3028  0.4844  0.1143
  453TMC3    O1 6756   1.976   2.395  11.476 -0.1625 -0.4851  0.5328
  453TMC3    O2 6757   1.778   1.931  11.904 -0.3964  0.4656  0.2850
  454MPD2     C 6758   0.512   1.520  16.797 -0.1996 -0.1185  0.2862
  454MPD2    C1 6759   0.581   1.436  16.719  0.0256 -0.7291  0.5590
  454MPD2    C2 6760   0.545   1.304  16.718  0.7075 -0.1361 -0.1383
  454MPD2    C3 6761   0.458   1.257  16.808  0.0756 -0.2964  0.1913
  454MPD2    C4 6762   0.398   1.342  16.898  0.2725  1.3195 -0.2924
  454MPD2    C5 6763   0.434   1.475  16.894 -0.7733  0.8250 -0.0779
  454MPD2     H 6764   0.589   1.233  16.648 -0.9658  0.5442 -1.8734
  454MPD2    H1 6765   0.335   1.300  16.974  1.7744  0.4938  0.4923
  454MPD2    H2 6766   0.518   1.628  16.785 -1.0407 -0.1393 -0.3358
  454MPD2    H3 6767   0.381   1.549  16.954  1.8812  0.4899  2.6473
  454MPD2     N 6768   0.426   1.117  16.823  0.2429  0.2952  0.3816
  454MPD2    H5 6769   0.382   1.082  16.908  1.8418 -1.4836  0.4886
  454MPD2    N1 6770   0.679   1.496  16.633 -0.2190 -0.1275 -0.1843
  454MPD2    H7 6771   0.673   1.595  16.611 -0.9901  0.3437  2.1129
  455TMC3    C1 6772   0.427   1.051  16.585  0.3785 -0.4120 -0.8164
  455TMC3    C2 6773   0.345   1.154  16.545  0.0136 -0.1137  0.7349
  455TMC3    C3 6774   0.378   1.216  16.430 -0.7137 -0.5787 -0.7805
  455TMC3    C4 6775   0.527   0.996  16.504 -0.1255 -0.1116 -0.1724
  455TMC3    C5 6776   0.549   1.060  16.391  0.1608 -0.3106 -0.2735
  455TMC3    C6 6777   0.479   1.170  16.349 -0.5607 -0.3826 -0.1956
  455TMC3     C 6778   0.444   1.013  16.726  0.2469 -0.3798 -0.6539
  455TMC3     O 6779   0.448   0.892  16.752  0.0111 -0.5477  0.5071
  455TMC3     H 6780   0.285   1.206  16.618 -0.7944 -1.3151  0.9137
  455TMC3    H1 6781   0.586   0.909  16.531 -0.2145  0.3577  1.5309
  455TMC3    H2 6782   0.497   1.215  16.252 -1.0299 -1.0751 -0.6012
  455TMC3    C7 6783   0.629   0.998  16.291 -0.0201  0.1331  0.0040
  455TMC3    C8 6784   0.345   1.356  16.417 -0.1248 -0.1065 -0.0215
  455TMC3    O1 6785   0.623   1.053  16.184 -0.5792 -0.2331 -0.0954
  455TMC3    O2 6786   0.431   1.412  16.353 -0.2137 -0.5018  0.9310
  456MPD2     C 6787   3.217   1.906  16.211  0.3542  0.1797  0.0485
  456MPD2    C1 6788   3.260   1.830  16.321  0.2813  0.3312  0.8063
  456MPD2    C2 6789   3.252   1.877  16.454 -0.2200 -0.3459  0.3109
  456MPD2    C3 6790   3.181   1.993  16.474 -0.0779 -0.0288  0.7284
  456MPD2    C4 6791   3.132   2.065  16.366 -0.0258 -0.2039 -0.0255
  456MPD2    C5 6792   3.150   2.025  16.234  0.3486 -0.2897  0.3893
  456MPD2     H 6793   3.297   1.828  16.540  2.6764  1.3022 -0.2737
  456MPD2    H1 6794   3.072   2.155  16.371  1.0527  0.5639 -0.7267
  456MPD2    H2 6795   3.216   1.868  16.109  2.1351 -1.3184  0.5853
  456MPD2    H3 6796   3.123   2.093  16.155 -0.1501 -0.7224  0.1857
  456MPD2     N 6797   3.172   2.041  16.605  0.2553  0.7398  0.6321
  456MPD2    H5 6798   3.174   1.969  16.677  1.5855  1.8545  1.7195
  456MPD2    N1 6799   3.315   1.702  16.284  0.0491  0.1884 -0.0236
  456MPD2    H7 6800   3.309   1.680  16.185  0.1082 -1.1120  0.2568
  457TMC3    C1 6801   3.139   2.201  16.784  0.2674  0.2785 -0.7745
  457TMC3    C2 6802   3.108   2.333  16.818 -0.2604 -0.9730 -0.2968
  457TMC3    C3 6803   3.166   2.386  16.931  0.3043 -0.6239  0.0336
  457TMC3    C4 6804   3.208   2.119  16.869 -0.8769 -0.3369  1.0137
  457TMC3    C5 6805   3.255   2.174  16.984  0.4155 -0.0654  0.0778
  457TMC3    C6 6806   3.249   2.311  17.013 -0.2800 -0.2249 -0.0663
  457TMC3     C 6807   3.140   2.169  16.640 -0.4854  0.0555 -0.0168
  457TMC3     O 6808   3.105   2.261  16.570  0.3376 -0.0615  0.0676
  457TMC3     H 6809   3.024   2.373  16.762 -0.1576  0.3670  0.5042
  457TMC3    H1 6810   3.221   2.015  16.843  1.3419  0.2220 -0.1292
  457TMC3    H2 6811   3.289   2.361  17.100  0.8864 -0.5450 -0.4193
  457TMC3    C7 6812   3.306   2.085  17.096  0.6928  0.3218  0.2335
  457TMC3    C8 6813   3.123   2.521  16.975 -0.0093 -0.6996 -0.3799
  457TMC3    O1 6814   3.296   1.966  17.083 -0.8662  0.4284  0.4338
  457TMC3    O2 6815   3.175   2.559  17.079  0.3777 -0.2258 -0.7874
  458MPD2     C 6816   1.289   0.641  11.979 -0.3309 -0.1716  0.7159
  458MPD2    C1 6817   1.252   0.667  12.110  0.2821 -0.2356 -0.3819
  458MPD2    C2 6818   1.134   0.614  12.156 -0.1284  0.6520 -0.1111
  458MPD2    C3 6819   1.051   0.540  12.067 -0.2159  0.0694 -0.1628
  458MPD2    C4 6820   1.086   0.519  11.937  0.0070  0.4856 -0.7176
  458MPD2    C5 6821   1.206   0.571  11.894  1.0226 -0.7610 -1.3334
  458MPD2     H 6822   1.107   0.627  12.260 -2.9786 -2.9804 -0.3838
  458MPD2    H1 6823   1.031   0.457  11.867 -2.0529  1.4140  0.0811
  458MPD2    H2 6824   1.385   0.683  11.948 -1.7511  0.6986 -2.4985
  458MPD2    H3 6825   1.235   0.550  11.791 -0.4865 -2.0313 -1.5091
  458MPD2     N 6826   0.925   0.488  12.109  0.2246  0.2934  0.5010
  458MPD2    H5 6827   0.907   0.482  12.209  1.2560  0.6513  0.7141
  458MPD2    N1 6828   1.347   0.745  12.183 -0.0246 -0.2022 -0.7848
  458MPD2    H7 6829   1.429   0.785  12.138  0.4698  1.0898  1.2666
  459TMC3    C1 6830   1.455   0.828  12.379 -0.6863 -0.0006  0.1852
  459TMC3    C2 6831   1.529   0.926  12.311 -0.2911 -0.2479 -0.5410
  459TMC3    C3 6832   1.639   0.976  12.385  0.1154 -0.0595  0.3919
  459TMC3    C4 6833   1.472   0.797  12.508 -0.1971  0.1155  0.1171
  459TMC3    C5 6834   1.573   0.848  12.578 -0.0846  0.2923  0.6957
  459TMC3    C6 6835   1.657   0.935  12.517 -0.5951  1.1410  0.7897
  459TMC3     C 6836   1.336   0.770  12.319 -0.0725  0.2260 -0.8703
  459TMC3     O 6837   1.241   0.745  12.393 -0.1282  0.1624  0.4615
  459TMC3     H 6838   1.510   0.952  12.208  0.7599 -0.3223 -0.7491
  459TMC3    H1 6839   1.402   0.728  12.553 -0.0786 -1.4956 -2.1633
  459TMC3    H2 6840   1.755   0.957  12.557  1.4029 -2.0759 -2.2988
  459TMC3    C7 6841   1.617   0.767  12.692  0.1948  0.0818 -0.2071
  459TMC3    C8 6842   1.744   1.063  12.316 -0.2466  0.5889 -0.0450
  459TMC3    O1 6843   1.569   0.655  12.706  0.3995  0.4857 -0.2357
  459TMC3    O2 6844   1.766   1.044  12.195  0.4936 -0.5100  0.4008
  460MPD2     C 6845   0.176   2.897  10.375 -0.2345  0.6922 -0.5803
  460MPD2    C1 6846   0.071   2.977  10.398  0.1295  0.5380 -0.0710
  460MPD2    C2 6847   4.707   3.000  10.291 -0.7755 -0.5049  0.1426
  460MPD2    C3 6848   4.712   2.922  10.181 -0.5929  0.2668 -0.3950
  460MPD2    C4 6849   0.090   2.835  10.165 -0.7834  0.5414 -0.3344
  460MPD2    C5 6850   0.192   2.826  10.261  0.1140 -0.4530 -0.3202
  460MPD2     H 6851   4.622   3.067  10.302 -0.9213 -0.8127  0.8495
  460MPD2    H1 6852   0.105   2.774  10.077 -2.6258 -1.2404  0.6017
  460MPD2    H2 6853   0.242   2.882  10.460 -0.4664  0.6891 -0.4022
  460MPD2    H3 6854   0.276   2.760  10.242 -0.8515 -1.5511 -0.7847
  460MPD2     N 6855   4.625   2.953  10.071 -0.6373  0.2231 -0.1180
  460MPD2    H5 6856   4.571   3.039  10.078  1.8550  1.8961 -1.5052
  460MPD2    N1 6857   0.059   3.026  10.529 -0.1030  0.3636  0.2519
  460MPD2    H7 6858   0.123   2.986  10.598 -1.5685 -2.5863 -0.0941
  461TMC3    C1 6859   4.551   2.941   9.842 -0.0494  0.1478  0.5782
  461TMC3    C2 6860   4.591   2.907   9.718  0.4602 -0.0913  0.0968
  461TMC3    C3 6861   4.554   2.982   9.609  0.1158 -0.4979  0.1737
  461TMC3    C4 6862   4.469   3.053   9.858 -0.1837  0.2354 -0.0679
  461TMC3    C5 6863   4.426   3.121   9.755  0.1356  0.7291  0.7548
  461TMC3    C6 6864   4.472   3.092   9.624 -0.1783 -0.0322 -0.6257
  461TMC3     C 6865   4.616   2.876   9.953  0.3425 -0.7233 -0.1473
  461TMC3     O 6866   4.663   2.768   9.925  0.2705 -0.8936  0.9399
  461TMC3     H 6867   4.649   2.818   9.695  1.6497  0.4979  0.7804
  461TMC3    H1 6868   4.449   3.086   9.960  0.6197  4.5641 -1.3196
  461TMC3    H2 6869   4.445   3.157   9.542 -1.4568  1.1629  0.7292
  461TMC3    C7 6870   4.378   3.258   9.759 -0.3452  0.1654 -0.4319
  461TMC3    C8 6871   4.569   2.934   9.476 -0.3080  0.5255 -0.2564
  461TMC3    O1 6872   4.407   3.332   9.661 -0.2309 -0.0881  0.7776
  461TMC3    O2 6873   4.669   2.867   9.468 -0.2274  0.1991 -0.4390
  462TMC3    C1 6874   0.284   3.932   0.423  0.6508  0.6605  0.3154
  462TMC3    C2 6875   0.372   3.859   0.360  0.0178  0.1493  0.3477
  462TMC3    C3 6876   0.331   3.737   0.316 -0.1523 -0.3688  0.0195
  462TMC3    C4 6877   0.153   3.897   0.437  0.5115 -0.1769  0.0472
  462TMC3    C5 6878   0.117   3.778   0.373 -0.3927 -0.7667  0.0527
  462TMC3    C6 6879   0.199   3.703   0.302 -0.2648 -0.1513 -0.6983
  462TMC3     C 6880   0.327   4.043   0.496  0.6372  0.0879 -0.1988
  462TMC3     O 6881   0.258   4.092   0.589 -0.0931  0.5628 -0.2525
  462TMC3     H 6882   0.475   3.887   0.341 -0.2555 -0.1099 -1.5094
  462TMC3    H1 6883   0.100   3.967   0.500 -1.7315 -0.5204 -1.4894
  462TMC3    H2 6884   0.169   3.609   0.256  0.8431 -1.4102  1.1521
  462TMC3    C7 6885   4.708   3.724   0.409  0.5751 -0.0379 -0.3761
  462TMC3    C8 6886   0.428   3.654   0.247  0.2668  0.1224 -0.7500
  462TMC3    O1 6887   4.695   3.613   0.365  0.0152 -0.0819  0.2262
  462TMC3    O2 6888   0.390   3.566   0.173  0.2479  0.2120 -0.2028
  463MPD2     C 6889   1.870   1.987   1.693 -0.4170  0.0234 -0.4858
  463MPD2    C1 6890   1.780   2.074   1.625  0.4669  0.2923  0.2417
  463MPD2    C2 6891   1.839   2.177   1.561  0.4897  0.5724 -0.0035
  463MPD2    C3 6892   1.980   2.209   1.579  0.2926  0.4509  0.3042
  463MPD2    C4 6893   2.063   2.119   1.642  0.3890  0.4277 -0.3811
  463MPD2    C5 6894   2.009   2.017   1.704  0.4544 -0.4174  0.0983
  463MPD2     H 6895   1.778   2.239   1.496 -0.2341  0.4722  0.5791
  463MPD2    H1 6896   2.158   2.156   1.680  0.2628 -1.7651  2.0859
  463MPD2    H2 6897   1.838   1.895   1.740 -0.6814  0.9881  1.2243
  463MPD2    H3 6898   2.073   1.952   1.763  0.4117  0.9964  1.6923
  463MPD2     N 6899   2.046   2.327   1.536 -0.8480 -0.3372  0.9499
  463MPD2    H5 6900   2.145   2.334   1.554 -0.6188  0.0553 -0.4838
  463MPD2    N1 6901   1.644   2.053   1.603  0.2006 -0.0290  0.0384
  463MPD2    H7 6902   1.587   2.116   1.546  0.8215  0.7066  0.2253
  464TMC3    C1 6903   1.432   1.945   1.573  0.3980  0.2120  0.2152
  464TMC3    C2 6904   1.370   2.063   1.587  0.2047 -0.4523  0.0432
  464TMC3    C3 6905   1.234   2.073   1.576  0.2425  0.3883 -0.0810
  464TMC3    C4 6906   1.370   1.827   1.548  0.3750  0.4248 -0.0624
  464TMC3    C5 6907   1.233   1.838   1.529  0.2890  0.3630 -0.2381
  464TMC3    C6 6908   1.166   1.959   1.546  0.1650 -0.3686  0.4608
  464TMC3     C 6909   1.571   1.940   1.625 -1.0221  0.8212  0.3149
  464TMC3     O 6910   1.608   1.836   1.681 -0.5308  0.3467  0.1672
  464TMC3     H 6911   1.413   2.158   1.615 -2.6700 -0.2071  3.6167
  464TMC3    H1 6912   1.423   1.733   1.562  1.8812  0.8957 -2.7330
  464TMC3    H2 6913   1.059   1.966   1.533 -0.0192 -0.9680  1.6629
  464TMC3    C7 6914   1.168   1.708   1.499 -0.1056 -0.4985 -0.7241
  464TMC3    C8 6915   1.185   2.208   1.534  0.2835 -0.0988  0.1898
  464TMC3    O1 6916   1.229   1.614   1.468 -1.0834  0.3255 -0.0772
  464TMC3    O2 6917   1.267   2.297   1.521 -0.2296 -0.2078 -0.1405
  465MPD2     C 6918   2.370   2.795  16.334 -1.0378  0.3134 -0.4478
  465MPD2    C1 6919   2.443   2.693  16.382 -0.2391  0.4969  0.4791
  465MPD2    C2 6920   2.476   2.601  16.285 -0.1819  0.0095 -0.0537
  465MPD2    C3 6921   2.433   2.601  16.150 -0.0398 -0.3704 -0.1281
  465MPD2    C4 6922   2.367   2.711  16.106  0.0914 -0.7420  0.1072
  465MPD2    C5 6923   2.338   2.806  16.197 -0.7920  0.1038 -0.5381
  465MPD2     H 6924   2.536   2.514  16.310  2.5782  1.8752 -0.1250
  465MPD2    H1 6925   2.336   2.725  16.003  0.1556  2.0834  0.4799
  465MPD2    H2 6926   2.346   2.878  16.400 -1.2925 -0.1037 -0.0217
  465MPD2    H3 6927   2.296   2.902  16.168 -0.4365  0.5739  0.4956
  465MPD2     N 6928   2.475   2.495  16.060  0.1036 -0.4485 -0.3604
  465MPD2    H5 6929   2.529   2.420  16.101 -0.6384 -1.0711 -0.5303
  465MPD2    N1 6930   2.505   2.685  16.511 -0.2717 -0.0882 -0.1757
  465MPD2    H7 6931   2.579   2.617  16.522  0.8008  0.6176 -3.1208
  466TMC3    C1 6932   2.664   2.193  15.857  0.3144 -0.5681 -0.3165
  466TMC3    C2 6933   2.580   2.113  15.781 -0.2943  0.7129 -0.1310
  466TMC3    C3 6934   2.467   2.166  15.735 -0.0899 -0.3346 -0.1515
  466TMC3    C4 6935   2.623   2.313  15.907 -0.2347  0.4728 -0.3042
  466TMC3    C5 6936   2.503   2.359  15.866 -0.1139 -0.1562  0.1219
  466TMC3    C6 6937   2.432   2.293  15.768  0.2672 -0.2040  0.0500
  466TMC3     C 6938   2.791   2.139  15.910  0.2656 -0.6689  0.5970
  466TMC3     O 6939   2.861   2.215  15.978  0.4343 -0.4853  0.1951
  466TMC3     H 6940   2.604   2.015  15.742  0.6103  0.1014  1.9429
  466TMC3    H1 6941   2.688   2.366  15.976  0.4563 -1.4223  0.5313
  466TMC3    H2 6942   2.338   2.330  15.729  0.4205  0.7492  0.5758
  466TMC3    C7 6943   2.446   2.478  15.923 -0.0966 -0.0015  0.4377
  466TMC3    C8 6944   2.374   2.079  15.673 -0.2084  0.3266 -0.5195
  466TMC3    O1 6945   2.363   2.538  15.853 -0.1382 -0.0459 -0.0571
  466TMC3    O2 6946   2.313   2.134  15.584  0.3541 -0.7288 -0.4214
  467TMC3    C1 6947   3.287   0.254  13.626  0.8718  0.2017 -0.1646
  467TMC3    C2 6948   3.293   0.380  13.576  0.3121  0.3407 -0.2514
  467TMC3    C3 6949   3.172   0.433  13.531  0.1266 -0.1120 -0.1478
  467TMC3    C4 6950   3.166   0.182  13.624  0.0408  0.2648 -0.3967
  467TMC3    C5 6951   3.049   0.236  13.572 -0.2868 -0.3050 -0.1784
  467TMC3    C6 6952   3.054   0.367  13.541  1.1891  0.5920  0.5600
  467TMC3     C 6953   3.412   0.193  13.675 -0.0258 -0.6684 -0.1162
  467TMC3     O 6954   3.517   0.256  13.664 -0.3841 -0.3865 -1.1274
  467TMC3     H 6955   3.383   0.439  13.590 -0.3290  1.0446  0.8842
  467TMC3    H1 6956   3.157   0.079  13.656  0.6325  0.7607  1.3297
  467TMC3    H2 6957   2.965   0.426  13.527 -0.0915 -1.7851 -1.4815
  467TMC3    C7 6958   2.923   0.172  13.608  0.2445 -0.2465 -0.0282
  467TMC3    C8 6959   3.168   0.574  13.493 -0.5929 -0.1447  0.4940
  467TMC3    O1 6960   2.927   0.106  13.713 -0.1512 -0.3876 -0.8695
  467TMC3    O2 6961   3.273   0.634  13.519  0.3789  0.1851 -0.8337
  468MPD2     C 6962   2.007   2.869  10.414 -0.6160  0.6315 -0.0998
  468MPD2    C1 6963   1.870   2.880  10.415 -0.3303  0.1314 -0.2335
  468MPD2    C2 6964   1.800   2.768  10.455 -0.0377  0.6609  0.1896
  468MPD2    C3 6965   1.867   2.653  10.487  0.4433 -0.3580 -0.2856
  468MPD2    C4 6966   2.002   2.645  10.483  0.1036  0.3854 -0.6271
  468MPD2    C5 6967   2.071   2.757  10.459 -0.4661  0.7608  0.4317
  468MPD2     H 6968   1.692   2.775  10.457 -0.1933 -1.1697 -1.6444
  468MPD2    H1 6969   2.062   2.558  10.507 -1.7519 -1.1630 -1.6199
  468MPD2    H2 6970   2.076   2.947  10.383  0.8635 -1.2064 -1.3602
  468MPD2    H3 6971   2.180   2.751  10.458 -0.6720 -3.1185  1.4969
  468MPD2     N 6972   1.809   2.532  10.536 -0.8479 -0.1666 -0.2734
  468MPD2    H5 6973   1.874   2.461  10.568  1.6703  2.3809  0.3005
  468MPD2    N1 6974   1.800   2.995  10.372  0.0024 -0.1041  0.2056
  468MPD2    H7 6975   1.700   3.004  10.389  0.2233 -1.8861  2.4289
  469TMC3    C1 6976   1.759   3.227  10.294 -1.0378 -0.1366  0.5941
  469TMC3    C2 6977   1.812   3.347  10.298  0.4290  0.4376 -0.0702
  469TMC3    C3 6978   1.748   3.445  10.238 -0.6229 -0.4508  0.4240
  469TMC3    C4 6979   1.642   3.199  10.235  0.1993 -0.4528 -0.6096
  469TMC3    C5 6980   1.575   3.306  10.180 -0.9165 -0.3202  0.4500
  469TMC3    C6 6981   1.628   3.431  10.190 -0.1448  0.1661  0.0269
  469TMC3     C 6982   1.852   3.119  10.322  0.1207  0.1679 -0.0985
  469TMC3     O 6983   1.974   3.142  10.298  0.8801 -0.1853 -0.7203
  469TMC3     H 6984   1.902   3.352  10.358  0.1878  0.5234  0.2893
  469TMC3    H1 6985   1.599   3.101  10.216  0.0955 -0.4531 -0.3647
  469TMC3    H2 6986   1.579   3.518  10.149 -1.8188 -0.8708 -0.1857
  469TMC3    C7 6987   1.429   3.311  10.170 -0.0435  0.2567 -0.0534
  469TMC3    C8 6988   1.772   3.576  10.302  0.3870  0.3931 -0.5835
  469TMC3    O1 6989   1.380   3.415  10.131  0.2226  0.0865  0.1681
  469TMC3    O2 6990   1.831   3.665  10.240 -0.0660 -0.0601  0.0956
  470TMC3    C1 6991   0.222   4.515   1.111  0.5811  0.5735  0.1120
  470TMC3    C2 6992   0.082   4.521   1.131 -1.5217  0.4060 -0.9062
  470TMC3    C3 6993   0.005   4.413   1.132 -0.2371  0.0132 -0.1420
  470TMC3    C4 6994   0.272   4.391   1.106 -0.4528  0.4461 -0.2333
  470TMC3    C5 6995   0.192   4.283   1.095  0.1984 -0.2055  0.0486
  470TMC3    C6 6996   0.053   4.292   1.103  0.1025 -0.4256  0.0960
  470TMC3     C 6997   0.307   4.632   1.093 -0.0171 -0.2004  0.4163
  470TMC3     O 6998   0.423   4.612   1.057  0.7013 -0.3387 -0.0057
  470TMC3     H 6999   0.043   4.621   1.147  0.4035  1.0234 -0.1861
  470TMC3    H1 7000   0.381   4.386   1.105 -0.4795 -0.1490 -0.0918
  470TMC3    H2 7001   4.716   4.202   1.104  1.4082 -1.3625 -6.1656
  470TMC3    C7 7002   0.257   4.170   1.035  1.0663 -0.0395  0.2691
  470TMC3    C8 7003   4.589   4.437   1.161  0.0958 -0.3464 -0.8905
  470TMC3    O1 7004   0.356   4.193   0.973 -0.2487 -0.4889 -0.3790
  470TMC3    O2 7005   4.562   4.553   1.199 -0.5212 -0.2125  0.0668
  471MPD2     C 7006   4.697   0.736  17.099 -0.3665 -0.5126  0.0720
  471MPD2    C1 7007   4.713   0.597  17.105 -0.9114  0.6214  0.9215
  471MPD2    C2 7008   0.068   0.540  17.203 -0.5543 -0.7425 -0.2121
  471MPD2    C3 7009   0.144   0.616  17.290 -0.3398 -0.1767 -0.1749
  471MPD2    C4 7010   0.122   0.753  17.283  0.5183  0.5736 -0.3156
  471MPD2    C5 7011   0.045   0.817  17.186  0.4398 -0.4360 -0.2438
  471MPD2     H 7012   0.069   0.432  17.201 -0.4749 -0.7535  0.4822
  471MPD2    H1 7013   0.166   0.819  17.356 -0.1220  0.9111 -0.2333
  471MPD2    H2 7014   4.632   0.778  17.023  1.8754  2.0500 -0.4171
  471MPD2    H3 7015   0.021   0.923  17.188  1.1457 -0.2559 -1.3192
  471MPD2     N 7016   0.237   0.568  17.386 -0.2893  0.8380 -0.1554
  471MPD2    H5 7017   0.271   0.641  17.448 -0.9857  0.4530  0.6845
  471MPD2    N1 7018   4.648   0.502  17.026  0.5191  0.3343  0.7197
  471MPD2    H7 7019   4.664   0.404  17.046 -0.6522  0.2517  1.2246
  472TMC3    C1 7020   4.467   0.419  16.903 -0.5487 -0.4001 -0.1260
  472TMC3    C2 7021   4.398   0.418  16.784 -0.7385  0.4847  0.2319
  472TMC3    C3 7022   4.290   0.332  16.781  0.2370  0.2751 -1.4325
  472TMC3    C4 7023   4.454   0.322  17.000  0.6063 -0.0585 -0.4265
  472TMC3    C5 7024   4.355   0.232  16.991  1.0376 -0.5100 -0.3297
  472TMC3    C6 7025   4.271   0.227  16.876 -0.3025 -0.4190 -0.0722
  472TMC3     C 7026   4.559   0.528  16.921  0.8376  0.0777  0.1389
  472TMC3     O 7027   4.558   0.626  16.846  0.0743 -0.2966 -0.4287
  472TMC3     H 7028   4.431   0.488  16.708 -2.4384  3.7174  2.4681
  472TMC3    H1 7029   4.513   0.326  17.091  0.1300 -0.7438 -0.0906
  472TMC3    H2 7030   4.187   0.160  16.865  1.6823 -2.6455 -1.7745
  472TMC3    C7 7031   4.336   0.143  17.103 -0.0277  0.1049  0.2204
  472TMC3    C8 7032   4.209   0.349  16.664 -0.5984 -0.1104 -0.1929
  472TMC3    O1 7033   4.434   0.090  17.150  0.4718  0.0289  0.4035
  472TMC3    O2 7034   4.230   0.446  16.592  1.1482 -0.2952 -0.6068
  473MPD2     C 7035   4.460   2.494  13.831  0.2616  0.0200 -0.1153
  473MPD2    C1 7036   4.408   2.608  13.786  0.1464  0.6250  0.3130
  473MPD2    C2 7037   4.396   2.704  13.885 -0.4864  0.4447 -0.4671
  473MPD2    C3 7038   4.436   2.688  14.019 -0.8857  0.5733  0.0690
  473MPD2    C4 7039   4.471   2.562  14.056  0.4947  0.0638 -0.5912
  473MPD2    C5 7040   4.483   2.464  13.959 -0.3195 -0.2324  0.5395
  473MPD2     H 7041   4.366   2.802  13.848 -0.5047 -0.6474 -3.3452
  473MPD2    H1 7042   4.504   2.548  14.158  0.8731 -3.9918 -1.2446
  473MPD2    H2 7043   4.473   2.408  13.767  2.5902 -0.8461  1.5162
  473MPD2    H3 7044   4.505   2.364  13.994 -0.9248 -0.1798  1.0735
  473MPD2     N 7045   4.437   2.796  14.112 -0.3414  0.9561  0.9042
  473MPD2    H5 7046   4.492   2.774  14.194 -2.0771 -0.4573  1.6936
  473MPD2    N1 7047   4.365   2.631  13.655  0.6048  0.5630 -0.1866
  473MPD2    H7 7048   4.327   2.724  13.638  1.3359  1.1002  1.1617
  474TMC3    C1 7049   4.397   3.010  14.206  0.0135  0.0345 -0.1076
  474TMC3    C2 7050   4.296   3.100  14.245  0.2972 -0.5184 -0.4875
  474TMC3    C3 7051   4.327   3.201  14.332  1.1241 -0.7669 -0.0683
  474TMC3    C4 7052   4.519   3.013  14.275  0.3530  0.4397 -0.4925
  474TMC3    C5 7053   4.543   3.121  14.359  0.4527  0.3976 -0.7808
  474TMC3    C6 7054   4.456   3.216  14.382  0.0152 -0.1773 -0.2571
  474TMC3     C 7055   4.371   2.916  14.102  0.7754 -0.9645 -0.2751
  474TMC3     O 7056   4.277   2.942  14.030  0.4670 -0.3101  0.0106
  474TMC3     H 7057   4.198   3.083  14.200 -0.3305  0.8725  0.3500
  474TMC3    H1 7058   4.593   2.938  14.251  0.3477  0.3089 -0.1064
  474TMC3    H2 7059   4.473   3.306  14.440 -3.7257 -0.6808  1.6712
  474TMC3    C7 7060   4.685   3.142  14.395  0.0838  0.4382 -0.2009
  474TMC3    C8 7061   4.214   3.295  14.345  0.7692  0.3586  0.2949
  474TMC3    O1 7062   0.050   3.087  14.339  0.0908  0.9145  0.0035
  474TMC3    O2 7063   4.116   3.288  14.270 -0.3128  0.6019 -0.6346
  475MPD2     C 7064   2.773   0.353  10.367 -0.7592 -0.0696 -0.1759
  475MPD2    C1 7065   2.744   0.465  10.288 -0.6327 -0.1507  0.3005
  475MPD2    C2 7066   2.639   0.546  10.335  0.1967  0.5752  0.9076
  475MPD2    C3 7067   2.562   0.511  10.444  0.4598 -0.3939 -1.0036
  475MPD2    C4 7068   2.584   0.392  10.505 -0.6787 -0.3250 -0.3894
  475MPD2    C5 7069   2.694   0.320  10.475  0.2920  0.2341 -0.2118
  475MPD2     H 7070   2.610   0.633  10.277  0.9114  0.7210  0.7755
  475MPD2    H1 7071   2.516   0.370  10.586 -0.4605 -0.5981 -0.2797
  475MPD2    H2 7072   2.839   0.276  10.330 -0.1430 -0.0508  0.8905
  475MPD2    H3 7073   2.715   0.229  10.530  0.8188  0.9685  0.7956
  475MPD2     N 7074   2.468   0.615  10.472  0.1394 -0.4406 -0.3274
  475MPD2    H5 7075   2.479   0.705  10.426  3.1615 -0.8558 -0.4195
  475MPD2    N1 7076   2.826   0.504  10.188 -0.1246 -0.2792 -0.0816
  475MPD2    H7 7077   2.897   0.441  10.153  1.3432  0.9112  0.7649
  476TMC3    C1 7078   2.958   0.633  10.046  0.6524 -0.8978 -0.6847
  476TMC3    C2 7079   2.930   0.557   9.934 -0.3678 -0.4781 -0.6648
  476TMC3    C3 7080   2.952   0.608   9.808 -0.9260 -0.4310 -0.5096
  476TMC3    C4 7081   2.990   0.766  10.037 -0.3785  0.3653 -0.2576
  476TMC3    C5 7082   2.996   0.822   9.908  0.1872  0.3658 -0.2388
  476TMC3    C6 7083   2.976   0.746   9.792  0.0626  0.1210 -0.6332
  476TMC3     C 7084   2.843   0.627  10.134 -0.7753 -0.1395  0.2612
  476TMC3     O 7085   2.780   0.732  10.155  0.2709 -0.0803 -0.5545
  476TMC3     H 7086   2.883   0.460   9.943 -2.9781  0.7530 -1.0264
  476TMC3    H1 7087   2.990   0.824  10.129  1.9523 -1.7598  1.0895
  476TMC3    H2 7088   2.988   0.785   9.692 -2.0094 -1.4498 -1.4772
  476TMC3    C7 7089   3.019   0.963   9.883 -0.1011 -0.3079 -0.4669
  476TMC3    C8 7090   2.897   0.533   9.696  0.1710 -0.3987  0.5414
  476TMC3    O1 7091   3.005   1.000   9.768 -0.0522  0.1732 -0.4791
  476TMC3    O2 7092   2.858   0.607   9.604 -0.1297 -0.0816  0.1574
  477MPD2     C 7093   0.400   2.732  11.608 -0.2007  0.3804  0.3339
  477MPD2    C1 7094   0.358   2.608  11.583  0.0703  0.1881  0.6756
  477MPD2    C2 7095   0.353   2.523  11.689  0.1448  0.6881  0.3161
  477MPD2    C3 7096   0.370   2.563  11.823 -0.1552  0.1569  0.0385
  477MPD2    C4 7097   0.387   2.700  11.845  0.3891 -0.4444  0.3462
  477MPD2    C5 7098   0.416   2.781  11.737 -0.1363  0.3511  0.2855
  477MPD2     H 7099   0.319   2.423  11.665 -0.7083  1.4393 -1.5271
  477MPD2    H1 7100   0.400   2.751  11.940  1.6705 -1.4041  0.6901
  477MPD2    H2 7101   0.430   2.801  11.531  1.5420 -0.4644  0.2648
  477MPD2    H3 7102   0.442   2.885  11.747 -0.6440  0.4696  0.3780
  477MPD2     N 7103   0.366   2.465  11.924  0.2680 -0.4309 -0.9222
  477MPD2    H5 7104   0.368   2.370  11.887 -0.5551 -0.7728 -0.1110
  477MPD2    N1 7105   0.322   2.577  11.450 -0.0321 -0.0616 -0.0288
  477MPD2    H7 7106   0.289   2.656  11.396  1.9182 -0.6082 -1.9878
  478TMC3    C1 7107   0.187   2.471  11.302  0.6930 -0.3064  0.2481
  478TMC3    C2 7108   0.062   2.444  11.335 -0.5229 -0.1378 -0.4256
  478TMC3    C3 7109   4.686   2.494  11.255 -0.2739  0.0001 -0.0383
  478TMC3    C4 7110   0.224   2.542  11.192  0.8162  0.4438  0.1181
  478TMC3    C5 7111   0.120   2.588  11.109 -0.2070  0.3741  0.2914
  478TMC3    C6 7112   4.716   2.570  11.146  0.7622  0.4124 -0.1320
  478TMC3     C 7113   0.282   2.456  11.411 -0.5197 -0.5044 -0.3263
  478TMC3     O 7114   0.284   2.342  11.456  0.0224 -0.3892  0.3265
  478TMC3     H 7115   0.045   2.389  11.426 -1.0630  0.4385 -0.1758
  478TMC3    H1 7116   0.330   2.553  11.168  1.0605 -0.8655  0.5966
  478TMC3    H2 7117   4.630   2.613  11.096 -0.1442  0.8125  1.7466
  478TMC3    C7 7118   0.155   2.639  10.977  0.3321  0.5807  0.4375
  478TMC3    C8 7119   4.561   2.517  11.320 -0.0832 -0.4850  0.0678
  478TMC3    O1 7120   0.265   2.594  10.947 -0.1680 -0.2574 -0.1726
  478TMC3    O2 7121   4.509   2.434  11.395 -0.2524  0.0076 -0.4487
  479MPD2     C 7122   3.790   4.521  14.504 -0.2080  0.5053 -0.2918
  479MPD2    C1 7123   3.709   4.499  14.611  0.9065  0.2626 -0.1273
  479MPD2    C2 7124   3.707   4.585  14.719  0.0070  0.4857  0.1171
  479MPD2    C3 7125   3.778   4.707  14.714  0.1394  0.2885 -0.3821
  479MPD2    C4 7126   3.840   0.013  14.598 -0.0866 -0.2065  0.6758
  479MPD2    C5 7127   3.847   4.641  14.498  0.0474  0.2079  0.7685
  479MPD2     H 7128   3.648   4.570  14.809 -1.5863  1.4763 -0.7615
  479MPD2    H1 7129   3.885   0.111  14.595 -1.9268  0.5586 -1.4641
  479MPD2    H2 7130   3.788   4.459  14.414  0.1196  2.4996 -1.6616
  479MPD2    H3 7131   3.902   4.661  14.407  0.5124  2.4735  1.5309
  479MPD2     N 7132   3.790   0.064  14.827  0.1655  0.4139 -0.0792
  479MPD2    H5 7133   3.831   0.155  14.811  1.1231 -0.0688 -0.3594
  479MPD2    N1 7134   3.617   4.397  14.627 -0.5569  0.5778  0.1740
  479MPD2    H7 7135   3.556   4.400  14.709  0.7200 -1.7816  1.2248
  480TMC3    C1 7136   3.856   0.110  15.295  0.1995  0.0491  0.5116
  480TMC3    C2 7137   3.810   0.234  15.298 -0.1678 -0.7406  0.6776
  480TMC3    C3 7138   3.794   0.297  15.171  0.2495 -0.4315  0.4630
  480TMC3    C4 7139   3.857   0.031  15.187 -0.6082 -0.4710 -0.2163
  480TMC3    C5 7140   3.833   0.096  15.066  0.4308  1.1470  1.0724
  480TMC3    C6 7141   3.799   0.225  15.060  0.1079  0.5373  0.0691
  480TMC3     C 7142   3.865   0.039  15.423  0.3761 -0.6975 -0.1474
  480TMC3     O 7143   3.827   4.648  15.424 -0.6230  0.0097 -0.0886
  480TMC3     H 7144   3.800   0.292  15.389 -1.8990  0.9844 -0.6189
  480TMC3    H1 7145   3.860   4.646  15.184  0.6443 -0.3865 -2.3241
  480TMC3    H2 7146   3.779   0.275  14.966  1.0938 -0.5104 -0.7026
  480TMC3    C7 7147   3.796   0.001  14.953  0.0008 -0.6908 -0.2226
  480TMC3    C8 7148   3.780   0.447  15.172 -0.2394 -0.7302  0.0392
  480TMC3    O1 7149   3.789   4.603  14.980 -0.2015  0.4680  0.0918
  480TMC3    O2 7150   3.755   0.496  15.282  0.2771  0.6494  0.1878
  481MPD2     C 7151   1.088   4.310  14.236  0.4800  0.2297  0.0070
  481MPD2    C1 7152   0.993   4.210  14.247 -0.4654 -0.4963 -0.5373
  481MPD2    C2 7153   0.954   4.165  14.375  0.3059 -0.0140 -0.0075
  481MPD2    C3 7154   1.021   4.211  14.485 -0.0461  0.3464  0.2906
  481MPD2    C4 7155   1.118   4.309  14.468 -0.1452 -0.4457 -0.2307
  481MPD2    C5 7156   1.156   4.350  14.345  0.1219 -0.3135  0.1770
  481MPD2     H 7157   0.881   4.085  14.379 -0.6542  0.8605 -0.0367
  481MPD2    H1 7158   1.172   4.343  14.555 -1.0398  0.3663  0.0081
  481MPD2    H2 7159   1.113   4.337  14.134  1.1690  0.7873  0.3282
  481MPD2    H3 7160   1.244   4.411  14.331 -0.3347 -0.0924 -1.8261
  481MPD2     N 7161   0.986   4.183  14.619  0.4985  0.2462  0.0391
  481MPD2    H5 7162   1.034   4.222  14.699 -1.1849  1.0591  0.6517
  481MPD2    N1 7163   0.931   4.169  14.127  0.1763  0.2762 -0.4639
  481MPD2    H7 7164   0.967   4.207  14.040 -1.0615  0.2971 -0.9727
  482TMC3    C1 7165   0.773   4.064  13.992 -0.6791 -0.0721 -0.5420
  482TMC3    C2 7166   0.655   3.995  13.982  0.0264  0.4588 -0.5169
  482TMC3    C3 7167   0.592   3.986  13.862  0.1364  0.1396  0.5729
  482TMC3    C4 7168   0.845   4.080  13.879 -0.1537 -0.5562 -0.1407
  482TMC3    C5 7169   0.783   4.050  13.755 -0.2508  0.1079 -0.3290
  482TMC3    C6 7170   0.660   4.005  13.746 -0.7194  0.1129 -0.4254
  482TMC3     C 7171   0.830   4.079  14.117  0.9219  0.9795 -0.0346
  482TMC3     O 7172   0.784   3.996  14.199  0.1401 -0.7453  0.4679
  482TMC3     H 7173   0.594   3.961  14.066 -1.0251  0.3994 -1.3025
  482TMC3    H1 7174   0.952   4.099  13.883 -0.3631  0.7478 -1.0603
  482TMC3    H2 7175   0.603   3.996  13.654  1.8771 -1.2646 -1.9244
  482TMC3    C7 7176   0.862   4.084  13.643  0.3750  0.1610 -0.1971
  482TMC3    C8 7177   0.477   3.902  13.850 -0.1344  0.2348 -0.0915
  482TMC3    O1 7178   0.979   4.118  13.661 -0.1816 -0.2581 -0.2366
  482TMC3    O2 7179   0.460   3.847  13.740 -0.4589  0.6051 -0.5044
  483TMC3    C1 7180   3.563   2.263   0.270 -0.5035  0.1480 -0.0595
  483TMC3    C2 7181   3.551   2.370   0.190 -0.2753 -0.5102  0.6331
  483TMC3    C3 7182   3.659   2.427   0.128 -0.0576 -0.5153 -0.0885
  483TMC3    C4 7183   3.690   2.203   0.286 -0.5037 -0.2167  0.8517
  483TMC3    C5 7184   3.800   2.259   0.219  0.7503 -0.8052 -0.7231
  483TMC3    C6 7185   3.782   2.369   0.140  0.7835 -0.0901 -0.4230
  483TMC3     C 7186   3.474   2.263   0.378 -0.6612 -0.0350  0.7032
  483TMC3     O 7187   3.406   2.366   0.391 -0.3931 -0.2131 -0.9361
  483TMC3     H 7188   3.450   2.409   0.179 -0.5289 -0.3890  3.3803
  483TMC3    H1 7189   3.720   2.141   0.369 -1.8886  1.1980  2.4090
  483TMC3    H2 7190   3.864   2.431   0.106 -0.2555  1.1019 -0.7086
  483TMC3    C7 7191   3.925   2.245   0.288 -0.5739 -0.1039  0.0469
  483TMC3    C8 7192   3.659   2.560   0.079 -0.0450 -0.0529 -0.1024
  483TMC3    O1 7193   3.984   2.348   0.319 -0.3424 -0.2871 -0.0733
  483TMC3    O2 7194   3.760   2.597   0.017  0.4377  0.1413 -0.4662
  484MPD2     C 7195   1.938   1.343  12.436 -0.3348  0.0658 -0.4377
  484MPD2    C1 7196   1.919   1.222  12.374  0.3329 -0.2940 -0.3661
  484MPD2    C2 7197   2.008   1.176  12.282  0.2198 -0.7302 -0.5656
  484MPD2    C3 7198   2.117   1.259  12.245  0.7294  0.2104  0.1417
  484MPD2    C4 7199   2.130   1.381  12.304  0.0224  0.6270  0.0588
  484MPD2    C5 7200   2.036   1.420  12.398  0.1975  0.0030 -0.0297
  484MPD2     H 7201   1.995   1.075  12.245 -2.7876 -0.5361 -0.0444
  484MPD2    H1 7202   2.209   1.450  12.275  0.0679 -0.5419 -2.5988
  484MPD2    H2 7203   1.857   1.378  12.498  1.7587  1.3258  1.5737
  484MPD2    H3 7204   2.034   1.520  12.440  1.0941  0.3487 -0.8052
  484MPD2     N 7205   2.215   1.219  12.151 -0.0619 -0.4989 -0.2459
  484MPD2    H5 7206   2.296   1.280  12.140 -1.8494  1.6937 -1.3954
  484MPD2    N1 7207   1.801   1.152  12.401  0.1607  0.7098 -0.3263
  484MPD2    H7 7208   1.757   1.162  12.492 -0.7476 -0.9710 -0.5800
  485TMC3    C1 7209   2.358   1.094  12.025 -0.1040  0.7468  0.3600
  485TMC3    C2 7210   2.437   0.979  12.037  0.4537 -0.0269  0.1690
  485TMC3    C3 7211   2.564   0.991  11.993 -0.1993  0.3681 -0.0901
  485TMC3    C4 7212   2.404   1.214  11.955  0.2364  0.3810  0.1696
  485TMC3    C5 7213   2.527   1.203  11.903  0.0525 -0.0398 -0.7316
  485TMC3    C6 7214   2.610   1.096  11.930  0.3178  0.2103  0.2180
  485TMC3     C 7215   2.235   1.095  12.097  0.2109 -0.3843  0.8784
  485TMC3     O 7216   2.174   0.996  12.116 -0.6774  0.1472  0.2940
  485TMC3     H 7217   2.394   0.893  12.087  0.6189  0.2882  0.8436
  485TMC3    H1 7218   2.340   1.295  11.922  0.9423  0.9079  0.0847
  485TMC3    H2 7219   2.713   1.093  11.895 -0.4893  0.0768 -2.1333
  485TMC3    C7 7220   2.536   1.233  11.764 -0.1140  0.1311  0.1547
  485TMC3    C8 7221   2.623   0.870  11.947  0.0599  0.0387  0.3924
  485TMC3    O1 7222   2.495   1.341  11.718  0.0269  0.2812 -0.4394
  485TMC3    O2 7223   2.646   0.883  11.828  0.6985 -0.2090  0.6971
  486MPD2     C 7224   3.818   0.347  12.940 -0.3862  0.0454 -0.0680
  486MPD2    C1 7225   3.727   0.291  12.854 -0.1810  0.0911 -0.6284
  486MPD2    C2 7226   3.631   0.378  12.802  0.6917 -0.2144 -0.0742
  486MPD2    C3 7227   3.631   0.512  12.822  0.3600  0.1078 -0.1472
  486MPD2    C4 7228   3.732   0.565  12.901  0.0042  0.8194 -0.4857
  486MPD2    C5 7229   3.813   0.480  12.970 -0.2512 -0.1192 -0.0876
  486MPD2     H 7230   3.549   0.342  12.741 -0.5559  1.0857  0.8485
  486MPD2    H1 7231   3.735   0.671  12.925  0.3028  0.7854 -0.3726
  486MPD2    H2 7232   3.890   0.293  13.001  1.4530  1.4317 -1.0234
  486MPD2    H3 7233   3.878   0.529  13.042  1.4187  0.7957 -2.2135
  486MPD2     N 7234   3.529   0.582  12.756 -0.0066 -0.2898 -0.4673
  486MPD2    H5 7235   3.459   0.521  12.714  0.8235 -1.3259 -0.3464
  486MPD2    N1 7236   3.733   0.155  12.836  0.1739 -0.5002 -0.4840
  486MPD2    H7 7237   3.803   0.108  12.892 -1.7815 -0.1021  2.3215
  487TMC3    C1 7238   3.662   4.658  12.761 -0.3606 -0.1890  0.0755
  487TMC3    C2 7239   3.566   4.582  12.701 -0.0656 -0.3218 -0.1268
  487TMC3    C3 7240   3.574   4.447  12.703 -0.3754  0.5189  0.1648
  487TMC3    C4 7241   3.778   4.602  12.807 -0.5689  0.1068  0.2519
  487TMC3    C5 7242   3.782   4.467  12.798 -0.3133  0.0909  0.4189
  487TMC3    C6 7243   3.692   4.383  12.738  0.4145 -0.4480 -0.5977
  487TMC3     C 7244   3.661   0.081  12.743 -0.1739  0.1927  0.5984
  487TMC3     O 7245   3.573   0.126  12.668  0.5086 -0.5731 -0.3647
  487TMC3     H 7246   3.467   4.622  12.683 -1.6165 -3.2367  1.9968
  487TMC3    H1 7247   3.859   4.658  12.852  2.2084 -4.3903  0.8619
  487TMC3    H2 7248   3.698   4.277  12.760 -1.5337 -0.3570  0.3981
  487TMC3    C7 7249   3.885   4.410  12.882 -0.6560 -0.4838  0.4751
  487TMC3    C8 7250   3.452   4.367  12.724 -0.2774 -0.1023  0.0451
  487TMC3    O1 7251   3.990   4.472  12.896 -0.8700  0.2254 -0.2081
  487TMC3    O2 7252   3.355   4.426  12.767  0.2704  0.8679  0.1810
  488MPD2     C 7253   3.834   1.670  16.614 -0.1348  0.2380  0.3667
  488MPD2    C1 7254   3.876   1.790  16.658  0.3992  0.0844  0.5218
  488MPD2    C2 7255   3.897   1.808  16.789  0.1915  0.5112  0.1900
  488MPD2    C3 7256   3.884   1.708  16.881  0.1640  0.5232  0.2109
  488MPD2    C4 7257   3.850   1.583  16.829 -0.1770 -0.1420  0.3024
  488MPD2    C5 7258   3.814   1.563  16.702 -0.6134  0.1145 -0.1395
  488MPD2     H 7259   3.930   1.900  16.836  0.3211  0.5331  0.0532
  488MPD2    H1 7260   3.828   1.501  16.896  0.1716 -1.1021 -0.7713
  488MPD2    H2 7261   3.809   1.648  16.511  0.5845  0.4605  0.1410
  488MPD2    H3 7262   3.780   1.464  16.674  1.5687 -0.8219  0.5188
  488MPD2     N 7263   3.898   1.733  17.023  0.1510 -0.0060 -0.2185
  488MPD2    H5 7264   3.891   1.831  17.048 -0.3424 -0.2705  0.6704
  488MPD2    N1 7265   3.889   1.906  16.574 -0.4691  0.0152  0.0165
  488MPD2    H7 7266   3.897   1.997  16.620 -2.9573 -0.4256  1.3101
  489TMC3    C1 7267   3.927   1.683  17.255  0.1548 -0.1971  0.6411
  489TMC3    C2 7268   3.916   1.814  17.293  0.9084 -0.6202 -0.2941
  489TMC3    C3 7269   3.965   1.850  17.420  0.7937 -0.1684 -0.5098
  489TMC3    C4 7270   3.976   1.589  17.343  0.7640 -0.2308  1.4061
  489TMC3    C5 7271   4.021   1.634  17.467  0.0599  0.2627 -1.0689
  489TMC3    C6 7272   4.014   1.760  17.506  0.7644 -0.4870 -0.7410
  489TMC3     C 7273   3.908   1.635  17.121 -0.2071 -0.5351  0.0028
  489TMC3     O 7274   3.933   1.516  17.106  0.1438  0.6880 -0.1208
  489TMC3     H 7275   3.868   1.883  17.225 -0.9512  0.5337  2.2056
  489TMC3    H1 7276   4.010   1.493  17.306 -1.1315 -0.5449  0.4222
  489TMC3    H2 7277   4.056   1.791  17.601 -0.9167  1.1572 -0.5294
  489TMC3    C7 7278   4.063   1.539  17.569  0.5144 -0.2364  0.3189
  489TMC3    C8 7279   3.952   1.982  17.465 -0.1086  0.5918 -0.2527
  489TMC3    O1 7280   4.098   1.592  17.670 -0.5454 -0.3917  0.0437
  489TMC3    O2 7281   3.945   2.012  17.584  0.3812  0.5717 -0.2376
  490MPD2     C 7282   4.692   1.018   0.122  0.1311 -0.6639  0.8988
  490MPD2    C1 7283   0.071   0.976   0.049  0.3530 -0.1998 -0.5789
  490MPD2    C2 7284   0.193   1.031   0.077  0.5942  0.1665 -0.6461
  490MPD2    C3 7285   0.218   1.135   0.164  0.4232  0.2965  0.3858
  490MPD2    C4 7286   0.111   1.179   0.237  0.6404 -0.0910  0.1837
  490MPD2    C5 7287   4.713   1.116   0.209 -0.3780 -0.4647 -0.2099
  490MPD2     H 7288   0.269   1.001   0.006  2.1764 -2.2295  2.0025
  490MPD2    H1 7289   0.115   1.243   0.325 -0.0017 -0.8175  0.7375
  490MPD2    H2 7290   4.596   0.967   0.120 -0.3166  0.1500  2.3030
  490MPD2    H3 7291   4.629   1.141   0.272  0.7569 -0.0953  1.1460
  490MPD2     N 7292   0.341   1.194   0.176  0.2172  0.3451 -0.0189
  490MPD2    H5 7293   0.353   1.286   0.216  0.8234  0.8794 -1.4369
  490MPD2    N1 7294   0.047   0.867  17.649  0.0446  0.2758 -0.2790
  490MPD2    H7 7295   0.128   0.814  17.619  0.2872  1.0485 -0.9833
  491TMC3    C1 7296   4.644   0.709  17.526  0.5916  0.2011 -0.0140
  491TMC3    C2 7297   4.695   0.605  17.593  0.2883  0.7141  0.1352
  491TMC3    C3 7298   4.647   0.478  17.566  0.2827 -0.1586 -0.1601
  491TMC3    C4 7299   4.557   0.698  17.421 -0.0273 -0.0111 -0.0532
  491TMC3    C5 7300   4.520   0.573  17.390 -0.5017 -0.7007  0.2359
  491TMC3    C6 7301   4.556   0.462  17.457 -0.6667  0.6409 -0.2744
  491TMC3     C 7302   4.647   0.830  17.603 -0.1100 -0.1316 -0.1208
  491TMC3     O 7303   4.541   0.893  17.595  0.1079 -0.0378  0.7735
  491TMC3     H 7304   0.035   0.626  17.679  1.1823 -2.4909  0.2599
  491TMC3    H1 7305   4.505   0.785  17.382 -0.3606  1.0055  2.6334
  491TMC3    H2 7306   4.506   0.369  17.433 -0.6380  0.3903  0.6152
  491TMC3    C7 7307   4.413   0.556  17.289  0.2694  0.5286 -0.5741
  491TMC3    C8 7308   4.630   0.384  17.680 -1.1984 -0.2853 -0.2688
  491TMC3    O1 7309   4.363   0.449  17.270  0.3637  0.1030 -0.1540
  491TMC3    O2 7310   4.631   0.445   0.092  0.4038  0.2334  0.1886
  492MPD2     C 7311   0.551   1.091  10.325 -0.3803 -0.2204  0.0441
  492MPD2    C1 7312   0.501   0.964  10.302 -0.2333 -0.5672  0.0106
  492MPD2    C2 7313   0.468   0.878  10.410 -0.5992 -0.1133 -0.6362
  492MPD2    C3 7314   0.487   0.923  10.547 -0.3051 -0.2135 -0.2417
  492MPD2    C4 7315   0.528   1.053  10.566  0.0596  0.1074  0.1877
  492MPD2    C5 7316   0.560   1.130  10.458 -0.6784 -0.0639 -0.2921
  492MPD2     H 7317   0.425   0.780  10.393 -0.7806 -0.4018  1.5464
  492MPD2    H1 7318   0.557   1.098  10.660 -2.0618  0.8606  0.4856
  492MPD2    H2 7319   0.583   1.163  10.251  0.7940 -0.0573  0.7174
  492MPD2    H3 7320   0.606   1.225  10.478 -1.6490  0.4079 -0.3121
  492MPD2     N 7321   0.487   0.830  10.654  0.0476  0.1363 -0.2616
  492MPD2    H5 7322   0.414   0.761  10.636 -0.2235  0.5029 -0.5714
  492MPD2    N1 7323   0.496   0.923  10.172 -0.1439  0.3067 -0.6939
  492MPD2    H7 7324   0.523   0.982  10.094 -1.4025  2.7904  0.7546
  493TMC3    C1 7325   0.452   0.754   9.997  0.2869 -0.0397 -0.4255
  493TMC3    C2 7326   0.411   0.845   9.906 -0.3064 -0.4627  0.2970
  493TMC3    C3 7327   0.358   0.796   9.786  0.3603  0.3507  0.0179
  493TMC3    C4 7328   0.451   0.618   9.967 -0.2331  0.4956  0.0184
  493TMC3    C5 7329   0.387   0.567   9.859 -0.1891  0.4441 -0.4012
  493TMC3    C6 7330   0.337   0.659   9.767  0.2228  0.0046 -0.1148
  493TMC3     C 7331   0.472   0.788  10.138 -0.4292 -0.1672  0.7408
  493TMC3     O 7332   0.457   0.685  10.201 -0.2968 -0.5219  0.6191
  493TMC3     H 7333   0.399   0.948   9.935  0.0175 -0.5313  0.6753
  493TMC3    H1 7334   0.503   0.553  10.036 -0.5180  0.4929  0.2302
  493TMC3    H2 7335   0.293   0.614   9.679  1.8964  2.0124 -1.9798
  493TMC3    C7 7336   0.280   0.473   9.891 -0.1086 -0.5601 -0.1174
  493TMC3    C8 7337   0.270   0.880   9.702 -0.0010  0.0308  0.1241
  493TMC3    O1 7338   0.167   0.494   9.848 -0.2228  0.2290 -0.6564
  493TMC3    O2 7339   0.173   0.835   9.638 -0.0395 -0.2532 -0.2415
  494TMC3    C1 7340   1.352   2.649   0.516  0.1830  0.6487 -0.6386
  494TMC3    C2 7341   1.407   2.528   0.536 -0.0383 -0.5775  0.6464
  494TMC3    C3 7342   1.457   2.461   0.431 -0.4825 -0.4785  0.4018
  494TMC3    C4 7343   1.335   2.706   0.394  0.5357  0.5790  0.4292
  494TMC3    C5 7344   1.392   2.637   0.286 -0.0231  0.6137 -0.2161
  494TMC3    C6 7345   1.452   2.516   0.299  0.2689 -0.2719  0.6275
  494TMC3     C 7346   1.333   2.739   0.629  0.1401  0.3543 -0.3265
  494TMC3     O 7347   1.274   2.693   0.731 -0.0684  0.2133 -0.0698
  494TMC3     H 7348   1.431   2.489   0.634  0.3801 -1.6991  0.1050
  494TMC3    H1 7349   1.275   2.795   0.390  1.4778  1.1006 -2.2145
  494TMC3    H2 7350   1.480   2.463   0.209  1.5510  3.7370 -1.3411
  494TMC3    C7 7351   1.360   2.676   0.152  1.0300 -0.2306 -1.0105
  494TMC3    C8 7352   1.528   2.335   0.451  0.0930  0.8619 -0.2607
  494TMC3    O1 7353   1.347   2.583   0.073  0.3148  0.0123 -0.2479
  494TMC3    O2 7354   1.488   2.265   0.541 -0.7848  0.1322 -0.1630
  495TMC3    C1 7355   4.103   0.748  14.352  0.2048 -0.0594 -0.2237
  495TMC3    C2 7356   3.986   0.762  14.276 -0.2999  0.2002 -0.6277
  495TMC3    C3 7357   3.875   0.776  14.343 -0.5569 -0.0524  0.2058
  495TMC3    C4 7358   4.112   0.794  14.482  0.3104 -0.5437 -0.4509
  495TMC3    C5 7359   3.997   0.840  14.538  0.0851  0.4379 -0.1961
  495TMC3    C6 7360   3.881   0.821  14.475  0.2700  0.1898 -0.3783
  495TMC3     C 7361   4.146   0.608  14.340  0.2348  0.7318 -0.0822
  495TMC3     O 7362   4.108   0.563  14.232 -0.1452  0.4955  0.4347
  495TMC3     H 7363   3.987   0.740  14.170  0.8855  0.7052 -0.7219
  495TMC3    H1 7364   4.204   0.790  14.540  0.7691  0.1012 -1.1273
  495TMC3    H2 7365   3.788   0.836  14.529 -0.1407 -1.5371 -0.5843
  495TMC3    C7 7366   3.993   0.805  14.676 -0.4736  0.7118 -0.4337
  495TMC3    C8 7367   3.776   0.665  14.330 -0.6006  0.0317  0.5966
  495TMC3    O1 7368   4.064   0.706  14.697  0.3565 -0.9869 -0.1340
  495TMC3    O2 7369   3.678   0.661  14.403  0.2843  0.1817 -0.3550
  496MPD2     C 7370   1.566   0.002  15.078 -0.3285  0.3685 -0.9286
  496MPD2    C1 7371   1.611   4.649  15.186 -0.2825  0.4222  0.2134
  496MPD2    C2 7372   1.546   4.667  15.307  0.6074  0.1365 -0.3065
  496MPD2    C3 7373   1.443   0.038  15.315  0.4706 -0.0301  0.6228
  496MPD2    C4 7374   1.416   0.120  15.210 -0.5813 -0.3188  0.3630
  496MPD2    C5 7375   1.473   0.099  15.093 -0.2958  0.0452  0.0811
  496MPD2     H 7376   1.577   4.608  15.392 -0.6110 -0.9741 -0.6339
  496MPD2    H1 7377   1.332   0.188  15.207 -0.0630  0.3175  0.3411
  496MPD2    H2 7378   1.611   0.007  14.979  0.6056  1.6034 -0.4452
  496MPD2    H3 7379   1.441   0.155  15.006 -0.6996  0.0544  0.2375
  496MPD2     N 7380   1.363   0.056  15.430 -0.6337  0.1955 -0.1772
  496MPD2    H5 7381   1.290   0.124  15.415  0.4475  1.4557  0.3390
  496MPD2    N1 7382   1.716   4.558  15.160  0.4180  0.0213 -0.0211
  496MPD2    H7 7383   1.750   4.552  15.064 -1.0262 -0.7365 -0.4930
  497TMC3    C1 7384   1.263   0.016  15.637 -0.7279 -0.7236 -0.5679
  497TMC3    C2 7385   1.143   0.058  15.589  0.7612  0.5529 -1.0605
  497TMC3    C3 7386   1.038   0.077  15.672  0.1049  0.3472  0.2612
  497TMC3    C4 7387   1.287   4.723  15.769 -0.0952 -0.4635 -0.0746
  497TMC3    C5 7388   1.182   0.028  15.855 -0.0641 -0.5479 -0.3959
  497TMC3    C6 7389   1.066   0.067  15.808 -0.3747  0.8886 -0.9239
  497TMC3     C 7390   1.377   4.720  15.551  0.1674  0.1821 -0.4785
  497TMC3     O 7391   1.474   4.674  15.604  0.0093 -0.4333  0.3010
  497TMC3     H 7392   1.121   0.077  15.485  0.2366 -0.0221 -1.0514
  497TMC3    H1 7393   1.385   4.689  15.798 -1.1177 -3.8015 -0.4701
  497TMC3    H2 7394   0.987   0.098  15.876  0.0700 -0.6599  0.3073
  497TMC3    C7 7395   1.186   0.001  16.000  0.0381 -0.4536  0.1983
  497TMC3    C8 7396   0.915   0.122  15.628  0.5086 -0.9670  0.0119
  497TMC3    O1 7397   1.084   0.011  16.072 -0.0712 -0.3359  0.0053
  497TMC3    O2 7398   0.869   0.104  15.513  0.5525  0.0728  0.2012
  498MPD2     C 7399   2.719   4.046   8.717 -0.9105 -0.5172 -0.5674
  498MPD2    C1 7400   2.765   4.103   8.830  0.7014  0.5734 -0.4331
  498MPD2    C2 7401   2.692   4.082   8.944  0.7413 -0.0415  0.1488
  498MPD2    C3 7402   2.586   3.994   8.954  0.5326 -0.2453 -0.1180
  498MPD2    C4 7403   2.555   3.918   8.840  0.2596  0.3138 -0.2089
  498MPD2    C5 7404   2.626   3.941   8.728  0.3412  0.3073 -0.7371
  498MPD2     H 7405   2.722   4.135   9.034  0.7297 -0.0884  0.1800
  498MPD2    H1 7406   2.489   3.832   8.838  0.2728  0.2926  0.5508
  498MPD2    H2 7407   2.777   4.042   8.626  0.2708  0.4585  0.1303
  498MPD2    H3 7408   2.594   3.887   8.639 -0.8346  2.4361 -1.6089
  498MPD2     N 7409   2.544   3.958   9.087 -0.2287  0.0033 -0.6729
  498MPD2    H5 7410   2.576   4.017   9.163  0.5260  0.2418 -1.1730
  498MPD2    N1 7411   2.886   4.164   8.844  0.1855 -0.0122  0.2305
  498MPD2    H7 7412   2.914   4.199   8.935  1.9376 -3.2347  0.9262
  499TMC3    C1 7413   3.105   4.227   8.789  0.0702 -0.1148  0.1023
  499TMC3    C2 7414   3.225   4.158   8.772 -0.3767  0.3957  0.6463
  499TMC3    C3 7415   3.326   4.188   8.849  0.4343 -0.9621 -0.3501
  499TMC3    C4 7416   3.102   4.340   8.866  0.5261 -0.2202  0.5685
  499TMC3    C5 7417   3.215   4.370   8.942  0.0958 -0.3283 -0.6879
  499TMC3    C6 7418   3.328   4.289   8.939 -0.4006  0.0411  0.4620
  499TMC3     C 7419   2.983   4.168   8.744  0.9899  0.6077 -0.2555
  499TMC3     O 7420   2.993   4.106   8.640 -0.1809  0.0798  0.1256
  499TMC3     H 7421   3.222   4.065   8.716  2.5543  1.6892 -1.6486
  499TMC3    H1 7422   3.011   4.398   8.858  1.6351  1.4930  0.1505
  499TMC3    H2 7423   3.422   4.314   8.988 -0.8356  2.6236 -0.0314
  499TMC3    C7 7424   3.200   4.474   9.039 -0.6596  1.1182 -0.5470
  499TMC3    C8 7425   3.451   4.114   8.837 -0.3028 -0.0999 -0.3097
  499TMC3    O1 7426   3.129   4.566   9.001  0.1743  0.5632  0.9137
  499TMC3    O2 7427   3.545   4.145   8.909  0.0541 -0.2324 -0.5133
  500MPD2     C 7428   3.944   1.850   9.543 -0.1977 -0.4184 -0.0706
  500MPD2    C1 7429   4.006   1.816   9.662 -0.0874 -0.9849  0.4882
  500MPD2    C2 7430   3.987   1.686   9.700  0.0504  1.2191  0.9968
  500MPD2    C3 7431   3.907   1.595   9.635 -0.0660 -0.2076  0.3095
  500MPD2    C4 7432   3.840   1.631   9.519 -0.7027 -0.1594  0.2746
  500MPD2    C5 7433   3.868   1.756   9.470 -0.1383  0.2256  0.1035
  500MPD2     H 7434   4.035   1.664   9.795  2.2739 -0.3401 -0.4876
  500MPD2    H1 7435   3.782   1.557   9.465  0.3171 -2.0045  1.7170
  500MPD2    H2 7436   3.964   1.949   9.505 -0.9123 -0.1898  0.1345
  500MPD2    H3 7437   3.819   1.784   9.377 -2.5551 -1.2731  0.9161
  500MPD2     N 7438   3.894   1.456   9.671 -0.4072  0.0928  0.5361
  500MPD2    H5 7439   3.843   1.401   9.602  1.5207 -0.3084 -0.5783
  500MPD2    N1 7440   4.093   1.896   9.732 -0.0244  0.1421  0.5634
  500MPD2    H7 7441   4.130   1.858   9.818 -0.1243 -1.7598 -0.2483
  501TMC3    C1 7442   4.181   2.100   9.817  0.8148 -0.7254  0.4151
  501TMC3    C2 7443   4.141   2.232   9.837 -0.1450  0.6426  0.2106
  501TMC3    C3 7444   4.207   2.298   9.937 -0.2058  0.2966  0.3342
  501TMC3    C4 7445   4.280   2.040   9.892  0.1910  0.5751  0.0442
  501TMC3    C5 7446   4.342   2.114   9.991 -0.2707  0.1803 -0.4861
  501TMC3    C6 7447   4.307   2.244  10.014  0.3250  0.6356  0.5394
  501TMC3     C 7448   4.114   2.034   9.709  0.0801 -0.4574  0.4661
  501TMC3     O 7449   4.065   2.110   9.627  0.4197 -0.5714 -0.3652
  501TMC3     H 7450   4.067   2.285   9.778  0.5447  0.2944 -0.9634
  501TMC3    H1 7451   4.319   1.941   9.868 -0.9462 -0.1427  1.1431
  501TMC3    H2 7452   4.334   2.296  10.104  1.7028  3.2261 -1.3676
  501TMC3    C7 7453   4.468   2.065  10.041  0.7106 -0.0866  0.1842
  501TMC3    C8 7454   4.186   2.440   9.964 -0.3732 -0.0867  0.4791
  501TMC3    O1 7455   4.509   1.963   9.985  0.4531 -0.4219  0.0690
  501TMC3    O2 7456   4.184   2.472  10.082  0.6006 -0.2486  0.6231
  502TMC3    C1 7457   3.357   0.798  14.995  0.2455  0.5263 -0.2880
  502TMC3    C2 7458   3.366   0.924  15.043 -0.0464 -0.1728 -0.3541
  502TMC3    C3 7459   3.288   1.016  14.980  0.4858 -0.4577 -0.3915
  502TMC3    C4 7460   3.276   0.764  14.883  0.3925 -0.2990 -0.0263
  502TMC3    C5 7461   3.197   0.864  14.831 -0.8326  0.0080 -0.5790
  502TMC3    C6 7462   3.217   0.992  14.866 -0.1269  0.4050 -0.2651
  502TMC3     C 7463   3.393   0.693  15.089 -0.6607  0.8040 -0.3074
  502TMC3     O 7464   3.425   0.583  15.046 -0.4985 -0.6069 -0.3734
  502TMC3     H 7465   3.422   0.944  15.134 -1.5612 -0.3552  0.6054
  502TMC3    H1 7466   3.262   0.662  14.850 -0.5780  0.4435 -1.8995
  502TMC3    H2 7467   3.175   1.074  14.809 -0.6066  0.2735 -0.0979
  502TMC3    C7 7468   3.060   0.825  14.859  0.5045 -0.7347 -0.1527
  502TMC3    C8 7469   3.240   1.135  15.051 -0.0608 -0.3420  0.0053
  502TMC3    O1 7470   3.045   0.715  14.911 -0.5746 -0.1635  0.1371
  502TMC3    O2 7471   3.322   1.188  15.128 -0.1421  0.4417  0.3568
  503MPD2     C 7472   1.164   1.469  17.441 -0.7973 -0.1488  0.1153
  503MPD2    C1 7473   1.176   1.484  17.303 -0.2885 -0.2111 -0.0445
  503MPD2    C2 7474   1.236   1.383  17.230 -0.0151 -0.3855 -0.8446
  503MPD2    C3 7475   1.284   1.271  17.294 -0.5733  1.2523  0.3070
  503MPD2    C4 7476   1.266   1.254  17.430  0.2800 -0.2326  0.7299
  503MPD2    C5 7477   1.217   1.362  17.499 -0.0627  0.8761 -0.1251
  503MPD2     H 7478   1.249   1.398  17.123 -1.6303  1.3663 -0.7985
  503MPD2    H1 7479   1.292   1.163  17.482 -0.2416 -0.7234  0.1238
  503MPD2    H2 7480   1.140   1.559  17.497 -0.4090 -1.1299  1.8198
  503MPD2    H3 7481   1.221   1.348  17.607  0.6177 -0.3429 -0.3017
  503MPD2     N 7482   1.348   1.172  17.214  0.1887 -0.3182  0.2572
  503MPD2    H5 7483   1.345   1.192  17.114  1.3699 -0.1363  0.2587
  503MPD2    N1 7484   1.126   1.589  17.232 -0.7525  0.2860 -0.3364
  503MPD2    H7 7485   1.144   1.587  17.132 -0.6758  0.3516 -0.3240
  504TMC3    C1 7486   1.471   0.992  17.144  0.4573 -0.3644  0.4485
  504TMC3    C2 7487   1.452   0.855  17.162 -0.0150  0.0550 -0.1327
  504TMC3    C3 7488   1.515   0.770  17.076  0.6724 -0.3828  0.4219
  504TMC3    C4 7489   1.564   1.041  17.054  0.3056  0.3120  0.0697
  504TMC3    C5 7490   1.628   0.953  16.968  0.5633  0.0973 -0.3935
  504TMC3    C6 7491   1.604   0.818  16.979 -1.3218 -0.3197 -0.2671
  504TMC3     C 7492   1.411   1.062  17.251  0.7888 -0.8890 -0.0071
  504TMC3     O 7493   1.413   1.003  17.359  0.5759  0.2226  0.5448
  504TMC3     H 7494   1.381   0.813  17.232  1.1724  0.3700  1.2708
  504TMC3    H1 7495   1.584   1.147  17.045  2.3900 -0.0381  0.4529
  504TMC3    H2 7496   1.668   0.762  16.911  0.5921  2.5901 -0.8920
  504TMC3    C7 7497   1.750   0.994  16.904 -0.3231  0.1530 -0.4366
  504TMC3    C8 7498   1.514   0.623  17.093 -0.3664  0.4140 -0.3470
  504TMC3    O1 7499   1.807   0.908  16.839 -0.4362  0.2746  0.2572
  504TMC3    O2 7500   1.534   0.553  16.992  0.3064 -0.5587  0.4547
  505MPD2     C 7501   1.568   4.224   9.490 -0.1984  0.3171  0.1091
  505MPD2    C1 7502   1.555   4.248   9.624 -0.2623 -0.1538  0.1309
  505MPD2    C2 7503   1.629   4.347   9.685 -0.4306  0.4062 -0.5174
  505MPD2    C3 7504   1.697   4.434   9.609  0.8722  0.2222  0.1787
  505MPD2    C4 7505   1.716   4.413   9.471  0.4623 -0.0788 -0.4643
  505MPD2    C5 7506   1.642   4.310   9.420  0.2862 -0.2145  0.4098
  505MPD2     H 7507   1.634   4.358   9.793 -1.4789 -0.3946 -0.3882
  505MPD2    H1 7508   1.783   4.463   9.402  0.7411 -0.1930 -0.2776
  505MPD2    H2 7509   1.510   4.141   9.450 -0.7956  1.7080 -1.9037
  505MPD2    H3 7510   1.658   4.292   9.314 -0.3166  3.0450 -0.2160
  505MPD2     N 7511   1.771   4.543   9.681  0.4723  0.3222  0.0902
  505MPD2    H5 7512   1.750   4.550   9.780 -1.5322  1.8052 -0.4486
  505MPD2    N1 7513   1.476   4.155   9.701  0.1719 -0.0370  0.3196
  505MPD2    H7 7514   1.418   4.094   9.645  0.0246 -2.2090  2.8974
  506TMC3    C1 7515   1.407   4.036   9.891 -0.0922  0.3245  0.0174
  506TMC3    C2 7516   1.455   3.924   9.828 -0.3007 -0.5079 -0.7447
  506TMC3    C3 7517   1.493   3.824   9.909 -0.4111  0.6944  0.3820
  506TMC3    C4 7518   1.406   4.040  10.027  0.5111  0.0880 -0.3164
  506TMC3    C5 7519   1.458   3.938  10.102 -0.1442 -0.9497  0.4684
  506TMC3    C6 7520   1.505   3.824  10.044  0.4472  0.5184  0.1953
  506TMC3     C 7521   1.467   4.158   9.837 -0.1903  0.0096  0.1754
  506TMC3     O 7522   1.511   4.241   9.919  0.5150  0.9062  0.1213
  506TMC3     H 7523   1.446   3.907   9.721  0.3411 -0.8956 -0.7327
  506TMC3    H1 7524   1.382   4.134  10.076  1.5056 -0.4361  1.1585
  506TMC3    H2 7525   1.549   3.744  10.101 -0.1665  0.6528  0.8696
  506TMC3    C7 7526   1.540   3.973  10.213  0.0134  0.5189  0.7259
  506TMC3    C8 7527   1.539   3.719   9.826  0.5426  1.1368 -0.8972
  506TMC3    O1 7528   1.580   3.892  10.297  0.2054  1.0794 -0.4450
  506TMC3    O2 7529   1.495   3.605   9.854  0.1893  0.4181 -0.4073
  507TMC3    C1 7530   1.863   1.253  13.777 -0.4840  0.9431 -0.5415
  507TMC3    C2 7531   1.957   1.339  13.727  0.5459  0.1090  0.5913
  507TMC3    C3 7532   2.060   1.366  13.810 -0.2724  0.0860  0.0740
  507TMC3    C4 7533   1.868   1.203  13.904 -0.0644  0.4116  0.5729
  507TMC3    C5 7534   1.970   1.239  13.983  0.1538 -0.1487  1.0063
  507TMC3    C6 7535   2.076   1.300  13.929 -0.1823  0.0920 -0.7714
  507TMC3     C 7536   1.732   1.267  13.712 -0.5455  0.1358  0.3523
  507TMC3     O 7537   1.712   1.358  13.634 -0.1346 -0.0074  0.3795
  507TMC3     H 7538   1.938   1.389  13.633  1.7215 -0.5736 -0.0273
  507TMC3    H1 7539   1.772   1.188  13.953 -0.5997  0.2423 -0.5197
  507TMC3    H2 7540   2.163   1.335  13.983 -0.3914  2.8483 -2.1997
  507TMC3    C7 7541   1.937   1.300  14.107 -0.9159 -0.4318 -0.1713
  507TMC3    C8 7542   2.112   1.502  13.807  0.0468 -0.1459  0.2022
  507TMC3    O1 7543   2.012   1.395  14.131  0.3220 -0.5348 -0.4191
  507TMC3    O2 7544   2.159   1.548  13.703 -0.0275  0.4528  0.0389
  508MPD2     C 7545   2.899   4.507  15.785 -0.5157  1.2858 -0.1914
  508MPD2    C1 7546   2.825   4.476  15.894  0.2008  0.6515  0.4844
  508MPD2    C2 7547   2.686   4.487  15.882 -0.3210  0.2272  0.0657
  508MPD2    C3 7548   2.624   4.543  15.773  0.0780  0.6674  0.2673
  508MPD2    C4 7549   2.702   4.574  15.667 -0.0338 -0.5114  0.3421
  508MPD2    C5 7550   2.840   4.551  15.665 -0.1020 -0.9061 -0.2306
  508MPD2     H 7551   2.628   4.469  15.972  0.6813  0.0144  0.6660
  508MPD2    H1 7552   2.662   4.631  15.583 -1.8275 -1.5887  0.4809
  508MPD2    H2 7553   3.007   4.506  15.790 -0.4273  2.9561 -1.5615
  508MPD2    H3 7554   2.895   4.582  15.577  0.6248 -1.8955 -0.1340
  508MPD2     N 7555   2.490   4.578  15.787  0.1153 -0.0758  0.2305
  508MPD2    H5 7556   2.440   4.553  15.872 -0.4194  1.4099  0.3539
  508MPD2    N1 7557   2.896   4.431  16.013 -0.4787  0.0467 -0.5580
  508MPD2    H7 7558   2.992   4.402  16.000 -0.3602  1.2948 -2.4831
  509TMC3    C1 7559   2.251   0.230  15.667  0.0029  0.0789  0.2056
  509TMC3    C2 7560   2.283   0.286  15.790 -0.0465  0.4152  0.1466
  509TMC3    C3 7561   2.334   0.206  15.889  0.5882  1.0709  0.0719
  509TMC3    C4 7562   2.269   0.097  15.640 -0.2616 -0.3883  0.9292
  509TMC3    C5 7563   2.322   0.021  15.744 -0.0681  0.3765 -0.0110
  509TMC3    C6 7564   2.354   0.076  15.864  0.2597 -0.3110 -0.0530
  509TMC3     C 7565   2.213   0.312  15.548 -0.3554 -0.2987 -0.0148
  509TMC3     O 7566   2.152   0.414  15.568  0.4073  0.3787  0.0443
  509TMC3     H 7567   2.271   0.392  15.809  0.8682  0.5132  0.2114
  509TMC3    H1 7568   2.236   0.052  15.547  0.2038  3.2743 -1.0022
  509TMC3    H2 7569   2.401   0.020  15.945 -1.4395  1.5255  2.2094
  509TMC3    C7 7570   2.415   4.642  15.689 -0.3180  0.3121 -0.3403
  509TMC3    C8 7571   2.441   0.258  15.962  0.4306 -0.2439 -0.2560
  509TMC3    O1 7572   2.448   4.681  15.579 -0.2075  0.2094 -0.1767
  509TMC3    O2 7573   2.417   0.328  16.058 -0.0039 -0.9289  0.7603
  510MPD2     C 7574   1.138   0.528  13.941  0.5839  0.5328  0.3846
  510MPD2    C1 7575   1.199   0.483  14.051 -0.8648  0.1071  0.2885
  510MPD2    C2 7576   1.338   0.458  14.053 -0.2926  0.4258  0.0675
  510MPD2    C3 7577   1.417   0.495  13.944 -0.6502  0.3516 -0.0947
  510MPD2    C4 7578   1.344   0.551  13.833  0.3897 -0.2840 -0.9018
  510MPD2    C5 7579   1.211   0.573  13.834  0.2855 -0.3624 -0.1711
  510MPD2     H 7580   1.386   0.404  14.134 -0.2630 -1.6136 -1.3185
  510MPD2    H1 7581   1.396   0.570  13.740  2.0530 -2.6792 -0.4517
  510MPD2    H2 7582   1.031   0.544  13.935  0.4556 -0.6010 -0.4120
  510MPD2    H3 7583   1.158   0.608  13.745  1.2180  1.5965  0.0433
  510MPD2     N 7584   1.557   0.478  13.958 -0.0162 -0.0561 -0.2862
  510MPD2    H5 7585   1.584   0.457  14.054 -0.9908 -1.4335 -0.3185
  510MPD2    N1 7586   1.101   0.438  14.151  0.3018 -0.5063  0.6253
  510MPD2    H7 7587   1.004   0.449  14.125  0.9369  1.8507 -0.7444
  511TMC3    C1 7588   1.028   0.384  14.375 -0.7590  0.6667  0.2281
  511TMC3    C2 7589   1.048   0.391  14.510  0.0501  0.1476  0.3226
  511TMC3    C3 7590   0.948   0.359  14.592  0.9702 -0.3651  0.0421
  511TMC3    C4 7591   0.911   0.338  14.327  0.0665 -0.1152  0.0929
  511TMC3    C5 7592   0.817   0.292  14.415 -0.2103  0.0656  0.2571
  511TMC3    C6 7593   0.828   0.316  14.551 -0.6399 -0.9439  0.3104
  511TMC3     C 7594   1.139   0.409  14.285 -0.5314 -0.5323 -0.0507
  511TMC3     O 7595   1.250   0.400  14.331 -0.0997 -0.6030  0.6393
  511TMC3     H 7596   1.136   0.448  14.540  0.1544  0.8132 -1.2193
  511TMC3    H1 7597   0.912   0.303  14.225 -1.8402  2.4683 -0.8121
  511TMC3    H2 7598   0.750   0.300  14.624 -0.4599  1.4567  1.0326
  511TMC3    C7 7599   0.716   0.205  14.356  0.8627  0.4067 -0.0996
  511TMC3    C8 7600   0.956   0.396  14.727 -0.4950  0.0505 -0.1039
  511TMC3    O1 7601   0.708   0.207  14.235 -0.6962  0.2804 -0.3087
  511TMC3    O2 7602   0.851   0.439  14.778  0.5371 -0.1479 -0.0374
  512TMC3    C1 7603   4.216   4.313  12.679 -0.4564  0.2241 -0.0048
  512TMC3    C2 7604   4.330   4.258  12.738 -0.6470 -0.3241 -0.2939
  512TMC3    C3 7605   4.313   4.141  12.804 -0.1904 -0.1570  0.4997
  512TMC3    C4 7606   4.101   4.246  12.675 -0.3105 -0.5480  0.0491
  512TMC3    C5 7607   4.093   4.119  12.723  0.2552 -0.3834 -0.5612
  512TMC3    C6 7608   4.198   4.062  12.792  0.4388 -0.3076 -0.1822
  512TMC3     C 7609   4.213   4.452  12.679 -0.1372 -0.1454 -0.1147
  512TMC3     O 7610   4.292   4.502  12.751  0.0451 -0.6516 -0.2330
  512TMC3     H 7611   4.428   4.300  12.717 -0.9599 -0.0673 -1.2814
  512TMC3    H1 7612   4.022   4.290  12.615 -1.0190 -0.1914  1.2506
  512TMC3    H2 7613   4.190   3.972  12.851  0.8702 -0.1323  0.1408
  512TMC3    C7 7614   3.968   4.047  12.721  0.0388  0.0639 -0.2601
  512TMC3    C8 7615   4.423   4.089  12.892 -0.3177 -0.3401  0.0523
  512TMC3    O1 7616   3.869   4.103  12.673 -0.5385  0.6015 -0.0474
  512TMC3    O2 7617   4.423   3.972  12.915 -0.1462  0.9638  0.1309
  513MPD2     C 7618   1.258   3.982  13.399  1.0341 -0.2376 -0.6605
  513MPD2    C1 7619   1.319   4.094  13.341  0.0501  0.3350  0.2285
  513MPD2    C2 7620   1.412   4.168  13.419 -0.1271 -0.1079  0.8165
  513MPD2    C3 7621   1.441   4.133  13.543  0.8336 -1.0080  0.3443
  513MPD2    C4 7622   1.369   4.036  13.602  0.7629  0.8397  0.0091
  513MPD2    C5 7623   1.279   3.962  13.537  0.5071 -1.0036  0.3357
  513MPD2     H 7624   1.465   4.252  13.375  0.5203 -0.8415  0.1753
  513MPD2    H1 7625   1.393   4.005  13.703 -0.0510 -0.5551 -0.2222
  513MPD2    H2 7626   1.190   3.913  13.351  1.3375 -0.8925 -0.1557
  513MPD2    H3 7627   1.233   3.870  13.571  0.1530 -2.2185 -3.3735
  513MPD2     N 7628   1.536   4.196  13.627 -0.7671 -0.1748 -0.9860
  513MPD2    H5 7629   1.548   4.180  13.726 -1.8809  1.9484 -0.5193
  513MPD2    N1 7630   1.309   4.132  13.203  0.6548 -0.1538 -0.3675
  513MPD2    H7 7631   1.249   4.072  13.148  1.2571  0.5638 -1.8039
  514TMC3    C1 7632   1.341   4.264  13.004  0.0092 -0.5823  0.1982
  514TMC3    C2 7633   1.382   4.149  12.936 -0.4749 -0.4717  0.1385
  514TMC3    C3 7634   1.433   4.177  12.813 -0.3979 -0.1547 -0.2983
  514TMC3    C4 7635   1.366   4.391  12.960 -0.6958 -0.5495  0.2141
  514TMC3    C5 7636   1.435   4.411  12.845  0.3937 -0.8032 -0.5160
  514TMC3    C6 7637   1.461   4.305  12.766  0.1556  0.5253 -0.0778
  514TMC3     C 7638   1.352   4.257  13.149 -0.4093  0.6295 -0.2145
  514TMC3     O 7639   1.376   4.362  13.206 -0.2951 -0.2096 -0.7506
  514TMC3     H 7640   1.370   4.045  12.964 -0.1056 -0.0447  1.8870
  514TMC3    H1 7641   1.343   4.481  13.016  1.8232  1.0439 -1.3578
  514TMC3    H2 7642   1.516   4.338  12.679  0.6462  1.1839  0.4743
  514TMC3    C7 7643   1.555   4.485  12.866 -0.8205 -0.0006 -0.5620
  514TMC3    C8 7644   1.401   4.086  12.698  0.3437 -0.8671  0.1222
  514TMC3    O1 7645   1.643   4.513  12.777 -0.2498  0.1427 -0.1403
  514TMC3    O2 7646   1.322   3.991  12.730 -0.2747 -0.3225  0.1802
  515MPD2     C 7647   4.292   1.721  14.745 -0.6928  0.1407  0.5316
  515MPD2    C1 7648   4.393   1.633  14.791 -0.2466  0.6336 -0.3729
  515MPD2    C2 7649   4.424   1.639  14.922 -0.2978  0.1583  0.7987
  515MPD2    C3 7650   4.358   1.731  15.000 -0.0205 -0.1952 -0.1604
  515MPD2    C4 7651   4.268   1.820  14.954 -0.0541  0.0159  0.0447
  515MPD2    C5 7652   4.236   1.821  14.818  0.3724 -0.0737  0.0362
  515MPD2     H 7653   4.503   1.578  14.963 -0.0896  0.7636  1.2921
  515MPD2    H1 7654   4.211   1.891  15.012 -0.4005 -1.2183  1.2189
  515MPD2    H2 7655   4.247   1.720  14.646  1.4516 -0.0296 -0.4624
  515MPD2    H3 7656   4.167   1.895  14.778  0.1638 -0.1066  0.3296
  515MPD2     N 7657   4.367   1.730  15.145  0.4979  0.3190  0.0499
  515MPD2    H5 7658   4.320   1.811  15.184  1.1739  0.4545  0.5872
  515MPD2    N1 7659   4.461   1.539  14.713 -0.3320  0.7869  0.4776
  515MPD2    H7 7660   4.536   1.485  14.755 -0.2061  0.3653 -0.2921
  516TMC3    C1 7661   4.477   1.378  14.548  0.5194  0.1129  0.4474
  516TMC3    C2 7662   4.485   1.339  14.417  0.1278 -0.4498  0.8468
  516TMC3    C3 7663   4.481   1.209  14.386  0.7775 -0.7852  0.0396
  516TMC3    C4 7664   4.459   1.285  14.651  0.6857  0.0606  0.1754
  516TMC3    C5 7665   4.449   1.153  14.610 -1.2665  0.6905  0.1375
  516TMC3    C6 7666   4.461   1.113  14.480 -0.2688 -0.0884  0.1664
  516TMC3     C 7667   4.426   1.512  14.580 -0.4321 -0.4011  0.1841
  516TMC3     O 7668   4.354   1.568  14.503  0.1443  0.0661 -0.1165
  516TMC3     H 7669   4.497   1.412  14.338 -0.4223 -1.5517 -0.2727
  516TMC3    H1 7670   4.433   1.297  14.755 -0.6355 -2.2321  0.0921
  516TMC3    H2 7671   4.450   1.006  14.462 -1.2162  0.2395 -1.1888
  516TMC3    C7 7672   4.403   1.061  14.713 -0.0591 -0.1684 -0.2591
  516TMC3    C8 7673   4.504   1.165  14.247 -0.1477 -0.2008 -0.9880
  516TMC3    O1 7674   4.339   1.106  14.806  0.6527  0.1848 -0.4807
  516TMC3    O2 7675   4.456   1.055  14.215 -0.1645 -0.6235  0.1405
  517MPD2     C 7676   4.626   2.657   0.313 -0.9653  0.4072  0.0161
  517MPD2    C1 7677   4.551   2.679   0.199 -0.7085 -0.1573  0.2661
  517MPD2    C2 7678   4.457   2.782   0.199  0.4715 -0.9201  0.0146
  517MPD2    C3 7679   4.453   2.871   0.308  0.9715  0.3044  0.3132
  517MPD2    C4 7680   4.543   2.857   0.404 -0.5120 -0.1425  0.7184
  517MPD2    C5 7681   4.623   2.749   0.410  0.2746 -0.1496 -0.4895
  517MPD2     H 7682   4.386   2.795   0.118 -0.4389 -1.0982  0.7787
  517MPD2    H1 7683   4.546   2.937   0.477  1.9503 -0.1544  0.6296
  517MPD2    H2 7684   4.707   2.585   0.320  0.4972  1.9985 -0.3645
  517MPD2    H3 7685   4.694   2.750   0.491  1.5730 -0.1861 -1.6250
  517MPD2     N 7686   4.375   2.993   0.315  0.2520 -0.7509  0.7289
  517MPD2    H5 7687   4.379   3.040   0.405  2.0312 -2.2947  1.4520
  517MPD2    N1 7688   4.562   2.600   0.080 -0.2016  0.0135  0.1905
  517MPD2    H7 7689   4.509   2.620  17.690  1.0196  0.5407 -0.4669
  518TMC3    C1 7690   4.580   2.423  17.644  0.7058  0.0409  0.0824
  518TMC3    C2 7691   4.532   2.294  17.631  0.1109  0.1592 -0.3969
  518TMC3    C3 7692   4.490   2.248  17.510  0.4716  0.3938  0.0345
  518TMC3    C4 7693   4.596   2.499  17.538 -0.2875 -0.6205  0.4595
  518TMC3    C5 7694   4.567   2.448  17.414  0.1027  0.1709  0.0978
  518TMC3    C6 7695   4.524   2.322  17.400 -0.3585 -0.2729 -0.2051
  518TMC3     C 7696   4.606   2.472   0.085  0.0679 -0.2356 -0.9617
  518TMC3     O 7697   4.658   2.401   0.173  0.5844  0.3150  0.3674
  518TMC3     H 7698   4.507   2.237   0.026  0.1070  0.4101 -0.2373
  518TMC3    H1 7699   4.629   2.603  17.544 -1.3164 -0.1257 -2.5039
  518TMC3    H2 7700   4.500   2.278  17.304  1.4441  3.3227 -2.3126
  518TMC3    C7 7701   4.611   2.517  17.291 -1.0867  0.0405  0.1507
  518TMC3    C8 7702   4.455   2.106  17.483 -0.0194  0.2900  0.0430
  518TMC3    O1 7703   4.571   2.632  17.274  0.2687  0.0999 -0.1938
  518TMC3    O2 7704   4.511   2.028  17.561 -0.5561  0.0942 -1.1163
  519MPD2     C 7705   1.201   1.750  13.427  0.4356  0.4446 -0.0665
  519MPD2    C1 7706   1.135   1.631  13.445 -0.2915  0.2086  0.0372
  519MPD2    C2 7707   1.201   1.514  13.420  0.2123 -0.0599 -0.3529
  519MPD2    C3 7708   1.329   1.506  13.367  0.2458  0.1133  0.5778
  519MPD2    C4 7709   1.394   1.633  13.355 -0.4429 -0.3740  0.1372
  519MPD2    C5 7710   1.333   1.748  13.387  0.0942  0.2211 -0.3917
  519MPD2     H 7711   1.147   1.421  13.415 -0.3401  0.1354  2.1452
  519MPD2    H1 7712   1.495   1.641  13.316 -0.5868 -0.4718 -0.2522
  519MPD2    H2 7713   1.156   1.843  13.461  0.6345  0.6591 -0.3966
  519MPD2    H3 7714   1.390   1.840  13.382  2.4798 -1.3191 -1.3223
  519MPD2     N 7715   1.399   1.388  13.330  1.1508  0.9397 -0.3352
  519MPD2    H5 7716   1.499   1.395  13.311  1.4676  0.8856  1.2708
  519MPD2    N1 7717   1.006   1.629  13.505 -0.6350  0.9044 -0.4856
  519MPD2    H7 7718   0.955   1.717  13.510 -0.3807  0.9080  2.1607
  520TMC3    C1 7719   1.419   1.168  13.237  0.7836 -0.2995 -0.1418
  520TMC3    C2 7720   1.351   1.064  13.192 -0.2176  0.0619 -0.3422
  520TMC3    C3 7721   1.405   0.938  13.199  1.0698  0.2596  0.5103
  520TMC3    C4 7722   1.533   1.145  13.306 -0.3046  0.0877  0.5968
  520TMC3    C5 7723   1.581   1.017  13.321  0.1934  0.2081 -0.3393
  520TMC3    C6 7724   1.513   0.909  13.273  0.0856  0.0081  0.7737
  520TMC3     C 7725   1.332   1.271  13.294 -0.1207  0.3065  0.1854
  520TMC3     O 7726   1.212   1.244  13.286 -0.6052 -0.5099  0.0036
  520TMC3     H 7727   1.274   1.081  13.118  0.9033  0.3909 -1.4221
  520TMC3    H1 7728   1.570   1.230  13.363  1.1672 -0.4696  0.4573
  520TMC3    H2 7729   1.550   0.807  13.278  1.7014  0.3933 -3.0100
  520TMC3    C7 7730   1.705   0.997  13.392  0.1207 -0.8988  0.4323
  520TMC3    C8 7731   1.348   0.834  13.114  0.8725  0.3026  0.9841
  520TMC3    O1 7732   1.733   0.885  13.431 -0.2628 -0.4733  0.9421
  520TMC3    O2 7733   1.418   0.741  13.080 -0.2360 -0.2591 -0.6766
  521MPD2     C 7734   1.737   3.838  17.481 -0.6432 -0.2386 -0.1652
  521MPD2    C1 7735   1.735   3.781  17.354 -0.4240  0.3561 -0.3713
  521MPD2    C2 7736   1.850   3.772  17.284 -0.1995 -0.6186 -0.6003
  521MPD2    C3 7737   1.965   3.823  17.341  0.4142 -0.3638  0.3366
  521MPD2    C4 7738   1.972   3.877  17.466 -0.6245 -0.0622  0.0496
  521MPD2    C5 7739   1.854   3.884  17.537  0.2999 -1.1573  0.0920
  521MPD2     H 7740   1.855   3.727  17.185  0.7216 -0.9162 -0.4192
  521MPD2    H1 7741   2.061   3.912  17.518 -0.6086  1.6615 -1.1460
  521MPD2    H2 7742   1.643   3.836  17.535  0.5147  0.6102  1.8862
  521MPD2    H3 7743   1.860   3.917  17.640 -0.1756  0.4901 -0.4057
  521MPD2     N 7744   2.070   3.827  17.249  0.2906  0.2842  0.0068
  521MPD2    H5 7745   2.049   3.794  17.156 -0.0777 -0.5457  0.3796
  521MPD2    N1 7746   1.608   3.744  17.316 -0.3315  0.7820  0.1494
  521MPD2    H7 7747   1.528   3.755  17.378  0.0203  1.2384  0.5144
  522TMC3    C1 7748   2.286   3.843  17.162 -0.0140 -0.6060 -0.4677
  522TMC3    C2 7749   2.419   3.843  17.190 -0.3975  0.4975 -0.8218
  522TMC3    C3 7750   2.512   3.810  17.085 -0.3948  0.0111  0.8612
  522TMC3    C4 7751   2.246   3.794  17.041 -0.2374 -0.3407 -0.1032
  522TMC3    C5 7752   2.337   3.754  16.946 -0.3812 -0.6085  0.3376
  522TMC3    C6 7753   2.465   3.749  16.973 -0.3098  0.0274  0.9267
  522TMC3     C 7754   2.199   3.871  17.274  0.3623  0.5102 -1.1397
  522TMC3     O 7755   2.254   3.921  17.373 -0.4288 -0.2227  0.0385
  522TMC3     H 7756   2.453   3.909  17.268 -1.6810  0.0854  0.0907
  522TMC3    H1 7757   2.141   3.777  17.019  0.3025 -1.6936 -1.6273
  522TMC3    H2 7758   2.529   3.700  16.901  1.2795  2.5201  0.6384
  522TMC3    C7 7759   2.295   3.727  16.810 -0.5348  0.5331  0.1826
  522TMC3    C8 7760   2.646   3.863  17.087  0.4554 -0.4211 -0.6764
  522TMC3    O1 7761   2.340   3.628  16.757 -0.2418 -0.5409 -0.2147
  522TMC3    O2 7762   2.705   3.869  17.194  0.4444  0.6135  0.6750
  523MPD2     C 7763   4.164   3.448  10.001 -0.4821 -0.1928  0.2667
  523MPD2    C1 7764   4.241   3.431   9.888 -0.6408 -0.0183  0.1738
  523MPD2    C2 7765   4.280   3.544   9.820 -0.3608  0.1716 -0.2784
  523MPD2    C3 7766   4.222   3.669   9.850  0.0972  0.1581 -0.2815
  523MPD2    C4 7767   4.143   3.685   9.963 -0.0350  0.3319  0.3181
  523MPD2    C5 7768   4.124   3.572  10.038  0.3597  0.1907  0.5770
  523MPD2     H 7769   4.355   3.534   9.742 -0.1804 -1.0628  0.0559
  523MPD2    H1 7770   4.113   3.784   9.998  0.8150 -0.1321  2.3418
  523MPD2    H2 7771   4.130   3.361  10.057  1.1604  1.1453  3.3206
  523MPD2    H3 7772   4.068   3.578  10.131 -0.1309 -2.6063  0.4629
  523MPD2     N 7773   4.251   3.784   9.767 -0.1563  0.1764  0.1298
  523MPD2    H5 7774   4.227   3.876   9.804 -1.1375  0.3739 -0.9829
  523MPD2    N1 7775   4.285   3.298   9.862 -0.0248  0.0425 -0.0349
  523MPD2    H7 7776   4.257   3.226   9.928 -1.0551 -0.1307 -0.6667
  524TMC3    C1 7777   4.317   3.902   9.579  0.5409  0.1296  0.1692
  524TMC3    C2 7778   4.356   3.904   9.446 -0.1081  0.7566 -0.1906
  524TMC3    C3 7779   4.311   4.000   9.364 -0.0783 -0.0624  0.5014
  524TMC3    C4 7780   4.269   4.014   9.643  0.2108  0.1710 -0.6878
  524TMC3    C5 7781   4.247   4.123   9.560  0.1472 -0.3954  0.3237
  524TMC3    C6 7782   4.255   4.115   9.421  0.2198  0.1460  0.0702
  524TMC3     C 7783   4.311   3.781   9.646 -0.5870  0.1575  0.0252
  524TMC3     O 7784   4.325   3.684   9.570  0.4843 -0.2060  0.0919
  524TMC3     H 7785   4.390   3.807   9.410 -0.1308  0.4537  0.6200
  524TMC3    H1 7786   4.270   4.037   9.749 -1.0419 -1.1213 -0.4016
  524TMC3    H2 7787   4.230   4.198   9.356  2.3263 -0.4341 -1.4790
  524TMC3    C7 7788   4.179   4.234   9.616 -0.5851  0.8712  0.8697
  524TMC3    C8 7789   4.340   4.004   9.225  0.2431 -0.5928  0.3238
  524TMC3    O1 7790   4.206   4.258   9.737  0.0948  0.0554 -0.1091
  524TMC3    O2 7791   4.278   4.087   9.158 -0.0660 -0.7245  0.2905
  525MPD2     C 7792   2.453   1.182  13.937  0.0948  0.8826 -0.4026
  525MPD2    C1 7793   2.535   1.229  14.035  0.2976 -0.2297  0.0605
  525MPD2    C2 7794   2.579   1.360  14.040 -0.1238  0.1791  0.2328
  525MPD2    C3 7795   2.533   1.449  13.943  0.6380 -0.1309  0.9195
  525MPD2    C4 7796   2.447   1.401  13.847 -0.2893  0.1257  0.5387
  525MPD2    C5 7797   2.410   1.265  13.841  0.2282  0.3974 -0.0435
  525MPD2     H 7798   2.650   1.398  14.113 -0.5606  1.3261  0.0661
  525MPD2    H1 7799   2.429   1.472  13.767  1.6647  0.5046  0.4311
  525MPD2    H2 7800   2.414   1.081  13.926  0.9396  0.6979 -1.6876
  525MPD2    H3 7801   2.352   1.235  13.754  1.4935  0.3765 -0.8728
  525MPD2     N 7802   2.558   1.585  13.947  0.9635 -0.0144 -0.0361
  525MPD2    H5 7803   2.527   1.636  13.865 -0.4956  1.2824  1.3412
  525MPD2    N1 7804   2.573   1.144  14.140 -0.3565 -0.1229  0.0994
  525MPD2    H7 7805   2.638   1.181  14.209 -0.3523 -0.7124  0.4106
  526TMC3    C1 7806   2.557   0.957  14.288 -0.0272 -0.2279 -0.1420
  526TMC3    C2 7807   2.471   0.918  14.384  0.2819 -0.6201 -0.1230
  526TMC3    C3 7808   2.517   0.842  14.487  0.2211 -0.3811 -0.1026
  526TMC3    C4 7809   2.689   0.933  14.291  0.0471 -0.0732  0.2200
  526TMC3    C5 7810   2.738   0.863  14.401 -0.8575 -0.6243 -0.3057
  526TMC3    C6 7811   2.652   0.817  14.498  0.1995 -0.3448  0.5519
  526TMC3     C 7812   2.498   1.034  14.179  0.5180 -0.3962 -0.0911
  526TMC3     O 7813   2.381   1.006  14.152  0.4150 -0.3652  0.2424
  526TMC3     H 7814   2.364   0.923  14.370  0.0569 -0.4675  1.6472
  526TMC3    H1 7815   2.761   0.981  14.226 -2.7312  2.5962 -0.8659
  526TMC3    H2 7816   2.694   0.762  14.582 -2.0797 -0.5412  1.5541
  526TMC3    C7 7817   2.878   0.867  14.430 -0.6096 -0.8741  0.0130
  526TMC3    C8 7818   2.438   0.813  14.599  0.0946 -0.1774 -0.3066
  526TMC3    O1 7819   2.935   0.971  14.383 -0.1529 -0.2550  0.3449
  526TMC3    O2 7820   2.462   0.709  14.656 -0.0925  0.6157 -0.0658
  527MPD2     C 7821   1.356   3.032   1.654 -0.8748 -0.4232  0.5339
  527MPD2    C1 7822   1.358   2.900   1.607  0.2540  0.8643 -0.7095
  527MPD2    C2 7823   1.432   2.873   1.490  0.4444  0.1584 -0.8795
  527MPD2    C3 7824   1.506   2.971   1.429 -0.0961 -0.2656 -0.0305
  527MPD2    C4 7825   1.507   3.101   1.482 -0.5790  0.0636  0.0235
  527MPD2    C5 7826   1.436   3.129   1.599  0.0937 -0.2019 -0.3598
  527MPD2     H 7827   1.423   2.769   1.460  0.9504 -0.5279  1.3799
  527MPD2    H1 7828   1.571   3.179   1.443 -1.0834  1.7739  2.5809
  527MPD2    H2 7829   1.294   3.057   1.740 -0.9242 -0.4675  0.5117
  527MPD2    H3 7830   1.429   3.227   1.645  2.1296  0.6099 -1.8183
  527MPD2     N 7831   1.575   2.941   1.308 -0.4030  0.4984  0.2432
  527MPD2    H5 7832   1.570   2.845   1.275 -1.1117  0.9698 -1.0156
  527MPD2    N1 7833   1.278   2.797   1.656  0.4129 -0.3012  0.0308
  527MPD2    H7 7834   1.279   2.709   1.607 -2.1516 -0.1965 -0.1813
  528TMC3    C1 7835   1.107   2.684   1.770  0.2064 -0.5962  0.5127
  528TMC3    C2 7836   0.969   2.707   1.788 -0.0515  0.6740 -1.0172
  528TMC3    C3 7837   0.890   2.614   1.831 -0.7765  0.2299 -0.6341
  528TMC3    C4 7838   1.167   2.560   1.789 -0.8394  0.2728  0.1529
  528TMC3    C5 7839   1.084   2.465   1.842  0.3088  0.4606 -1.2970
  528TMC3    C6 7840   0.948   2.490   1.852  0.1591  0.5071  0.1546
  528TMC3     C 7841   1.185   2.808   1.757 -0.0597 -0.4985 -1.1937
  528TMC3     O 7842   1.148   2.910   1.816  0.3309 -0.3774 -0.1013
  528TMC3     H 7843   0.939   2.808   1.760  0.0662  1.1870  0.7193
  528TMC3    H1 7844   1.275   2.557   1.792 -0.8465 -0.5171 -0.4737
  528TMC3    H2 7845   0.886   2.412   1.894 -1.2540  1.6110  0.1298
  528TMC3    C7 7846   1.131   2.337   1.880 -0.2553 -0.0140 -0.9081
  528TMC3    C8 7847   0.762   2.660   1.872 -1.0450 -1.1207 -0.1204
  528TMC3    O1 7848   1.052   2.246   1.869  0.2545  0.4862  0.1113
  528TMC3    O2 7849   0.720   2.757   1.816  0.2826 -0.1166 -0.7425
  529MPD2     C 7850   2.889   2.043   1.123 -0.4956 -0.0689  0.5507
  529MPD2    C1 7851   2.910   1.961   1.021 -0.7221  0.3211  0.1172
  529MPD2    C2 7852   2.895   2.011   0.892 -0.4268 -0.0202  0.4907
  529MPD2    C3 7853   2.866   2.144   0.874 -0.0261  0.6237 -0.5901
  529MPD2    C4 7854   2.839   2.227   0.987 -0.1570  0.2182 -0.3699
  529MPD2    C5 7855   2.849   2.171   1.114 -0.0633  0.8383  0.0471
  529MPD2     H 7856   2.921   1.951   0.806  0.7297  1.4105 -0.1546
  529MPD2    H1 7857   2.801   2.327   0.969 -1.4944 -0.4629 -1.3618
  529MPD2    H2 7858   2.885   2.011   1.227  2.9457 -2.3365 -0.0280
  529MPD2    H3 7859   2.814   2.231   1.197 -1.7162 -1.4552  1.0012
  529MPD2     N 7860   2.860   2.206   0.738  0.0387  0.3216 -0.2581
  529MPD2    H5 7861   2.840   2.306   0.729  0.3568  0.5561  1.6444
  529MPD2    N1 7862   2.933   1.819   1.026 -0.7039  0.4592 -0.9311
  529MPD2    H7 7863   2.929   1.769   0.938  1.8284 -0.6537 -0.4217
  530TMC3    C1 7864   2.951   1.612   1.124  0.0628  1.2878 -0.3019
  530TMC3    C2 7865   2.973   1.546   1.241  0.1132  0.0692  0.3298
  530TMC3    C3 7866   3.010   1.418   1.243  0.5674  0.1962 -0.0717
  530TMC3    C4 7867   2.984   1.557   1.007  0.3628  0.2833 -0.4402
  530TMC3    C5 7868   3.033   1.428   1.014  0.0351  0.2025 -0.1109
  530TMC3    C6 7869   3.045   1.358   1.131  0.2407  0.3636 -0.1338
  530TMC3     C 7870   2.957   1.758   1.140  0.1755  0.1768 -0.3933
  530TMC3     O 7871   2.978   1.803   1.248 -0.0688  0.5713  0.2698
  530TMC3     H 7872   2.928   1.582   1.333 -0.8723  0.3455 -0.2711
  530TMC3    H1 7873   2.999   1.618   0.919  1.2954  0.1005 -0.4054
  530TMC3    H2 7874   3.076   1.255   1.114 -3.0641 -0.7763  0.7801
  530TMC3    C7 7875   3.047   1.359   0.884 -0.2475  0.2868  0.3212
  530TMC3    C8 7876   3.022   1.344   1.370  0.0982  0.1024 -0.3109
  530TMC3    O1 7877   3.044   1.433   0.789 -0.3001 -0.5809  0.3479
  530TMC3    O2 7878   2.967   1.397   1.470 -0.0727  0.3787 -0.6150
  531MPD2     C 7879   1.856   0.007  13.232  0.3893  0.8424 -0.4463
  531MPD2    C1 7880   1.771   4.628  13.284  0.0449  0.4028  0.2683
  531MPD2    C2 7881   1.681   4.556  13.203 -0.2384 -0.0672  0.4909
  531MPD2    C3 7882   1.672   4.580  13.068  1.0072  0.6528 -1.1254
  531MPD2    C4 7883   1.766   4.671  13.016  0.1067 -0.0587  0.4076
  531MPD2    C5 7884   1.851   0.027  13.098 -0.1907  0.6402 -0.1002
  531MPD2     H 7885   1.617   4.483  13.251 -1.2063  0.0031 -0.7019
  531MPD2    H1 7886   1.770   4.701  12.912 -0.4306  0.4814  0.5412
  531MPD2    H2 7887   1.917   0.075  13.291  0.2617 -0.0855  0.7600
  531MPD2    H3 7888   1.909   0.108  13.055  1.4580 -1.1012 -1.2011
  531MPD2     N 7889   1.575   4.503  12.998 -0.1476 -0.0762 -0.1188
  531MPD2    H5 7890   1.512   4.451  13.059 -0.6561  2.6287  1.6468
  531MPD2    N1 7891   1.766   4.590  13.417  0.3586 -0.4630 -0.2108
  531MPD2    H7 7892   1.696   4.520  13.440  0.8207 -0.8932 -0.1149
  532TMC3    C1 7893   1.844   4.544  13.632 -0.0340  0.4092  0.4650
  532TMC3    C2 7894   1.723   4.498  13.653 -0.6347 -0.5578  0.5851
  532TMC3    C3 7895   1.708   4.366  13.685  0.7041  0.0484 -0.1900
  532TMC3    C4 7896   1.959   4.482  13.676 -0.4148 -0.3259  0.0806
  532TMC3    C5 7897   1.947   4.357  13.730  0.7458  0.0768 -0.5321
  532TMC3    C6 7898   1.820   4.300  13.724  0.0003  0.0601  0.5243
  532TMC3     C 7899   1.866   4.622  13.506 -0.0601 -0.1764 -0.2639
  532TMC3     O 7900   1.965   4.694  13.505  0.2844 -0.1293 -0.6974
  532TMC3     H 7901   1.630   4.551  13.634 -0.8093 -0.4864  1.6185
  532TMC3    H1 7902   2.058   4.519  13.652 -1.2172  1.2443 -0.8319
  532TMC3    H2 7903   1.813   4.199  13.761 -2.0546  0.1132  0.2830
  532TMC3    C7 7904   2.065   4.282  13.770  0.3959  0.8394 -0.1128
  532TMC3    C8 7905   1.624   4.298  13.581 -0.2590  0.5165  0.5997
  532TMC3    O1 7906   2.173   4.347  13.783  0.0350  0.1515 -0.1892
  532TMC3    O2 7907   1.645   4.330  13.466  0.6090  0.2759 -0.4629
  533TMC3    C1 7908   2.629   1.796  14.008  0.2943  0.1033 -0.4612
  533TMC3    C2 7909   2.737   1.864  14.057  0.7777 -0.6682 -0.3172
  533TMC3    C3 7910   2.709   1.972  14.141  0.0931  0.1143 -0.5051
  533TMC3    C4 7911   2.502   1.828  14.039  0.2467  0.3255 -0.6887
  533TMC3    C5 7912   2.478   1.918  14.139 -0.4774  0.7829  0.6066
  533TMC3    C6 7913   2.581   1.996  14.187 -0.1135  0.3082  0.6853
  533TMC3     C 7914   2.640   1.651  14.041 -0.4226 -0.3720 -0.3253
  533TMC3     O 7915   2.711   1.612  14.135 -0.4830 -0.0118  1.0508
  533TMC3     H 7916   2.829   1.818  14.025  0.7295 -1.7305  1.0545
  533TMC3    H1 7917   2.424   1.758  14.010  1.4975 -0.4374 -2.1775
  533TMC3    H2 7918   2.575   2.056  14.276  2.1509  1.5571  0.0070
  533TMC3    C7 7919   2.388   1.876  14.242 -0.8416 -0.1119 -0.0301
  533TMC3    C8 7920   2.829   2.013  14.213 -0.4676 -0.1547  0.2174
  533TMC3    O1 7921   2.364   1.760  14.236  0.1584  0.4799  0.3595
  533TMC3    O2 7922   2.910   1.930  14.253  0.1582  0.1358 -0.0676
  534MPD2     C 7923   1.012   1.472   1.564  0.3061  0.0144  0.4421
  534MPD2    C1 7924   0.956   1.595   1.534 -0.3428  0.6662  0.4569
  534MPD2    C2 7925   0.819   1.607   1.543 -0.4453  0.7428 -0.5338
  534MPD2    C3 7926   0.739   1.500   1.569 -0.4059  0.2338 -0.3687
  534MPD2    C4 7927   0.795   1.372   1.590  0.5818  0.1492 -0.3279
  534MPD2    C5 7928   0.929   1.362   1.583 -0.1236  0.6545  0.4955
  534MPD2     H 7929   0.765   1.698   1.519 -1.4801  0.7059  1.6431
  534MPD2    H1 7930   0.729   1.287   1.599 -0.3484  1.0339  1.2245
  534MPD2    H2 7931   1.120   1.456   1.564  0.1596 -1.0178  1.1220
  534MPD2    H3 7932   0.970   1.264   1.604 -1.5721  0.7386  3.7789
  534MPD2     N 7933   0.606   1.521   1.565 -0.2807 -0.5338 -0.1537
  534MPD2    H5 7934   0.578   1.611   1.527 -2.5460 -1.0305  0.3473
  534MPD2    N1 7935   1.034   1.708   1.505 -0.0771 -0.0444  0.1420
  534MPD2    H7 7936   0.986   1.797   1.499 -0.5105 -0.3350 -0.6793
  535TMC3    C1 7937   0.376   1.493   1.567 -1.0198 -0.9829 -0.3843
  535TMC3    C2 7938   0.268   1.483   1.641  0.1864  0.4696 -0.5703
  535TMC3    C3 7939   0.163   1.564   1.614 -0.0194  0.2278  0.8991
  535TMC3    C4 7940   0.370   1.558   1.441 -0.7720  0.3335 -0.1435
  535TMC3    C5 7941   0.255   1.624   1.410 -0.5876 -0.2116 -0.1044
  535TMC3    C6 7942   0.150   1.626   1.497 -0.0894 -0.1426 -0.1394
  535TMC3     C 7943   0.503   1.441   1.607 -0.0367  0.2612 -0.5911
  535TMC3     O 7944   0.505   1.377   1.711  0.3809 -0.6859 -0.1096
  535TMC3     H 7945   0.267   1.425   1.733  1.6652  0.5159 -0.5375
  535TMC3    H1 7946   0.457   1.574   1.377 -0.3300 -0.6616  0.2069
  535TMC3    H2 7947   0.053   1.663   1.467 -0.0261  0.9225  0.9885
  535TMC3    C7 7948   0.261   1.714   1.300  0.3149 -0.4096  0.5675
  535TMC3    C8 7949   0.048   1.555   1.703  0.4022  0.1558 -0.5625
  535TMC3    O1 7950   0.332   1.679   1.205  0.1474 -0.3282  0.1041
  535TMC3    O2 7951   4.665   1.583   1.655  0.1152 -0.0864 -0.3305
  536MPD2     C 7952   3.528   0.167  16.374  0.3071  0.0558  0.3136
  536MPD2    C1 7953   3.576   0.288  16.415  0.3401  0.4239  0.0223
  536MPD2    C2 7954   3.555   0.399  16.330 -0.1710  0.0575 -0.4307
  536MPD2    C3 7955   3.478   0.391  16.217 -0.3234  0.2542  0.2263
  536MPD2    C4 7956   3.429   0.267  16.179  0.8643 -0.0352  0.3254
  536MPD2    C5 7957   3.457   0.156  16.254 -0.7509 -0.4237  0.1486
  536MPD2     H 7958   3.591   0.496  16.361 -0.9091  0.3873 -0.5904
  536MPD2    H1 7959   3.371   0.254  16.088  1.2515 -2.0101  0.3597
  536MPD2    H2 7960   3.547   0.073  16.425 -3.0839  0.2007  1.8553
  536MPD2    H3 7961   3.421   0.063  16.211  1.0450 -2.0551  2.1548
  536MPD2     N 7962   3.453   0.497  16.130 -1.1755  0.4283  0.1485
  536MPD2    H5 7963   3.398   0.489  16.046 -1.6791 -1.9004  0.7090
  536MPD2    N1 7964   3.644   0.285  16.536 -0.4520  0.0926  0.2285
  536MPD2    H7 7965   3.633   0.199  16.590 -2.3115 -0.0301 -0.3453
  537TMC3    C1 7966   3.708   0.372  16.741  0.5587  0.7525  0.5014
  537TMC3    C2 7967   3.835   0.400  16.781 -0.3760  0.2219 -0.6758
  537TMC3    C3 7968   3.875   0.343  16.898  0.8261  0.5618 -0.4413
  537TMC3    C4 7969   3.623   0.290  16.811 -0.1253  0.0310  0.1665
  537TMC3    C5 7970   3.664   0.251  16.931 -0.7960 -0.2853 -0.5087
  537TMC3    C6 7971   3.790   0.276  16.978  0.0731 -0.8297  0.2015
  537TMC3     C 7972   3.681   0.398  16.603  0.3465  0.4122 -0.2906
  537TMC3     O 7973   3.716   0.501  16.557 -0.1843  0.0691 -0.2071
  537TMC3     H 7974   3.893   0.455  16.708  1.1098 -0.4956 -0.0330
  537TMC3    H1 7975   3.526   0.265  16.770 -0.4928 -2.4164  2.4943
  537TMC3    H2 7976   3.826   0.234  17.071 -0.1421 -1.2472  0.0980
  537TMC3    C7 7977   3.579   0.158  16.997  0.7824  0.1350  0.1713
  537TMC3    C8 7978   3.980   0.403  16.970 -0.0595 -0.0213  0.0275
  537TMC3    O1 7979   3.463   0.196  16.999 -0.1900 -0.0155 -0.2659
  537TMC3    O2 7980   4.040   0.340  17.055 -0.1938 -0.4729  0.5906
  538TMC3    C1 7981   0.087   3.386  10.511 -0.2915  0.2332  0.5919
  538TMC3    C2 7982   0.197   3.323  10.455 -0.3976 -0.5602  0.2803
  538TMC3    C3 7983   0.254   3.386  10.349 -0.1228  0.2621 -0.3757
  538TMC3    C4 7984   0.013   3.489  10.459 -0.2424 -0.1347  0.0278
  538TMC3    C5 7985   0.073   3.533  10.348  0.6254 -0.0309 -0.6057
  538TMC3    C6 7986   0.190   3.489  10.285 -0.1923 -0.5833 -0.3207
  538TMC3     C 7987   0.075   3.386  10.657 -0.4756  0.6576 -0.1252
  538TMC3     O 7988   4.683   3.394  10.701  0.7877 -0.1824 -0.3751
  538TMC3     H 7989   0.244   3.237  10.503  1.5931 -1.3575 -3.1047
  538TMC3    H1 7990   4.673   3.551  10.521 -0.1402 -0.6611  0.6639
  538TMC3    H2 7991   0.219   3.544  10.196 -0.9412 -1.0013 -0.8139
  538TMC3    C7 7992   0.001   3.643  10.286 -0.3809  0.2024 -0.6511
  538TMC3    C8 7993   0.335   3.293  10.267 -0.3758  0.2813 -0.2866
  538TMC3    O1 7994   0.066   3.725  10.227  0.3493 -0.4270  0.5383
  538TMC3    O2 7995   0.318   3.174  10.293 -0.3902  0.3477  0.2705
  539MPD2     C 7996   4.295   2.626  11.380  0.0232 -0.0911  0.2625
  539MPD2    C1 7997   4.399   2.702  11.338  0.1414 -0.3038  0.0040
  539MPD2    C2 7998   4.381   2.838  11.336  0.5935  0.1255 -0.4529
  539MPD2    C3 7999   4.260   2.901  11.381 -0.6053 -0.2493 -0.3977
  539MPD2    C4 8000   4.159   2.820  11.419  0.3473  0.4796  0.4570
  539MPD2    C5 8001   4.179   2.685  11.420 -0.0630 -0.4392  0.6849
  539MPD2     H 8002   4.463   2.903  11.309  0.3178  0.5568 -0.2445
  539MPD2    H1 8003   4.066   2.854  11.463  0.5677  1.7472 -0.0365
  539MPD2    H2 8004   4.303   2.518  11.373 -2.5107 -0.2559  0.0076
  539MPD2    H3 8005   4.093   2.622  11.437  0.6741 -1.3848  0.9679
  539MPD2     N 8006   4.240   3.040  11.378 -0.5718  0.0310  0.7202
  539MPD2    H5 8007   4.153   3.079  11.413 -0.0123  2.6097 -0.7726
  539MPD2    N1 8008   4.523   2.648  11.292 -0.3961 -0.1831 -0.6324
  539MPD2    H7 8009   4.588   2.709  11.243 -1.8006  0.9994 -0.9999
  540TMC3    C1 8010   4.285   3.256  11.384 -0.3149  0.4468  0.4068
  540TMC3    C2 8011   4.215   3.307  11.278  0.6811  0.0472  0.1428
  540TMC3    C3 8012   4.199   3.446  11.282  0.0463  0.1915 -0.1090
  540TMC3    C4 8013   4.334   3.331  11.486 -0.6711 -0.6226  0.2316
  540TMC3    C5 8014   4.296   3.468  11.492  1.0723  0.8212 -0.5329
  540TMC3    C6 8015   4.229   3.520  11.388  0.0198 -0.2870 -0.6331
  540TMC3     C 8016   4.339   3.131  11.357 -0.5829  0.4608 -0.2255
  540TMC3     O 8017   4.462   3.122  11.356  0.5094 -0.2340 -0.5571
  540TMC3     H 8018   4.204   3.247  11.188  0.3943  0.7316 -0.2755
  540TMC3    H1 8019   4.395   3.280  11.559 -0.0976 -3.0189 -1.9299
  540TMC3    H2 8020   4.203   3.626  11.394  1.9583  0.0959  1.0584
  540TMC3    C7 8021   4.253   3.511  11.624 -0.6501  0.0979  0.1965
  540TMC3    C8 8022   4.238   3.512  11.160 -0.2131  0.8058 -1.3021
  540TMC3    O1 8023   4.158   3.590  11.630 -0.2222 -0.3321  0.8190
  540TMC3    O2 8024   4.321   3.601  11.171  0.5719 -0.4813  0.1804
  541MPD2     C 8025   2.754   4.507  13.301 -0.5739 -0.0842 -0.1750
  541MPD2    C1 8026   2.795   4.461  13.183 -1.0238 -0.1806  0.1496
  541MPD2    C2 8027   2.837   4.546  13.086 -0.2820  0.1975 -0.1590
  541MPD2    C3 8028   2.836   4.686  13.106  0.3651  0.2562  0.4530
  541MPD2    C4 8029   2.780   0.013  13.222 -0.2568  0.3573  0.1886
  541MPD2    C5 8030   2.739   4.646  13.318 -0.1549  0.7376  0.1664
  541MPD2     H 8031   2.863   4.509  12.988 -1.1249  0.8274 -0.6195
  541MPD2    H1 8032   2.783   0.118  13.251  2.3501 -0.0765  1.4970
  541MPD2    H2 8033   2.719   4.436  13.376 -0.5849  2.4560  2.2172
  541MPD2    H3 8034   2.718   4.681  13.419 -1.4868 -2.0254  0.8543
  541MPD2     N 8035   2.871   0.065  13.013 -0.2071  0.0535  0.6258
  541MPD2    H5 8036   2.875   0.159  13.051 -0.8057  0.7416 -0.9687
  541MPD2    N1 8037   2.806   4.324  13.154  0.1117  0.1241 -0.3477
  541MPD2    H7 8038   2.865   4.315  13.072  1.9634  0.6602  0.9089
  542TMC3    C1 8039   2.933   0.167  12.804  0.0314 -0.0853 -0.7095
  542TMC3    C2 8040   2.962   0.150  12.670 -0.3442 -0.3461 -0.2196
  542TMC3    C3 8041   2.984   0.257  12.587 -0.4862  0.2382 -0.4349
  542TMC3    C4 8042   2.934   0.293  12.862 -0.2586  0.6266 -0.8910
  542TMC3    C5 8043   2.964   0.398  12.775 -0.3939 -0.6541 -0.1251
  542TMC3    C6 8044   2.996   0.382  12.641 -0.5877 -0.4889 -0.0733
  542TMC3     C 8045   2.894   0.051  12.883 -0.1394 -0.3938  0.6316
  542TMC3     O 8046   2.870   4.677  12.812  0.1946 -0.1454  0.1789
  542TMC3     H 8047   2.979   0.056  12.619  0.9246 -0.1188 -0.2067
  542TMC3    H1 8048   2.910   0.310  12.966  0.9356  0.2104 -0.5450
  542TMC3    H2 8049   3.007   0.467  12.574 -1.9150  0.3156  0.7261
  542TMC3    C7 8050   2.968   0.526  12.841  0.9808  0.5386 -0.4774
  542TMC3    C8 8051   3.017   0.237  12.449  0.0084  0.4384  0.2710
  542TMC3    O1 8052   2.980   0.513  12.963  0.6382  0.0180 -0.3213
  542TMC3    O2 8053   2.976   0.135  12.390 -0.0196  0.0807 -0.3361
  543TMC3    C1 8054   2.808   0.854  17.520 -0.3410 -0.1293  0.2149
  543TMC3    C2 8055   2.780   0.719  17.516 -0.4437  0.2186 -0.1569
  543TMC3    C3 8056   2.778   0.645  17.634 -0.2021 -0.6045  0.5377
  543TMC3    C4 8057   2.850   0.920  17.630 -0.4878 -0.5451 -0.0226
  543TMC3    C5 8058   2.865   0.838   0.046 -0.3221 -0.3327  0.0096
  543TMC3    C6 8059   2.825   0.707   0.055 -0.2796  0.1356  0.2777
  543TMC3     C 8060   2.777   0.942  17.403 -0.6410  0.1946  0.1683
  543TMC3     O 8061   2.824   1.054  17.405  0.0053 -0.0729 -0.4914
  543TMC3     H 8062   2.752   0.674  17.421  1.0032  0.5678 -0.7453
  543TMC3    H1 8063   2.869   1.026  17.630  2.9418 -1.1446  1.9703
  543TMC3    H2 8064   2.816   0.663   0.154  0.9488  2.8104  1.5912
  543TMC3    C7 8065   2.974   0.868   0.141 -0.4997 -0.1729  0.8275
  543TMC3    C8 8066   2.766   0.500  17.626  0.7625  0.1274  0.3924
  543TMC3    O1 8067   2.991   0.779   0.225 -0.2781 -0.1672  0.1001
  543TMC3    O2 8068   2.727   0.448  17.519 -0.8536  0.0341  0.1786
  544MPD2     C 8069   2.911   0.036   0.102 -0.2409  0.0898 -0.2307
  544MPD2    C1 8070   2.814   0.060   0.011  0.2596  0.2758 -1.0425
  544MPD2    C2 8071   2.787   0.200  17.685 -1.1344  0.4371  0.7993
  544MPD2    C3 8072   2.861   0.300   0.052  0.0072 -0.6430 -0.5909
  544MPD2    C4 8073   2.966   0.265   0.134 -0.2701  0.0542 -0.1351
  544MPD2    C5 8074   2.985   0.134   0.164 -0.2532  0.7540 -0.3087
  544MPD2     H 8075   2.712   0.216  17.609 -1.5735 -1.7838  0.7694
  544MPD2    H1 8076   3.014   0.342   0.193  1.7199 -1.5954  0.3725
  544MPD2    H2 8077   2.933   4.660   0.138  2.4256  0.0493 -1.9761
  544MPD2    H3 8078   3.056   0.110   0.241  0.8796 -0.2368 -1.6715
  544MPD2     N 8079   2.845   0.439   0.030  0.4458 -0.4971 -0.3174
  544MPD2    H5 8080   2.894   0.504   0.091 -2.3386  0.5924  0.7387
  544MPD2    N1 8081   2.756   4.674  17.638 -0.3359 -0.1160 -0.2449
  544MPD2    H7 8082   2.800   4.584  17.657  1.8899  0.8766 -0.6899
  545TMC3    C1 8083   2.600   4.547  17.513 -0.3040 -0.0100 -0.3001
  545TMC3    C2 8084   2.524   4.530  17.405 -0.0931  0.3134  0.2123
  545TMC3    C3 8085   2.469   4.413  17.373  0.8842  0.3506 -0.2436
  545TMC3    C4 8086   2.613   4.444  17.604  0.4204 -0.9331 -0.0233
  545TMC3    C5 8087   2.551   4.322  17.571 -0.5195  1.0298 -0.1977
  545TMC3    C6 8088   2.485   4.303  17.452  0.3712 -0.5550 -0.4293
  545TMC3     C 8089   2.641   4.674  17.566 -0.2537 -0.6327  0.1258
  545TMC3     O 8090   2.568   0.044  17.528 -0.0397  0.6562 -0.4791
  545TMC3     H 8091   2.506   4.615  17.340 -2.4839  1.1820  2.0214
  545TMC3    H1 8092   2.666   4.464   0.003 -0.4285  1.8572 -0.1516
  545TMC3    H2 8093   2.458   4.204  17.417 -1.9254  0.7152 -2.2740
  545TMC3    C7 8094   2.595   4.202  17.635 -0.5090  0.0051  0.3434
  545TMC3    C8 8095   2.361   4.413  17.271 -0.5122 -0.4671  0.1663
  545TMC3    O1 8096   2.515   4.110  17.609 -0.0702  0.1387  0.2622
  545TMC3    O2 8097   2.353   4.515  17.207  0.1073 -0.3595  0.1455
  546MPD2     C 8098   4.110   0.588  17.518  0.4950  0.0037  0.2573
  546MPD2    C1 8099   4.070   0.666  17.415 -0.3605 -0.3630 -0.4103
  546MPD2    C2 8100   4.139   0.786  17.390  0.2371  0.4003 -0.7252
  546MPD2    C3 8101   4.236   0.833  17.481 -0.0666 -0.2621  0.8443
  546MPD2    C4 8102   4.271   0.746  17.586  0.0280  0.2833  0.1748
  546MPD2    C5 8103   4.217   0.621  17.595 -0.4733 -0.2728 -0.1729
  546MPD2     H 8104   4.109   0.832  17.297  0.4933  1.8022 -0.1049
  546MPD2    H1 8105   4.355   0.774  17.648 -0.4227  1.5077  0.2297
  546MPD2    H2 8106   4.055   0.498  17.540 -0.5793  0.8100  0.9023
  546MPD2    H3 8107   4.257   0.554  17.670  0.1560  0.7998  0.4367
  546MPD2     N 8108   4.301   0.957  17.472 -0.3849  0.0295  0.2565
  546MPD2    H5 8109   4.371   0.978  17.543  0.7783 -1.0473 -0.5869
  546MPD2    N1 8110   3.954   0.613  17.341 -0.6486  0.7253 -0.7632
  546MPD2    H7 8111   3.917   0.524  17.372  2.0609 -0.8409 -2.0737
  547TMC3    C1 8112   3.790   0.607  17.172  0.1727  0.7858  0.4783
  547TMC3    C2 8113   3.742   0.673  17.061  0.1929  0.5739  0.3832
  547TMC3    C3 8114   3.613   0.663  17.017  0.0469 -0.1829  0.2739
  547TMC3    C4 8115   3.699   0.532  17.243  0.3546 -0.3069 -0.6944
  547TMC3    C5 8116   3.572   0.515  17.201 -0.1767 -0.3158 -0.6289
  547TMC3    C6 8117   3.532   0.571  17.078  0.5757 -0.8294  0.6915
  547TMC3     C 8118   3.884   0.685  17.245  0.4868  0.5422  0.5468
  547TMC3     O 8119   3.906   0.799  17.211  0.4289  0.2797  0.1672
  547TMC3     H 8120   3.803   0.743  17.005 -0.2338  1.0824  0.5558
  547TMC3    H1 8121   3.729   0.493  17.340 -1.7953 -0.8629 -0.2641
  547TMC3    H2 8122   3.434   0.550  17.036  0.1629 -0.0593  1.2706
  547TMC3    C7 8123   3.484   0.439  17.283 -0.6198  0.0923  0.0195
  547TMC3    C8 8124   3.583   0.695  16.881 -0.6537 -0.1613 -0.6946
  547TMC3    O1 8125   3.524   0.414  17.395  0.3192 -0.6563  0.4771
  547TMC3    O2 8126   3.551   0.607  16.806 -0.3269  0.4301  0.1023
  548MPD2     C 8127   4.010   1.902  12.021 -0.1181 -0.3186  0.0466
  548MPD2    C1 8128   3.980   1.807  12.121  0.4683 -0.0943 -0.0363
  548MPD2    C2 8129   4.044   1.687  12.113 -0.9738 -0.0811 -0.0879
  548MPD2    C3 8130   4.126   1.656  12.005  0.2556 -0.4241 -0.1047
  548MPD2    C4 8131   4.140   1.748  11.900 -0.1318  0.0405 -0.3334
  548MPD2    C5 8132   4.089   1.872  11.914 -0.2904  0.1407 -0.3925
  548MPD2     H 8133   4.019   1.615  12.191  0.2001  1.4908  1.7522
  548MPD2    H1 8134   4.193   1.746  11.805  1.8383  0.6846  0.7590
  548MPD2    H2 8135   3.971   2.003  12.033  1.0242  0.1273  0.0074
  548MPD2    H3 8136   4.105   1.949  11.839 -2.4695 -0.0553 -1.0590
  548MPD2     N 8137   4.187   1.522  11.996 -0.3077 -0.5977  0.1339
  548MPD2    H5 8138   4.183   1.470  12.083 -2.2877 -0.9179 -0.1563
  548MPD2    N1 8139   3.888   1.843  12.227 -0.2768  0.3187 -0.6031
  548MPD2    H7 8140   3.838   1.931  12.214 -2.7093 -0.8890  0.5332
  549TMC3    C1 8141   3.719   1.834  12.391  0.5981 -0.1939 -0.4473
  549TMC3    C2 8142   3.714   1.973  12.395 -0.1135  0.6510 -0.8470
  549TMC3    C3 8143   3.591   2.036  12.405  0.1477  0.2891  0.0058
  549TMC3    C4 8144   3.611   1.754  12.403 -0.9384  0.1231  0.0366
  549TMC3    C5 8145   3.487   1.812  12.405 -0.9054 -0.0701 -0.2787
  549TMC3    C6 8146   3.476   1.951  12.410 -0.0705 -0.0764 -0.2706
  549TMC3     C 8147   3.835   1.774  12.330  0.3265  0.1325  0.0115
  549TMC3     O 8148   3.849   1.654  12.351  0.3426 -0.2715 -0.4595
  549TMC3     H 8149   3.811   2.022  12.401 -0.5624  1.1871  1.9462
  549TMC3    H1 8150   3.622   1.647  12.387 -0.6415  0.7707 -4.1122
  549TMC3    H2 8151   3.376   1.992  12.418  0.1551  0.0884  1.9446
  549TMC3    C7 8152   3.367   1.733  12.409 -0.2552 -0.2792 -0.3476
  549TMC3    C8 8153   3.587   2.168  12.462  0.1279 -0.6202  0.4992
  549TMC3    O1 8154   3.262   1.786  12.376  0.0755  0.2212 -0.3900
  549TMC3    O2 8155   3.690   2.218  12.508  0.4068  0.4008 -0.0539
  550TMC3    C1 8156   2.395   4.090  12.499 -0.1365  0.4795  0.4749
  550TMC3    C2 8157   2.377   4.197  12.585  0.7812  0.0099  0.2353
  550TMC3    C3 8158   2.399   4.320  12.528 -0.8402 -0.2037 -0.0213
  550TMC3    C4 8159   2.439   4.095  12.370  0.1552 -0.3087  0.8805
  550TMC3    C5 8160   2.453   4.221  12.319  0.4195 -0.1222  0.4076
  550TMC3    C6 8161   2.421   4.329  12.395  0.2119  0.3505  0.7503
  550TMC3     C 8162   2.283   3.995  12.505 -0.2355  0.1736 -0.6323
  550TMC3     O 8163   2.235   3.961  12.609 -0.1530  0.7449 -0.2263
  550TMC3     H 8164   2.336   4.175  12.683 -1.4690  3.4617  0.0679
  550TMC3    H1 8165   2.469   4.006  12.315 -0.7241 -0.1544  0.1488
  550TMC3    H2 8166   2.408   4.423  12.342 -2.1917  1.2001  2.8844
  550TMC3    C7 8167   2.412   4.223  12.180 -0.2657 -0.1374 -0.6300
  550TMC3    C8 8168   2.362   4.439  12.591 -0.2514  0.0496  0.1450
  550TMC3    O1 8169   2.352   4.122  12.144  0.4413  0.8316 -0.6602
  550TMC3    O2 8170   2.423   4.542  12.557 -0.3997  0.4369 -0.3927
  551TMC3    C1 8171   0.125   2.193  13.121  0.8535  0.0670  0.0893
  551TMC3    C2 8172   0.185   2.276  13.032 -0.5621 -0.8121  0.2016
  551TMC3    C3 8173   0.228   2.398  13.084  0.0103  0.0526  0.3922
  551TMC3    C4 8174   0.136   2.213  13.259  0.3357  0.1284 -0.5201
  551TMC3    C5 8175   0.176   2.337  13.301  0.4650  0.3273 -0.9137
  551TMC3    C6 8176   0.213   2.438  13.215 -0.5048 -0.2186  0.6334
  551TMC3     C 8177   0.047   2.079  13.057 -0.3765 -0.3984 -0.5751
  551TMC3     O 8178   0.070   2.051  12.938 -0.2839  0.3058 -0.5541
  551TMC3     H 8179   0.183   2.266  12.924  0.4559  1.9710 -0.0800
  551TMC3    H1 8180   0.114   2.137  13.333  1.0762  1.0982  0.6863
  551TMC3    H2 8181   0.248   2.535  13.249 -1.5648  0.4563 -0.2230
  551TMC3    C7 8182   0.147   2.382  13.436  0.1752  0.3683  0.1443
  551TMC3    C8 8183   0.265   2.493  12.978 -0.3638 -0.6448 -0.2142
  551TMC3    O1 8184   0.130   2.292  13.517  0.5759  0.1250 -0.2598
  551TMC3    O2 8185   0.329   2.438  12.889  0.3762  0.3973 -0.3698
  552MPD2     C 8186   1.754   4.345  14.038  0.1799 -0.3009 -0.0343
  552MPD2    C1 8187   1.819   4.234  14.082  0.0962  0.7025 -0.2983
  552MPD2    C2 8188   1.930   4.242  14.161 -0.2905  0.8332  0.1293
  552MPD2    C3 8189   1.977   4.366  14.199 -0.2548 -0.3386  0.4150
  552MPD2    C4 8190   1.911   4.477  14.149  0.1098  0.3051 -0.3345
  552MPD2    C5 8191   1.802   4.471  14.073 -0.4411  0.2951  0.0270
  552MPD2     H 8192   1.978   4.153  14.200 -1.0845  0.1451 -0.4651
  552MPD2    H1 8193   1.946   4.571  14.189 -1.5136  0.6552  0.2705
  552MPD2    H2 8194   1.665   4.334  13.976 -0.3000  0.9950  0.4426
  552MPD2    H3 8195   1.750   4.565  14.059  0.8484  0.7813 -1.4671
  552MPD2     N 8196   2.088   4.383  14.276  0.4833  0.0544  0.0022
  552MPD2    H5 8197   2.094   4.465  14.336  0.9219  1.1742 -1.5771
  552MPD2    N1 8198   1.771   4.104  14.060 -1.1302 -0.3478 -0.2133
  552MPD2    H7 8199   1.822   4.030  14.107  1.3206  0.3062 -1.9061
  553TMC3    C1 8200   1.654   3.923  13.952  0.1476 -0.7342  0.1993
  553TMC3    C2 8201   1.598   3.891  13.829 -0.2315 -0.3671  0.1734
  553TMC3    C3 8202   1.537   3.766  13.811 -0.3738 -0.3011  0.1983
  553TMC3    C4 8203   1.679   3.830  14.050  0.4282 -0.1365 -0.5167
  553TMC3    C5 8204   1.630   3.708  14.024  0.4398 -0.0237  0.3201
  553TMC3    C6 8205   1.558   3.674  13.913 -0.1189  0.9045 -0.0131
  553TMC3     C 8206   1.671   4.066  13.969 -0.4486  0.5324  0.6239
  553TMC3     O 8207   1.598   4.136  13.899 -0.2472 -0.4021  0.1960
  553TMC3     H 8208   1.591   3.967  13.751  0.7386 -3.2214 -2.7136
  553TMC3    H1 8209   1.721   3.858  14.146  0.1545  2.3075 -1.1288
  553TMC3    H2 8210   1.543   3.569  13.892 -1.7739  0.9924  0.7107
  553TMC3    C7 8211   1.703   3.598  14.080  0.3674 -0.0803  0.1348
  553TMC3    C8 8212   1.579   3.711  13.685 -0.4336  0.3115 -0.8989
  553TMC3    O1 8213   1.645   3.488  14.083 -0.3129  0.6225  0.4015
  553TMC3    O2 8214   1.681   3.769  13.641 -0.7919  0.1767  0.5157
  554TMC3    C1 8215   3.573   3.216  11.756  0.4350 -0.4799  0.1144
  554TMC3    C2 8216   3.470   3.194  11.673  0.0759  0.0850  0.3211
  554TMC3    C3 8217   3.462   3.260  11.547 -0.3544  0.8565  0.2327
  554TMC3    C4 8218   3.669   3.315  11.725  0.2723 -0.4400  0.2329
  554TMC3    C5 8219   3.668   3.372  11.600 -0.0098  0.0611  0.1176
  554TMC3    C6 8220   3.569   3.345  11.509  0.1464  0.3583  0.0289
  554TMC3     C 8221   3.598   3.137  11.877  0.0692 -0.0679 -0.3917
  554TMC3     O 8222   3.705   3.148  11.935  0.3769  0.1425 -0.1552
  554TMC3     H 8223   3.402   3.115  11.703 -0.9157  0.0097 -2.1309
  554TMC3    H1 8224   3.752   3.334  11.793 -0.4660 -0.4854  1.1522
  554TMC3    H2 8225   3.544   3.403  11.420 -0.3712 -1.0009 -0.6998
  554TMC3    C7 8226   3.774   3.463  11.565 -0.5053  0.2651 -0.2391
  554TMC3    C8 8227   3.382   3.202  11.439  0.0636  0.5636  0.5290
  554TMC3    O1 8228   3.820   3.513  11.666 -0.0699 -0.0492 -0.2333
  554TMC3    O2 8229   3.424   3.216  11.325 -0.6027 -0.3686 -0.7317
  555TMC3    C1 8230   2.792   2.745  14.653 -0.3018 -0.4205 -0.6241
  555TMC3    C2 8231   2.845   2.851  14.717  0.5730 -0.2757 -0.0427
  555TMC3    C3 8232   2.906   2.827  14.841 -0.3537  0.6315 -0.1202
  555TMC3    C4 8233   2.782   2.619  14.706  0.4706  0.2459 -0.2272
  555TMC3    C5 8234   2.842   2.607  14.828 -0.3971 -0.3627  0.0024
  555TMC3    C6 8235   2.898   2.709  14.902 -0.2217 -0.2756  0.2603
  555TMC3     C 8236   2.796   2.756  14.512  0.4442  0.4212 -0.0999
  555TMC3     O 8237   2.890   2.823  14.471  0.0998  0.6793 -0.4732
  555TMC3     H 8238   2.855   2.947  14.667  0.2890 -0.4456 -0.4229
  555TMC3    H1 8239   2.730   2.539  14.655  1.0534 -0.3951  0.2038
  555TMC3    H2 8240   2.944   2.696  15.000 -1.1409 -0.0497  0.7243
  555TMC3    C7 8241   2.836   2.477  14.880 -0.4257 -0.1484 -0.2564
  555TMC3    C8 8242   2.935   2.947  14.918  0.0996  0.1760 -0.4989
  555TMC3    O1 8243   2.736   2.423  14.846 -0.2450 -0.2025 -0.6461
  555TMC3    O2 8244   2.859   3.041  14.907  0.1936 -0.2109 -0.2486
  556MPD2     C 8245   1.195   4.373  10.127  0.0375  0.4087 -0.2500
  556MPD2    C1 8246   1.199   4.262  10.207  0.6900 -0.0638 -0.3833
  556MPD2    C2 8247   1.145   4.142  10.157 -0.1177 -0.0204  0.6838
  556MPD2    C3 8248   1.094   4.127  10.031  0.4621  0.4864  0.4675
  556MPD2    C4 8249   1.106   4.242   9.954  0.5958 -0.4066  0.0332
  556MPD2    C5 8250   1.149   4.366  10.001  0.0381  0.3298  0.1417
  556MPD2     H 8251   1.140   4.056  10.224 -0.7134 -1.7378 -1.5835
  556MPD2    H1 8252   1.086   4.228   9.849 -0.4675 -0.6505  0.2642
  556MPD2    H2 8253   1.229   4.469  10.164 -1.4457  1.2367 -1.0055
  556MPD2    H3 8254   1.152   4.447   9.930 -3.5791  1.1862  0.9595
  556MPD2     N 8255   1.060   3.998   9.992  0.9784 -0.1473 -0.0422
  556MPD2    H5 8256   1.079   3.919  10.053  1.2018 -0.0946 -0.0423
  556MPD2    N1 8257   1.258   4.259  10.339 -0.3885  0.5580  0.4446
  556MPD2    H7 8258   1.248   4.177  10.398  1.0490  0.7158  0.8982
  557TMC3    C1 8259   1.031   3.814   9.853 -0.4508 -1.2117 -0.2533
  557TMC3    C2 8260   1.107   3.749   9.755 -0.2476 -0.6881 -0.0317
  557TMC3    C3 8261   1.097   3.613   9.739 -0.6043 -0.1530 -0.1585
  557TMC3    C4 8262   0.959   3.740   9.944 -0.1828 -0.0299 -0.7259
  557TMC3    C5 8263   0.953   3.606   9.928  0.1060 -0.2424 -0.6564
  557TMC3    C6 8264   1.018   3.538   9.832 -0.4524 -0.5035  0.7573
  557TMC3     C 8265   1.045   3.959   9.859  0.3099  0.3281  0.3478
  557TMC3     O 8266   1.043   4.020   9.752  0.0641 -0.3158  0.0439
  557TMC3     H 8267   1.172   3.811   9.694  1.7466 -0.9920  1.8088
  557TMC3    H1 8268   0.916   3.772  10.038  1.4083 -0.4184  0.1374
  557TMC3    H2 8269   1.053   3.437   9.848  0.7351 -0.2114  0.0498
  557TMC3    C7 8270   0.859   3.542  10.010  0.0004  0.0328  0.3234
  557TMC3    C8 8271   1.194   3.546   9.653 -0.9856 -0.6537  0.6884
  557TMC3    O1 8272   0.802   3.606  10.098 -0.7800 -0.1806  0.6882
  557TMC3    O2 8273   1.280   3.624   9.601 -0.2925 -0.3997  0.2369
  558TMC3    C1 8274   3.895   1.261   9.788  0.6745  0.5578 -0.5544
  558TMC3    C2 8275   3.929   1.210   9.911  1.5737 -0.5107 -0.2046
  558TMC3    C3 8276   3.894   1.079   9.930  0.2729  0.6959 -0.5421
  558TMC3    C4 8277   3.830   1.190   9.689  0.5060  0.1618  0.3427
  558TMC3    C5 8278   3.795   1.064   9.718 -0.3175 -0.2292 -0.0045
  558TMC3    C6 8279   3.839   1.005   9.832 -0.1246 -0.3678  0.5734
  558TMC3     C 8280   3.939   1.399   9.783 -0.2283 -0.5776  0.0846
  558TMC3     O 8281   4.001   1.444   9.881 -0.0524  0.0731  0.1334
  558TMC3     H 8282   3.990   1.262   9.984 -1.4047  2.5021  0.1446
  558TMC3    H1 8283   3.808   1.231   9.591  0.6032 -0.0380  0.2396
  558TMC3    H2 8284   3.806   0.906   9.864 -1.9404 -0.4692 -1.5639
  558TMC3    C7 8285   3.687   1.007   9.641 -0.1470 -0.0563  0.4750
  558TMC3    C8 8286   3.881   1.028  10.062  0.8645  0.2878  1.3793
  558TMC3    O1 8287   3.685   0.882   9.639  0.3015 -0.1336 -0.2637
  558TMC3    O2 8288   3.907   0.910  10.082  0.0708 -0.3443  0.3587
  559MPD2     C 8289   3.191   2.554  11.143  0.2236 -0.6535  0.4880
  559MPD2    C1 8290   3.149   2.469  11.035  0.3163 -0.1562 -0.9320
  559MPD2    C2 8291   3.231   2.454  10.923  0.2921  0.9803 -0.2736
  559MPD2    C3 8292   3.342   2.542  10.915  0.1124  0.4799 -0.7806
  559MPD2    C4 8293   3.378   2.623  11.020  0.4753 -0.2816 -0.2469
  559MPD2    C5 8294   3.294   2.633  11.130 -0.5083 -0.2095  0.1367
  559MPD2     H 8295   3.193   2.391  10.843 -0.6794  0.0148  0.9183
  559MPD2    H1 8296   3.468   2.683  11.021  0.5066 -0.3405  0.2412
  559MPD2    H2 8297   3.127   2.575  11.228 -0.0071 -1.3611  0.4912
  559MPD2    H3 8298   3.314   2.702  11.211 -1.2942 -0.3623  0.4602
  559MPD2     N 8299   3.413   2.539  10.791 -0.7795 -0.1324 -0.4335
  559MPD2    H5 8300   3.392   2.468  10.722  1.5749 -0.3752 -0.9147
  559MPD2    N1 8301   3.023   2.408  11.046  0.1536  0.2766  0.2221
  559MPD2    H7 8302   2.972   2.432  11.130 -0.3270  0.7393 -0.1960
  560TMC3    C1 8303   3.590   2.581  10.637 -0.4484 -1.5061  0.5743
  560TMC3    C2 8304   3.592   2.450  10.613  0.2931  0.0353  0.5038
  560TMC3    C3 8305   3.712   2.385  10.587  0.3344  0.1355  0.0900
  560TMC3    C4 8306   3.707   2.658  10.630 -0.4757 -0.0451  0.1533
  560TMC3    C5 8307   3.823   2.583  10.602 -0.2705  0.4184  0.9395
  560TMC3    C6 8308   3.828   2.449  10.597 -0.3312 -0.2340 -0.7071
  560TMC3     C 8309   3.519   2.619  10.760 -0.3234 -0.6576 -0.1548
  560TMC3     O 8310   3.584   2.693  10.835 -0.6594  0.0826  0.2795
  560TMC3     H 8311   3.500   2.394  10.600  0.0499  0.1137  1.8488
  560TMC3    H1 8312   3.719   2.766  10.632  1.6597 -0.3064  1.1930
  560TMC3    H2 8313   3.924   2.401  10.580 -0.6082 -0.4252 -1.7446
  560TMC3    C7 8314   3.942   2.636  10.672 -0.1334 -0.3502 -0.4757
  560TMC3    C8 8315   3.693   2.246  10.602  0.4946  0.3426  0.6776
  560TMC3    O1 8316   4.054   2.629  10.630 -0.0875  0.4981 -0.0871
  560TMC3    O2 8317   3.595   2.195  10.551  0.7730 -0.0348  0.8451
  561TMC3    C1 8318   1.211   1.787  11.473  0.5297  0.4333  1.0181
  561TMC3    C2 8319   1.100   1.735  11.526  0.1312 -0.4220  0.7759
  561TMC3    C3 8320   0.998   1.821  11.559 -0.5327  0.1547 -0.6149
  561TMC3    C4 8321   1.208   1.915  11.428 -0.2062  0.3056  0.1481
  561TMC3    C5 8322   1.106   2.000  11.454  0.2868 -0.6599  0.7265
  561TMC3    C6 8323   0.996   1.951  11.526 -0.2537  0.1762 -0.0140
  561TMC3     C 8324   1.304   1.695  11.417  0.8857 -0.9081  0.2682
  561TMC3     O 8325   1.260   1.582  11.428 -0.0664 -0.2074 -0.3522
  561TMC3     H 8326   1.101   1.636  11.570 -0.5114 -0.5396  0.5277
  561TMC3    H1 8327   1.297   1.941  11.371 -0.1111  0.7667  0.5038
  561TMC3    H2 8328   0.909   2.011  11.548  0.4233  1.6707 -1.3805
  561TMC3    C7 8329   1.086   2.127  11.384 -0.5444 -0.4024  0.2500
  561TMC3    C8 8330   0.894   1.761  11.635 -0.8723  0.0238 -0.2985
  561TMC3    O1 8331   1.007   2.212  11.435 -0.2422 -0.0575 -0.0962
  561TMC3    O2 8332   0.876   1.642  11.632  0.0238  0.2036  0.2937
  562TMC3    C1 8333   2.442   2.993  15.845 -0.5127  0.2126  0.1175
  562TMC3    C2 8334   2.347   3.085  15.800  0.9310  0.4385 -0.4740
  562TMC3    C3 8335   2.295   3.056  15.675  0.2326  0.0380 -0.1259
  562TMC3    C4 8336   2.489   2.890  15.770  0.2809 -0.1612 -0.1152
  562TMC3    C5 8337   2.432   2.863  15.650  0.7517 -0.0658  0.0890
  562TMC3    C6 8338   2.334   2.943  15.603 -0.3355 -0.4006 -0.2661
  562TMC3     C 8339   2.508   3.018  15.978 -0.7103  0.2774 -0.1063
  562TMC3     O 8340   2.445   3.097  16.043  0.1779  0.3524  0.2790
  562TMC3     H 8341   2.321   3.165  15.868 -2.4444 -0.5886 -0.5799
  562TMC3    H1 8342   2.548   2.810  15.813 -1.0081 -1.7656 -1.3663
  562TMC3    H2 8343   2.293   2.912  15.508  1.5646 -0.9612 -0.9062
  562TMC3    C7 8344   2.454   2.738  15.580 -0.6684  0.1153  0.2234
  562TMC3    C8 8345   2.190   3.133  15.628  0.3868 -0.0684  0.2182
  562TMC3    O1 8346   2.365   2.698  15.504  0.1033  0.1393 -0.1418
  562TMC3    O2 8347   2.164   3.146  15.507  0.0096  0.4598 -0.3455
  563MPD2     C 8348   0.046   4.522  15.641  0.2417 -0.2631 -0.2851
  563MPD2    C1 8349   0.068   4.564  15.772  0.7464 -0.1283 -0.0878
  563MPD2    C2 8350   0.200   4.618  15.800 -0.1442  0.4470 -0.3551
  563MPD2    C3 8351   0.305   4.616  15.706 -0.3095  0.6904  0.0130
  563MPD2    C4 8352   0.276   4.570  15.578  0.0101  0.0799  0.5036
  563MPD2    C5 8353   0.145   4.526  15.549  0.8029  0.1884  0.0030
  563MPD2     H 8354   0.206   4.666  15.897 -0.4792  1.0102 -0.6135
  563MPD2    H1 8355   0.340   4.532  15.500 -0.9700 -1.5990  0.5033
  563MPD2    H2 8356   4.677   4.475  15.610 -0.7489  0.1939  1.9624
  563MPD2    H3 8357   0.135   4.483  15.450  1.0796 -0.8238  0.4161
  563MPD2     N 8358   0.436   4.656  15.750  0.1624  0.1307  0.0540
  563MPD2    H5 8359   0.442   4.687  15.847  0.9676 -1.4817  0.5136
  563MPD2    N1 8360   4.688   4.571  15.875 -0.2885  0.3298  0.3088
  563MPD2    H7 8361   4.709   4.622  15.960  0.0963  0.4802  0.1250
  564TMC3    C1 8362   4.511   4.515  16.005  0.4271  0.5367 -0.1593
  564TMC3    C2 8363   4.403   4.431  16.016  0.2208  0.4608 -0.2625
  564TMC3    C3 8364   4.368   4.387  16.141 -0.0507  0.2030 -0.2308
  564TMC3    C4 8365   4.585   4.556  16.116  0.9176  0.2262 -0.3659
  564TMC3    C5 8366   4.548   4.503  16.238 -0.1079 -0.8339 -0.9066
  564TMC3    C6 8367   4.437   4.422  16.255  0.2776 -0.8578 -0.3818
  564TMC3     C 8368   4.566   4.517  15.874  0.5225  0.6676 -0.1506
  564TMC3     O 8369   4.511   4.448  15.786  0.1351  0.0557 -0.0199
  564TMC3     H 8370   4.336   4.401  15.936 -1.0183  0.0126  0.9577
  564TMC3    H1 8371   4.686   4.593  16.105  1.6084 -1.5802 -0.1614
  564TMC3    H2 8372   4.408   4.376  16.349 -0.8188 -1.5429 -1.0600
  564TMC3    C7 8373   4.661   4.511  16.345 -0.0803 -0.2403  0.3908
  564TMC3    C8 8374   4.328   4.249  16.147 -0.2719 -0.0769 -0.4133
  564TMC3    O1 8375   0.052   4.525  16.300  0.1334 -0.4258 -0.1907
  564TMC3    O2 8376   4.297   4.198  16.251 -0.2374  0.0275  0.2184
  565TMC3    C1 8377   0.699   4.315  10.385 -0.4609  0.0322  0.4679
  565TMC3    C2 8378   0.832   4.342  10.397  0.2982  0.0428  0.9160
  565TMC3    C3 8379   0.881   4.343  10.527 -0.0965  0.2841 -0.4193
  565TMC3    C4 8380   0.617   4.310  10.491 -0.1003 -0.4517 -0.4347
  565TMC3    C5 8381   0.673   4.303  10.621  0.1526 -0.3317 -0.0299
  565TMC3    C6 8382   0.807   4.305  10.641 -0.0051  0.0100 -0.2586
  565TMC3     C 8383   0.647   4.322  10.253  0.1121 -0.4500  0.0753
  565TMC3     O 8384   0.726   4.366  10.166 -0.4972 -0.3474  0.2169
  565TMC3     H 8385   0.901   4.339  10.314  0.4834  0.8903  1.0424
  565TMC3    H1 8386   0.511   4.297  10.470 -0.3017 -0.6673  0.6879
  565TMC3    H2 8387   0.845   4.322  10.741  0.3793  3.1030 -0.9195
  565TMC3    C7 8388   0.567   4.288  10.724 -0.0303  0.1522  0.6474
  565TMC3    C8 8389   0.994   4.432  10.557  0.6053  0.6169 -0.2551
  565TMC3    O1 8390   0.455   4.330  10.696  0.7955 -0.1188 -0.5925
  565TMC3    O2 8391   1.051   4.425  10.666  0.2194 -0.0648 -0.0992
  566MPD2     C 8392   1.902   2.254  13.809 -0.6171 -0.4013 -0.3194
  566MPD2    C1 8393   1.999   2.311  13.731 -0.1069 -0.4006  0.6039
  566MPD2    C2 8394   1.962   2.380  13.615 -0.2479  0.2044 -0.6522
  566MPD2    C3 8395   1.831   2.378  13.567  0.2722 -0.1704 -0.1380
  566MPD2    C4 8396   1.736   2.315  13.645 -0.2862  0.2127 -0.6792
  566MPD2    C5 8397   1.775   2.250  13.761 -0.3851  0.0999 -0.0767
  566MPD2     H 8398   2.033   2.437  13.557 -0.5573  0.6718 -0.5673
  566MPD2    H1 8399   1.630   2.318  13.624  0.1623 -0.6493 -3.1115
  566MPD2    H2 8400   1.926   2.192  13.895 -2.2299  2.1480  1.9528
  566MPD2    H3 8401   1.697   2.201  13.817  0.4179 -1.5910 -0.4120
  566MPD2     N 8402   1.807   2.462  13.460 -0.4250 -0.3327 -0.1890
  566MPD2    H5 8403   1.881   2.526  13.434 -0.3715  0.1293  1.1017
  566MPD2    N1 8404   2.134   2.316  13.778 -1.1792 -0.0694  0.3676
  566MPD2    H7 8405   2.140   2.256  13.860  0.7014 -3.4228 -2.2160
  567TMC3    C1 8406   2.367   2.334  13.766 -0.0993 -0.1348 -0.5128
  567TMC3    C2 8407   2.470   2.391  13.694  0.1090 -0.1283  0.6219
  567TMC3    C3 8408   2.583   2.435  13.758  0.8866 -0.5972  0.3637
  567TMC3    C4 8409   2.384   2.315  13.906  0.0042 -0.0407 -0.5732
  567TMC3    C5 8410   2.503   2.355  13.958 -0.2327 -0.3374  0.5596
  567TMC3    C6 8411   2.606   2.407  13.889 -0.6958 -0.6085 -0.1653
  567TMC3     C 8412   2.241   2.376  13.714  0.4476  0.3800  0.1137
  567TMC3     O 8413   2.244   2.451  13.619  0.7401 -0.4456  0.0976
  567TMC3     H 8414   2.460   2.408  13.587  0.7095 -1.2097  0.3961
  567TMC3    H1 8415   2.317   2.262  13.974 -0.6940  1.7181  0.1304
  567TMC3    H2 8416   2.703   2.421  13.935 -2.1511  2.2458  2.0598
  567TMC3    C7 8417   2.527   2.336  14.103 -0.0409 -0.1991 -0.5282
  567TMC3    C8 8418   2.617   2.571  13.705  0.4658  0.0698 -1.0786
  567TMC3    O1 8419   2.644   2.318  14.132  0.0229 -0.4744  0.8942
  567TMC3    O2 8420   2.532   2.630  13.636 -0.7479 -0.1956 -0.0047
  568MPD2     C 8421   0.402   3.152  16.599  0.4817  0.7964  0.5310
  568MPD2    C1 8422   0.304   3.128  16.694 -0.0268 -0.4663 -0.0814
  568MPD2    C2 8423   0.183   3.204  16.682 -0.0318  0.5116 -0.6346
  568MPD2    C3 8424   0.163   3.302  16.587  0.2300  0.0257 -0.3865
  568MPD2    C4 8425   0.275   3.333  16.504 -0.3489 -0.0573  0.5990
  568MPD2    C5 8426   0.389   3.258  16.508 -0.2682  0.1708  0.2519
  568MPD2     H 8427   0.098   3.195  16.747  1.7874  0.9331  1.7841
  568MPD2    H1 8428   0.270   3.399  16.418  4.2782 -0.6882 -0.1635
  568MPD2    H2 8429   0.497   3.100  16.604 -1.3512 -2.3368  3.0005
  568MPD2    H3 8430   0.468   3.282  16.438  0.6948 -1.7256  0.6916
  568MPD2     N 8431   0.036   3.358  16.570 -0.6093 -1.0701 -0.2200
  568MPD2    H5 8432   4.688   3.325  16.634 -0.4575 -0.0616  0.4684
  568MPD2    N1 8433   0.325   3.014  16.778  0.1676  0.4224  0.2635
  568MPD2    H7 8434   0.412   2.965  16.763 -0.3059 -0.3327 -0.0148
  569TMC3    C1 8435   4.572   3.443  16.454 -0.2799  0.6478 -0.1153
  569TMC3    C2 8436   4.508   3.476  16.570  0.1245 -1.0839 -1.1294
  569TMC3    C3 8437   4.397   3.557  16.555 -0.6368  0.0022  0.1160
  569TMC3    C4 8438   4.519   3.470  16.329 -0.1578  0.2382 -0.0307
  569TMC3    C5 8439   4.399   3.540  16.322 -0.0037  0.4922 -0.3571
  569TMC3    C6 8440   4.338   3.590  16.435 -0.2346 -0.4310  0.1652
  569TMC3     C 8441   4.722   3.421  16.458  0.1420 -1.1462 -0.4252
  569TMC3     O 8442   0.057   3.447  16.353 -0.0325 -0.5709  0.7503
  569TMC3     H 8443   4.538   3.451  16.671 -0.1918 -0.2809 -0.8391
  569TMC3    H1 8444   4.573   3.435  16.242 -3.3084  0.9527 -2.2909
  569TMC3    H2 8445   4.242   3.639  16.428 -0.9948 -1.7396  1.4639
  569TMC3    C7 8446   4.360   3.590  16.196  0.2890  0.3115  0.1227
  569TMC3    C8 8447   4.370   3.647  16.662 -0.1326  0.2327  0.6988
  569TMC3    O1 8448   4.393   3.516  16.105 -0.2160  0.1590 -1.3011
  569TMC3    O2 8449   4.260   3.697  16.670 -0.2537  0.3855  0.7335
  570TMC3    C1 8450   3.891   2.029  16.369 -0.2977  0.5421  0.8633
  570TMC3    C2 8451   3.942   2.029  16.237  0.3305 -0.4158 -0.2068
  570TMC3    C3 8452   3.938   2.154  16.175  0.0926  0.0629 -0.0695
  570TMC3    C4 8453   3.855   2.144  16.435 -0.8954 -0.1029  0.2758
  570TMC3    C5 8454   3.864   2.260  16.372  0.2690  0.2807 -0.5813
  570TMC3    C6 8455   3.899   2.269  16.239 -0.2761  0.2038  0.1243
  570TMC3     C 8456   3.895   1.902  16.434 -0.4141  0.3570 -0.0423
  570TMC3     O 8457   3.903   1.804  16.361  0.1020 -0.0163  0.0840
  570TMC3     H 8458   4.002   1.945  16.205 -0.6749 -1.2459  0.1018
  570TMC3    H1 8459   3.831   2.148  16.541 -0.5859  1.4554  0.2728
  570TMC3    H2 8460   3.906   2.361  16.182 -0.8943 -0.8830 -1.7392
  570TMC3    C7 8461   3.828   2.380  16.448  0.0820 -0.4314 -0.1028
  570TMC3    C8 8462   4.027   2.181  16.066  0.4130  0.0848 -0.6235
  570TMC3    O1 8463   3.841   2.372  16.569 -0.1216 -0.6948  0.5189
  570TMC3    O2 8464   4.054   2.297  16.050 -0.2296 -0.2782  0.5651
  571MPD2     C 8465   1.974   3.457   0.032 -0.3208  0.1234  0.3151
  571MPD2    C1 8466   2.076   3.412   0.114 -0.3163  1.1525 -0.5254
  571MPD2    C2 8467   2.160   3.497   0.174  0.6428  0.0914 -0.3252
  571MPD2    C3 8468   2.151   3.631   0.155 -0.5422  0.5171 -1.3215
  571MPD2    C4 8469   2.044   3.674   0.073  0.8229 -0.1464  0.2815
  571MPD2    C5 8470   1.956   3.587   0.009  0.3406 -0.5130 -0.0454
  571MPD2     H 8471   2.233   3.460   0.246  0.4249  0.2595 -0.0220
  571MPD2    H1 8472   2.020   3.779   0.064  0.0342 -0.3335  0.1741
  571MPD2    H2 8473   1.917   3.385  17.669 -1.0206  1.1740 -0.2906
  571MPD2    H3 8474   1.873   3.630  17.648  0.1171  1.0797  1.5158
  571MPD2     N 8475   2.251   3.711   0.213  0.3750 -0.3677 -0.2581
  571MPD2    H5 8476   2.325   3.659   0.258 -0.5072 -1.8796 -0.5510
  571MPD2    N1 8477   2.078   3.268   0.138 -0.6547 -0.6386 -0.5105
  571MPD2    H7 8478   2.014   3.207   0.087 -0.0488 -0.4365 -1.5276
  572TMC3    C1 8479   2.363   3.900   0.287 -0.3899  0.7309 -0.0336
  572TMC3    C2 8480   2.405   3.832   0.395 -0.2163 -0.1156  0.5685
  572TMC3    C3 8481   2.492   3.900   0.476 -0.0234  0.5556 -0.4409
  572TMC3    C4 8482   2.380   4.032   0.268 -0.3999 -0.5500  0.9488
  572TMC3    C5 8483   2.455   4.098   0.359 -0.3455 -0.0984 -0.0378
  572TMC3    C6 8484   2.521   4.039   0.466  0.0789 -0.1014  0.1305
  572TMC3     C 8485   2.260   3.848   0.202  0.3556 -0.2762  0.2769
  572TMC3     O 8486   2.194   3.921   0.131  0.2099 -0.2906  0.3577
  572TMC3     H 8487   2.420   3.725   0.392 -1.8503 -0.3700  1.6684
  572TMC3    H1 8488   2.338   4.077   0.178  1.5195  0.6625  0.6834
  572TMC3    H2 8489   2.583   4.086   0.540  1.6869 -0.0177 -1.2635
  572TMC3    C7 8490   2.469   4.240   0.344 -0.0474 -0.2461  0.4423
  572TMC3    C8 8491   2.528   3.833   0.599  0.0916 -0.0001  0.4446
  572TMC3    O1 8492   2.394   4.295   0.263 -0.0368 -0.1965  0.0298
  572TMC3    O2 8493   2.465   3.734   0.617  0.1801  0.3189  0.0711
  573MPD2     C 8494   3.358   3.960   1.235  0.1659 -0.2193 -0.2042
  573MPD2    C1 8495   3.462   4.013   1.173  0.4453 -0.3408 -0.0638
  573MPD2    C2 8496   3.460   4.033   1.036 -0.5063  0.1281  0.1533
  573MPD2    C3 8497   3.351   3.994   0.957 -0.6035 -0.1945  0.2196
  573MPD2    C4 8498   3.251   3.941   1.027  0.0946  0.6247 -0.5769
  573MPD2    C5 8499   3.251   3.928   1.160  0.6446 -0.4487 -0.3220
  573MPD2     H 8500   3.560   4.051   1.000 -0.9568  1.9394 -0.1957
  573MPD2    H1 8501   3.156   3.919   0.980 -0.4390  0.9654  0.3261
  573MPD2    H2 8502   3.349   3.945   1.342 -0.2658 -0.4562 -0.2700
  573MPD2    H3 8503   3.164   3.879   1.203  2.5957 -1.2183  2.7432
  573MPD2     N 8504   3.345   4.011   0.819  0.2957 -0.3552 -0.3027
  573MPD2    H5 8505   3.267   3.965   0.771 -0.6185  0.2318  0.6363
  573MPD2    N1 8506   3.572   4.037   1.267 -0.3593 -0.8056 -0.0124
  573MPD2    H7 8507   3.549   4.006   1.361 -0.3778  2.9047  1.2013
  574TMC3    C1 8508   3.399   4.085   0.605  0.1691  0.1930  0.4316
  574TMC3    C2 8509   3.292   4.006   0.563  0.0472  0.0882  0.0271
  574TMC3    C3 8510   3.257   4.030   0.428  0.6983  0.4287  0.5423
  574TMC3    C4 8511   3.472   4.165   0.525 -0.4272  0.0001  0.3917
  574TMC3    C5 8512   3.439   4.179   0.392  0.4901 -0.5970  0.1011
  574TMC3    C6 8513   3.332   4.110   0.341  0.1985 -0.2299 -0.2165
  574TMC3     C 8514   3.428   4.095   0.743  0.3689  0.2937 -0.0163
  574TMC3     O 8515   3.491   4.193   0.781 -0.5440  0.1216 -0.7491
  574TMC3     H 8516   3.231   3.941   0.624  0.7744 -0.8192 -0.2018
  574TMC3    H1 8517   3.562   4.205   0.571  1.1753  0.2730 -2.9943
  574TMC3    H2 8518   3.311   4.104   0.234  0.5299 -1.3570 -0.2172
  574TMC3    C7 8519   3.534   4.227   0.294 -0.3406  0.0773 -0.6723
  574TMC3    C8 8520   3.124   3.970   0.394  0.2714 -0.1923 -0.0399
  574TMC3    O1 8521   3.517   4.198   0.175 -0.7543  0.2105  0.1860
  574TMC3    O2 8522   3.076   3.887   0.469  0.2114  0.0600 -0.2835
  575TMC3    C1 8523   1.648   0.297  10.764  0.0469 -0.4076  1.0966
  575TMC3    C2 8524   1.628   0.329  10.894 -0.2228  0.4002 -0.3519
  575TMC3    C3 8525   1.534   0.256  10.960  0.8408  0.1887  0.2177
  575TMC3    C4 8526   1.601   0.185  10.705  0.7583  0.6249  0.2326
  575TMC3    C5 8527   1.521   0.108  10.782 -0.0460  0.4146  0.0891
  575TMC3    C6 8528   1.472   0.151  10.904  0.0276 -0.2021  0.3850
  575TMC3     C 8529   1.740   0.387  10.688 -0.1770  0.2674 -0.3239
  575TMC3     O 8530   1.764   0.487  10.755  0.1484  0.5274  0.5088
  575TMC3     H 8531   1.679   0.408  10.948 -2.2727  0.2448  1.7996
  575TMC3    H1 8532   1.649   0.142  10.617 -1.9062  0.7664 -1.2832
  575TMC3    H2 8533   1.391   0.098  10.953 -0.1043  0.4346  0.8605
  575TMC3    C7 8534   1.432   0.021  10.712  0.4594  0.1342  0.3214
  575TMC3    C8 8535   1.514   0.279  11.106 -0.3192 -0.3265  0.0228
  575TMC3    O1 8536   1.376   4.663  10.784  0.6331 -0.1049  0.0295
  575TMC3    O2 8537   1.544   0.390  11.150 -0.3735 -0.1652  0.4481
  576MPD2     C 8538   0.020   2.311  12.704 -0.2956 -0.0023  0.3454
  576MPD2    C1 8539   0.063   2.408  12.613  0.3480 -0.2835  0.0829
  576MPD2    C2 8540   0.025   2.537  12.636  0.3608  0.4871  0.1661
  576MPD2    C3 8541   4.661   2.577  12.733  0.7073 -0.7402 -0.3776
  576MPD2    C4 8542   4.611   2.475  12.817  0.2114 -0.0293 -0.2284
  576MPD2    C5 8543   4.657   2.344  12.803 -0.2731  0.0505  0.3648
  576MPD2     H 8544   0.056   2.616  12.569  1.9908 -0.4134 -0.1417
  576MPD2    H1 8545   4.551   2.492  12.906 -0.0122  0.7228 -0.5260
  576MPD2    H2 8546   0.037   2.204  12.703 -0.2367  0.0013  0.9963
  576MPD2    H3 8547   4.608   2.260  12.851 -0.7013 -0.2038 -0.5203
  576MPD2     N 8548   4.627   2.714  12.749  0.2518  0.5229 -0.6392
  576MPD2    H5 8549   4.661   2.775  12.676  3.1157 -0.2673  0.0233
  576MPD2    N1 8550   0.153   2.392  12.509  1.0931  0.1277  0.3181
  576MPD2    H7 8551   0.184   2.476  12.461 -0.5469  1.1282  0.9900
  577TMC3    C1 8552   0.272   2.271  12.339  0.0425  0.3074 -0.9787
  577TMC3    C2 8553   0.334   2.157  12.299 -0.3448 -0.1981 -0.0679
  577TMC3    C3 8554   0.407   2.150  12.185 -0.4241  0.6939 -0.5905
  577TMC3    C4 8555   0.279   2.387  12.262  0.0220  0.1171  1.0487
  577TMC3    C5 8556   0.355   2.373  12.145  0.2504  0.1940  0.0712
  577TMC3    C6 8557   0.413   2.260  12.100 -0.4479 -0.3430  0.9493
  577TMC3     C 8558   0.203   2.271  12.468 -0.3217 -0.0233 -0.6665
  577TMC3     O 8559   0.195   2.159  12.526 -0.0747 -0.6242  0.1710
  577TMC3     H 8560   0.337   2.070  12.365  2.2303 -0.8454 -1.0367
  577TMC3    H1 8561   0.255   2.484  12.306  0.3258  0.4651  0.4427
  577TMC3    H2 8562   0.490   2.261  12.023 -1.2845 -0.0156  0.1275
  577TMC3    C7 8563   0.359   2.491  12.060 -0.0836  0.2458  0.3391
  577TMC3    C8 8564   0.425   2.020  12.124  0.9543  0.2988 -0.4573
  577TMC3    O1 8565   0.339   2.598  12.113 -0.1394  0.7960  0.4979
  577TMC3    O2 8566   0.370   1.926  12.180  0.1696 -0.6403  0.2123
  578MPD2     C 8567   3.417   1.656   1.548 -0.8491 -0.2156  0.2682
  578MPD2    C1 8568   3.493   1.580   1.464 -0.8014  0.2485  0.2249
  578MPD2    C2 8569   3.606   1.515   1.510 -0.5526  0.5575 -0.0225
  578MPD2    C3 8570   3.643   1.534   1.640  0.2829  1.0681 -0.3957
  578MPD2    C4 8571   3.560   1.603   1.731 -0.1313 -0.3881  0.3905
  578MPD2    C5 8572   3.444   1.657   1.687  0.1448  0.0745  0.0048
  578MPD2     H 8573   3.660   1.441   1.453 -1.5892  1.4970 -2.2314
  578MPD2    H1 8574   3.589   1.616   1.835 -0.2021 -0.6430  0.4420
  578MPD2    H2 8575   3.324   1.706   1.524 -0.3729  1.2976  1.5710
  578MPD2    H3 8576   3.372   1.704   1.753 -2.6993 -3.1393 -0.8051
  578MPD2     N 8577   3.763   1.464   1.686  0.2541 -0.3462  0.3556
  578MPD2    H5 8578   3.822   1.421   1.616 -0.2274 -1.6511  0.7542
  578MPD2    N1 8579   3.437   1.555   1.334 -0.5318  0.3236 -0.1370
  578MPD2    H7 8580   3.361   1.621   1.320 -1.4124 -0.4829  0.8539
  579TMC3    C1 8581   3.918   1.375   1.837  0.0164 -0.5592 -0.7950
  579TMC3    C2 8582   4.015   1.425   1.931  0.6734  0.4769  0.0041
  579TMC3    C3 8583   4.134   1.365   1.930  0.6266  0.6124  0.1246
  579TMC3    C4 8584   3.942   1.284   1.740  0.4964  0.4291 -0.0523
  579TMC3    C5 8585   4.066   1.230   1.738  0.5696  0.2410 -0.1489
  579TMC3    C6 8586   4.164   1.268   1.834 -0.5009 -0.3148  0.6673
  579TMC3     C 8587   3.812   1.469   1.812  0.4521 -0.5675  0.5231
  579TMC3     O 8588   3.793   1.562   1.889  0.0244  0.0108 -0.1544
  579TMC3     H 8589   3.991   1.503   2.002 -0.5685  1.3308 -1.3769
  579TMC3    H1 8590   3.864   1.241   1.679  1.3975  0.6718 -1.3877
  579TMC3    H2 8591   4.249   1.201   1.843  0.8440  1.4556  1.3249
  579TMC3    C7 8592   4.091   1.107   1.660 -0.7963 -0.2279  0.1596
  579TMC3    C8 8593   4.238   1.416   2.011  0.3058  0.9704  0.3253
  579TMC3    O1 8594   4.179   1.036   1.703  0.0801 -1.2665 -0.3346
  579TMC3    O2 8595   4.224   1.467   2.122  0.3313  0.0000  0.3067
  580TMC3    C1 8596   3.275   1.299  11.592 -0.1218 -0.0200  0.3357
  580TMC3    C2 8597   3.407   1.310  11.578 -0.6534 -0.3586  0.2355
  580TMC3    C3 8598   3.484   1.284  11.688  0.3955  0.1473  0.5772
  580TMC3    C4 8599   3.215   1.247  11.710 -0.2772  0.1093  0.5383
  580TMC3    C5 8600   3.294   1.226  11.817 -0.5723 -0.8370 -0.1244
  580TMC3    C6 8601   3.431   1.248  11.811 -0.2147 -0.1159  0.0822
  580TMC3     C 8602   3.203   1.367  11.491 -0.9163 -0.6911 -0.2199
  580TMC3     O 8603   3.267   1.395  11.390  0.8648 -0.2600  0.0057
  580TMC3     H 8604   3.449   1.342  11.483  1.3382  0.1142  1.2762
  580TMC3    H1 8605   3.110   1.220  11.718 -0.5365  0.5580 -1.3676
  580TMC3    H2 8606   3.505   1.234  11.890  1.8718 -2.3252 -2.2689
  580TMC3    C7 8607   3.263   1.144  11.929 -0.5786 -0.0730 -0.5134
  580TMC3    C8 8608   3.610   1.368  11.688  0.7664  0.5300  0.2796
  580TMC3    O1 8609   3.335   1.161  12.026 -0.3250  0.4075  0.3579
  580TMC3    O2 8610   3.621   1.448  11.780 -0.4896  0.3238  0.2955
  581MPD2     C 8611   1.147   0.742  14.565  0.1551 -0.4438  0.5112
  581MPD2    C1 8612   1.060   0.820  14.623 -1.1833  0.1239  0.2525
  581MPD2    C2 8613   0.961   0.891  14.557 -0.1757  0.1485 -0.0505
  581MPD2    C3 8614   0.954   0.876  14.419  1.5566 -0.0643 -0.7930
  581MPD2    C4 8615   1.045   0.803  14.356  0.4349 -0.4440  0.6170
  581MPD2    C5 8616   1.149   0.748  14.430  0.5991 -0.4779  0.3700
  581MPD2     H 8617   0.887   0.954  14.603 -2.0866 -1.8948 -0.3170
  581MPD2    H1 8618   1.055   0.788  14.249 -1.2028  1.7880  0.1488
  581MPD2    H2 8619   1.216   0.676  14.618 -0.5789  0.1729  2.2345
  581MPD2    H3 8620   1.227   0.692  14.379  2.3210  0.3186  2.1467
  581MPD2     N 8621   0.847   0.934  14.349  0.5256  0.2948  0.6243
  581MPD2    H5 8622   0.777   0.979  14.406 -0.8624  0.5499 -1.2950
  581MPD2    N1 8623   1.069   0.838  14.765 -0.1894 -0.2302 -0.2911
  581MPD2    H7 8624   0.996   0.901  14.794 -1.5430 -1.3159 -1.3431
  582TMC3    C1 8625   1.171   0.843  14.986  0.3778  0.1199  0.4248
  582TMC3    C2 8626   1.282   0.866  15.056 -0.2478 -0.1349 -0.7921
  582TMC3    C3 8627   1.277   0.921  15.185  0.3820  0.1934  0.3415
  582TMC3    C4 8628   1.049   0.880  15.038 -0.0461 -0.0665  0.1593
  582TMC3    C5 8629   1.049   0.940  15.163 -0.6473  0.4809 -0.2905
  582TMC3    C6 8630   1.161   0.957  15.240 -0.1759 -0.0842 -0.6725
  582TMC3     C 8631   1.177   0.799  14.846 -0.1012 -0.1605  0.9033
  582TMC3     O 8632   1.292   0.769  14.814  0.5415 -0.0969 -0.4642
  582TMC3     H 8633   1.380   0.831  15.024  0.8523  0.4895  1.8269
  582TMC3    H1 8634   0.954   0.864  14.987  0.8556  0.2802 -1.6309
  582TMC3    H2 8635   1.142   0.998  15.338 -1.5309 -1.9925 -0.1582
  582TMC3    C7 8636   0.922   0.985  15.206  0.2929  0.2113  0.3180
  582TMC3    C8 8637   1.399   0.908  15.261 -0.5345 -0.4913  0.1956
  582TMC3    O1 8638   0.824   0.925  15.172  0.1157 -0.1370  0.2404
  582TMC3    O2 8639   1.507   0.879  15.206 -0.0719  0.3877  0.5842
  583MPD2     C 8640   1.426   2.073  16.515 -0.3656 -0.4103 -0.5989
  583MPD2    C1 8641   1.372   2.185  16.457 -0.0765 -0.9181 -0.6305
  583MPD2    C2 8642   1.327   2.284  16.546  0.6533  0.3305 -0.2727
  583MPD2    C3 8643   1.353   2.281  16.682 -0.0981  0.2271 -0.0661
  583MPD2    C4 8644   1.425   2.176  16.732  0.2771  0.6958  0.2629
  583MPD2    C5 8645   1.455   2.073  16.653 -1.0860  0.2027  0.3011
  583MPD2     H 8646   1.266   2.368  16.514 -1.4400 -0.9860  0.2122
  583MPD2    H1 8647   1.446   2.182  16.839  3.7403  0.1218 -0.3859
  583MPD2    H2 8648   1.463   1.985  16.464  0.2327 -1.3651  1.5223
  583MPD2    H3 8649   1.526   2.000  16.691  1.9144  2.5330 -0.8200
  583MPD2     N 8650   1.305   2.387  16.761 -0.1780  0.5972 -0.0671
  583MPD2    H5 8651   1.259   2.458  16.704  0.0934  1.2151  0.4927
  583MPD2    N1 8652   1.355   2.198  16.317  0.0169  0.0965  0.2837
  583MPD2    H7 8653   1.309   2.284  16.288  1.9459  1.3323  0.8868
  584TMC3    C1 8654   1.254   2.532  16.951 -1.3877  1.3097  0.0428
  584TMC3    C2 8655   1.240   2.637  16.862  0.4117 -0.1060  0.0521
  584TMC3    C3 8656   1.240   2.765  16.913  0.0863 -0.3056  0.0247
  584TMC3    C4 8657   1.265   2.550  17.086  0.2954  0.1508  0.2456
  584TMC3    C5 8658   1.269   2.678  17.135  0.3278 -0.8854 -0.2978
  584TMC3    C6 8659   1.240   2.782  17.049  0.0820  0.1970  0.7705
  584TMC3     C 8660   1.315   2.408  16.899 -0.0479 -0.5934  0.5399
  584TMC3     O 8661   1.368   2.345  16.988  0.5313 -0.8832  0.4440
  584TMC3     H 8662   1.233   2.614  16.756 -1.1631  1.8175 -0.2638
  584TMC3    H1 8663   1.281   2.474  17.162 -0.6063 -0.4424 -0.1578
  584TMC3    H2 8664   1.238   2.881  17.094 -0.2969  0.9179 -0.8640
  584TMC3    C7 8665   1.299   2.700  17.281  0.9910 -0.0295  0.1998
  584TMC3    C8 8666   1.222   2.868  16.818  0.3141  0.6658 -0.3408
  584TMC3    O1 8667   1.356   2.609  17.338  0.1536 -0.4941  0.3956
  584TMC3    O2 8668   1.191   2.833  16.705 -0.0420 -0.2083 -0.7632
  585MPD2     C 8669   0.539   1.644   0.850 -0.4529  0.2561 -0.4636
  585MPD2    C1 8670   0.596   1.705   0.743 -0.7808 -0.2115 -0.5356
  585MPD2    C2 8671   0.634   1.627   0.629  1.2317 -0.0339 -0.8061
  585MPD2    C3 8672   0.615   1.488   0.628  0.6088  0.0634  0.3977
  585MPD2    C4 8673   0.563   1.428   0.739  0.4337 -0.4283  0.1539
  585MPD2    C5 8674   0.526   1.507   0.848  0.0883  0.1469  0.1659
  585MPD2     H 8675   0.668   1.671   0.536  0.3936  1.7103 -0.2849
  585MPD2    H1 8676   0.556   1.320   0.742 -0.7232 -0.3564 -0.0124
  585MPD2    H2 8677   0.515   1.700   0.939 -1.1688 -0.3859 -0.2443
  585MPD2    H3 8678   0.483   1.456   0.933  0.0026  1.5062  0.9398
  585MPD2     N 8679   0.645   1.406   0.519 -0.1305 -0.1472  0.3319
  585MPD2    H5 8680   0.618   1.309   0.531  0.7872 -0.1886  2.0819
  585MPD2    N1 8681   0.591   1.847   0.741  0.3074 -0.0091 -0.3790
  585MPD2    H7 8682   0.558   1.894   0.825  0.2294  1.3728 -1.1853
  586TMC3    C1 8683   0.721   1.316   0.320  0.7869  0.0616  0.2301
  586TMC3    C2 8684   0.822   1.328   0.224 -0.5063 -0.2371  0.4909
  586TMC3    C3 8685   0.789   1.280   0.105 -0.1998 -0.7683  0.5161
  586TMC3    C4 8686   0.599   1.265   0.291  0.4898  0.3696  0.2785
  586TMC3    C5 8687   0.576   1.210   0.162 -0.7865  0.2803 -0.0934
  586TMC3    C6 8688   0.672   1.222   0.072  0.2119 -0.3606  0.1990
  586TMC3     C 8689   0.726   1.437   0.411 -0.0077 -0.3414  0.4060
  586TMC3     O 8690   0.791   1.539   0.390 -0.4833  0.2951 -0.3730
  586TMC3     H 8691   0.915   1.379   0.245  0.4558 -1.9736  0.3782
  586TMC3    H1 8692   0.520   1.251   0.363  0.7128  1.0381  0.6524
  586TMC3    H2 8693   0.652   1.205  17.660  1.2915  0.5745 -0.1539
  586TMC3    C7 8694   0.459   1.126   0.142  0.5573  0.1788 -0.1307
  586TMC3    C8 8695   0.907   1.234   0.026  0.0802 -0.1162 -0.2391
  586TMC3    O1 8696   0.478   1.017   0.091  0.1570  0.3193  0.4990
  586TMC3    O2 8697   1.014   1.199   0.084 -0.0472 -0.4459 -0.3669
  587TMC3    C1 8698   3.010   0.123  16.767 -0.5751  0.8628 -0.2516
  587TMC3    C2 8699   2.997   0.216  16.665 -0.1823 -0.0813 -0.0255
  587TMC3    C3 8700   3.105   0.253  16.591  0.5142  0.0365  0.4609
  587TMC3    C4 8701   3.132   0.071  16.800 -0.2784  0.0916 -0.0514
  587TMC3    C5 8702   3.233   0.095  16.716 -0.1255 -0.1339  0.3180
  587TMC3    C6 8703   3.227   0.181  16.609  0.4307 -0.2388 -0.2752
  587TMC3     C 8704   2.896   0.072  16.838 -1.1816 -0.2359  0.0809
  587TMC3     O 8705   2.914   0.021  16.949  0.3336  0.1199  0.1827
  587TMC3     H 8706   2.905   0.273  16.667 -0.1493  0.0207 -1.3511
  587TMC3    H1 8707   3.129   0.000  16.882  3.0747  0.8926  0.7364
  587TMC3    H2 8708   3.300   0.183  16.529 -0.7711 -0.8587 -1.3876
  587TMC3    C7 8709   3.349   0.003  16.721 -0.2390 -0.6356 -0.9292
  587TMC3    C8 8710   3.096   0.336  16.472 -1.1838 -0.1612 -0.2639
  587TMC3    O1 8711   3.454   0.044  16.675  0.7591  0.1996 -0.0635
  587TMC3    O2 8712   3.196   0.342  16.403 -0.0765  0.3681  0.2580
  588TMC3    C1 8713   0.274   2.884   9.319  0.0221 -0.0169  0.3446
  588TMC3    C2 8714   0.240   2.750   9.289 -0.9091 -0.8219 -0.6233
  588TMC3    C3 8715   0.228   2.660   9.385  0.8435 -0.1001  0.8103
  588TMC3    C4 8716   0.299   2.910   9.449 -0.0584 -0.5486  0.3489
  588TMC3    C5 8717   0.293   2.812   9.545  0.5089  0.3250 -0.3746
  588TMC3    C6 8718   0.262   2.682   9.520 -0.0645 -0.0715 -0.2411
  588TMC3     C 8719   0.231   2.984   9.227  0.4194 -0.3331  0.1005
  588TMC3     O 8720   0.204   2.960   9.110  0.1132  0.8664 -0.9139
  588TMC3     H 8721   0.220   2.730   9.185 -3.2265  0.2153 -0.3586
  588TMC3    H1 8722   0.346   3.006   9.470 -2.2914  0.4860  0.5699
  588TMC3    H2 8723   0.257   2.619   9.608  3.2603 -0.9634 -0.6918
  588TMC3    C7 8724   0.256   2.856   9.671 -0.1363 -0.0395 -0.0498
  588TMC3    C8 8725   0.183   2.526   9.347 -0.1872 -0.4654 -0.7152
  588TMC3    O1 8726   0.281   2.787   9.767  0.3340 -0.4281  0.0513
  588TMC3    O2 8727   0.133   2.511   9.237 -0.3263 -0.0016  0.2455
  589TMC3    C1 8728   3.917   0.153   1.493  0.2766 -0.2008 -0.1029
  589TMC3    C2 8729   3.978   0.197   1.604 -0.4134  0.4720 -0.4936
  589TMC3    C3 8730   4.088   0.138   1.650  0.1870 -0.7127 -0.1351
  589TMC3    C4 8731   3.960   0.040   1.431  0.2806 -0.0795 -0.2122
  589TMC3    C5 8732   4.063   4.698   1.481  0.1390  0.4177  0.0573
  589TMC3    C6 8733   4.133   0.026   1.591  0.0916  0.5647  0.0259
  589TMC3     C 8734   3.783   0.195   1.473  0.2720  0.0681 -0.2112
  589TMC3     O 8735   3.720   0.143   1.383  0.4355  0.1794  0.2664
  589TMC3     H 8736   3.963   0.296   1.644  0.5314  0.4996 -0.2110
  589TMC3    H1 8737   3.901   0.003   1.347 -1.7270  2.4815  0.0705
  589TMC3    H2 8738   4.213   4.689   1.633 -1.3337 -1.3540  0.0250
  589TMC3    C7 8739   4.154   4.627   1.388 -0.3139 -0.1390 -0.1932
  589TMC3    C8 8740   4.177   0.210   1.742  0.3050 -0.6882 -0.2798
  589TMC3    O1 8741   4.270   4.659   1.414  0.0972 -0.1258  0.2543
  589TMC3    O2 8742   4.133   0.312   1.793  0.1669  0.3374  0.1849
  590MPD2     C 8743   3.407   3.878  16.315  0.2330  0.5949  0.1037
  590MPD2    C1 8744   3.414   4.009  16.269 -0.2009 -0.2661  0.1750
  590MPD2    C2 8745   3.532   4.059  16.224  0.3964 -0.1726 -0.4622
  590MPD2    C3 8746   3.646   3.983  16.233 -0.4532 -0.0388  0.4331
  590MPD2    C4 8747   3.645   3.857  16.284  0.2758  0.8477 -0.1229
  590MPD2    C5 8748   3.522   3.804  16.327 -0.6152  0.4412 -0.1872
  590MPD2     H 8749   3.527   4.151  16.166  0.1724  0.3356  0.3576
  590MPD2    H1 8750   3.736   3.798  16.283 -0.3919 -0.1878  2.0869
  590MPD2    H2 8751   3.311   3.837  16.344 -0.1958  1.9911  0.6652
  590MPD2    H3 8752   3.510   3.701  16.357 -4.0490  1.2604  1.2762
  590MPD2     N 8753   3.764   4.044  16.184 -0.2222  0.7284  0.1642
  590MPD2    H5 8754   3.758   4.140  16.152 -0.5877  0.7994  0.4435
  590MPD2    N1 8755   3.299   4.088  16.292  0.1547  0.6297 -0.5047
  590MPD2    H7 8756   3.220   4.052  16.345 -0.1174 -0.6070 -1.7414
  591TMC3    C1 8757   3.980   4.057  16.082  0.1987 -0.0668 -0.1770
  591TMC3    C2 8758   4.018   3.988  15.974 -0.0934  0.2460  1.0138
  591TMC3    C3 8759   4.055   4.051  15.863  0.6413 -0.1764  0.3904
  591TMC3    C4 8760   3.974   4.195  16.083 -0.3169 -0.0762  0.0942
  591TMC3    C5 8761   4.008   4.253  15.964 -0.2479  1.3852 -0.1252
  591TMC3    C6 8762   4.045   4.183  15.855  0.2671  0.2548 -0.3666
  591TMC3     C 8763   3.887   3.983  16.174  0.5619 -0.3289  0.1156
  591TMC3     O 8764   3.923   3.869  16.202  0.3180  0.2469 -0.1439
  591TMC3     H 8765   4.012   3.880  15.983  1.0892  0.2300  1.6237
  591TMC3    H1 8766   3.940   4.250  16.170  1.3828 -0.9319  1.2832
  591TMC3    H2 8767   4.091   4.235  15.771 -1.0792  1.2950 -0.4566
  591TMC3    C7 8768   3.998   4.396  15.956  0.1910  0.1728  0.0558
  591TMC3    C8 8769   4.073   3.969  15.745  0.2876  0.2921  0.1332
  591TMC3    O1 8770   4.022   4.453  16.062 -0.3917 -0.4239  0.4466
  591TMC3    O2 8771   4.038   3.853  15.754 -0.3962 -0.3092 -0.3100
  592MPD2     C 8772   4.286   0.663  10.891  0.2565 -1.1614 -0.6501
  592MPD2    C1 8773   4.323   0.697  11.023 -0.8250 -0.0150  0.1588
  592MPD2    C2 8774   4.254   0.644  11.127  0.0459 -0.6698  0.2762
  592MPD2    C3 8775   4.147   0.559  11.099 -0.3545 -0.2478  0.5050
  592MPD2    C4 8776   4.122   0.517  10.970 -0.5954 -0.2131  0.3932
  592MPD2    C5 8777   4.186   0.571  10.867  0.1375 -0.2918 -0.4596
  592MPD2     H 8778   4.274   0.674  11.229  1.4821 -1.0140  0.0878
  592MPD2    H1 8779   4.038   0.450  10.955 -0.0342 -1.0506  0.9520
  592MPD2    H2 8780   4.343   0.688  10.803  0.4361 -2.5566 -0.9357
  592MPD2    H3 8781   4.167   0.547  10.763  2.0007 -0.9376 -0.6500
  592MPD2     N 8782   4.089   0.507  11.211  0.7057 -0.2073  0.1765
  592MPD2    H5 8783   4.140   0.520  11.298 -0.7115  3.5759  0.4422
  592MPD2    N1 8784   4.421   0.791  11.037  0.1287  0.9817  0.5252
  592MPD2    H7 8785   4.464   0.818  10.949 -0.0607 -0.2720  0.0426
  593TMC3    C1 8786   4.588   0.928  11.142  0.3801 -0.2374  0.0996
  593TMC3    C2 8787   4.611   1.012  11.244 -0.0326  0.4646  1.2672
  593TMC3    C3 8788   0.012   1.069  11.245  0.1527 -0.3409 -0.0988
  593TMC3    C4 8789   4.683   0.898  11.049 -0.6111  0.1973 -0.0306
  593TMC3    C5 8790   0.085   0.960  11.048 -0.3797 -0.3170  0.2282
  593TMC3    C6 8791   0.106   1.056  11.147  0.1944 -0.0221  0.4129
  593TMC3     C 8792   4.472   0.838  11.155 -0.3786  0.5706 -0.2498
  593TMC3     O 8793   4.430   0.823  11.268 -0.1416  0.1578  0.1613
  593TMC3     H 8794   4.543   1.037  11.324 -0.1320 -0.4273  1.4567
  593TMC3    H1 8795   4.660   0.816  10.983 -3.6364 -0.0577  1.3601
  593TMC3    H2 8796   0.197   1.113  11.149  1.0201 -1.3054 -0.8043
  593TMC3    C7 8797   0.135   1.014  10.920  0.5057  0.0219  0.1891
  593TMC3    C8 8798   0.040   1.165  11.353  0.3754  1.0585  0.3454
  593TMC3    O1 8799   0.223   1.104  10.927 -0.2421 -0.3798 -0.2875
  593TMC3    O2 8800   4.676   1.209  11.424 -0.0769  0.0481  0.1858
  594MPD2     C 8801   2.934   4.179  14.562 -0.2550 -0.2068  0.0305
  594MPD2    C1 8802   2.861   4.291  14.521  0.8361 -0.5647 -0.1284
  594MPD2    C2 8803   2.921   4.412  14.491  0.4475 -0.4059  0.6270
  594MPD2    C3 8804   3.062   4.415  14.495 -0.2319  0.3946 -0.6386
  594MPD2    C4 8805   3.138   4.299  14.517 -0.6822 -0.7011 -1.0978
  594MPD2    C5 8806   3.070   4.184  14.547  0.3943  0.0312 -0.2231
  594MPD2     H 8807   2.866   4.503  14.472  2.9596  1.1164  0.5567
  594MPD2    H1 8808   3.245   4.306  14.500 -0.3763  1.5315  1.7017
  594MPD2    H2 8809   2.896   4.079  14.579  1.2697 -0.7429  0.2609
  594MPD2    H3 8810   3.128   4.094  14.532 -0.9530 -0.8234 -0.3369
  594MPD2     N 8811   3.125   4.544  14.494 -0.1574 -0.1334 -0.2366
  594MPD2    H5 8812   3.065   4.621  14.519  0.4638 -0.6155  2.7138
  594MPD2    N1 8813   2.721   4.269  14.515  0.3373 -0.6471  0.2595
  594MPD2    H7 8814   2.688   4.190  14.571 -0.6725  0.5567  1.3734
  595TMC3    C1 8815   3.464   0.113  14.603 -0.2620  0.0783  0.5530
  595TMC3    C2 8816   3.427   0.012  14.520  0.3059  0.2966 -0.0159
  595TMC3    C3 8817   3.290   4.716  14.490  0.2885 -0.0299  0.2862
  595TMC3    C4 8818   3.364   0.193  14.655 -0.5088 -0.2535  0.5000
  595TMC3    C5 8819   3.233   0.179  14.609  0.8753  0.1695  0.3223
  595TMC3    C6 8820   3.195   0.071  14.533 -0.3085 -0.0166  0.3523
  595TMC3     C 8821   3.579   0.186  14.561 -0.4182 -0.8194  0.5369
  595TMC3     O 8822   3.593   0.297  14.612  0.2386  0.2862 -0.3164
  595TMC3     H 8823   3.488   4.653  14.484  0.5672  0.7472 -0.5873
  595TMC3    H1 8824   3.388   0.259  14.737 -0.8488 -0.7677  1.0103
  595TMC3    H2 8825   3.091   0.060  14.504 -0.0398 -0.1361 -0.5769
  595TMC3    C7 8826   3.155   0.297  14.578  0.6234  0.4905 -0.8744
  595TMC3    C8 8827   3.257   4.573  14.474  0.2720 -0.0606 -0.2019
  595TMC3    O1 8828   3.037   0.295  14.540 -0.0175  0.4573 -0.2926
  595TMC3    O2 8829   3.349   4.494  14.462  0.5555  0.6848 -0.3320
  596MPD2     C 8830   2.128   2.343  16.161  0.2247 -0.2339 -0.3148
  596MPD2    C1 8831   2.031   2.442  16.148  0.1721  0.3133 -0.8118
  596MPD2    C2 8832   1.975   2.463  16.022  0.0206 -0.4761  0.0889
  596MPD2    C3 8833   2.022   2.380  15.914 -1.0182 -0.2501  0.6429
  596MPD2    C4 8834   2.120   2.282  15.936 -0.4070 -0.0812 -0.1164
  596MPD2    C5 8835   2.180   2.270  16.059  0.5114  0.3420 -0.6267
  596MPD2     H 8836   1.886   2.524  16.012  0.7792  0.6489  0.2428
  596MPD2    H1 8837   2.145   2.206  15.862  3.4166  0.8913  0.1729
  596MPD2    H2 8838   2.167   2.322  16.259  0.2606  1.5121  0.0449
  596MPD2    H3 8839   2.260   2.200  16.083 -0.9084 -0.3135  2.1561
  596MPD2     N 8840   1.953   2.385  15.791 -0.5670  0.2207  0.0171
  596MPD2    H5 8841   1.976   2.314  15.723 -2.0809 -0.0633 -0.2029
  596MPD2    N1 8842   1.983   2.530  16.247 -0.0675  0.0140 -0.3314
  596MPD2    H7 8843   1.925   2.606  16.213 -0.5302 -1.2357 -2.3405
  597TMC3    C1 8844   1.989   2.664  16.440 -0.1587 -0.4499 -0.2033
  597TMC3    C2 8845   2.019   2.772  16.368 -0.4573 -0.3804  0.1929
  597TMC3    C3 8846   2.002   2.886  16.442  0.5941  0.1680  0.5591
  597TMC3    C4 8847   1.966   2.659  16.575 -0.0259 -0.6522  0.3644
  597TMC3    C5 8848   1.958   2.778  16.639 -0.7055 -0.4191 -0.3985
  597TMC3    C6 8849   1.975   2.894  16.571  0.1530  0.1684 -0.3524
  597TMC3     C 8850   2.024   2.540  16.374  0.2965 -0.2657 -0.3989
  597TMC3     O 8851   2.081   2.459  16.449  0.3492  0.4378  0.5880
  597TMC3     H 8852   2.030   2.779  16.261  1.5696  1.2349  0.5025
  597TMC3    H1 8853   1.926   2.567  16.617 -2.0976 -0.3734 -0.9968
  597TMC3    H2 8854   1.964   2.992  16.616 -1.9896 -0.4002  0.3769
  597TMC3    C7 8855   1.922   2.778  16.784 -0.5708 -0.3882  0.8515
  597TMC3    C8 8856   2.071   3.002  16.391 -0.3483  0.1818  0.0388
  597TMC3    O1 8857   1.912   2.675  16.848  0.3677  0.1757 -0.1531
  597TMC3    O2 8858   2.069   3.022  16.270 -0.7485 -0.2280 -0.2407
  598TMC3    C1 8859   0.144   4.436  14.928  0.5049 -0.2409 -0.0860
  598TMC3    C2 8860   0.030   4.365  14.932  0.3635 -0.4580  0.5092
  598TMC3    C3 8861   4.690   4.345  14.815  0.2873  0.2200 -0.3813
  598TMC3    C4 8862   0.206   4.469  14.807 -0.2685 -0.0340  0.1664
  598TMC3    C5 8863   0.146   4.431  14.687  0.6660 -0.2121  0.1841
  598TMC3    C6 8864   0.020   4.377  14.696  0.4157 -0.0942  0.6658
  598TMC3     C 8865   0.170   4.518  15.049  0.3104  0.3637  0.2563
  598TMC3     O 8866   0.083   4.506  15.132 -0.4653 -0.7112  0.7823
  598TMC3     H 8867   4.710   4.336  15.028 -4.2169  0.0211 -1.3702
  598TMC3    H1 8868   0.275   4.552  14.800 -1.2002  0.5689 -1.9959
  598TMC3    H2 8869   4.697   4.345  14.603  0.8756 -0.0421  0.4219
  598TMC3    C7 8870   0.203   4.444  14.555 -0.7664 -0.6140 -0.1603
  598TMC3    C8 8871   4.587   4.242  14.819 -0.3356  0.3332  0.0738
  598TMC3    O1 8872   0.136   4.415  14.458  0.2823  0.5585 -0.3809
  598TMC3    O2 8873   4.597   4.158  14.732  0.5104  0.1957 -0.2915
  599MPD2     C 8874   0.521   2.048  16.276  0.7144 -0.0655  0.9020
  599MPD2    C1 8875   0.481   1.912  16.251  1.0626 -0.5729  0.1190
  599MPD2    C2 8876   0.347   1.883  16.244  0.3267 -0.8050  0.5141
  599MPD2    C3 8877   0.253   1.985  16.257 -0.1739  0.0570  0.2273
  599MPD2    C4 8878   0.293   2.118  16.269 -0.3691 -0.5494  0.3208
  599MPD2    C5 8879   0.429   2.144  16.276  0.0371  0.3220 -0.5415
  599MPD2     H 8880   0.308   1.782  16.237  0.3973 -0.6885 -1.5975
  599MPD2    H1 8881   0.227   2.201  16.288  1.5645  0.2251  3.4993
  599MPD2    H2 8882   0.623   2.075  16.299  0.8930  0.0993 -0.0972
  599MPD2    H3 8883   0.461   2.246  16.290 -0.8298  0.4216  0.6697
  599MPD2     N 8884   0.109   1.967  16.258  0.1125 -0.3633  0.2449
  599MPD2    H5 8885   0.051   2.049  16.274 -0.3985 -0.3076 -1.9236
  599MPD2    N1 8886   0.577   1.809  16.265 -0.1411  0.5674  0.0891
  599MPD2    H7 8887   0.658   1.825  16.324 -0.8206 -1.2136  1.5040
  600TMC3    C1 8888   4.621   1.853  16.265  0.1654 -0.2025 -0.5678
  600TMC3    C2 8889   4.569   1.728  16.266  0.8391 -0.5189  0.3810
  600TMC3    C3 8890   4.434   1.711  16.278  0.6790 -0.1293 -0.9818
  600TMC3    C4 8891   4.541   1.961  16.265 -1.0684 -0.0543 -0.7635
  600TMC3    C5 8892   4.408   1.950  16.276 -0.8347  0.5389  0.2695
  600TMC3    C6 8893   4.355   1.827  16.288 -0.0203  0.1427 -0.8761
  600TMC3     C 8894   0.046   1.852  16.228 -0.4830  0.3592 -0.1155
  600TMC3     O 8895   0.093   1.743  16.188  0.2713  0.2447  0.2116
  600TMC3     H 8896   4.634   1.641  16.266  1.1264 -0.3095  1.1905
  600TMC3    H1 8897   4.586   2.058  16.250  1.2867 -0.8608  1.2123
  600TMC3    H2 8898   4.251   1.812  16.315  0.2139  1.4226  0.7373
  600TMC3    C7 8899   4.318   2.056  16.305  0.2628 -0.2427 -0.3725
  600TMC3    C8 8900   4.378   1.579  16.311 -0.4188  0.0080  0.0208
  600TMC3    O1 8901   4.225   2.032  16.380 -0.0446  0.6335  0.2851
  600TMC3    O2 8902   4.461   1.497  16.357 -0.6035 -0.0752  0.8334
  601MPD2     C 8903   2.730   4.672   0.399 -0.7159  0.0756  0.4905
  601MPD2    C1 8904   2.615   4.648   0.328 -0.1939 -0.0879  0.2693
  601MPD2    C2 8905   2.567   4.521   0.336  0.1267  0.4781 -0.5289
  601MPD2    C3 8906   2.629   4.422   0.405 -0.7324  0.8416  0.1373
  601MPD2    C4 8907   2.747   4.439   0.469 -0.2802  0.6283  0.0848
  601MPD2    C5 8908   2.794   4.567   0.468  0.3574 -0.3181  0.0795
  601MPD2     H 8909   2.471   4.502   0.289  0.5289 -2.2041 -0.2724
  601MPD2    H1 8910   2.794   4.365   0.533 -2.7698  0.2815  1.5536
  601MPD2    H2 8911   2.768   0.050   0.398 -1.2011  0.2130 -2.3848
  601MPD2    H3 8912   2.887   4.597   0.516 -0.2106 -0.7867  1.4524
  601MPD2     N 8913   2.580   4.289   0.409 -0.6422 -0.0356  0.5069
  601MPD2    H5 8914   2.645   4.234   0.463 -0.1186  0.5299  0.4492
  601MPD2    N1 8915   2.556   0.025   0.244 -0.5089  0.3658 -0.2021
  601MPD2    H7 8916   2.486   0.001   0.175  1.0988  0.3338 -1.8255
  602TMC3    C1 8917   2.503   0.244   0.170  0.0442 -0.1538 -0.2914
  602TMC3    C2 8918   2.517   0.384   0.180  0.5672 -0.4771 -0.1391
  602TMC3    C3 8919   2.443   0.449   0.085  1.1453 -0.0902 -0.3281
  602TMC3    C4 8920   2.437   0.184   0.065 -0.1583 -0.3288  0.4601
  602TMC3    C5 8921   2.360   0.258  17.677 -0.3779  0.2537 -0.8127
  602TMC3    C6 8922   2.368   0.393  17.679  0.4288  0.1466  0.6073
  602TMC3     C 8923   2.582   0.161   0.262  0.5138 -0.5269 -0.3900
  602TMC3     O 8924   2.628   0.208   0.363  0.5494  0.4608 -0.0719
  602TMC3     H 8925   2.555   0.435   0.268  0.8748  0.4062 -0.7835
  602TMC3    H1 8926   2.443   0.077   0.046  1.9040  0.1706 -1.7197
  602TMC3    H2 8927   2.316   0.452  17.603 -0.9353 -1.1696  0.5317
  602TMC3    C7 8928   2.287   0.187  17.572 -0.2453  0.2743  0.4671
  602TMC3    C8 8929   2.472   0.592   0.067 -0.2403 -0.2230 -0.3403
  602TMC3    O1 8930   2.258   0.072  17.588 -0.0145 -0.5227 -0.0206
  602TMC3    O2 8931   2.525   0.645   0.163  0.1883 -0.1679 -0.0295
  603TMC3    C1 8932   4.438   4.608  10.136 -0.2800 -0.2718  0.0334
  603TMC3    C2 8933   4.531   4.591  10.231  0.7065  0.1062 -0.1958
  603TMC3    C3 8934   4.652   4.538  10.195  0.1431 -0.0632  0.4723
  603TMC3    C4 8935   4.465   4.575  10.006 -0.1130  0.3512 -0.5054
  603TMC3    C5 8936   4.591   4.535   9.969 -0.5972  0.4206  0.2314
  603TMC3    C6 8937   4.685   4.510  10.062  0.7869  0.3193  0.3728
  603TMC3     C 8938   4.329   4.688  10.174  0.1318  0.5464  0.0927
  603TMC3     O 8939   4.309   4.682  10.294  0.0648  0.0481  0.1570
  603TMC3     H 8940   4.520   4.631  10.331 -0.5951 -0.1210 -0.2531
  603TMC3    H1 8941   4.384   4.562   9.935 -0.9031  0.4786  0.3729
  603TMC3    H2 8942   0.061   4.482  10.026 -1.6207 -2.2106 -4.2751
  603TMC3    C7 8943   4.611   4.473   9.837  0.1836  0.3009 -0.1098
  603TMC3    C8 8944   0.024   4.522  10.299  0.3739 -0.0156  0.5308
  603TMC3    O1 8945   4.698   4.388   9.827 -0.2523  0.3364  0.4051
  603TMC3    O2 8946   4.715   4.512  10.417 -0.1618  0.1491  0.1556
  604MPD2     C 8947   1.117   4.107  16.401 -0.3086 -0.4195 -0.1650
  604MPD2    C1 8948   0.990   4.080  16.354  0.3930 -0.0223 -0.3060
  604MPD2    C2 8949   0.970   4.048  16.220  0.1415 -0.0123 -0.6996
  604MPD2    C3 8950   1.080   4.038  16.136  0.5025 -0.5931  0.0128
  604MPD2    C4 8951   1.206   4.072  16.181  0.1893 -0.2457 -0.4615
  604MPD2    C5 8952   1.225   4.108  16.312 -0.1217 -0.4464  0.1046
  604MPD2     H 8953   0.870   4.026  16.185 -0.8072 -1.1408  2.7767
  604MPD2    H1 8954   1.293   4.060  16.117  1.2100 -0.6344  1.0067
  604MPD2    H2 8955   1.136   4.132  16.504  0.7176  1.3510 -0.7945
  604MPD2    H3 8956   1.326   4.122  16.349  0.7692  1.1123 -2.8941
  604MPD2     N 8957   1.056   4.004  16.003  0.1061  0.0368 -0.6964
  604MPD2    H5 8958   0.956   3.997  15.986  0.0631 -2.4164  0.4696
  604MPD2    N1 8959   0.888   4.073  16.451  0.3648  0.1303 -0.1550
  604MPD2    H7 8960   0.915   4.089  16.547 -0.9887 -1.1054  0.4256
  605TMC3    C1 8961   0.666   4.122  16.538 -0.0659  1.2986 -0.0421
  605TMC3    C2 8962   0.707   4.100  16.665 -0.0271 -0.1653  0.4032
  605TMC3    C3 8963   0.650   4.171  16.769 -0.1906  0.3190 -0.7333
  605TMC3    C4 8964   0.573   4.222  16.515  0.5925  0.2216 -0.0812
  605TMC3    C5 8965   0.518   4.278  16.625 -0.4543  0.3130  0.3276
  605TMC3    C6 8966   0.562   4.265  16.753 -0.1985 -0.1020  0.2296
  605TMC3     C 8967   0.748   4.080  16.425  0.4261 -0.0458  0.4989
  605TMC3     O 8968   0.701   4.088  16.314  0.0499 -0.1709  0.0731
  605TMC3     H 8969   0.782   4.023  16.682 -0.5319 -1.6010 -3.8890
  605TMC3    H1 8970   0.538   4.238  16.414  2.5092  0.7504 -0.6580
  605TMC3    H2 8971   0.534   4.335  16.831 -0.1100  1.8002 -1.4420
  605TMC3    C7 8972   0.398   4.356  16.597  0.6456  0.3811 -0.2461
  605TMC3    C8 8973   0.744   4.205  16.878 -0.0663 -0.4915 -0.8815
  605TMC3    O1 8974   0.400   4.418  16.492  0.4196 -0.1905 -0.3839
  605TMC3    O2 8975   0.698   4.261  16.973 -0.5860  0.2317 -0.2671
  606TMC3    C1 8976   2.326   2.879  17.415  0.3650  0.2959  0.4644
  606TMC3    C2 8977   2.352   2.781  17.504  1.2056 -0.6707  0.4867
  606TMC3    C3 8978   2.339   2.655  17.459  0.0163 -1.2418 -0.3765
  606TMC3    C4 8979   2.275   2.856  17.291 -0.0197 -0.3821 -0.0387
  606TMC3    C5 8980   2.273   2.721  17.247  0.5850  0.1294  0.4730
  606TMC3    C6 8981   2.306   2.618  17.331  0.0017 -0.5815 -0.3279
  606TMC3     C 8982   2.305   3.014  17.472  0.2782  0.7689  0.2282
  606TMC3     O 8983   2.372   3.048  17.571 -0.6978  0.0391  0.3079
  606TMC3     H 8984   2.393   2.798  17.604  0.5548 -1.2186  0.8389
  606TMC3    H1 8985   2.256   2.938  17.222  1.1958  3.0459  3.7157
  606TMC3    H2 8986   2.313   2.512  17.307  2.1765 -0.7515  1.1225
  606TMC3    C7 8987   2.268   2.707  17.103 -0.0084  0.3689 -0.4176
  606TMC3    C8 8988   2.408   2.560  17.543  0.1437  0.6288 -0.2782
  606TMC3    O1 8989   2.243   2.809  17.034 -0.4805  0.4486 -0.2110
  606TMC3    O2 8990   2.493   2.597  17.626 -0.1427  0.6484 -0.5858
  607MPD2     C 8991   4.614   0.489  11.029  0.6883  0.3238  0.3733
  607MPD2    C1 8992   4.701   0.548  11.121  0.1373  0.9098 -0.2451
  607MPD2    C2 8993   4.674   0.539  11.255 -0.6084 -0.0498  0.5709
  607MPD2    C3 8994   4.562   0.474  11.300  0.0060 -0.0481 -0.1098
  607MPD2    C4 8995   4.476   0.415  11.209 -0.1375 -0.2396  0.4679
  607MPD2    C5 8996   4.499   0.424  11.074 -0.4810  0.2656  0.4302
  607MPD2     H 8997   0.002   0.596  11.332  1.7258 -1.2448 -0.1081
  607MPD2    H1 8998   4.386   0.363  11.240 -0.6816  0.2747 -0.2703
  607MPD2    H2 8999   4.634   0.499  10.923  1.5145  0.3014  0.5263
  607MPD2    H3 9000   4.430   0.376  11.006 -0.5082  0.0702  0.5936
  607MPD2     N 9001   4.533   0.499  11.434 -0.7010 -0.3661 -0.7246
  607MPD2    H5 9002   4.603   0.543  11.492 -1.4230  1.9304 -1.6003
  607MPD2    N1 9003   0.102   0.603  11.083 -0.1990 -0.7833  0.2727
  607MPD2    H7 9004   0.159   0.638  11.159  0.4577  0.7847 -0.9443
  608TMC3    C1 9005   0.292   0.654  10.965 -0.6222 -0.1892  0.1412
  608TMC3    C2 9006   0.361   0.613  11.079  0.1720 -0.3476 -0.1579
  608TMC3    C3 9007   0.493   0.655  11.087 -0.8849 -0.1613 -0.0273
  608TMC3    C4 9008   0.346   0.728  10.863  0.2335  0.2208  0.2803
  608TMC3    C5 9009   0.474   0.782  10.882  0.1441  0.0949 -0.3605
  608TMC3    C6 9010   0.548   0.745  10.997 -0.2695 -0.4781  0.4503
  608TMC3     C 9011   0.150   0.629  10.956 -0.7044 -0.2716 -0.2220
  608TMC3     O 9012   0.095   0.637  10.847  0.0271  0.3398 -0.0195
  608TMC3     H 9013   0.338   0.524  11.137 -0.8929  1.3953  2.1153
  608TMC3    H1 9014   0.292   0.758  10.774  1.8662  0.8707 -0.4882
  608TMC3    H2 9015   0.648   0.785  11.015 -0.0290 -0.9686  0.1848
  608TMC3    C7 9016   0.547   0.860  10.779 -0.0707  0.9293  0.4467
  608TMC3    C8 9017   0.561   0.615  11.214  0.6999  0.6333 -0.0605
  608TMC3    O1 9018   0.657   0.906  10.794 -0.6368  0.4284 -0.0395
  608TMC3    O2 9019   0.678   0.584  11.225 -0.3384 -0.7570 -0.0441
  609TMC3    C1 9020   3.677   3.428   8.925 -0.3501 -0.0083 -0.1319
  609TMC3    C2 9021   3.654   3.488   8.802 -0.0036 -0.0110  0.6629
  609TMC3    C3 9022   3.678   3.395   8.697  0.1302  0.1623  0.1142
  609TMC3    C4 9023   3.716   3.295   8.941  0.5724  0.2447  0.6014
  609TMC3    C5 9024   3.743   3.217   8.837 -0.4380 -0.2488 -0.1472
  609TMC3    C6 9025   3.732   3.271   8.714  0.8906  0.6529 -0.1872
  609TMC3     C 9026   3.616   3.481   9.048 -0.6491  0.9215 -0.0412
  609TMC3     O 9027   3.540   3.403   9.104  0.3910 -0.2344  0.2564
  609TMC3     H 9028   3.600   3.581   8.794  0.7989  0.4891  1.0277
  609TMC3    H1 9029   3.745   3.271   9.043 -0.4372 -2.2756  0.2939
  609TMC3    H2 9030   3.772   3.216   8.630  1.3023  0.4852  0.1158
  609TMC3    C7 9031   3.804   3.085   8.844  0.0421 -0.2468 -0.1495
  609TMC3    C8 9032   3.626   3.418   8.566 -0.0580 -0.3711 -0.0045
  609TMC3    O1 9033   3.880   3.056   8.751 -0.1377  0.1529  0.2766
  609TMC3    O2 9034   3.690   3.361   8.477  0.1127 -0.3644  0.3824
  610TMC3    C1 9035   0.105   0.337  12.289 -0.7185 -0.7380  0.5645
  610TMC3    C2 9036   0.140   0.316  12.157  0.3061 -0.1031  0.0630
  610TMC3    C3 9037   0.223   0.210  12.126  0.4165  0.3893  0.1658
  610TMC3    C4 9038   0.147   0.250  12.385 -0.5226 -0.6357 -0.7592
  610TMC3    C5 9039   0.241   0.157  12.353  0.7620  0.5829  0.0297
  610TMC3    C6 9040   0.277   0.130  12.225 -0.0614 -0.2851  0.4248
  610TMC3     C 9041   4.700   0.395  12.333  0.7446 -0.2128 -0.2899
  610TMC3     O 9042   4.619   0.324  12.397 -0.3125  0.0659  0.1423
  610TMC3     H 9043   0.104   0.383  12.079  0.3297  0.1366  0.2588
  610TMC3    H1 9044   0.106   0.247  12.486  1.8633 -0.6019  0.2012
  610TMC3    H2 9045   0.340   0.050  12.187 -0.0331  0.5415 -1.2736
  610TMC3    C7 9046   0.281   0.048  12.446 -0.3524 -0.2048  0.4359
  610TMC3    C8 9047   0.249   0.193  11.986  0.0720  0.2153  0.1023
  610TMC3    O1 9048   0.278   4.656  12.405 -0.4450  0.0175 -0.3356
  610TMC3    O2 9049   0.254   0.298  11.922  0.0725 -0.3362  0.2542
  611MPD2     C 9050   3.851   0.726   9.391 -0.0775  0.2572 -0.0742
  611MPD2    C1 9051   3.835   0.603   9.454 -0.2769  0.7484  0.6640
  611MPD2    C2 9052   3.899   0.489   9.400 -0.3316  0.4874  0.3201
  611MPD2    C3 9053   3.974   0.499   9.284  0.2346 -0.4644  0.1817
  611MPD2    C4 9054   3.992   0.622   9.232 -0.4842 -0.4021  0.5887
  611MPD2    C5 9055   3.945   0.732   9.292 -0.1793  0.8217 -1.2872
  611MPD2     H 9056   3.879   0.392   9.445 -0.9005  0.2900 -0.3664
  611MPD2    H1 9057   4.058   0.637   9.148  2.0334 -2.2382  2.2506
  611MPD2    H2 9058   3.805   0.819   9.424  1.1080  0.2656  1.5369
  611MPD2    H3 9059   3.963   0.827   9.243 -0.6043  2.0353  0.8957
  611MPD2     N 9060   4.030   0.390   9.219  0.0229  0.2374 -0.2333
  611MPD2    H5 9061   4.061   0.405   9.124 -0.3795  1.2854 -0.1964
  611MPD2    N1 9062   3.747   0.606   9.556 -0.1452 -0.1544 -0.2824
  611MPD2    H7 9063   3.725   0.699   9.591 -1.4350 -0.3333 -0.6040
  612TMC3    C1 9064   4.105   0.175   9.183 -0.5964  0.1937 -0.1465
  612TMC3    C2 9065   4.156   0.062   9.237 -0.8981  0.0843  0.1514
  612TMC3    C3 9066   4.176   4.674   9.156 -0.2926  0.6639 -0.4809
  612TMC3    C4 9067   4.060   0.180   9.056  0.1034  0.2695 -0.1416
  612TMC3    C5 9068   4.068   0.063   8.984  0.1359  0.3303  0.0378
  612TMC3    C6 9069   4.128   4.671   9.032  0.5102  0.7492  0.3760
  612TMC3     C 9070   4.057   0.270   9.275 -0.0988 -0.8412  0.2060
  612TMC3     O 9071   4.044   0.235   9.395 -0.5345  0.0701  0.4536
  612TMC3     H 9072   4.182   0.066   9.342  1.4994  1.0177 -0.4696
  612TMC3    H1 9073   4.012   0.270   9.020  0.5975  1.0039  1.0274
  612TMC3    H2 9074   4.135   4.583   8.969  1.4235  1.2267 -0.1851
  612TMC3    C7 9075   3.962   0.045   8.878 -0.4627 -0.6061 -0.4950
  612TMC3    C8 9076   4.268   4.572   9.199  0.2399  0.0627 -0.5948
  612TMC3    O1 9077   3.944   4.655   8.841  0.0889 -0.5009 -0.0231
  612TMC3    O2 9078   4.309   4.491   9.115 -0.4254  0.1283 -0.2501
  613MPD2     C 9079   3.449   2.956  15.939  0.7104 -0.1807  0.4176
  613MPD2    C1 9080   3.516   2.877  15.851 -0.3292  0.0547 -0.1644
  613MPD2    C2 9081   3.478   2.748  15.845  0.4572 -0.0338  0.7506
  613MPD2    C3 9082   3.377   2.696  15.930 -0.0351  0.7560 -0.3410
  613MPD2    C4 9083   3.310   2.775  16.017 -0.0629  0.1380 -0.9097
  613MPD2    C5 9084   3.348   2.907  16.027 -0.3088 -0.3054  0.3180
  613MPD2     H 9085   3.526   2.678  15.778 -3.4832 -3.5752  1.6153
  613MPD2    H1 9086   3.226   2.742  16.077 -0.0181 -1.2064 -1.5873
  613MPD2    H2 9087   3.476   3.060  15.947  0.7065 -0.3908  3.1678
  613MPD2    H3 9088   3.291   2.978  16.087 -0.4888  0.4174 -0.7135
  613MPD2     N 9089   3.345   2.564  15.907 -0.2645 -0.1117 -0.1332
  613MPD2    H5 9090   3.399   2.520  15.834 -0.0523 -0.3068  0.1444
  613MPD2    N1 9091   3.615   2.933  15.756 -0.1818  0.1168 -0.2168
  613MPD2    H7 9092   3.640   3.030  15.771  0.4862  0.0118 -0.6485
  614TMC3    C1 9093   3.740   2.939  15.550 -0.6969  0.4458  0.5919
  614TMC3    C2 9094   3.800   2.857  15.463 -0.0086  0.3603 -0.2696
  614TMC3    C3 9095   3.780   2.870  15.331 -0.5568 -0.6714  0.0773
  614TMC3    C4 9096   3.664   3.043  15.507  0.0749 -0.0461  0.2241
  614TMC3    C5 9097   3.633   3.044  15.375 -0.0344  0.2912 -0.0267
  614TMC3    C6 9098   3.698   2.960  15.283 -0.3484  0.1456 -0.2855
  614TMC3     C 9099   3.682   2.863  15.659  0.2716 -0.2521 -0.0581
  614TMC3     O 9100   3.702   2.741  15.655 -0.3016  0.1269  0.4231
  614TMC3     H 9101   3.868   2.779  15.496 -2.2819 -0.9100  1.4300
  614TMC3    H1 9102   3.609   3.110  15.571  0.8206  1.6431 -0.8747
  614TMC3    H2 9103   3.663   2.960  15.181 -2.5655  2.8962  0.4765
  614TMC3    C7 9104   3.508   3.119  15.334 -0.2034 -0.9845 -0.3348
  614TMC3    C8 9105   3.764   2.741  15.264 -0.5919 -1.0590  0.6543
  614TMC3    O1 9106   3.470   3.217  15.392 -0.1154 -0.1865  0.5727
  614TMC3    O2 9107   3.771   2.743  15.139 -0.2614 -0.4150 -0.3330
  615MPD2     C 9108   2.271   4.090  16.511  0.2271  0.1584  0.4373
  615MPD2    C1 9109   2.401   4.140  16.496 -0.5445 -0.1190 -0.3507
  615MPD2    C2 9110   2.472   4.108  16.380  0.1061  0.0461 -0.1848
  615MPD2    C3 9111   2.415   4.035  16.278 -0.0187  0.1762 -0.2491
  615MPD2    C4 9112   2.281   3.995  16.288 -0.3671  0.5485  0.6219
  615MPD2    C5 9113   2.216   4.026  16.407 -0.3868  0.2347  0.1143
  615MPD2     H 9114   2.573   4.146  16.370  0.4795 -1.1268 -0.9881
  615MPD2    H1 9115   2.226   3.951  16.206 -0.5402 -0.7029  1.4076
  615MPD2    H2 9116   2.223   4.096  16.608  1.7036 -1.3717  1.2535
  615MPD2    H3 9117   2.112   3.998  16.425 -0.1473 -0.7040  0.0378
  615MPD2     N 9118   2.492   4.002  16.162 -0.8189  0.2756  0.9359
  615MPD2    H5 9119   2.440   3.965  16.083  1.5561  1.3886 -1.1601
  615MPD2    N1 9120   2.486   4.199  16.589  0.1407 -0.4995 -0.4078
  615MPD2    H7 9121   2.585   4.208  16.566  0.0098  2.0838  0.0429
  616TMC3    C1 9122   2.545   4.300  16.791 -0.3568 -0.2111 -0.9028
  616TMC3    C2 9123   2.656   4.358  16.721  0.4768  0.4492 -0.1352
  616TMC3    C3 9124   2.764   4.381  16.803  0.7136  0.1433 -0.1190
  616TMC3    C4 9125   2.541   4.275  16.928 -0.5038 -0.0420  0.1664
  616TMC3    C5 9126   2.653   4.305  16.993 -0.2953 -1.0917 -0.5420
  616TMC3    C6 9127   2.769   4.348  16.933 -0.3675  0.4189 -0.2225
  616TMC3     C 9128   2.445   4.227  16.715  0.3455  0.4226  0.2404
  616TMC3     O 9129   2.355   4.172  16.781  0.4703  0.0803 -0.3207
  616TMC3     H 9130   2.672   4.358  16.613  1.1490 -0.5419 -0.0312
  616TMC3    H1 9131   2.457   4.234  16.983  0.3854 -1.7388  0.2658
  616TMC3    H2 9132   2.869   4.349  16.975 -0.5826  0.3173  0.2829
  616TMC3    C7 9133   2.665   4.243  17.124 -0.6053  0.1539  0.0582
  616TMC3    C8 9134   2.879   4.455  16.747  0.5076  0.3355  0.1701
  616TMC3    O1 9135   2.589   4.155  17.158 -0.3174  0.0253 -0.4357
  616TMC3    O2 9136   2.985   4.454  16.805 -0.8768 -0.4429  0.3107
  617MPD2     C 9137   0.562   2.147  13.011  0.7858  0.0359  0.1383
  617MPD2    C1 9138   0.537   2.166  13.143 -0.2358  0.2034 -0.6307
  617MPD2    C2 9139   0.450   2.080  13.211 -0.9668  0.4651  0.4573
  617MPD2    C3 9140   0.392   1.969  13.148  0.7117  0.0487  0.6716
  617MPD2    C4 9141   0.426   1.948  13.017 -0.2699 -0.0245 -0.7120
  617MPD2    C5 9142   0.513   2.036  12.953  0.5719  0.1936 -0.4198
  617MPD2     H 9143   0.419   2.099  13.313  0.5564 -0.1204  1.0300
  617MPD2    H1 9144   0.393   1.863  12.959  0.0619 -1.0256  0.5648
  617MPD2    H2 9145   0.625   2.219  12.959  2.3999 -1.1988  0.3852
  617MPD2    H3 9146   0.548   2.013  12.853  3.2358 -1.0667  0.8197
  617MPD2     N 9147   0.314   1.870  13.214  0.0256 -0.4769 -0.1511
  617MPD2    H5 9148   0.276   1.797  13.155  1.6935  0.5704 -2.5178
  617MPD2    N1 9149   0.602   2.266  13.213  0.4861  0.6337 -0.0102
  617MPD2    H7 9150   0.677   2.313  13.164  1.9286 -1.4811  0.1576
  618TMC3    C1 9151   0.716   2.379  13.381  0.2326 -0.6053  0.4220
  618TMC3    C2 9152   0.795   2.338  13.491  0.3198 -0.2308  0.0974
  618TMC3    C3 9153   0.930   2.356  13.480  1.0372 -0.1134  0.3325
  618TMC3    C4 9154   0.771   2.466  13.288 -0.5426  0.3261  0.3382
  618TMC3    C5 9155   0.906   2.480  13.279 -0.2494 -0.6198 -0.1258
  618TMC3    C6 9156   0.990   2.434  13.378 -0.0343  0.1096 -0.4853
  618TMC3     C 9157   0.606   2.291  13.344  0.3738 -0.3346  0.5540
  618TMC3     O 9158   0.542   2.244  13.440  0.9273 -0.2854  0.0659
  618TMC3     H 9159   0.756   2.257  13.552  0.6157 -0.7022 -0.3284
  618TMC3    H1 9160   0.701   2.501  13.213 -0.8673  2.6168  1.7294
  618TMC3    H2 9161   1.091   2.472  13.376  1.4312 -3.7045  0.1967
  618TMC3    C7 9162   0.939   2.418  13.146  0.9457  0.7493 -0.6707
  618TMC3    C8 9163   1.007   2.278  13.575 -0.2400  0.0220 -0.0344
  618TMC3    O1 9164   0.848   2.367  13.085 -0.1476 -0.6551  0.1819
  618TMC3    O2 9165   0.947   2.209  13.659 -0.2523 -0.1173 -0.1701
  619MPD2     C 9166   1.948   3.022  13.987  0.1194  0.3184 -0.0544
  619MPD2    C1 9167   1.920   3.105  13.887  0.0592 -0.1478  0.0701
  619MPD2    C2 9168   1.787   3.132  13.853  0.0695  0.8355  0.3375
  619MPD2    C3 9169   1.676   3.071  13.914  0.1723 -0.1207 -0.2473
  619MPD2    C4 9170   1.709   2.979  14.004  0.2034  0.2430  0.3018
  619MPD2    C5 9171   1.840   2.958  14.035  0.1545 -0.0516 -0.0983
  619MPD2     H 9172   1.770   3.204  13.773  1.4112  0.1103 -0.6029
  619MPD2    H1 9173   1.631   2.916  14.045  0.8171 -0.0738  0.9638
  619MPD2    H2 9174   2.045   2.990  14.024  0.8814 -0.6703 -2.8931
  619MPD2    H3 9175   1.867   2.889  14.114  0.1458 -0.7612 -0.7195
  619MPD2     N 9176   1.544   3.097  13.886 -0.8692 -0.0703  0.0849
  619MPD2    H5 9177   1.476   3.026  13.914  0.0978  0.0086  2.6368
  619MPD2    N1 9178   2.017   3.172  13.813 -0.0441  0.2937 -0.0575
  619MPD2    H7 9179   1.975   3.226  13.738  2.7249  0.4858 -1.4627
  620TMC3    C1 9180   2.208   3.258  13.724 -0.2560 -0.3134  0.6686
  620TMC3    C2 9181   2.123   3.286  13.620  0.0984 -0.4245 -0.4323
  620TMC3    C3 9182   2.115   3.410  13.569 -0.2289 -0.1826 -0.2549
  620TMC3    C4 9183   2.286   3.358  13.775 -0.0302 -0.0910 -0.1298
  620TMC3    C5 9184   2.251   3.486  13.734  0.1070  0.6349  0.8234
  620TMC3    C6 9185   2.179   3.513  13.625 -0.4786  0.0251  0.4113
  620TMC3     C 9186   2.153   3.163  13.822 -0.1989 -0.1177  0.0204
  620TMC3     O 9187   2.224   3.126  13.919  0.0148 -0.4614  0.0681
  620TMC3     H 9188   2.087   3.196  13.570  0.0715  0.3458 -1.8056
  620TMC3    H1 9189   2.346   3.341  13.864 -1.6947 -0.6650  0.9008
  620TMC3    H2 9190   2.169   3.615  13.588 -0.6770 -1.3169 -3.2051
  620TMC3    C7 9191   2.299   3.598  13.791 -0.0597 -0.2480 -0.2433
  620TMC3    C8 9192   1.990   3.454  13.510 -0.1679 -0.0204  0.2890
  620TMC3    O1 9193   2.419   3.592  13.818  0.3386 -0.1521 -0.9078
  620TMC3    O2 9194   1.979   3.573  13.492 -0.4171  0.3066 -0.1052
  621MPD2     C 9195   2.498   2.683  10.465  0.3127  0.0991 -0.2985
  621MPD2    C1 9196   2.623   2.626  10.428 -0.1601 -0.3173 -0.3313
  621MPD2    C2 9197   2.714   2.708  10.366 -0.1703  0.2187  0.3521
  621MPD2    C3 9198   2.687   2.840  10.349  0.1818  0.5231 -0.0405
  621MPD2    C4 9199   2.565   2.888  10.385  0.8982 -0.8637 -0.4904
  621MPD2    C5 9200   2.472   2.815  10.443  0.1430 -0.5259 -0.2076
  621MPD2     H 9201   2.811   2.677  10.330  0.3254  0.0481  1.8173
  621MPD2    H1 9202   2.542   2.994  10.383 -1.1913 -1.3234 -0.7816
  621MPD2    H2 9203   2.419   2.615  10.496  0.1257  0.7900  0.7416
  621MPD2    H3 9204   2.376   2.856  10.472  0.6536  0.4463  0.1176
  621MPD2     N 9205   2.784   2.913  10.278 -0.1065  0.3435  0.2293
  621MPD2    H5 9206   2.863   2.857  10.247  0.4840 -0.6503  3.5157
  621MPD2    N1 9207   2.657   2.491  10.438  0.1268 -0.8479  0.1759
  621MPD2    H7 9208   2.750   2.466  10.406 -0.6361  0.0445 -2.7289
  622TMC3    C1 9209   2.608   2.257  10.445  0.0135 -0.3885 -0.7496
  622TMC3    C2 9210   2.515   2.173  10.509  0.2352  0.0315 -0.0620
  622TMC3    C3 9211   2.457   2.070  10.440  0.0164 -0.7216  0.5758
  622TMC3    C4 9212   2.654   2.229  10.318 -0.2255  0.1606  0.0778
  622TMC3    C5 9213   2.615   2.110  10.258 -0.0369  1.1093  0.2959
  622TMC3    C6 9214   2.520   2.030  10.318 -0.3470 -0.3315 -0.2343
  622TMC3     C 9215   2.576   2.395  10.492  0.1998  0.3231 -0.1355
  622TMC3     O 9216   2.472   2.413  10.553 -0.1172 -0.3381  0.5623
  622TMC3     H 9217   2.487   2.200  10.610  0.0298  2.0789 -0.6679
  622TMC3    H1 9218   2.719   2.302  10.271 -0.3748  0.8717  0.9816
  622TMC3    H2 9219   2.477   1.944  10.269 -0.0444 -1.9203  2.2675
  622TMC3    C7 9220   2.654   2.077  10.120  0.2201 -0.5918 -0.1427
  622TMC3    C8 9221   2.313   2.074  10.431 -0.5537  1.2775  0.6175
  622TMC3    O1 9222   2.639   1.956  10.092  0.7429 -0.5265 -0.3111
  622TMC3    O2 9223   2.251   1.983  10.374 -0.3022  0.2261  0.3030
  623MPD2     C 9224   1.221   4.351  15.883  0.6070 -0.2477  0.2602
  623MPD2    C1 9225   1.154   4.385  15.997  0.1052 -0.1492 -0.0279
  623MPD2    C2 9226   1.221   4.397  16.121 -0.2883 -0.4520 -0.8449
  623MPD2    C3 9227   1.355   4.366  16.128  0.4480 -0.3852 -0.3135
  623MPD2    C4 9228   1.417   4.326  16.015 -0.3955 -0.0172  0.7250
  623MPD2    C5 9229   1.356   4.327  15.892 -0.0494  0.6288 -0.5580
  623MPD2     H 9230   1.162   4.432  16.204  0.6477 -0.0032 -0.3632
  623MPD2    H1 9231   1.524   4.305  16.017 -0.2189  0.5049 -2.1035
  623MPD2    H2 9232   1.179   4.360  15.784 -0.4771  0.1061  0.7560
  623MPD2    H3 9233   1.420   4.298  15.810  1.9819 -1.2458  1.7003
  623MPD2     N 9234   1.416   4.371  16.255  0.0387  0.5311  0.3108
  623MPD2    H5 9235   1.353   4.386  16.334 -0.7501 -1.2897  0.0102
  623MPD2    N1 9236   1.020   4.426  15.993  0.7540  0.6725  0.3202
  623MPD2    H7 9237   0.965   4.441  16.078 -0.1767 -0.3474 -0.1064
  624TMC3    C1 9238   1.665   4.149  16.586  0.3338  0.9060 -0.3503
  624TMC3    C2 9239   1.566   4.186  16.676 -0.0639 -0.5700 -0.3687
  624TMC3    C3 9240   1.488   4.289  16.642 -0.0053  0.2783 -0.5511
  624TMC3    C4 9241   1.670   4.207  16.465  0.1411  0.7019 -0.9009
  624TMC3    C5 9242   1.578   4.305  16.427 -0.4306  0.4528 -0.0680
  624TMC3    C6 9243   1.490   4.352  16.521  0.6287 -0.6864  0.7985
  624TMC3     C 9244   1.777   4.066  16.627 -0.3311 -0.1678  0.3568
  624TMC3     O 9245   1.784   4.052  16.749  0.4280  0.6184 -0.4910
  624TMC3     H 9246   1.577   4.149  16.778 -4.3998  2.6340  1.2688
  624TMC3    H1 9247   1.752   4.202  16.395  0.9723 -1.4744  0.2413
  624TMC3    H2 9248   1.425   4.435  16.498  0.4011 -0.8594  0.8179
  624TMC3    C7 9249   1.542   4.321  16.283  0.4215  0.1656  0.7052
  624TMC3    C8 9250   1.356   4.301  16.702  0.2159  0.5022 -0.0600
  624TMC3    O1 9251   1.634   4.318  16.203 -0.1760  0.4061 -0.1342
  624TMC3    O2 9252   1.271   4.352  16.632  0.4569 -0.2031 -0.2101
  625MPD2     C 9253   1.686   4.488   0.408  0.6408 -0.0671  0.3203
  625MPD2    C1 9254   1.756   4.592   0.461  0.2517  0.6700 -0.4972
  625MPD2    C2 9255   1.833   4.582   0.570  0.6655 -0.1681  1.2066
  625MPD2    C3 9256   1.842   4.466   0.642  0.2760 -0.2779 -0.7668
  625MPD2    C4 9257   1.774   4.360   0.592 -0.1863  0.2865  0.0267
  625MPD2    C5 9258   1.691   4.371   0.482  0.0738  0.2163 -0.5928
  625MPD2     H 9259   1.890   4.669   0.600  0.8799  0.0285  0.2583
  625MPD2    H1 9260   1.770   4.265   0.644  1.4758  0.4638  0.4982
  625MPD2    H2 9261   1.635   4.494   0.313 -1.0925  0.5098  1.2651
  625MPD2    H3 9262   1.637   4.284   0.447 -0.2230 -1.2241  3.4828
  625MPD2     N 9263   1.928   4.457   0.747 -0.0171 -0.3356 -0.2050
  625MPD2    H5 9264   1.965   4.548   0.771  0.8107 -0.0311 -2.5900
  625MPD2    N1 9265   1.758   4.718   0.397 -0.6141  0.3799  0.5636
  625MPD2    H7 9266   1.825   0.067   0.423  0.7481 -0.3606 -0.8727
  626TMC3    C1 9267   1.680   0.182   0.291  0.5021  0.4103  0.6724
  626TMC3    C2 9268   1.644   0.237   0.171 -0.6708 -0.3642  0.2148
  626TMC3    C3 9269   1.668   0.371   0.153  0.2072  0.2752  0.0712
  626TMC3    C4 9270   1.748   0.252   0.388 -0.3508 -0.7138 -0.3803
  626TMC3    C5 9271   1.768   0.384   0.364  0.4455  0.4327 -0.0456
  626TMC3    C6 9272   1.739   0.443   0.245  0.3810 -0.0340  0.4537
  626TMC3     C 9273   1.672   0.038   0.298 -0.2776  0.1268  0.3258
  626TMC3     O 9274   1.586   4.701   0.232 -0.0417 -0.1548  0.1517
  626TMC3     H 9275   1.585   0.176   0.104  0.5933  0.7940 -1.9300
  626TMC3    H1 9276   1.765   0.205   0.484 -0.7026 -1.2764 -0.5928
  626TMC3    H2 9277   1.773   0.541   0.217  2.3848  0.2190  3.7681
  626TMC3    C7 9278   1.786   0.469   0.477  0.3016  0.2452  0.1164
  626TMC3    C8 9279   1.667   0.429   0.025 -0.0382 -0.2917 -0.2011
  626TMC3    O1 9280   1.860   0.439   0.571 -0.1793  0.4509  0.2386
  626TMC3    O2 9281   1.666   0.551   0.013 -0.1530 -0.3536 -0.5397
  627MPD2     C 9282   0.076   0.932  13.799  0.0309  0.6704  0.1617
  627MPD2    C1 9283   0.161   0.867  13.890 -0.2385 -0.1873 -0.1507
  627MPD2    C2 9284   0.125   0.757  13.960  0.7628  0.2411  0.2001
  627MPD2    C3 9285   4.722   0.705  13.943  0.4079  0.1492  0.2683
  627MPD2    C4 9286   4.632   0.762  13.854 -0.1889  0.0550  0.4804
  627MPD2    C5 9287   4.670   0.880  13.786  0.3436  0.1408 -0.2055
  627MPD2     H 9288   0.183   0.703  14.034 -0.6778 -2.2441 -0.4579
  627MPD2    H1 9289   4.533   0.723  13.833 -0.2468  0.5136 -0.0967
  627MPD2    H2 9290   0.109   1.027  13.756  0.3705  0.5572  0.1703
  627MPD2    H3 9291   4.602   0.916  13.710  0.8980  0.1129 -0.7190
  627MPD2     N 9292   4.695   0.603  14.034 -0.0775  0.1000  0.1697
  627MPD2    H5 9293   0.041   0.580  14.105 -0.1967 -1.3832 -0.1934
  627MPD2    N1 9294   0.285   0.929  13.927 -0.3283 -0.6291 -0.5860
  627MPD2    H7 9295   0.301   1.023  13.892 -1.2340 -0.2927 -0.0970
  628TMC3    C1 9296   0.498   0.958  14.045 -0.0569 -0.1715  0.8615
  628TMC3    C2 9297   0.614   0.900  14.086 -0.5014  0.0092  0.4847
  628TMC3    C3 9298   0.684   0.968  14.180  0.1911  0.5624 -0.0878
  628TMC3    C4 9299   0.467   1.086  14.071  0.3098  0.8485 -0.3559
  628TMC3    C5 9300   0.548   1.152  14.162  0.1972 -0.3667 -0.0072
  628TMC3    C6 9301   0.649   1.092  14.227 -0.3826  0.1636 -0.0631
  628TMC3     C 9302   0.392   0.870  14.002 -0.3146  0.6202 -0.2693
  628TMC3     O 9303   0.403   0.749  14.032  1.0719 -0.3386 -0.1535
  628TMC3     H 9304   0.643   0.799  14.058 -2.3466  0.1152 -1.7923
  628TMC3    H1 9305   0.372   1.124  14.036  0.2147 -0.3672 -1.4348
  628TMC3    H2 9306   0.720   1.171  14.250  0.1202 -0.6459  1.1835
  628TMC3    C7 9307   0.530   1.287  14.195  0.2565 -0.1106  0.0744
  628TMC3    C8 9308   0.814   0.904  14.217 -0.0299  0.5813 -0.5634
  628TMC3    O1 9309   0.557   1.330  14.308 -0.7508 -0.2347  0.1354
  628TMC3    O2 9310   0.854   0.815  14.148 -0.4497 -0.5852  0.6634
  629MPD2     C 9311   3.131   4.682  16.358  0.0049  0.8343 -0.5109
  629MPD2    C1 9312   3.176   4.581  16.448  0.7653  0.5317  0.2357
  629MPD2    C2 9313   3.080   4.523  16.533 -0.0354  0.3691 -0.0232
  629MPD2    C3 9314   2.948   4.566  16.532  0.4702 -0.2463 -0.4009
  629MPD2    C4 9315   2.904   4.651  16.434 -0.6539  0.4919 -0.3283
  629MPD2    C5 9316   2.995   4.714  16.352  0.1129 -0.7585  0.3507
  629MPD2     H 9317   3.108   4.448  16.607  0.8101  1.3043  0.6039
  629MPD2    H1 9318   2.804   4.693  16.442 -1.3028 -0.8243 -1.5422
  629MPD2    H2 9319   3.203   0.007  16.293  0.2882  0.1750 -0.6812
  629MPD2    H3 9320   2.961   0.079  16.298  0.4713 -0.4270  0.6686
  629MPD2     N 9321   2.851   4.508  16.621 -0.0059  0.6443  0.4136
  629MPD2    H5 9322   2.756   4.543  16.618 -0.9100 -1.7818  0.7541
  629MPD2    N1 9323   3.312   4.537  16.445  0.2848  0.2516  0.0997
  629MPD2    H7 9324   3.361   4.576  16.365  0.5864 -1.8210 -0.7265
  630TMC3    C1 9325   3.509   4.408  16.504 -0.4734  0.4342 -0.0631
  630TMC3    C2 9326   3.595   4.516  16.483  0.0698 -0.6895  0.3249
  630TMC3    C3 9327   3.722   4.478  16.476 -0.3574 -0.3345  0.9235
  630TMC3    C4 9328   3.548   4.274  16.491  0.2257 -0.0402 -0.3722
  630TMC3    C5 9329   3.681   4.248  16.490  0.4803  0.3330  0.8647
  630TMC3    C6 9330   3.771   4.353  16.490  0.1874 -0.5203  0.5210
  630TMC3     C 9331   3.365   4.432  16.518 -0.1760 -0.2885  0.3458
  630TMC3     O 9332   3.308   4.359  16.595 -0.8840  0.2143  0.3093
  630TMC3     H 9333   3.560   4.617  16.501  0.1980 -0.4967 -0.4961
  630TMC3    H1 9334   3.486   4.192  16.527 -1.7873  1.3357 -0.6604
  630TMC3    H2 9335   3.877   4.332  16.499  0.6988  1.9422  0.0790
  630TMC3    C7 9336   3.724   4.138  16.579  0.9831 -0.3566  0.1713
  630TMC3    C8 9337   3.823   4.576  16.504  0.3633 -0.2435  0.2914
  630TMC3    O1 9338   3.834   4.159  16.627  0.9201 -0.0860 -0.0706
  630TMC3    O2 9339   3.888   4.564  16.605 -0.2142 -0.0837 -0.0928
  631MPD2     C 9340   1.986   3.875  15.497  0.1777 -0.0340  0.0147
  631MPD2    C1 9341   2.082   3.949  15.424  0.1489 -0.0781 -0.7862
  631MPD2    C2 9342   2.219   3.944  15.462  0.2369  0.2650 -0.3247
  631MPD2    C3 9343   2.250   3.870  15.572 -0.6754 -0.1103  0.0923
  631MPD2    C4 9344   2.155   3.795  15.636  0.0945  0.8762 -0.4787
  631MPD2    C5 9345   2.029   3.804  15.608  0.4507 -0.4170 -0.0857
  631MPD2     H 9346   2.288   4.020  15.426  1.1078  0.2563  1.3183
  631MPD2    H1 9347   2.179   3.749  15.731 -2.6775 -2.7787 -1.5641
  631MPD2    H2 9348   1.880   3.872  15.473  0.4994 -0.3242 -1.3833
  631MPD2    H3 9349   1.965   3.733  15.659  0.2068  0.6503  1.1075
  631MPD2     N 9350   2.382   3.898  15.628  0.5754 -0.2454  0.1250
  631MPD2    H5 9351   2.447   3.967  15.591 -0.6677  0.5356 -0.6025
  631MPD2    N1 9352   2.030   4.051  15.333 -0.2610  0.0965 -0.1062
  631MPD2    H7 9353   1.931   4.062  15.316 -0.6483 -0.5450  1.7421
  632TMC3    C1 9354   2.034   4.227  15.177 -0.2144  0.0065  0.2735
  632TMC3    C2 9355   1.925   4.286  15.239  0.5041  0.6655 -0.2170
  632TMC3    C3 9356   1.893   4.407  15.189 -0.7955  0.3106 -0.3121
  632TMC3    C4 9357   2.108   4.279  15.078  0.4179 -0.4141  0.3175
  632TMC3    C5 9358   2.069   4.400  15.027 -0.5031  0.5012 -0.0476
  632TMC3    C6 9359   1.961   4.470  15.081  0.3606  0.5902 -0.6902
  632TMC3     C 9360   2.109   4.132  15.258 -0.3033  0.3520 -0.2020
  632TMC3     O 9361   2.228   4.128  15.238 -0.2055  0.1165  0.7477
  632TMC3     H 9362   1.861   4.235  15.309  1.4743 -0.2097  0.0250
  632TMC3    H1 9363   2.191   4.225  15.033 -1.1505 -1.5892 -1.2000
  632TMC3    H2 9364   1.937   4.566  15.037  2.8850  1.7481  0.4377
  632TMC3    C7 9365   2.146   4.466  14.925 -0.1695 -0.3834 -0.5368
  632TMC3    C8 9366   1.773   4.475  15.252  0.5259 -0.4636  0.9273
  632TMC3    O1 9367   2.084   4.512  14.833 -0.1078  0.2594 -0.5046
  632TMC3    O2 9368   1.739   4.442  15.363 -0.4319 -0.2116  0.3907
  633MPD2     C 9369   1.962   1.750  16.735  0.1063 -0.5191 -0.1190
  633MPD2    C1 9370   2.020   1.797  16.618  0.8661 -0.3518 -0.2425
  633MPD2    C2 9371   2.157   1.798  16.609  0.5363  0.0909 -0.0495
  633MPD2    C3 9372   2.235   1.751  16.714  0.0120  0.1648  0.2449
  633MPD2    C4 9373   2.177   1.702  16.828 -0.5315 -0.3009 -0.6116
  633MPD2    C5 9374   2.046   1.703  16.836  0.0080 -0.2409 -0.2017
  633MPD2     H 9375   2.205   1.843  16.523 -1.3587  0.0085 -1.1529
  633MPD2    H1 9376   2.234   1.679  16.917 -2.0747  1.8144  0.9279
  633MPD2    H2 9377   1.856   1.744  16.753 -0.2081  0.7171 -1.4688
  633MPD2    H3 9378   2.002   1.688  16.934 -3.2202 -0.2605 -1.6458
  633MPD2     N 9379   2.378   1.775  16.716 -0.7621 -0.3367  0.7085
  633MPD2    H5 9380   2.425   1.765  16.806  2.7621 -2.7849 -1.4171
  633MPD2    N1 9381   1.953   1.870  16.519 -0.7565  0.7355  0.7172
  633MPD2    H7 9382   2.017   1.918  16.456  0.5833 -0.2359  1.3539
  634TMC3    C1 9383   1.795   2.007  16.434  0.3440  0.2706 -0.0212
  634TMC3    C2 9384   1.853   1.981  16.314 -0.3032 -0.6143  0.6443
  634TMC3    C3 9385   1.824   2.076  16.223  0.4513  0.4167 -0.2208
  634TMC3    C4 9386   1.734   2.123  16.471 -0.8804 -0.2097  0.3106
  634TMC3    C5 9387   1.735   2.225  16.378  0.0011  0.2768 -0.6347
  634TMC3    C6 9388   1.770   2.195  16.245 -0.1540  0.5380  0.6104
  634TMC3     C 9389   1.823   1.920  16.542  0.4862  0.4600 -0.0798
  634TMC3     O 9390   1.750   1.917  16.639 -0.1376  0.6228 -0.3209
  634TMC3     H 9391   1.866   1.880  16.278 -1.1877  0.2100 -1.9635
  634TMC3    H1 9392   1.693   2.139  16.570 -0.8513  0.5784  0.2003
  634TMC3    H2 9393   1.771   2.270  16.166 -0.0797 -1.3975 -1.2123
  634TMC3    C7 9394   1.677   2.351  16.409 -0.2039  0.9378 -0.2495
  634TMC3    C8 9395   1.858   2.045  16.079 -0.0978  0.0515  0.4513
  634TMC3    O1 9396   1.639   2.420  16.314  0.0222 -0.4117 -0.6134
  634TMC3    O2 9397   1.776   2.093  15.995  0.4107 -0.0533 -0.1956
  635TMC3    C1 9398   2.156   3.062   0.218  0.0825 -0.1886  0.8250
  635TMC3    C2 9399   2.118   3.004   0.103  0.2314  0.2035 -0.3373
  635TMC3    C3 9400   2.073   2.875   0.108  0.1860  0.3871  0.2859
  635TMC3    C4 9401   2.134   3.002   0.338 -0.0722  0.4748 -0.3517
  635TMC3    C5 9402   2.080   2.872   0.344 -0.2263  0.2884  0.6254
  635TMC3    C6 9403   2.043   2.814   0.227  0.0259 -0.1968 -0.4243
  635TMC3     C 9404   2.162   3.204   0.232  0.0040  0.1817 -0.1362
  635TMC3     O 9405   2.216   3.242   0.334  0.3538  0.4102 -0.7818
  635TMC3     H 9406   2.129   3.055   0.008  2.4331  1.4265  0.5656
  635TMC3    H1 9407   2.158   3.056   0.430  2.0725 -1.7898  0.4149
  635TMC3    H2 9408   2.003   2.713   0.232 -0.6403  0.1032  0.2038
  635TMC3    C7 9409   2.153   2.794   0.442 -0.0348 -0.2524 -0.1408
  635TMC3    C8 9410   2.018   2.825  17.678 -0.8532 -0.1291  0.6655
  635TMC3    O1 9411   2.259   2.835   0.487  0.2656 -0.3135  0.1782
  635TMC3    O2 9412   1.974   2.905  17.600 -0.2057  0.7517  0.0698
  636MPD2     C 9413   2.557   2.478  15.462  0.5884  0.3688  0.2508
  636MPD2    C1 9414   2.627   2.561  15.547  0.5827 -0.0716 -0.1812
  636MPD2    C2 9415   2.744   2.526  15.602  0.1000 -0.0253  0.4912
  636MPD2    C3 9416   2.799   2.402  15.580 -0.2580 -0.3146  0.8035
  636MPD2    C4 9417   2.734   2.310  15.500 -0.3260  0.4170  0.3157
  636MPD2    C5 9418   2.614   2.349  15.444  0.4295 -0.4423 -0.3952
  636MPD2     H 9419   2.798   2.593  15.667 -0.3882 -0.9531  1.8548
  636MPD2    H1 9420   2.779   2.217  15.466 -2.2430 -0.2194 -0.5417
  636MPD2    H2 9421   2.454   2.498  15.433  0.2298 -1.6236  0.1429
  636MPD2    H3 9422   2.570   2.271  15.382  3.4872 -1.6938 -1.0231
  636MPD2     N 9423   2.917   2.384  15.649 -0.6279 -0.2786 -0.8203
  636MPD2    H5 9424   2.961   2.461  15.699  0.5312 -2.0037  0.8140
  636MPD2    N1 9425   2.571   2.678  15.604 -0.4229  0.5110 -0.4487
  636MPD2    H7 9426   2.624   2.729  15.674 -0.6445  0.2492 -0.0897
  637TMC3    C1 9427   3.107   2.273  15.736 -0.4125 -0.1254  0.2795
  637TMC3    C2 9428   3.110   2.356  15.844 -0.2820 -0.5141 -0.6769
  637TMC3    C3 9429   3.230   2.358  15.913  0.3571  0.2753 -0.0485
  637TMC3    C4 9430   3.214   2.229  15.670 -0.0947 -0.0795  0.0695
  637TMC3    C5 9431   3.340   2.249  15.732  0.0828 -0.7505 -0.7167
  637TMC3    C6 9432   3.345   2.311  15.857 -0.1911  0.3701  0.5273
  637TMC3     C 9433   2.984   2.261  15.658  0.7914  0.2378  0.7452
  637TMC3     O 9434   2.970   2.155  15.596  0.3215  0.7930 -0.2130
  637TMC3     H 9435   3.022   2.400  15.889  0.6990 -1.1627  1.8781
  637TMC3    H1 9436   3.211   2.198  15.567  0.2224 -1.3833  0.4485
  637TMC3    H2 9437   3.435   2.318  15.918 -0.9828 -0.0240  1.7289
  637TMC3    C7 9438   3.434   2.314  15.655 -0.2403  0.4388 -0.4396
  637TMC3    C8 9439   3.246   2.487  15.976 -0.0093  0.0801  0.1274
  637TMC3    O1 9440   3.473   2.420  15.705  0.2542  0.5816  0.2305
  637TMC3    O2 9441   3.149   2.531  16.034  0.1484 -0.1065  0.3826
  638MPD2     C 9442   2.291   2.015  14.566 -0.9522  0.4684  0.0794
  638MPD2    C1 9443   2.313   1.922  14.469 -0.1626  0.0694  0.2207
  638MPD2    C2 9444   2.278   1.789  14.503 -0.9312 -0.0844 -0.5018
  638MPD2    C3 9445   2.230   1.761  14.629 -0.2298  0.5758  0.1300
  638MPD2    C4 9446   2.217   1.859  14.720  0.2360 -0.4115 -0.1651
  638MPD2    C5 9447   2.255   1.990  14.691 -0.4674  0.5644  0.3647
  638MPD2     H 9448   2.286   1.701  14.439 -0.1443 -0.3646 -0.0185
  638MPD2    H1 9449   2.189   1.841  14.823  2.8198 -2.1721  0.2364
  638MPD2    H2 9450   2.319   2.117  14.544  1.6875  0.0732  1.6404
  638MPD2    H3 9451   2.251   2.061  14.773  0.7824 -1.1729  1.9118
  638MPD2     N 9452   2.195   1.625  14.668 -0.0321 -0.6963  0.3255
  638MPD2    H5 9453   2.189   1.561  14.589  0.0308  0.0225 -0.2610
  638MPD2    N1 9454   2.371   1.962  14.348  0.2100 -1.4385 -0.3133
  638MPD2    H7 9455   2.406   2.057  14.346 -0.2802 -1.2859 -1.3493
  639TMC3    C1 9456   2.161   1.439  14.793 -0.3319  0.1196  0.0445
  639TMC3    C2 9457   2.142   1.392  14.663  0.7493 -0.1326  0.2089
  639TMC3    C3 9458   2.226   1.296  14.618 -0.9520 -0.2249  0.1682
  639TMC3    C4 9459   2.252   1.375  14.872  0.4009 -0.0741  0.9884
  639TMC3    C5 9460   2.359   1.302  14.811 -0.2134  0.6299  0.2513
  639TMC3    C6 9461   2.338   1.261  14.688 -0.4634 -0.3076  0.0017
  639TMC3     C 9462   2.179   1.583  14.796  0.0073  0.0877 -0.3877
  639TMC3     O 9463   2.219   1.635  14.899 -0.3433 -0.2387  0.2077
  639TMC3     H 9464   2.066   1.428  14.596  0.5106 -1.1090 -0.0473
  639TMC3    H1 9465   2.258   1.403  14.976 -1.2213 -0.9655  1.3273
  639TMC3    H2 9466   2.404   1.185  14.647  1.5341  0.8432  1.0586
  639TMC3    C7 9467   2.434   1.213  14.896  1.1975 -0.5305 -0.8527
  639TMC3    C8 9468   2.205   1.217  14.495 -0.8418 -0.0106  0.1193
  639TMC3    O1 9469   2.385   1.195  15.008  0.6966 -0.1988 -0.1822
  639TMC3    O2 9470   2.301   1.149  14.460  0.1406 -0.0251 -0.3263
  640MPD2     C 9471   3.500   4.010   9.995 -0.6265  0.8364  0.8736
  640MPD2    C1 9472   3.527   4.003   9.864 -0.0048  0.3035 -0.2884
  640MPD2    C2 9473   3.453   4.079   9.771  1.0246  0.4790  0.1649
  640MPD2    C3 9474   3.359   4.169   9.818 -0.2409  0.0276 -0.6295
  640MPD2    C4 9475   3.319   4.156   9.952 -0.6833 -0.4495  0.4540
  640MPD2    C5 9476   3.382   4.071  10.037 -0.0490 -0.0526 -0.4316
  640MPD2     H 9477   3.474   4.081   9.665 -1.8827  1.6227 -0.3894
  640MPD2    H1 9478   3.241   4.219   9.993  0.0355  1.8479 -1.6998
  640MPD2    H2 9479   3.572   3.973  10.067  2.6470 -0.7499 -3.1762
  640MPD2    H3 9480   3.352   4.066  10.141  1.2131  2.4406  0.0628
  640MPD2     N 9481   3.268   4.246   9.735 -0.6650 -0.0327  0.3128
  640MPD2    H5 9482   3.177   4.264   9.776 -0.3286  0.1652  0.9797
  640MPD2    N1 9483   3.637   3.933   9.817 -0.2034 -0.4661 -0.4996
  640MPD2    H7 9484   3.691   3.872   9.878  3.2116  0.6137 -2.4687
  641TMC3    C1 9485   3.798   3.847   9.656  0.0420 -0.3903 -0.0156
  641TMC3    C2 9486   3.813   3.742   9.736  0.4772 -0.6684 -0.0897
  641TMC3    C3 9487   3.913   3.659   9.697 -0.5373 -0.2881 -0.4103
  641TMC3    C4 9488   3.861   3.879   9.544 -0.1635  0.4358  0.5710
  641TMC3    C5 9489   3.959   3.790   9.506 -0.2808  0.3789 -0.1576
  641TMC3    C6 9490   3.987   3.680   9.582  0.2078 -0.3413 -0.4902
  641TMC3     C 9491   3.704   3.950   9.694  0.3606  0.4740 -0.5259
  641TMC3     O 9492   3.682   4.039   9.617 -0.3259  0.4327  0.1661
  641TMC3     H 9493   3.753   3.734   9.827  0.7584  0.8012  0.2268
  641TMC3    H1 9494   3.839   3.967   9.484  1.7849 -0.6686 -1.7517
  641TMC3    H2 9495   4.061   3.605   9.560  0.8268 -0.1487  0.9203
  641TMC3    C7 9496   4.014   3.806   9.376 -0.0127  0.0987  0.0848
  641TMC3    C8 9497   3.910   3.527   9.754  0.2471  0.6776  0.3280
  641TMC3    O1 9498   3.977   3.896   9.305 -0.7097 -0.4033 -0.1778
  641TMC3    O2 9499   3.968   3.445   9.684  0.3362  0.1521  0.1732
  642TMC3    C1 9500   4.303   1.336  11.915 -0.0212  0.4255 -0.2363
  642TMC3    C2 9501   4.390   1.336  12.026 -0.1693 -0.2068 -0.1056
  642TMC3    C3 9502   4.462   1.229  12.054 -0.1672 -0.1278 -0.2788
  642TMC3    C4 9503   4.279   1.231  11.831  0.0916 -0.1274 -0.5514
  642TMC3    C5 9504   4.348   1.116  11.876 -0.8818 -0.3797  0.4783
  642TMC3    C6 9505   4.443   1.118  11.975 -0.6212 -0.1898 -0.4007
  642TMC3     C 9506   4.237   1.460  11.883 -0.6964 -0.4405  0.1181
  642TMC3     O 9507   4.227   1.480  11.763  0.0076 -0.5597  0.0287
  642TMC3     H 9508   4.398   1.428  12.082 -2.1699 -0.4149  0.5067
  642TMC3    H1 9509   4.207   1.231  11.750  0.8842 -1.5678 -1.2423
  642TMC3    H2 9510   4.506   1.031  11.986 -2.4572 -1.4811 -0.1779
  642TMC3    C7 9511   4.318   0.989  11.818 -0.8335  0.3025  0.6051
  642TMC3    C8 9512   4.572   1.229  12.145  0.4037 -0.0381  0.0216
  642TMC3    O1 9513   4.279   0.979  11.698 -0.2816 -0.4043 -0.2465
  642TMC3    O2 9514   4.627   1.123  12.157 -0.4384 -0.2173  0.5228
  643TMC3    C1 9515   3.401   0.463   0.142 -0.5062 -0.3818  0.2428
  643TMC3    C2 9516   3.304   0.549   0.101  0.9477 -0.0562 -0.6173
  643TMC3    C3 9517   3.222   0.511  17.692 -0.5891  0.5156 -0.6126
  643TMC3    C4 9518   3.411   0.335   0.087  0.6267 -0.3333 -0.5231
  643TMC3    C5 9519   3.318   0.298  17.690 -0.2142  0.9753 -0.3167
  643TMC3    C6 9520   3.224   0.383  17.641  0.2353 -0.3070  0.3807
  643TMC3     C 9521   3.481   0.512   0.250  0.0403 -0.4507  0.6555
  643TMC3     O 9522   3.506   0.634   0.248 -0.0924  0.1379 -0.4160
  643TMC3     H 9523   3.298   0.651   0.136  0.9685 -1.3819  3.2221
  643TMC3    H1 9524   3.487   0.268   0.126  0.5585  1.1755  2.2104
  643TMC3    H2 9525   3.145   0.343  17.580  0.3684  0.6862 -0.4351
  643TMC3    C7 9526   3.306   0.153  17.682  0.3380 -0.9494  0.0548
  643TMC3    C8 9527   3.179   0.621  17.597 -0.0961  0.2234  0.0029
  643TMC3    O1 9528   3.331   0.100   0.093 -0.2544  0.6436  0.5477
  643TMC3    O2 9529   3.128   0.574  17.494 -0.1932  0.0589  0.4327
  644MPD2     C 9530   3.138   0.401   8.911  0.0940 -0.7379 -0.3945
  644MPD2    C1 9531   3.247   0.417   8.990 -0.1702  0.2840 -0.9415
  644MPD2    C2 9532   3.256   0.539   9.054  0.1289  0.6534  0.2744
  644MPD2    C3 9533   3.184   0.649   9.018 -0.9355  0.1344  0.1571
  644MPD2    C4 9534   3.077   0.629   8.929 -0.6893 -0.0480 -0.4621
  644MPD2    C5 9535   3.052   0.501   8.882  0.0488  0.5581 -0.3223
  644MPD2     H 9536   3.332   0.555   9.129 -0.6801 -0.8922  1.4142
  644MPD2    H1 9537   3.013   0.708   8.892  1.6308  1.4195 -1.3473
  644MPD2    H2 9538   3.131   0.307   8.858  0.4209 -0.7247 -0.4556
  644MPD2    H3 9539   2.975   0.477   8.809 -1.6313 -3.1623  2.6255
  644MPD2     N 9540   3.225   0.769   9.074 -0.3232 -0.0666  0.3235
  644MPD2    H5 9541   3.308   0.764   9.131  1.2292 -0.0620 -1.9282
  644MPD2    N1 9542   3.339   0.319   9.005 -0.4334  0.1563 -0.0302
  644MPD2    H7 9543   3.314   0.228   8.968  0.7732  0.5048 -1.6898
  645TMC3    C1 9544   3.240   0.999   9.121  0.0443 -0.2051  0.0584
  645TMC3    C2 9545   3.379   0.997   9.120 -0.4288  0.3016  0.0501
  645TMC3    C3 9546   3.445   1.113   9.141 -0.2919 -0.3494  0.1918
  645TMC3    C4 9547   3.171   1.114   9.143  0.2262  0.6791 -0.4881
  645TMC3    C5 9548   3.245   1.232   9.167 -0.0854 -0.4274 -0.2358
  645TMC3    C6 9549   3.383   1.236   9.167  0.1445 -0.0078 -0.0191
  645TMC3     C 9550   3.160   0.894   9.060 -0.2578  0.1206  0.1361
  645TMC3     O 9551   3.065   0.921   8.991 -0.0331 -0.2432  0.3805
  645TMC3     H 9552   3.435   0.909   9.087  1.2688  1.7539 -0.9370
  645TMC3    H1 9553   3.063   1.106   9.135  0.4520 -0.7547 -2.1808
  645TMC3    H2 9554   3.435   1.321   9.209  1.1880 -0.9265  0.5451
  645TMC3    C7 9555   3.171   1.350   9.212  1.4315  0.6857 -0.4377
  645TMC3    C8 9556   3.584   1.092   9.176 -0.3880 -0.3791 -0.0221
  645TMC3    O1 9557   3.237   1.451   9.212 -0.6353  0.0994  0.3290
  645TMC3    O2 9558   3.625   0.978   9.173  0.0217 -0.2513 -0.1344
  646MPD2     C 9559   2.896   0.463  14.294 -0.1512 -0.5448  0.1315
  646MPD2    C1 9560   2.763   0.448  14.336 -0.4990  0.0313  0.2254
  646MPD2    C2 9561   2.671   0.523  14.272 -0.0657 -0.1107  0.6063
  646MPD2    C3 9562   2.703   0.601  14.164  0.0360  0.2975 -0.2923
  646MPD2    C4 9563   2.836   0.622  14.127  0.2302  0.2470  0.0960
  646MPD2    C5 9564   2.937   0.553  14.196  0.2616  0.4749  0.6566
  646MPD2     H 9565   2.565   0.521  14.294 -0.2586  0.4215 -0.2721
  646MPD2    H1 9566   2.867   0.679  14.040 -0.6649  0.6245  0.0175
  646MPD2    H2 9567   2.971   0.404  14.346 -1.7592 -1.7652  1.0514
  646MPD2    H3 9568   3.042   0.567  14.175 -0.0623  0.0197 -1.2530
  646MPD2     N 9569   2.586   0.650  14.095 -0.3419  0.0062 -0.1075
  646MPD2    H5 9570   2.503   0.595  14.111 -0.3916  0.0134 -0.3397
  646MPD2    N1 9571   2.739   0.351  14.438 -0.2440  0.2696 -0.8220
  646MPD2    H7 9572   2.824   0.314  14.479  0.9410  2.3418 -1.4138
  647TMC3    C1 9573   2.641   0.263  14.621 -0.4277  0.2367  0.5857
  647TMC3    C2 9574   2.556   0.275  14.725  0.5964 -0.1651  0.6458
  647TMC3    C3 9575   2.594   0.233  14.846  0.3883 -0.9009  0.3714
  647TMC3    C4 9576   2.755   0.184  14.636  0.5315  0.2584  0.2222
  647TMC3    C5 9577   2.790   0.150  14.759 -0.1324  0.5604  0.5087
  647TMC3    C6 9578   2.719   0.188  14.867  0.0428 -0.2019  0.7772
  647TMC3     C 9579   2.617   0.324  14.500  0.2979 -0.2670  0.1976
  647TMC3     O 9580   2.505   0.364  14.475  0.1338 -0.5426 -0.2176
  647TMC3     H 9581   2.461   0.326  14.718 -0.0488 -1.4873 -0.2815
  647TMC3    H1 9582   2.808   0.149  14.548  1.3407  0.3421  0.6719
  647TMC3    H2 9583   2.750   0.164  14.969  0.1701 -0.7644  0.6064
  647TMC3    C7 9584   2.892   0.047  14.772  0.6834 -0.3466  0.1168
  647TMC3    C8 9585   2.516   0.254  14.966 -0.2548 -0.3873 -0.0805
  647TMC3    O1 9586   2.935   4.716  14.671 -0.1470 -0.9944  0.8620
  647TMC3    O2 9587   2.575   0.235  15.074 -0.2507 -0.2134  0.2816
  648TMC3    C1 9588   1.817   2.465  15.625  0.8531 -0.3175  0.5093
  648TMC3    C2 9589   1.791   2.335  15.587 -0.1130 -0.0998 -0.3233
  648TMC3    C3 9590   1.707   2.313  15.483  0.1480  0.2043 -0.2280
  648TMC3    C4 9591   1.741   2.569  15.581  0.3577 -0.5264 -0.6435
  648TMC3    C5 9592   1.647   2.538  15.485 -0.4219 -0.0245 -0.1347
  648TMC3    C6 9593   1.638   2.419  15.425  0.7107  0.5053 -0.5066
  648TMC3     C 9594   1.879   2.492  15.751 -0.7691 -0.7357 -0.0878
  648TMC3     O 9595   1.857   2.599  15.802  0.6091  0.0051  0.0763
  648TMC3     H 9596   1.844   2.248  15.625 -0.3775 -0.9673 -1.9530
  648TMC3    H1 9597   1.749   2.671  15.614  1.6852 -0.4866 -1.0987
  648TMC3    H2 9598   1.577   2.393  15.339 -1.2646  3.1739  0.0852
  648TMC3    C7 9599   1.539   2.632  15.477 -0.1366 -0.3906 -0.4263
  648TMC3    C8 9600   1.716   2.190  15.408  0.2417  0.1053 -0.1534
  648TMC3    O1 9601   1.487   2.661  15.367 -0.2565 -0.2326  0.4047
  648TMC3    O2 9602   1.613   2.158  15.349  0.4590 -0.1691 -0.0073
  649TMC3    C1 9603   0.901   3.411  13.033 -0.5563  0.4257  0.7917
  649TMC3    C2 9604   1.029   3.364  13.048 -0.6407  0.4407 -0.3208
  649TMC3    C3 9605   1.050   3.269  13.144  0.0562  0.2347 -0.1042
  649TMC3    C4 9606   0.801   3.369  13.112  0.2012 -0.0976 -0.0771
  649TMC3    C5 9607   0.832   3.270  13.207 -0.0105  0.2859  0.0102
  649TMC3    C6 9608   0.955   3.218  13.221 -0.2325  0.3545  0.8432
  649TMC3     C 9609   0.867   3.477  12.904 -0.2263  0.0148  0.4232
  649TMC3     O 9610   0.754   3.467  12.861 -0.0096  0.4616 -0.0341
  649TMC3     H 9611   1.099   3.384  12.968  1.0785 -0.2386  1.0372
  649TMC3    H1 9612   0.700   3.405  13.101  0.9207  1.7922 -0.6059
  649TMC3    H2 9613   0.982   3.128  13.275  1.1399 -0.1360 -0.6827
  649TMC3    C7 9614   0.724   3.234  13.305  0.1410  0.2854  0.2780
  649TMC3    C8 9615   1.188   3.240  13.178 -0.5067 -0.0242 -1.0470
  649TMC3    O1 9616   0.624   3.298  13.285 -0.0398  0.0254 -0.0668
  649TMC3    O2 9617   1.211   3.153  13.261  0.4657 -0.3544  0.3385
  650TMC3    C1 9618   3.415   0.790  12.682 -0.9030  0.3060  0.2895
  650TMC3    C2 9619   3.415   0.923  12.696 -1.2087 -0.0404 -0.0612
  650TMC3    C3 9620   3.311   0.988  12.646  0.3567 -0.1957 -0.3377
  650TMC3    C4 9621   3.324   0.718  12.623  0.0658 -0.4812  0.4253
  650TMC3    C5 9622   3.221   0.790  12.567 -0.3547  0.5889  0.4638
  650TMC3    C6 9623   3.215   0.926  12.577 -0.3905  0.0334  0.0140
  650TMC3     C 9624   3.533   0.723  12.739  0.2485  0.2471  0.1475
  650TMC3     O 9625   3.632   0.798  12.764  0.2995 -0.3995  0.0548
  650TMC3     H 9626   3.496   0.984  12.733  0.5911 -2.0176 -0.7835
  650TMC3    H1 9627   3.324   0.615  12.591  1.4174 -0.1163 -0.7444
  650TMC3    H2 9628   3.142   0.978  12.515 -1.9035  0.3566  2.0535
  650TMC3    C7 9629   3.168   0.743  12.445  0.5174 -0.8269 -0.0927
  650TMC3    C8 9630   3.329   1.131  12.640  0.5809  0.2076  0.4039
  650TMC3    O1 9631   3.097   0.643  12.451 -0.0612  0.3665 -0.0553
  650TMC3    O2 9632   3.445   1.163  12.617 -0.7196 -0.6279 -0.2351
  651MPD2     C 9633   2.099   1.909  10.721 -0.1638  0.1890  0.3772
  651MPD2    C1 9634   2.069   2.044  10.733  0.2775 -1.3102  0.4344
  651MPD2    C2 9635   2.169   2.126  10.775  0.7417 -0.2401 -0.2431
  651MPD2    C3 9636   2.297   2.077  10.804  0.4099  0.1168  0.2349
  651MPD2    C4 9637   2.327   1.941  10.799  0.0363 -0.6190 -0.3936
  651MPD2    C5 9638   2.225   1.859  10.751 -0.0112 -0.7172  0.5034
  651MPD2     H 9639   2.152   2.233  10.775  1.9266 -0.0623  1.8455
  651MPD2    H1 9640   2.427   1.906  10.820 -0.0390 -0.4723  0.2173
  651MPD2    H2 9641   2.033   1.831  10.684  0.1701  0.3858 -0.6333
  651MPD2    H3 9642   2.232   1.751  10.745  2.5554 -0.4299 -1.5336
  651MPD2     N 9643   2.389   2.174  10.844 -0.1297 -0.4174 -0.0953
  651MPD2    H5 9644   2.365   2.272  10.857 -1.3096 -0.7648  0.2858
  651MPD2    N1 9645   1.949   2.114  10.699 -0.3081  0.1340  0.1538
  651MPD2    H7 9646   1.945   2.214  10.712  0.6147  0.3034 -0.8688
  652TMC3    C1 9647   2.815   2.328  10.987  0.6539  0.1555 -0.8371
  652TMC3    C2 9648   2.735   2.245  10.910 -0.0873  0.0423 -0.3448
  652TMC3    C3 9649   2.601   2.258  10.898 -0.8127  0.0699 -0.4957
  652TMC3    C4 9650   2.756   2.431  11.056  0.3868 -0.0456  0.5557
  652TMC3    C5 9651   2.625   2.445  11.033  0.3115 -0.8550 -0.2516
  652TMC3    C6 9652   2.541   2.364  10.956  0.5252 -0.1353 -0.5005
  652TMC3     C 9653   2.950   2.334  10.958 -0.1186  0.6844  0.6394
  652TMC3     O 9654   2.991   2.300  10.847  0.2068  0.4246  0.3362
  652TMC3     H 9655   2.777   2.164  10.852 -1.0904 -1.5779  1.1437
  652TMC3    H1 9656   2.815   2.503  11.110  1.4861 -0.7186  0.2597
  652TMC3    H2 9657   2.435   2.384  10.943  0.2179 -1.6538 -0.3546
  652TMC3    C7 9658   2.557   2.562  11.079  0.4042  0.2642  0.2144
  652TMC3    C8 9659   2.525   2.143  10.866 -0.5488  0.3755 -0.2380
  652TMC3    O1 9660   2.440   2.549  11.109 -0.0627  1.1196 -0.3554
  652TMC3    O2 9661   2.590   2.042  10.840 -0.5679  0.3961 -0.5569
  653MPD2     C 9662   1.683   2.246  17.439  0.2315 -0.0796  0.0389
  653MPD2    C1 9663   1.579   2.327  17.404 -0.3162  0.4477  0.3858
  653MPD2    C2 9664   1.495   2.284  17.296  0.3069  0.3640 -0.1811
  653MPD2    C3 9665   1.493   2.146  17.266  0.5759  0.5007  0.3503
  653MPD2    C4 9666   1.590   2.057  17.314 -0.0419 -0.8348  0.4981
  653MPD2    C5 9667   1.686   2.112  17.402 -0.3119 -0.0405 -0.5611
  653MPD2     H 9668   1.411   2.343  17.261 -0.1374  0.8643  1.7571
  653MPD2    H1 9669   1.608   1.955  17.282  3.3773 -0.3327  0.8194
  653MPD2    H2 9670   1.764   2.274  17.505  1.1633 -4.2709  0.6908
  653MPD2    H3 9671   1.757   2.043  17.446 -2.9601 -3.2287 -1.3129
  653MPD2     N 9672   1.397   2.102  17.181 -0.3385 -1.0339  0.3531
  653MPD2    H5 9673   1.342   2.176  17.139  0.1092  0.1586  1.8499
  653MPD2    N1 9674   1.568   2.465  17.448  0.3419 -0.3101 -0.2961
  653MPD2    H7 9675   1.491   2.520  17.411  1.8037  0.6533 -1.8733
  654TMC3    C1 9676   1.239   1.954  17.080 -0.2507  0.7455 -0.1526
  654TMC3    C2 9677   1.155   2.060  17.089 -0.9708  0.6631  0.3316
  654TMC3    C3 9678   1.031   2.041  17.144  1.1388  0.2530  0.9496
  654TMC3    C4 9679   1.191   1.830  17.107 -0.4223 -0.1113  0.4008
  654TMC3    C5 9680   1.068   1.811  17.167 -0.1492 -0.7804 -0.3156
  654TMC3    C6 9681   0.985   1.919  17.182  0.6557 -0.3573 -0.3413
  654TMC3     C 9682   1.367   1.968  17.148  0.3692 -0.0534  0.1795
  654TMC3     O 9683   1.427   1.864  17.182  0.4207  0.0211  0.7649
  654TMC3     H 9684   1.184   2.162  17.066  1.1420 -0.1527 -0.6639
  654TMC3    H1 9685   1.255   1.744  17.093 -0.2673 -0.2352  1.8239
  654TMC3    H2 9686   0.883   1.920  17.220 -0.0998  3.5469 -2.4904
  654TMC3    C7 9687   1.069   1.713  17.273  0.7698 -0.1151 -0.5281
  654TMC3    C8 9688   0.928   2.129  17.105 -1.4754  0.8726  0.2885
  654TMC3    O1 9689   1.042   1.742  17.389  0.3735 -0.0570 -0.4532
  654TMC3    O2 9690   0.830   2.138  17.184  0.5432 -0.5035  0.0556
  655MPD2     C 9691   2.019   2.651  15.379  0.6583  0.1273 -0.2458
  655MPD2    C1 9692   1.980   2.772  15.319  0.0857 -0.1264  0.0755
  655MPD2    C2 9693   1.977   2.778  15.181  0.7102  0.3554  0.0889
  655MPD2    C3 9694   2.019   2.666  15.101 -0.2765 -0.2305 -0.2093
  655MPD2    C4 9695   2.054   2.554  15.163 -0.5124 -0.6043 -0.6681
  655MPD2    C5 9696   2.051   2.549  15.298 -0.0756 -0.0616  0.8097
  655MPD2     H 9697   1.956   2.874  15.135 -0.8904 -0.5351 -1.0417
  655MPD2    H1 9698   2.084   2.462  15.114 -0.7920 -0.2950 -1.4275
  655MPD2    H2 9699   2.008   2.641  15.486  0.9405 -1.2901 -0.3607
  655MPD2    H3 9700   2.065   2.455  15.350  2.8082 -0.7114 -1.1880
  655MPD2     N 9701   2.007   2.662  14.961 -0.6207  0.0357 -0.3214
  655MPD2    H5 9702   2.028   2.571  14.921  0.9066  0.6082 -0.8558
  655MPD2    N1 9703   1.935   2.890  15.387 -0.1070  0.2373 -0.0118
  655MPD2    H7 9704   1.920   2.974  15.334 -0.0425  0.0773 -0.2820
  656TMC3    C1 9705   1.828   3.025  15.552  0.2602 -0.6983 -0.2217
  656TMC3    C2 9706   1.821   3.047  15.684  0.2057 -0.6241 -0.4967
  656TMC3    C3 9707   1.725   3.126  15.740 -0.4516  0.0403 -0.9036
  656TMC3    C4 9708   1.743   3.089  15.467 -0.5102  0.4119 -0.5988
  656TMC3    C5 9709   1.652   3.181  15.521  0.0933  0.9792 -0.3523
  656TMC3    C6 9710   1.637   3.200  15.657  0.7230 -0.1778 -0.5979
  656TMC3     C 9711   1.914   2.908  15.522 -0.5925 -0.0481 -0.3051
  656TMC3     O 9712   1.960   2.835  15.608 -0.2283 -0.0905  0.2645
  656TMC3     H 9713   1.897   2.995  15.742  1.7922  1.2690 -0.8961
  656TMC3    H1 9714   1.766   3.081  15.362  0.5510 -3.2547 -0.0986
  656TMC3    H2 9715   1.549   3.248  15.698  1.4130  1.6488 -1.2610
  656TMC3    C7 9716   1.599   3.268  15.424  0.1400 -0.2066 -0.0173
  656TMC3    C8 9717   1.676   3.091  15.877  0.4059  0.2644  0.6717
  656TMC3    O1 9718   1.628   3.242  15.307  0.4858 -0.0607 -0.1519
  656TMC3    O2 9719   1.621   3.168  15.950 -0.0369 -0.0915  0.4998
  657TMC3    C1 9720   0.614   2.222  15.136  1.0903 -0.3602 -0.0790
  657TMC3    C2 9721   0.630   2.332  15.214  0.6890  0.1501  0.4023
  657TMC3    C3 9722   0.567   2.444  15.173 -0.4374 -0.2858 -0.4741
  657TMC3    C4 9723   0.554   2.231  15.012 -0.8423 -0.2068 -0.7093
  657TMC3    C5 9724   0.496   2.350  14.972 -0.0257  0.3388  0.6516
  657TMC3    C6 9725   0.506   2.459  15.050 -0.7244 -0.0894 -0.4081
  657TMC3     C 9726   0.691   2.103  15.166  0.0593  0.1539  0.5141
  657TMC3     O 9727   0.792   2.113  15.229  0.2271 -0.4130 -0.3073
  657TMC3     H 9728   0.682   2.317  15.308 -0.9229  0.5820  1.3743
  657TMC3    H1 9729   0.565   2.146  14.946  1.9909  0.2117 -0.7535
  657TMC3    H2 9730   0.475   2.557  15.016 -0.5039 -0.2523 -1.0876
  657TMC3    C7 9731   0.489   2.362  14.824 -0.3179  0.0658  0.0741
  657TMC3    C8 9732   0.549   2.546  15.270 -0.0126 -0.1584 -0.6603
  657TMC3    O1 9733   0.585   2.308  14.770 -0.6164  0.0787  0.3525
  657TMC3    O2 9734   0.502   2.654  15.233 -0.4014 -0.3796  0.0033
  658MPD2     C 9735   2.398   2.366  14.594  0.4999  0.4916 -0.1739
  658MPD2    C1 9736   2.285   2.391  14.521  0.0215  0.6751  0.1115
  658MPD2    C2 9737   2.294   2.378  14.385 -0.2116 -0.4296 -0.6026
  658MPD2    C3 9738   2.412   2.347  14.321 -0.3379 -0.0027 -0.5519
  658MPD2    C4 9739   2.524   2.322  14.397  0.0821  0.0700  0.1170
  658MPD2    C5 9740   2.511   2.326  14.537  0.3947  0.0177  0.4760
  658MPD2     H 9741   2.202   2.388  14.329  1.7495 -1.8866 -4.1391
  658MPD2    H1 9742   2.620   2.300  14.353  1.5024  1.6898  2.3788
  658MPD2    H2 9743   2.400   2.370  14.703 -1.1856 -1.3505 -0.0666
  658MPD2    H3 9744   2.588   2.289  14.605  0.6549 -1.5938 -0.7006
  658MPD2     N 9745   2.412   2.354  14.178 -0.1973  0.1819 -0.5540
  658MPD2    H5 9746   2.326   2.381  14.133 -0.2897  0.3899 -0.2524
  658MPD2    N1 9747   2.170   2.428  14.590 -0.7192 -0.1964  0.0095
  658MPD2    H7 9748   2.179   2.443  14.690  2.6259 -0.6552 -0.2019
  659TMC3    C1 9749   1.951   2.505  14.638  0.2483 -0.1231 -0.2178
  659TMC3    C2 9750   2.004   2.605  14.709  0.1855  0.3202 -0.0664
  659TMC3    C3 9751   1.932   2.713  14.755 -0.0725  0.3809  0.1496
  659TMC3    C4 9752   1.816   2.511  14.613 -0.1001 -0.3923 -0.4033
  659TMC3    C5 9753   1.747   2.625  14.652  0.4017 -0.1580 -0.3206
  659TMC3    C6 9754   1.803   2.724  14.728  0.5235  0.9495 -0.2253
  659TMC3     C 9755   2.044   2.450  14.536  0.2423  0.1852  0.0284
  659TMC3     O 9756   1.998   2.420  14.426 -0.9458 -0.8643 -0.1407
  659TMC3     H 9757   2.110   2.621  14.726  0.6675 -2.5685 -0.3994
  659TMC3    H1 9758   1.782   2.429  14.550 -0.4442 -1.2056  0.8471
  659TMC3    H2 9759   1.747   2.813  14.756  0.3028  0.3912  1.1128
  659TMC3    C7 9760   1.606   2.630  14.621 -0.2497 -0.1206  0.9397
  659TMC3    C8 9761   1.959   2.761  14.884  0.4408 -0.1659 -0.0002
  659TMC3    O1 9762   1.549   2.727  14.666  0.1302  0.2833  1.0520
  659TMC3    O2 9763   1.891   2.858  14.920  0.7694  0.3665 -0.2531
  660MPD2     C 9764   0.952   0.866  12.315 -0.0807  0.1749 -0.3260
  660MPD2    C1 9765   0.837   0.854  12.242  0.4137 -0.2232  0.0551
  660MPD2    C2 9766   0.714   0.831  12.303 -0.1436 -0.6195  0.3554
  660MPD2    C3 9767   0.703   0.825  12.441  0.6409 -0.3025 -0.0746
  660MPD2    C4 9768   0.821   0.838  12.513 -0.4598 -0.4189 -0.9436
  660MPD2    C5 9769   0.941   0.859  12.446  0.2600  0.4297  0.2614
  660MPD2     H 9770   0.619   0.818  12.253 -0.8293  1.8198  1.0126
  660MPD2    H1 9771   0.821   0.831  12.621 -0.4504  0.0228 -0.9161
  660MPD2    H2 9772   1.049   0.864  12.268 -0.0773  1.3904 -0.3635
  660MPD2    H3 9773   1.031   0.866  12.506 -0.2446  0.7479  0.9843
  660MPD2     N 9774   0.585   0.785  12.518  0.0671 -1.0450  0.1211
  660MPD2    H5 9775   0.596   0.768  12.617 -1.4050 -3.1718 -0.0859
  660MPD2    N1 9776   0.845   0.860  12.101 -0.1293 -0.4063  0.4775
  660MPD2    H7 9777   0.944   0.857  12.076 -0.2070 -3.9077  0.5536
  661TMC3    C1 9778   0.771   0.862  11.878  0.1725  0.2163  0.1905
  661TMC3    C2 9779   0.859   0.782  11.811  0.0053  0.7921  0.3439
  661TMC3    C3 9780   0.851   0.777  11.680 -0.2175  0.1193  0.6254
  661TMC3    C4 9781   0.685   0.944  11.808 -0.2888  0.2994  0.4393
  661TMC3    C5 9782   0.696   0.952  11.671 -0.5738  0.4289 -0.4125
  661TMC3    C6 9783   0.779   0.865  11.606  0.1850  0.4785 -0.7254
  661TMC3     C 9784   0.737   0.843  12.016  0.1431 -0.1371  0.2567
  661TMC3     O 9785   0.617   0.826  12.029  0.3617  0.2671  0.0887
  661TMC3     H 9786   0.922   0.712  11.865 -0.0290  0.9521  0.5937
  661TMC3    H1 9787   0.617   1.006  11.865  0.5616  0.9362  0.7756
  661TMC3    H2 9788   0.783   0.860  11.498  0.8987  1.0402 -0.7260
  661TMC3    C7 9789   0.615   1.041  11.589 -0.0833  0.4586  0.3639
  661TMC3    C8 9790   0.905   0.666  11.601  0.5966 -0.7548 -0.2801
  661TMC3    O1 9791   0.606   1.012  11.471  0.0717  0.0078 -0.1601
  661TMC3    O2 9792   0.940   0.697  11.487  0.5428 -0.6800 -0.3633
  662MPD2     C 9793   1.049   1.001  17.292 -0.7156  0.1748 -0.0785
  662MPD2    C1 9794   1.051   0.954  17.422 -0.2793 -0.3914 -0.3641
  662MPD2    C2 9795   0.999   1.036  17.515 -0.2024 -0.2083  0.0031
  662MPD2    C3 9796   0.929   1.151  17.485  0.4709  0.3725 -0.5014
  662MPD2    C4 9797   0.913   1.193  17.352  0.2437 -0.6262 -0.1174
  662MPD2    C5 9798   0.979   1.118  17.258 -0.1685 -0.3458 -0.9240
  662MPD2     H 9799   1.009   1.004  17.618  0.6422  1.2754  0.3692
  662MPD2    H1 9800   0.867   1.290  17.334  2.2312  0.1998 -0.7763
  662MPD2    H2 9801   1.105   0.951  17.214 -1.4036  0.6956 -0.9125
  662MPD2    H3 9802   0.985   1.143  17.152 -1.8405  1.5049 -0.5891
  662MPD2     N 9803   0.877   1.234  17.585  0.4738  0.1688  0.1053
  662MPD2    H5 9804   0.791   1.287  17.569 -0.3894 -1.2148  0.1075
  662MPD2    N1 9805   1.111   0.823  17.441 -0.1366 -0.2048  0.2289
  662MPD2    H7 9806   1.119   0.799  17.539 -0.8947 -0.8116  0.1447
  663TMC3    C1 9807   1.202   0.613  17.406 -0.6053 -0.0514  0.0232
  663TMC3    C2 9808   1.240   0.615  17.538 -0.4140 -0.0146  0.0236
  663TMC3    C3 9809   1.301   0.498  17.590 -0.8312  0.3472 -0.6178
  663TMC3    C4 9810   1.208   0.499  17.331  0.2435 -0.3488 -0.0481
  663TMC3    C5 9811   1.243   0.386  17.392 -0.3615  0.3851  0.3622
  663TMC3    C6 9812   1.287   0.379  17.523  0.2500  0.1257  0.2730
  663TMC3     C 9813   1.144   0.731  17.344 -0.0715 -0.0568 -0.0101
  663TMC3     O 9814   1.123   0.730  17.226 -0.5607 -0.0528  0.2864
  663TMC3     H 9815   1.250   0.710  17.591  0.8758  0.5303 -1.1797
  663TMC3    H1 9816   1.189   0.490  17.225  0.4589  0.3356 -0.1468
  663TMC3    H2 9817   1.338   0.292  17.562  0.3812 -0.5634 -1.4376
  663TMC3    C7 9818   1.200   0.265  17.326  0.0008 -0.5043 -0.0409
  663TMC3    C8 9819   1.309   0.488   0.041 -0.1826  0.1636  0.3251
  663TMC3    O1 9820   1.211   0.253  17.210  0.1301  0.5095 -0.1267
  663TMC3    O2 9821   1.366   0.388   0.078 -0.2864  0.2909 -0.0301
  664MPD2     C 9822   3.530   3.867   0.071  0.1854  0.8474  0.3807
  664MPD2    C1 9823   3.656   3.927   0.061  0.3944  0.3420 -0.5742
  664MPD2    C2 9824   3.718   3.938   0.179  0.3010 -0.0042 -1.0163
  664MPD2    C3 9825   3.660   3.912   0.305 -0.6817 -0.5381 -0.3413
  664MPD2    C4 9826   3.540   3.850   0.313  0.4521 -0.5453  0.6813
  664MPD2    C5 9827   3.477   3.820   0.186  0.5285  0.0053  0.2045
  664MPD2     H 9828   3.817   3.982   0.176  0.2162  0.3041  0.6720
  664MPD2    H1 9829   3.486   3.824   0.403  0.0173  0.2007  0.6334
  664MPD2    H2 9830   3.475   3.842  17.675 -0.7104  1.8455  0.6496
  664MPD2    H3 9831   3.386   3.760   0.178 -0.8392  2.2013 -0.7529
  664MPD2     N 9832   3.737   3.935   0.422 -0.0687  0.8846  0.2310
  664MPD2    H5 9833   3.824   3.982   0.401 -1.1503  1.0152 -3.9657
  664MPD2    N1 9834   3.718   3.978  17.637  0.1858 -0.2412  0.1306
  664MPD2    H7 9835   3.804   4.031  17.652 -0.3797  1.1996 -1.7236
  665TMC3    C1 9836   3.793   3.959   0.653  0.0640  0.4589  0.1157
  665TMC3    C2 9837   3.802   3.886   0.769 -0.2869  0.4027 -0.3593
  665TMC3    C3 9838   3.875   3.935   0.872  0.3227  0.7305  0.0548
  665TMC3    C4 9839   3.822   4.097   0.654  0.0672  0.3367 -0.1272
  665TMC3    C5 9840   3.862   4.152   0.775  0.5530 -0.5800  0.0440
  665TMC3    C6 9841   3.893   4.075   0.877 -0.0019 -0.3474  0.4718
  665TMC3     C 9842   3.701   3.907   0.552 -0.0875  0.2537  0.0130
  665TMC3     O 9843   3.612   3.833   0.593 -0.2895  0.8332  0.4790
  665TMC3     H 9844   3.786   3.780   0.755 -2.5240  0.9750 -2.1349
  665TMC3    H1 9845   3.802   4.155   0.565  0.1277 -0.3843 -0.6142
  665TMC3    H2 9846   3.934   4.113   0.970  1.1982 -3.5953  1.2858
  665TMC3    C7 9847   3.801   4.283   0.795 -0.0536  0.2746 -0.4972
  665TMC3    C8 9848   3.889   3.869   0.997  0.1668 -0.0174 -0.2906
  665TMC3    O1 9849   3.745   4.340   0.703  0.4468 -0.1135 -0.6953
  665TMC3    O2 9850   3.985   3.894   1.065 -0.2068  0.1690  0.9739
  666TMC3    C1 9851   2.882   3.089  10.157 -0.8526  0.2370  0.5652
  666TMC3    C2 9852   3.004   3.062  10.217  0.2232  0.0249 -0.8011
  666TMC3    C3 9853   3.105   3.154  10.209 -0.8421  0.1676  1.3522
  666TMC3    C4 9854   2.870   3.202  10.082 -0.3728  0.3298 -0.1628
  666TMC3    C5 9855   2.977   3.276  10.063 -0.0345 -0.0349 -0.6576
  666TMC3    C6 9856   3.093   3.263  10.132 -0.0027 -0.2462  0.1395
  666TMC3     C 9857   2.770   3.037  10.226  0.0433 -0.2328  0.0273
  666TMC3     O 9858   2.688   3.127  10.246 -0.7578 -0.4782  0.1353
  666TMC3     H 9859   3.022   2.971  10.274  1.4955  0.6863 -0.1576
  666TMC3    H1 9860   2.779   3.221  10.025  0.8559  1.4640 -1.7593
  666TMC3    H2 9861   3.172   3.337  10.125  0.4623 -0.6992  0.6724
  666TMC3    C7 9862   2.956   3.402  10.001  0.0842  0.3564 -0.0183
  666TMC3    C8 9863   3.174   3.185  10.337 -0.4467 -0.2813 -0.2503
  666TMC3    O1 9864   2.841   3.443  10.014  0.2074  0.1949  0.4542
  666TMC3    O2 9865   3.119   3.125  10.432 -0.0571  0.1081 -0.4060
  667MPD2     C 9866   3.981   4.000  14.213  0.3598  0.0568  0.2235
  667MPD2    C1 9867   3.878   4.021  14.299 -0.3717 -0.2863  1.1644
  667MPD2    C2 9868   3.764   3.964  14.264  0.4757 -0.4473  0.4632
  667MPD2    C3 9869   3.744   3.880  14.153 -0.2510  0.3567 -0.5304
  667MPD2    C4 9870   3.855   3.860  14.069  0.2803 -0.1829 -0.1453
  667MPD2    C5 9871   3.972   3.923  14.100  0.7034 -0.3978  0.9620
  667MPD2     H 9872   3.678   3.990  14.326  0.1850 -1.6328  0.5542
  667MPD2    H1 9873   3.857   3.805  13.976 -0.0974 -1.4472  0.5923
  667MPD2    H2 9874   4.077   4.050  14.223 -1.3837  2.7884  3.6294
  667MPD2    H3 9875   4.061   3.900  14.042  0.8426 -0.1633  1.0815
  667MPD2     N 9876   3.627   3.800  14.129  0.0467 -0.4075 -0.0101
  667MPD2    H5 9877   3.636   3.735  14.052  0.2587 -0.6065  0.1823
  667MPD2    N1 9878   3.893   4.094  14.420  0.2895 -0.7481  0.2569
  667MPD2    H7 9879   3.808   4.124  14.468  0.0874 -0.0055 -0.5576
  668TMC3    C1 9880   4.003   4.214  14.599  0.5123  0.1315 -0.0077
  668TMC3    C2 9881   4.081   4.329  14.623  0.2609  0.1294  0.5963
  668TMC3    C3 9882   4.055   4.406  14.731 -0.1088 -0.5433  0.5486
  668TMC3    C4 9883   3.896   4.188  14.672  0.7888 -0.1768 -0.0332
  668TMC3    C5 9884   3.872   4.264  14.781  0.1856 -0.4801  0.2770
  668TMC3    C6 9885   3.942   4.381  14.806 -0.0958  0.2316 -0.7509
  668TMC3     C 9886   4.009   4.152  14.470  0.7534  0.2544 -0.7773
  668TMC3     O 9887   4.119   4.154  14.421 -0.2833 -0.3377 -0.2887
  668TMC3     H 9888   4.169   4.348  14.563 -1.8171  1.0405 -2.1569
  668TMC3    H1 9889   3.854   4.089  14.661  3.0426 -1.0831 -0.4818
  668TMC3    H2 9890   3.937   4.438  14.898 -2.4116 -1.2471  0.0157
  668TMC3    C7 9891   3.770   4.224  14.873  1.1308 -0.6605  0.3390
  668TMC3    C8 9892   4.143   4.511  14.793 -0.6065  0.5008 -0.0090
  668TMC3    O1 9893   3.739   4.107  14.869  0.0914  0.0469 -0.3852
  668TMC3    O2 9894   4.127   4.539  14.912 -0.0711 -0.6193  0.9112
  669TMC3    C1 9895   2.319   4.238  14.593  0.0706 -0.0681 -0.2261
  669TMC3    C2 9896   2.230   4.293  14.502 -0.0783  0.5538  0.0021
  669TMC3    C3 9897   2.288   4.338  14.380  0.0711  0.0143  0.2141
  669TMC3    C4 9898   2.457   4.262  14.583 -0.0128  0.2181 -0.1408
  669TMC3    C5 9899   2.501   4.312  14.459  0.1869  0.9439 -0.3783
  669TMC3    C6 9900   2.420   4.344  14.352 -0.0001  0.8438 -0.0632
  669TMC3     C 9901   2.263   4.139  14.682 -0.8404 -0.3327  0.4201
  669TMC3     O 9902   2.142   4.135  14.698 -0.2085  0.7924 -0.4472
  669TMC3     H 9903   2.124   4.272  14.503 -0.4888  2.6722  1.8745
  669TMC3    H1 9904   2.522   4.245  14.668  1.4065  1.0868 -1.0447
  669TMC3    H2 9905   2.456   4.377  14.255  1.7787 -2.7869 -0.6387
  669TMC3    C7 9906   2.642   4.346  14.434  0.9267 -0.8901 -1.2004
  669TMC3    C8 9907   2.205   4.315  14.260  0.0094 -1.1808  0.2007
  669TMC3    O1 9908   2.667   4.421  14.342 -0.0165  0.0823 -0.2478
  669TMC3    O2 9909   2.239   4.232  14.182 -0.0090  0.4225  0.2173
  670MPD2     C 9910   0.494   1.550  12.880 -0.2250 -0.9311  0.4164
  670MPD2    C1 9911   0.590   1.645  12.917  0.0437 -0.2146  0.9494
  670MPD2    C2 9912   0.619   1.661  13.052  0.1316  0.2734  0.7310
  670MPD2    C3 9913   0.543   1.586  13.146 -0.6841  0.6358  0.3343
  670MPD2    C4 9914   0.445   1.499  13.108 -0.1976 -0.6956 -0.1470
  670MPD2    C5 9915   0.423   1.477  12.973 -0.4249 -0.2743 -0.1505
  670MPD2     H 9916   0.691   1.735  13.083  1.2445  0.0022 -1.2039
  670MPD2    H1 9917   0.378   1.461  13.184  1.1212 -2.3607  0.1948
  670MPD2    H2 9918   0.477   1.533  12.774  2.4165 -1.4326  0.0699
  670MPD2    H3 9919   0.352   1.403  12.937  0.5531 -2.2928  2.0812
  670MPD2     N 9920   0.574   1.596  13.288 -0.5389  0.4339  0.0231
  670MPD2    H5 9921   0.631   1.677  13.310 -0.2920 -0.0396  1.1001
  670MPD2    N1 9922   0.661   1.722  12.825 -0.1897 -0.2050 -0.1047
  670MPD2    H7 9923   0.739   1.780  12.854  0.5897 -2.1067  1.6257
  671TMC3    C1 9924   0.602   1.553  13.511  0.6917 -0.4098 -0.6824
  671TMC3    C2 9925   0.726   1.604  13.509  0.3742 -0.0115  0.2878
  671TMC3    C3 9926   0.812   1.546  13.604 -0.1605 -0.0994 -0.0596
  671TMC3    C4 9927   0.557   1.469  13.611 -0.0564  0.4986  0.6648
  671TMC3    C5 9928   0.640   1.433  13.716  0.4577  0.1466 -0.1555
  671TMC3    C6 9929   0.769   1.471  13.709  0.6214  0.0759  0.2778
  671TMC3     C 9930   0.531   1.521  13.389  0.1522 -0.0147 -0.0141
  671TMC3     O 9931   0.463   1.416  13.391 -0.6013  0.6000 -0.4797
  671TMC3     H 9932   0.769   1.638  13.415 -0.8632 -2.5528 -1.1831
  671TMC3    H1 9933   0.456   1.428  13.606  0.4406 -0.5240 -1.1831
  671TMC3    H2 9934   0.832   1.413  13.775  0.6744 -2.6577 -2.1448
  671TMC3    C7 9935   0.620   1.296  13.750 -0.5596 -0.3506 -1.2471
  671TMC3    C8 9936   0.945   1.518  13.562 -0.1784 -0.4873  0.2785
  671TMC3    O1 9937   0.626   1.259  13.869 -0.6217  0.0443  0.3343
  671TMC3    O2 9938   0.991   1.405  13.589 -0.4920  0.6563  0.2827
  672MPD2     C 9939   1.442   1.574   1.026 -0.4395  0.0836 -0.0908
  672MPD2    C1 9940   1.520   1.639   0.936 -0.3774 -0.0498 -0.2909
  672MPD2    C2 9941   1.620   1.721   0.987  0.2998 -0.3258  0.4036
  672MPD2    C3 9942   1.647   1.717   1.124  0.2694 -0.1801 -0.1085
  672MPD2    C4 9943   1.563   1.652   1.205  0.5362 -0.2443  0.0860
  672MPD2    C5 9944   1.461   1.582   1.159 -0.7708  0.1077 -0.6610
  672MPD2     H 9945   1.681   1.788   0.928 -0.7070 -0.6915 -1.0315
  672MPD2    H1 9946   1.586   1.647   1.311  1.9338  0.7110 -0.1714
  672MPD2    H2 9947   1.356   1.518   0.990  0.9602 -1.0057 -1.6991
  672MPD2    H3 9948   1.402   1.517   1.223 -0.1762 -0.9070 -1.1334
  672MPD2     N 9949   1.757   1.789   1.175 -0.1244 -0.3942  0.2769
  672MPD2    H5 9950   1.819   1.837   1.112 -1.8358  1.0996 -0.2799
  672MPD2    N1 9951   1.524   1.620   0.799  0.7717 -0.3280 -0.3289
  672MPD2    H7 9952   1.598   1.675   0.757 -0.5309  2.4260  1.0160
  673TMC3    C1 9953   1.516   1.514   0.594  0.1902 -0.3144 -0.3068
  673TMC3    C2 9954   1.555   1.392   0.565 -0.4822  0.2435 -0.4076
  673TMC3    C3 9955   1.623   1.365   0.448 -0.3685 -0.1087 -0.6237
  673TMC3    C4 9956   1.549   1.624   0.520 -0.1604  0.0212  0.2992
  673TMC3    C5 9957   1.612   1.589   0.405  0.6446 -0.4186 -0.7753
  673TMC3    C6 9958   1.643   1.467   0.366 -0.4324  0.0277  0.5116
  673TMC3     C 9959   1.445   1.535   0.720  0.3777 -0.1142  0.9228
  673TMC3     O 9960   1.366   1.449   0.745 -0.2036 -0.0402 -0.2774
  673TMC3     H 9961   1.548   1.313   0.638  0.7015 -1.3087 -1.9700
  673TMC3    H1 9962   1.521   1.726   0.541 -0.0929  0.2210 -0.5872
  673TMC3    H2 9963   1.688   1.451   0.268  0.7721  1.7294  0.7896
  673TMC3    C7 9964   1.659   1.696   0.314  0.5621 -0.3706  0.1923
  673TMC3    C8 9965   1.702   1.240   0.425 -0.0844 -0.4270 -0.9404
  673TMC3    O1 9966   1.732   1.660   0.225  0.8823 -0.3948 -0.4707
  673TMC3    O2 9967   1.742   1.218   0.314 -0.1298  0.3505  0.0243
  674MPD2     C 9968   1.054   2.541   0.276 -0.6133 -1.0374  0.2802
  674MPD2    C1 9969   1.093   2.419   0.316  0.2664  0.5679  0.8575
  674MPD2    C2 9970   1.032   2.370   0.430  0.2040  0.3566 -0.8266
  674MPD2    C3 9971   0.926   2.434   0.489 -0.6652  0.2620  0.0643
  674MPD2    C4 9972   0.896   2.561   0.449  0.4433  0.3334 -0.3634
  674MPD2    C5 9973   0.955   2.611   0.343  0.0014 -0.4455 -0.1107
  674MPD2     H 9974   1.055   2.269   0.463 -2.4969  0.2504  0.7573
  674MPD2    H1 9975   0.822   2.628   0.491 -0.0161  0.1297 -0.8476
  674MPD2    H2 9976   1.093   2.584   0.184  2.6708 -0.9578  1.6937
  674MPD2    H3 9977   0.920   2.708   0.308  0.8639 -0.5489 -1.2617
  674MPD2     N 9978   0.846   2.367   0.577  0.8496  0.8580 -0.5783
  674MPD2    H5 9979   0.878   2.273   0.600 -1.8431  0.2090  0.4543
  674MPD2    N1 9980   1.185   2.348   0.235  0.0385  0.7980 -0.3773
  674MPD2    H7 9981   1.215   2.400   0.154 -2.1356  0.3838 -1.4443
  675TMC3    C1 9982   1.319   2.167   0.148 -0.3087  0.2288 -0.1942
  675TMC3    C2 9983   1.336   2.031   0.146 -0.1370 -0.1847 -1.1208
  675TMC3    C3 9984   1.368   1.972   0.026  0.0707 -0.3435 -0.3042
  675TMC3    C4 9985   1.314   2.244   0.036 -0.3911  0.5428 -0.7176
  675TMC3    C5 9986   1.336   2.172  17.613 -0.4896 -0.2613 -0.5586
  675TMC3    C6 9987   1.373   2.044  17.608 -0.7405 -0.4427 -0.2195
  675TMC3     C 9988   1.241   2.227   0.259 -0.1975 -0.4263  0.3805
  675TMC3     O 9989   1.224   2.149   0.351 -0.7369 -0.4150  0.4516
  675TMC3     H 9990   1.335   1.975   0.239 -2.7216 -0.9553 -1.6183
  675TMC3    H1 9991   1.304   2.352   0.036 -0.4649  0.5385 -2.1181
  675TMC3    H2 9992   1.389   1.991  17.515 -1.3294 -1.4001  0.2257
  675TMC3    C7 9993   1.250   2.208  17.509 -0.6311  0.2303 -0.1043
  675TMC3    C8 9994   1.420   1.836   0.016 -0.1040 -0.0089 -0.2027
  675TMC3    O1 9995   1.206   2.121  17.436 -0.1065  0.3910  0.0728
  675TMC3    O2 9996   1.504   1.819  17.621  0.1505  0.0281 -0.0631
  676MPD2     C 9997   3.421   0.491  10.640 -0.2539 -0.6104  0.5243
  676MPD2    C1 9998   3.332   0.437  10.734 -0.2477 -0.8251 -0.3343
  676MPD2    C2 9999   3.235   0.346  10.691  0.1141  0.1859 -0.1429
  676MPD2    C310000   3.227   0.318  10.557 -0.6231 -0.2790 -0.4151
  676MPD2    C410001   3.320   0.367  10.465  0.0552  0.4282 -0.1831
  676MPD2    C510002   3.407   0.462  10.505  0.4454  0.2884  0.1098
  676MPD2     H10003   3.169   0.301  10.764 -0.4140 -0.1796 -0.8527
  676MPD2    H110004   3.332   0.329  10.364  5.9438  1.5389  0.1045
  676MPD2    H210005   3.496   0.565  10.668 -1.0978  0.4276  0.0333
  676MPD2    H310006   3.476   0.511  10.436  0.0631  0.2698 -0.2868
  676MPD2     N10007   3.139   0.220  10.502 -0.6257  0.0512  0.3954
  676MPD2    H510008   3.149   0.210  10.401 -0.5082  0.9087  0.3177
  676MPD2    N110009   3.335   0.462  10.872 -0.5035 -0.9846  0.2440
  676MPD2    H710010   3.260   0.421  10.926 -1.3957  0.0551 -0.2056
  677TMC3    C110011   3.400   0.598  11.057 -0.1089  0.0796  0.0837
  677TMC3    C210012   3.274   0.574  11.107 -0.2193 -0.1102  0.3760
  677TMC3    C310013   3.256   0.620  11.235  0.5047  0.0150  0.8710
  677TMC3    C410014   3.502   0.657  11.125 -0.0439  0.0439 -0.0324
  677TMC3    C510015   3.474   0.707  11.248 -0.1871  0.4124  0.2339
  677TMC3    C610016   3.351   0.692  11.307  0.0202  0.2829 -0.4295
  677TMC3     C10017   3.436   0.542  10.930 -0.7110  0.9110  0.8813
  677TMC3     O10018   3.532   0.595  10.875 -0.4466  0.3443 -0.3339
  677TMC3     H10019   3.195   0.514  11.063 -0.5312  1.4068 -1.1368
  677TMC3    H110020   3.600   0.671  11.081 -0.6784  2.8524 -0.5892
  677TMC3    H210021   3.325   0.744  11.399  1.1855  1.2133 -0.6203
  677TMC3    C710022   3.573   0.753  11.336  0.0963 -0.1606  0.6173
  677TMC3    C810023   3.121   0.592  11.297 -0.0375  0.2368 -0.2166
  677TMC3    O110024   3.548   0.766  11.456  0.0803  0.5394  0.1229
  677TMC3    O210025   3.035   0.560  11.214 -0.7626  0.0862  0.5747
  678MPD2     C10026   4.633   0.421   1.775 -0.0135 -0.1787 -0.0551
  678MPD2    C110027   4.643   0.312   1.689  0.2690  0.2264 -0.0352
  678MPD2    C210028   4.534   0.240   1.665  0.0671 -0.3791  0.1872
  678MPD2    C310029   4.412   0.263   1.732  0.0601  0.2069  0.6500
  678MPD2    C410030   4.412   0.363   1.824 -0.0802 -0.0562 -0.2444
  678MPD2    C510031   4.522   0.447   1.850  0.3263  0.3111  0.4053
  678MPD2     H10032   4.538   0.155   1.598 -2.0400 -2.1396  2.3040
  678MPD2    H110033   4.331   0.379   1.895 -1.1326 -1.2836 -1.1682
  678MPD2    H210034   0.004   0.471   1.794 -0.6404  1.2087 -0.5830
  678MPD2    H310035   4.523   0.528   1.922 -1.4067  0.3202  0.4271
  678MPD2     N10036   4.302   0.183   1.694 -0.4524  0.1152 -0.2166
  678MPD2    H510037   4.324   0.122   1.615  0.0808  1.9206 -1.4746
  678MPD2    N110038   0.036   0.280   1.620  0.7694  0.1662  0.3105
  678MPD2    H710039   0.045   0.195   1.564  1.4083  2.3196 -2.8866
  679TMC3    C110040   0.376   0.114   1.475 -0.0069  0.2691 -0.0164
  679TMC3    C210041   0.269   0.167   1.546  0.5422  0.1870  0.0748
  679TMC3    C310042   0.253   0.301   1.534 -0.3924 -0.0307  0.8615
  679TMC3    C410043   0.471   0.195   1.414 -0.1668  0.0427  1.3936
  679TMC3    C510044   0.452   0.330   1.420 -0.4272  0.0378  0.6976
  679TMC3    C610045   0.338   0.383   1.475  0.1673  0.1337  1.1660
  679TMC3     C10046   0.366   4.693   1.443 -0.1941 -0.1354 -0.7673
  679TMC3     O10047   0.460   4.629   1.388 -0.4155 -0.0280  0.1697
  679TMC3     H10048   0.208   0.113   1.617  2.2047 -1.2324  0.4271
  679TMC3    H110049   0.554   0.149   1.361 -2.5095 -0.3320 -1.9318
  679TMC3    H210050   0.336   0.491   1.482  0.0658  0.2083 -0.1526
  679TMC3    C710051   0.539   0.415   1.352 -0.1369 -0.0123 -0.0946
  679TMC3    C810052   0.146   0.363   1.608  0.0499  0.5938  0.2354
  679TMC3    O110053   0.494   0.527   1.325  0.0425  0.3938  0.3401
  679TMC3    O210054   0.163   0.484   1.638 -0.3268 -0.2475  0.1431
  680MPD2     C10055   0.024   3.711  13.978  0.3075  0.7476  0.3101
  680MPD2    C110056   0.103   3.674  13.876  0.2185 -0.3460  0.2315
  680MPD2    C210057   0.227   3.737  13.875 -0.6387  0.0401 -0.1949
  680MPD2    C310058   0.267   3.828  13.966 -0.0298  0.6308  0.1371
  680MPD2    C410059   0.185   3.854  14.078  1.2612  0.4138 -0.2146
  680MPD2    C510060   0.072   3.790  14.080 -0.8509 -0.6130 -0.3387
  680MPD2     H10061   0.302   3.701  13.805  0.0008 -0.9758  1.0155
  680MPD2    H110062   0.215   3.916  14.161  1.7607 -0.6048  0.3609
  680MPD2    H210063   4.653   3.661  13.997  0.4509  0.2890 -0.1869
  680MPD2    H310064   0.014   3.799  14.171 -0.1903 -0.3516  0.0593
  680MPD2     N10065   0.393   3.898  13.962  0.2275 -0.3582  0.2746
  680MPD2    H510066   0.409   3.969  14.033 -1.9254  1.6617 -1.2450
  680MPD2    N110067   0.079   3.583  13.777  0.3100 -1.0585  0.4893
  680MPD2    H710068   0.160   3.564  13.719 -0.4825 -2.4935 -0.1416
  681TMC3    C110069   4.684   3.403  13.682  0.3111  0.5954  0.2379
  681TMC3    C210070   4.591   3.319  13.735  0.1732 -0.3129 -0.3820
  681TMC3    C310071   4.634   3.235  13.830  0.0560 -0.4153 -0.6017
  681TMC3    C410072   0.090   3.363  13.662 -0.2621  0.3868  0.4093
  681TMC3    C510073   0.127   3.253  13.739 -0.3367  0.6412 -0.8704
  681TMC3    C610074   0.044   3.195  13.831 -0.2416  0.4178 -0.1372
  681TMC3     C10075   4.676   3.532  13.748  0.3684  0.1484  0.3038
  681TMC3     O10076   4.568   3.573  13.796 -0.2273  0.1263 -0.2208
  681TMC3     H10077   4.493   3.362  13.754  1.2298  1.9192  0.0786
  681TMC3    H110078   0.171   3.407  13.604  1.0218  0.7986  2.5226
  681TMC3    H210079   0.072   3.107  13.889  2.0955  1.6261  0.5590
  681TMC3    C710080   0.265   3.224  13.768  0.2354 -0.1117  0.9107
  681TMC3    C810081   4.578   3.273  13.961  0.0829 -0.0881  0.0452
  681TMC3    O110082   0.297   3.185  13.878 -0.3575 -0.7990 -0.2907
  681TMC3    O210083   4.456   3.293  13.965  0.3154  0.1591 -0.1349
  682MPD2     C10084   2.588   4.659  10.249 -0.2069 -0.0641  0.2399
  682MPD2    C110085   2.517   4.543  10.249  0.3396 -0.2651  0.0995
  682MPD2    C210086   2.427   4.520  10.345 -0.0846 -0.4982  0.5165
  682MPD2    C310087   2.414   4.613  10.448  0.3558 -0.0158  0.3960
  682MPD2    C410088   2.481   0.006  10.448  0.3286 -0.2577  0.3515
  682MPD2    C510089   2.569   0.033  10.344  0.5850  0.0523 -0.2980
  682MPD2     H10090   2.376   4.425  10.340  0.2105 -0.5050 -2.1920
  682MPD2    H110091   2.461   0.079  10.526  0.2726 -0.7692  0.8096
  682MPD2    H210092   2.652   4.680  10.164  0.0959 -1.0722  0.2137
  682MPD2    H310093   2.607   0.134  10.338  2.9972 -1.0165 -2.9037
  682MPD2     N10094   2.320   4.595  10.559  0.3538  0.2088 -0.2306
  682MPD2    H510095   2.319   4.661  10.636 -0.8413 -0.0247 -0.0457
  682MPD2    N110096   2.550   4.431  10.166  0.0532  0.8439  0.2110
  682MPD2    H710097   2.504   4.345  10.192 -1.0601  1.4714  0.2940
  683TMC3    C110098   2.138   4.541  10.931 -0.0138  0.6842 -0.3521
  683TMC3    C210099   2.050   4.435  10.960  0.0374  1.3954 -0.0813
  683TMC3    C310100   2.025   4.356  10.854  1.0875  0.2933 -0.1872
  683TMC3    C410101   2.195   4.566  10.809  0.1189 -0.0763 -0.0930
  683TMC3    C510102   2.162   4.488  10.704 -0.5413 -0.5238  0.0603
  683TMC3    C610103   2.076   4.377  10.726 -0.5604  0.4012 -0.4061
  683TMC3     C10104   2.161   4.649  11.030 -0.6718  0.0092 -0.0370
  683TMC3     O10105   2.270   4.703  11.020 -0.0003  0.1622  0.2782
  683TMC3     H10106   2.007   4.417  11.058 -2.1210 -0.7883 -1.4281
  683TMC3    H110107   2.260   4.652  10.797 -1.0708  0.9927  1.1755
  683TMC3    H210108   2.049   4.303  10.651  0.4912 -0.1422 -0.2498
  683TMC3    C710109   2.226   4.497  10.575  0.1775  0.0806  0.3789
  683TMC3    C810110   1.943   4.235  10.872  1.0685 -0.1314 -0.9246
  683TMC3    O110111   2.196   4.403  10.500 -0.1132 -0.3858 -0.4130
  683TMC3    O210112   1.915   4.172  10.769  0.5971 -0.3994  0.3972
  684MPD2     C10113   0.684   0.159  16.363  0.0431 -0.5110  0.1114
  684MPD2    C110114   0.807   0.154  16.299 -0.2399 -0.0939  0.0008
  684MPD2    C210115   0.920   0.194  16.360  0.2049 -0.4994  0.3898
  684MPD2    C310116   0.914   0.263  16.482  0.0756 -0.2004  0.1344
  684MPD2    C410117   0.786   0.271  16.540 -0.2426  0.1797 -0.3746
  684MPD2    C510118   0.673   0.224  16.484 -0.0375  0.5735  0.2720
  684MPD2     H10119   1.018   0.168  16.321 -0.0378 -2.7560  1.2665
  684MPD2    H110120   0.769   0.333  16.628  2.5845  0.5220 -0.0658
  684MPD2    H210121   0.594   0.114  16.323  0.3155  0.0305 -1.0950
  684MPD2    H310122   0.576   0.245  16.527 -0.0437 -0.5467  0.8036
  684MPD2     N10123   1.029   0.341  16.533  0.1263  0.2304 -0.2585
  684MPD2    H510124   1.015   0.396  16.618  0.6817 -1.5851  1.0167
  684MPD2    N110125   0.820   0.089  16.173 -0.3277 -0.2041 -0.4790
  684MPD2    H710126   0.910   0.046  16.156  1.1516  3.4796 -2.1470
  685TMC3    C110127   0.728   4.703  15.989 -0.7413  0.5702  0.5109
  685TMC3    C210128   0.648   0.006  15.878  0.1291  0.9373  0.0516
  685TMC3    C310129   0.667   4.649  15.768 -0.1956 -0.7662  0.4267
  685TMC3    C410130   0.812   4.604  16.004 -0.5829  0.0674 -0.1556
  685TMC3    C510131   0.830   4.531  15.891  0.3898  0.2536 -0.5712
  685TMC3    C610132   0.760   4.543  15.775  0.9096 -0.1932  0.3197
  685TMC3     C10133   0.707   0.070  16.099 -0.3891  0.4859 -0.5954
  685TMC3     O10134   0.590   0.113  16.103 -0.8739 -0.0764 -0.0016
  685TMC3     H10135   0.578   0.088  15.872 -0.1609  0.5593 -1.8545
  685TMC3    H110136   0.870   4.588  16.094  0.4380 -0.9383 -0.9865
  685TMC3    H210137   0.764   4.467  15.698 -0.1552  0.1110 -0.0442
  685TMC3    C710138   0.942   4.439  15.876  0.5509 -0.8100  0.1852
  685TMC3    C810139   0.553   4.624  15.682 -0.5840 -0.5899 -0.0014
  685TMC3    O110140   0.949   4.376  15.773  0.2692 -0.1839 -0.3917
  685TMC3    O210141   0.591   4.571  15.577 -0.4488 -0.0019  0.2412
  686MPD2     C10142   2.273   4.302  15.544  0.3885  0.1682 -0.1787
  686MPD2    C110143   2.319   4.252  15.660  0.3968 -0.3561  0.2997
  686MPD2    C210144   2.448   4.244  15.690  0.2106 -0.2336 -0.3055
  686MPD2    C310145   2.538   4.279  15.594  0.4152 -0.2658 -0.2988
  686MPD2    C410146   2.497   4.346  15.483 -0.1880 -0.1847 -0.3088
  686MPD2    C510147   2.362   4.362  15.458 -1.0800 -0.2611 -0.7091
  686MPD2     H10148   2.476   4.220  15.792 -0.7505 -2.0756 -0.4774
  686MPD2    H110149   2.563   4.364  15.399 -0.8834  1.0917 -0.5692
  686MPD2    H210150   2.166   4.296  15.527  0.1143 -1.6799  2.1709
  686MPD2    H310151   2.331   4.395  15.360 -1.3157 -2.9224 -1.5185
  686MPD2     N10152   2.679   4.253  15.596 -0.4566 -0.1345 -0.9371
  686MPD2    H510153   2.732   4.307  15.528 -0.2220  2.4998  1.3529
  686MPD2    N110154   2.215   4.195  15.738  0.4741 -0.9292  0.0344
  686MPD2    H710155   2.118   4.211  15.711  0.6119  4.7171  2.8402
  687TMC3    C110156   2.702   4.083  15.769 -0.2820 -1.0206  0.2573
  687TMC3    C210157   2.634   3.986  15.710  0.5975  0.1181 -0.4818
  687TMC3    C310158   2.556   3.905  15.791 -0.5541  0.7902 -0.5065
  687TMC3    C410159   2.717   4.088  15.904  0.5651 -0.4782 -0.1271
  687TMC3    C510160   2.643   4.004  15.985  0.3363  0.1122 -0.4965
  687TMC3    C610161   2.562   3.910  15.927  0.3398 -0.3106  0.1778
  687TMC3     C10162   2.759   4.180  15.679  0.0233 -0.1994 -0.3801
  687TMC3     O10163   2.877   4.190  15.697 -0.3852 -0.1398 -0.8982
  687TMC3     H10164   2.650   3.976  15.603  2.5310  1.0177 -0.2672
  687TMC3    H110165   2.764   4.177  15.944  1.0410  0.0883 -1.9407
  687TMC3    H210166   2.491   3.851  15.983  0.2830  0.2038  0.6512
  687TMC3    C710167   2.618   4.043  16.126 -0.1312 -0.4423 -0.2959
  687TMC3    C810168   2.438   3.830  15.739  0.0379 -0.0717 -0.1419
  687TMC3    O110169   2.698   4.115  16.181  0.3933 -0.4497  0.7059
  687TMC3    O210170   2.399   3.742  15.816 -0.2048  0.3681 -0.0995
  688MPD2     C10171   1.816   3.107  17.178  0.1321 -0.0848  0.5328
  688MPD2    C110172   1.779   2.974  17.172  0.1573  0.3750  0.1520
  688MPD2    C210173   1.798   2.904  17.050  0.5294  0.3269  0.0550
  688MPD2    C310174   1.862   2.970  16.953 -0.8135  0.2444 -0.0093
  688MPD2    C410175   1.897   3.104  16.961 -1.1352  0.2758  0.5953
  688MPD2    C510176   1.876   3.173  17.079 -0.1014 -0.6349  0.9384
  688MPD2     H10177   1.775   2.799  17.035 -2.4287  1.2015 -1.4665
  688MPD2    H110178   1.949   3.152  16.879 -1.4983  0.2889  0.3771
  688MPD2    H210179   1.800   3.167  17.268  0.4212 -2.4146  2.1451
  688MPD2    H310180   1.910   3.275  17.090 -0.2684 -0.5949  1.0766
  688MPD2     N10181   1.900   2.912  16.825 -0.0186 -0.4183  0.9037
  688MPD2    H510182   1.908   2.983  16.754 -0.5195 -0.8092  0.4508
  688MPD2    N110183   1.701   2.913  17.276 -0.4946  0.0067 -0.9975
  688MPD2    H710184   1.665   2.819  17.264 -1.3212  0.2885 -0.7612
  689TMC3    C110185   1.639   2.870  17.507 -0.0890 -0.2358 -0.2310
  689TMC3    C210186   1.655   2.916  17.633  0.6006 -0.0730  0.8378
  689TMC3    C310187   1.654   2.828   0.040  0.7586 -0.7441 -0.7629
  689TMC3    C410188   1.622   2.734  17.483  0.4006 -0.0212  0.5805
  689TMC3    C510189   1.626   2.650  17.586  0.1714  0.3791 -0.2205
  689TMC3    C610190   1.647   2.688   0.019 -0.5144  0.4668 -0.8956
  689TMC3     C10191   1.675   2.967  17.403 -0.0717  0.5373  0.0904
  689TMC3     O10192   1.693   3.080  17.448  0.2114  0.4675  0.4562
  689TMC3     H10193   1.651   3.024  17.646 -2.0217 -0.2589  1.5833
  689TMC3    H110194   1.611   2.697  17.382 -0.1142  0.7772  0.3457
  689TMC3    H210195   1.658   2.619   0.101 -2.7897  0.3275 -0.7076
  689TMC3    C710196   1.637   2.509  17.559  0.5739  0.2696  0.3173
  689TMC3    C810197   1.685   2.869   0.174  0.0181  0.6740 -0.8019
  689TMC3    O110198   1.699   2.442  17.638 -0.3431 -0.4616  0.2054
  689TMC3    O210199   1.668   2.785   0.269 -0.4771  0.1392 -0.0726
  690MPD2     C10200   3.668   0.327  15.938  0.1983  0.7734 -0.0754
  690MPD2    C110201   3.672   0.301  15.803 -1.2583 -0.5568  0.0459
  690MPD2    C210202   3.755   0.373  15.727 -0.4789 -0.0502  0.2911
  690MPD2    C310203   3.842   0.476  15.769  0.1794  0.3982 -0.4463
  690MPD2    C410204   3.830   0.501  15.901  0.1236  0.6417  0.7731
  690MPD2    C510205   3.747   0.430  15.994  0.8880 -0.0589  0.7316
  690MPD2     H10206   3.750   0.349  15.621  4.4243  2.4529 -0.5011
  690MPD2    H110207   3.885   0.585  15.941  0.2140  0.7822  0.3599
  690MPD2    H210208   3.610   0.267  16.006  0.6361 -0.4813 -0.7978
  690MPD2    H310209   3.760   0.453  16.099 -2.6305  1.4317  0.8365
  690MPD2     N10210   3.928   0.549  15.683  0.2996  0.5450  0.5699
  690MPD2    H510211   3.959   0.639  15.719  0.5742  0.5996  0.1998
  690MPD2    N110212   3.587   0.196  15.756  0.2621 -0.6758  0.2760
  690MPD2    H710213   3.517   0.164  15.823  0.3673  0.1488  0.7875
  691TMC3    C110214   3.444   0.070  15.608  0.1926  0.2642 -0.4103
  691TMC3    C210215   3.392   0.077  15.482  0.2917 -0.6740 -0.4907
  691TMC3    C310216   3.262   0.107  15.467 -0.7099  0.0729  0.1055
  691TMC3    C410217   3.358   0.067  15.718  0.5454 -0.4114 -0.0888
  691TMC3    C510218   3.225   0.089  15.695  0.1375  0.3972 -0.3835
  691TMC3    C610219   3.175   0.121  15.575 -0.3383  0.3278 -0.1731
  691TMC3     C10220   3.561   0.153  15.624  0.2191 -0.0635 -0.5877
  691TMC3     O10221   3.623   0.184  15.523 -0.1906  0.4307  0.3516
  691TMC3     H10222   3.460   0.090  15.399  0.4286 -0.2617 -0.3135
  691TMC3    H110223   3.386   0.030  15.816 -0.4941 -0.5988  0.1381
  691TMC3    H210224   3.068   0.126  15.555 -0.4550  2.2343  0.9882
  691TMC3    C710225   3.148   0.131  15.813 -0.0241 -0.6043 -1.0315
  691TMC3    C810226   3.220   0.160  15.336 -0.0425 -0.1277 -0.8023
  691TMC3    O110227   3.210   0.139  15.922 -0.5784  0.7531  0.2944
  691TMC3    O210228   3.300   0.153  15.243  0.4010  0.4279 -0.0490
  692TMC3    C110229   0.673   1.600  16.248 -0.3514 -0.8235 -0.1955
  692TMC3    C210230   0.701   1.592  16.381 -0.9208  0.3231 -0.7549
  692TMC3    C310231   0.789   1.493  16.425 -0.2440  0.5613  0.4033
  692TMC3    C410232   0.712   1.500  16.157  1.4100  0.1039 -0.0249
  692TMC3    C510233   0.793   1.403  16.203 -0.3507 -0.3931  0.0249
  692TMC3    C610234   0.845   1.409  16.336 -0.4326 -1.1972 -0.1785
  692TMC3     C10235   0.562   1.682  16.210  0.2556 -0.5012 -0.0270
  692TMC3     O10236   0.489   1.657  16.115 -0.4640  0.7570 -0.2192
  692TMC3     H10237   0.682   1.672  16.452  1.2063  0.7543 -0.6713
  692TMC3    H110238   0.690   1.501  16.051 -0.6049  0.5313  0.3961
  692TMC3    H210239   0.940   1.366  16.365  1.1448  1.7386 -1.0083
  692TMC3    C710240   0.866   1.324  16.107 -1.0531 -0.3240  0.6258
  692TMC3    C810241   0.749   1.418  16.544  0.1486  0.0494  0.0676
  692TMC3    O110242   0.842   1.346  15.990  0.0329 -0.0852 -0.3423
  692TMC3    O210243   0.782   1.299  16.543 -0.3001  0.5989  0.3603
  693MPD2     C10244   4.279   3.901  10.310  0.1010  0.0150 -0.8890
  693MPD2    C110245   4.259   3.768  10.343  0.1412  0.1971 -0.2073
  693MPD2    C210246   4.354   3.671  10.331 -0.6012  0.0352  0.6626
  693MPD2    C310247   4.476   3.708  10.285 -0.0142  0.9077  0.1186
  693MPD2    C410248   4.490   3.836  10.233 -0.9275  0.2507  0.0194
  693MPD2    C510249   4.393   3.928  10.235 -0.5458  0.1788 -0.4654
  693MPD2     H10250   4.341   3.571  10.371  1.1063 -1.4455 -2.4739
  693MPD2    H110251   4.581   3.866  10.183 -0.3414 -2.0806 -0.3412
  693MPD2    H210252   4.210   3.984  10.318  0.0482 -0.2664  1.6780
  693MPD2    H310253   4.413   4.021  10.183 -0.1996 -0.5164 -1.5876
  693MPD2     N10254   4.585   3.617  10.303 -0.3544 -0.0389  0.0094
  693MPD2    H510255   4.556   3.533  10.353  0.2015 -0.9953 -1.2746
  693MPD2    N110256   4.143   3.740  10.411  1.2160  1.1315 -0.7984
  693MPD2    H710257   4.089   3.819  10.447  1.6224  0.2077  1.8092
  694TMC3    C110258   3.980   3.622  10.530  0.0774 -0.4608  0.3591
  694TMC3    C210259   3.895   3.512  10.525  0.2723  0.1957  0.2852
  694TMC3    C310260   3.831   3.475  10.639 -0.2738 -0.2246  0.0670
  694TMC3    C410261   4.006   3.683  10.653 -0.4926 -0.1605  0.1031
  694TMC3    C510262   3.944   3.635  10.761 -0.2359  1.1149 -0.1447
  694TMC3    C610263   3.860   3.531  10.755 -0.0168  0.0739  0.0789
  694TMC3     C10264   4.092   3.619  10.432  0.2072 -0.1183  0.0456
  694TMC3     O10265   4.100   3.521  10.364  0.4773  0.6111 -0.7007
  694TMC3     H10266   3.872   3.459  10.433  0.3408  1.5669 -0.5233
  694TMC3    H110267   4.082   3.759  10.666  0.8741 -1.1851 -1.8022
  694TMC3    H210268   3.806   3.499  10.843  0.9362 -0.2150  0.5635
  694TMC3    C710269   3.984   3.691  10.893 -0.2926  0.1729  0.8959
  694TMC3    C810270   3.750   3.355  10.645 -0.9395 -0.1874  0.1786
  694TMC3    O110271   4.031   3.805  10.880 -0.6832  0.6851 -0.2369
  694TMC3    O210272   3.671   3.331  10.734 -0.3706  0.3367  0.0909
  695MPD2     C10273   1.158   0.680  12.924 -0.4012  0.9147  0.5802
  695MPD2    C110274   1.120   0.784  13.019  0.5906  0.2126  0.2539
  695MPD2    C210275   0.990   0.811  13.039  0.2900  0.4921  1.2775
  695MPD2    C310276   0.891   0.754  12.953  0.5165 -0.2943  0.3712
  695MPD2    C410277   0.932   0.658  12.866  0.0053 -0.1753  0.4542
  695MPD2    C510278   1.058   0.618  12.851  0.5110  0.6967  0.0691
  695MPD2     H10279   0.959   0.888  13.109 -1.3039  0.9319  0.0739
  695MPD2    H110280   0.856   0.601  12.814 -0.3341  1.6486 -1.0602
  695MPD2    H210281   1.260   0.647  12.908  0.1855  1.9793  2.1066
  695MPD2    H310282   1.081   0.533  12.788  0.4636  1.7256 -1.3241
  695MPD2     N10283   0.759   0.782  12.980 -0.6326  0.3265 -0.4865
  695MPD2    H510284   0.749   0.847  13.058  3.2615 -0.2227  0.4839
  695MPD2    N110285   1.217   0.846  13.105 -0.2648  0.0432  0.8080
  695MPD2    H710286   1.173   0.924  13.153 -1.6724  1.1612 -2.2585
  696TMC3    C110287   0.518   0.802  12.949 -0.4525  0.1996  0.1688
  696TMC3    C210288   0.505   0.795  13.089 -0.0823 -0.5599  0.2989
  696TMC3    C310289   0.391   0.833  13.143  0.4413  0.7048 -0.2960
  696TMC3    C410290   0.422   0.856  12.868  0.6460  0.1469  0.4786
  696TMC3    C510291   0.307   0.898  12.931 -0.4442 -0.4286  0.8235
  696TMC3    C610292   0.292   0.888  13.069 -0.1831 -0.1155 -0.7201
  696TMC3     C10293   0.648   0.763  12.895  0.4461 -0.1407 -1.2408
  696TMC3     O10294   0.648   0.707  12.785  0.0150  0.0401  0.0119
  696TMC3     H10295   0.585   0.763  13.154 -0.7226 -1.7563  0.5021
  696TMC3    H110296   0.433   0.856  12.760 -0.4362 -0.3543  0.3783
  696TMC3    H210297   0.210   0.929  13.126 -0.0813 -1.5896  0.5054
  696TMC3    C710298   0.231   1.000  12.866  0.1596  0.0780 -0.4344
  696TMC3    C810299   0.402   0.909  13.269  0.0016 -0.0337  0.9595
  696TMC3    O110300   0.243   1.017  12.745 -0.2197 -0.2205 -0.1842
  696TMC3    O210301   0.371   1.028  13.257  0.1913  0.3628  0.1123
  697MPD2     C10302   4.449   3.185  15.764 -0.1930 -0.1474 -0.6668
  697MPD2    C110303   4.511   3.123  15.655 -0.4599 -0.5865  0.3118
  697MPD2    C210304   4.535   3.209  15.545 -0.3555  0.0241  0.5981
  697MPD2    C310305   4.515   3.345  15.546  0.3417  0.0918 -0.1318
  697MPD2    C410306   4.456   3.398  15.659  0.0871  0.1992 -0.2515
  697MPD2    C510307   4.431   3.319  15.771 -0.0808 -0.1014 -0.6570
  697MPD2     H10308   4.586   3.168  15.459 -1.6756  3.4415 -1.7944
  697MPD2    H110309   4.428   3.502  15.660  1.7220  0.6493 -1.6656
  697MPD2    H210310   4.412   3.125  15.847  2.3036 -0.0496  0.5399
  697MPD2    H310311   4.400   3.363  15.865  0.1938  1.2727 -1.2129
  697MPD2     N10312   4.538   3.414  15.425 -0.0079  1.1302  0.1065
  697MPD2    H510313   4.582   3.361  15.351 -0.8435 -0.0368  0.4541
  697MPD2    N110314   4.538   2.981  15.652 -0.3254  0.1902 -0.2159
  697MPD2    H710315   4.542   2.950  15.556  0.9131  0.6543 -0.3093
  698TMC3    C110316   4.571   3.575  15.274  0.1473 -0.4039 -0.4314
  698TMC3    C210317   4.607   3.711  15.253 -0.1390 -0.3282  0.2260
  698TMC3    C310318   4.692   3.748  15.155 -0.1209  0.3797 -0.0077
  698TMC3    C410319   4.614   3.475  15.188 -0.2516  0.1331 -0.3466
  698TMC3    C510320   4.704   3.517  15.098  0.8188  0.6298  0.7132
  698TMC3    C610321   0.020   3.645  15.080  0.0043 -0.6117  0.1379
  698TMC3     C10322   4.514   3.542  15.402  0.3197  0.1881 -0.5279
  698TMC3     O10323   4.464   3.622  15.476  0.1156  0.0880  0.2921
  698TMC3     H10324   4.558   3.793  15.304 -0.8682 -0.7969  0.2877
  698TMC3    H110325   4.589   3.369  15.191 -3.3131  0.8132 -2.1251
  698TMC3    H210326   0.086   3.683  15.004 -2.9424 -0.6862 -2.4446
  698TMC3    C710327   0.012   3.420  14.985  0.3509 -0.1496  0.0874
  698TMC3    C810328   0.025   3.881  15.159  0.6536 -0.6487  0.5440
  698TMC3    O110329   4.658   3.325  14.984  0.8108  0.0446 -0.2590
  698TMC3    O210330   4.667   3.967  15.198  0.3047 -0.0119  0.2868
  699TMC3    C110331   0.354   0.730  12.554 -0.1393 -0.3609 -0.0970
  699TMC3    C210332   0.385   0.630  12.642  0.1442 -0.5497  0.2041
  699TMC3    C310333   0.287   0.563  12.708  0.1378  0.4120 -0.7907
  699TMC3    C410334   0.227   0.782  12.553 -0.2234 -0.1351  0.5679
  699TMC3    C510335   0.131   0.718  12.627  0.0156 -0.1272  0.4597
  699TMC3    C610336   0.155   0.600  12.698 -0.1548 -0.0218  0.1614
  699TMC3     C10337   0.458   0.787  12.464  0.1766  0.4413 -0.0729
  699TMC3     O10338   0.410   0.854  12.368  0.3348  0.4499  0.1135
  699TMC3     H10339   0.479   0.577  12.636  1.0980  1.0838  0.6780
  699TMC3    H110340   0.215   0.883  12.514  3.6551 -0.1402 -0.6098
  699TMC3    H210341   0.076   0.545  12.747  1.1842  0.2514  2.6829
  699TMC3    C710342   0.003   0.769  12.661  0.0796  0.0875  0.4233
  699TMC3    C810343   0.317   0.498  12.832 -0.2284 -0.5798 -0.0689
  699TMC3    O110344   4.679   0.723  12.768  0.1107  0.4237 -0.1539
  699TMC3    O210345   0.220   0.442  12.885  0.0359  0.1888 -0.3851
  700TMC3    C110346   4.159   3.244  17.440 -0.5984  0.2671 -0.7806
  700TMC3    C210347   4.274   3.168  17.412 -0.1418  0.5596  0.2077
  700TMC3    C310348   4.370   3.157  17.507  0.1991  0.1256  0.3500
  700TMC3    C410349   4.153   3.313  17.560  0.2093 -0.0168  0.6058
  700TMC3    C510350   4.258   3.297  17.653 -1.3367  0.5657 -0.3508
  700TMC3    C610351   4.372   3.230  17.622  0.4460  0.5566 -0.3473
  700TMC3     C10352   4.110   3.320  17.323  0.1714 -0.2506  0.6899
  700TMC3     O10353   4.119   3.272  17.209  0.1998 -0.4321  0.3729
  700TMC3     H10354   4.289   3.122  17.315 -1.1314 -0.4573  0.5416
  700TMC3    H110355   4.069   3.374  17.591 -0.8278 -0.8420 -0.5901
  700TMC3    H210356   4.465   3.259  17.670 -0.5402  1.2646  1.1551
  700TMC3    C710357   4.267   3.395   0.075 -0.4374  0.4014 -0.1119
  700TMC3    C810358   4.499   3.098  17.466  0.1081  0.3965 -0.1800
  700TMC3    O110359   4.373   3.401   0.133  0.5917 -0.1391  0.0958
  700TMC3    O210360   4.500   3.059  17.348 -0.0628  0.3732 -0.1392
  701TMC3    C110361   3.842   2.293  15.638 -0.4385 -0.3170  0.0062
  701TMC3    C210362   3.888   2.201  15.546  0.0406 -0.6055  0.4525
  701TMC3    C310363   3.986   2.244  15.457  0.4815 -0.0070 -0.1263
  701TMC3    C410364   3.904   2.424  15.643 -0.0576  0.6194 -0.7300
  701TMC3    C510365   4.003   2.455  15.549 -0.5125  0.2053 -0.5115
  701TMC3    C610366   4.035   2.367  15.446  0.3314 -0.1245  0.2445
  701TMC3     C10367   3.763   2.243  15.752  0.4794 -0.5991 -0.1352
  701TMC3     O10368   3.759   2.320  15.847  0.1653 -1.1559  0.0598
  701TMC3     H10369   3.852   2.099  15.543  0.0199 -0.6435  2.0170
  701TMC3    H110370   3.894   2.475  15.738  1.3055  0.0192 -0.2616
  701TMC3    H210371   4.117   2.391  15.380 -0.4773  1.4040 -0.2085
  701TMC3    C710372   4.061   2.587  15.539 -0.2139 -0.6122 -0.1007
  701TMC3    C810373   4.002   2.177  15.331  0.0429 -0.5780 -0.0723
  701TMC3    O110374   4.083   2.623  15.424  0.0499  0.2594  0.2688
  701TMC3    O210375   4.112   2.183  15.272 -0.2299  0.0109 -0.1825
  702MPD2     C10376   3.230   4.576   9.965  0.6385 -0.5942 -0.5696
  702MPD2    C110377   3.161   4.693   9.986  0.5431  0.2177 -0.1809
  702MPD2    C210378   3.194   0.085   9.921 -0.0613 -1.4384  0.0525
  702MPD2    C310379   3.303   0.098   9.839 -0.4068 -0.8545 -0.0478
  702MPD2    C410380   3.374   4.696   9.812  0.6636 -0.5080 -0.1756
  702MPD2    C510381   3.331   4.579   9.873 -0.7183  0.3522 -0.1721
  702MPD2     H10382   3.132   0.167   9.955  2.3595  1.2679 -2.0348
  702MPD2    H110383   3.452   4.698   9.736  2.0383 -0.6495  1.2275
  702MPD2    H210384   3.203   4.481  10.009 -1.3069  0.4653  0.5192
  702MPD2    H310385   3.384   4.488   9.847  1.2207  1.0163  1.4710
  702MPD2     N10386   3.347   0.215   9.779  0.2470  0.1260  0.7281
  702MPD2    H510387   3.440   0.211   9.739 -1.1723 -1.1580 -2.4837
  702MPD2    N110388   3.073   4.702  10.096  0.5468 -0.0563 -0.3642
  702MPD2    H710389   3.042   0.074  10.114  1.4144  0.0186  0.7525
  703TMC3    C110390   3.361   0.448   9.761 -0.8928  0.1228  0.0343
  703TMC3    C210391   3.345   0.560   9.844 -1.0085  0.6852 -0.0657
  703TMC3    C310392   3.449   0.649   9.852 -0.0095  0.1216 -0.2240
  703TMC3    C410393   3.485   0.425   9.700 -0.3675  0.2179 -0.0136
  703TMC3    C510394   3.588   0.517   9.712 -1.1121 -0.4781  0.9990
  703TMC3    C610395   3.566   0.635   9.784  0.0278 -0.5756  0.0705
  703TMC3     C10396   3.282   0.335   9.803 -0.1733 -0.2212 -0.2097
  703TMC3     O10397   3.168   0.362   9.833  0.4318  0.4918 -0.6392
  703TMC3     H10398   3.253   0.561   9.902 -0.0125 -1.2691  1.5955
  703TMC3    H110399   3.488   0.350   9.621  1.2437 -0.0631  0.2995
  703TMC3    H210400   3.650   0.703   9.797  1.0194 -1.2472 -2.6392
  703TMC3    C710401   3.699   0.496   9.624  0.3309  0.2290 -0.3769
  703TMC3    C810402   3.456   0.738   9.966  0.9626  0.2826  0.0406
  703TMC3    O110403   3.711   0.379   9.590 -0.2523  0.6305 -0.2779
  703TMC3    O210404   3.534   0.835   9.957 -0.1144 -0.1269  0.0068
  704TMC3    C110405   0.867   2.471  12.255  0.1497 -0.0633 -0.5024
  704TMC3    C210406   0.978   2.545  12.277 -0.4125 -0.6168  0.1184
  704TMC3    C310407   1.073   2.497  12.360  0.0279  0.2698  0.1998
  704TMC3    C410408   0.845   2.350  12.304 -0.2232  0.2406 -0.0170
  704TMC3    C510409   0.945   2.313  12.399 -0.0017 -0.2805  0.4070
  704TMC3    C610410   1.064   2.380  12.417 -0.3265 -0.5792 -0.6595
  704TMC3     C10411   0.807   2.492  12.130  0.7084  0.1479 -0.5761
  704TMC3     O10412   0.686   2.470  12.116  0.0567 -0.3699  0.1328
  704TMC3     H10413   0.991   2.647  12.243 -0.1726 -0.5545  0.3920
  704TMC3    H110414   0.749   2.300  12.299 -1.1500  1.9443  0.9098
  704TMC3    H210415   1.130   2.341  12.493  2.0157  1.6534 -1.5423
  704TMC3    C710416   0.971   2.171  12.390 -0.0742 -0.1276  0.3607
  704TMC3    C810417   1.196   2.550  12.323  0.0506  0.1580 -0.6596
  704TMC3    O110418   1.085   2.132  12.417 -0.4793  0.4381 -0.3614
  704TMC3    O210419   1.202   2.617  12.222 -0.4503 -0.3732  0.1885
  705MPD2     C10420   1.376   0.874  16.687 -0.5420 -0.6476  0.4716
  705MPD2    C110421   1.292   0.975  16.646  0.1032  0.6559 -0.1688
  705MPD2    C210422   1.172   1.003  16.718 -0.3548 -0.4438  0.3415
  705MPD2    C310423   1.130   0.913  16.817  0.4614  0.2277 -0.3043
  705MPD2    C410424   1.198   0.799  16.838 -0.3157 -0.3199  0.1566
  705MPD2    C510425   1.325   0.788  16.783  0.8434 -0.3417 -0.4123
  705MPD2     H10426   1.115   1.087  16.680  0.4250  0.3534  0.9239
  705MPD2    H110427   1.169   0.725  16.911  0.7573 -1.5932 -0.7112
  705MPD2    H210428   1.467   0.841  16.639 -0.8121  0.4267 -0.7616
  705MPD2    H310429   1.384   0.699  16.799  0.4064 -0.8384 -1.5534
  705MPD2     N10430   1.004   0.920  16.885  0.0610 -0.1937 -1.0636
  705MPD2    H510431   0.985   0.846  16.953 -0.7602  0.0262 -1.0537
  705MPD2    N110432   1.313   1.041  16.524  0.0683  0.1062  0.1429
  705MPD2    H710433   1.239   1.105  16.497  1.0177  0.9980 -0.3357
  706TMC3    C110434   1.464   1.091  16.079 -0.6763 -0.2828  0.0930
  706TMC3    C210435   1.388   1.198  16.053 -0.2712 -0.4820 -1.1660
  706TMC3    C310436   1.325   1.262  16.165 -0.4207  0.8078 -0.0404
  706TMC3    C410437   1.475   1.032  16.205  0.9357 -0.6482  0.0988
  706TMC3    C510438   1.398   1.088  16.302  0.4283 -0.3100  0.4306
  706TMC3    C610439   1.333   1.209  16.290  0.3138 -0.7087  0.3869
  706TMC3     C10440   1.532   1.014  15.976 -0.2790  0.0146  0.4964
  706TMC3     O10441   1.635   0.955  16.002  0.3859 -0.0114  0.0356
  706TMC3     H10442   1.373   1.244  15.956 -2.2734  0.0666 -0.5923
  706TMC3    H110443   1.524   0.935  16.212 -0.9149 -1.3695  3.1161
  706TMC3    H210444   1.271   1.242  16.372  0.6851  0.7698  0.0801
  706TMC3    C710445   1.413   1.026  16.433 -0.3450  0.2471 -0.1075
  706TMC3    C810446   1.242   1.380  16.137 -0.0640  0.1699  0.3135
  706TMC3    O110447   1.521   0.972  16.449 -0.1005  0.0873  0.2855
  706TMC3    O210448   1.189   1.382  16.029 -0.0045 -0.1176 -0.5973
  707TMC3    C110449   3.779   4.585   2.258  0.4749 -0.0555  0.4565
  707TMC3    C210450   3.891   4.538   2.323 -0.7305 -0.2246 -0.5418
  707TMC3    C310451   4.009   4.607   2.334 -0.1476  0.0724  0.5541
  707TMC3    C410452   3.790   4.703   2.194  0.2245 -0.5010 -0.1850
  707TMC3    C510453   3.913   0.050   2.207  0.0597  0.3313  0.3894
  707TMC3    C610454   4.027   0.005   2.275 -0.2330 -0.3505 -0.1671
  707TMC3     C10455   3.733   4.477   2.170 -0.5692  0.3508  0.1702
  707TMC3     O10456   3.782   4.368   2.173  0.2337 -0.1875  0.2517
  707TMC3     H10457   3.882   4.439   2.367 -1.7753 -0.0965 -0.4596
  707TMC3    H110458   3.710   0.021   2.133  0.9916  0.4999 -0.5395
  707TMC3    H210459   4.115   0.066   2.293 -1.4766  1.1053  0.9855
  707TMC3    C710460   3.897   0.193   2.199  0.0658  0.1963 -0.3114
  707TMC3    C810461   4.129   4.531   2.359 -0.4190  0.4275 -0.0313
  707TMC3    O110462   3.787   0.237   2.217  0.1497  0.0098 -0.2252
  707TMC3    O210463   4.241   4.588   2.375 -0.4601 -0.2562 -0.2654
  708MPD2     C10464   4.448   3.904  13.935  0.8609  0.1665  0.1374
  708MPD2    C110465   4.427   4.018  13.863  0.6336  0.8644 -0.9369
  708MPD2    C210466   4.350   4.116  13.919  0.0325  0.0629 -0.0983
  708MPD2    C310467   4.288   4.100  14.046  0.6001  0.3502  0.1865
  708MPD2    C410468   4.313   3.982  14.116 -0.5591  0.0617  0.1916
  708MPD2    C510469   4.392   3.884  14.057  0.0745  0.1431 -0.2604
  708MPD2     H10470   4.343   4.213  13.872 -0.5828 -0.4617 -1.0906
  708MPD2    H110471   4.268   3.958  14.212  0.1476 -0.5583  0.3640
  708MPD2    H210472   4.503   3.824  13.888 -0.0319 -1.3477  1.6989
  708MPD2    H310473   4.411   3.790  14.107  0.7359  1.1861  1.4552
  708MPD2     N10474   4.212   4.205  14.097 -0.5036  0.2459  0.5654
  708MPD2    H510475   4.170   4.204  14.190 -1.1354 -0.5105  0.2738
  708MPD2    N110476   4.494   4.045  13.747  0.3324  0.2237  0.0651
  708MPD2    H710477   4.535   3.965  13.700 -0.0496 -1.1558  2.0687
  709TMC3    C110478   4.579   4.169  13.550 -0.2483 -0.9794  0.4266
  709TMC3    C210479   4.508   4.103  13.460 -0.5048 -0.2228  0.2308
  709TMC3    C310480   4.456   4.170  13.352  0.1669  0.2403 -0.6618
  709TMC3    C410481   4.617   4.294  13.527  0.2157 -0.1573 -0.2429
  709TMC3    C510482   4.577   4.363  13.413 -0.2251 -0.9989 -0.2086
  709TMC3    C610483   4.490   4.300  13.326  0.6897 -0.1088  0.5506
  709TMC3     C10484   4.510   4.170  13.680  0.1311  0.6656  0.0418
  709TMC3     O10485   4.448   4.271  13.695 -0.3637 -0.2249 -0.1177
  709TMC3     H10486   4.471   4.005  13.488  0.4627 -0.4673  0.6620
  709TMC3    H110487   4.653   4.350  13.613 -0.2806 -0.0813 -0.0841
  709TMC3    H210488   4.459   4.358  13.240 -0.9517 -1.4012  0.2873
  709TMC3    C710489   4.546   4.497  13.459 -0.5416 -0.0802 -0.3478
  709TMC3    C810490   4.353   4.101  13.279 -0.0979 -0.0049  0.2419
  709TMC3    O110491   4.592   4.589  13.402  0.1994 -0.4944  0.5672
  709TMC3    O210492   4.355   3.976  13.296  0.0483 -0.2841 -0.3649
  710TMC3    C110493   0.658   0.930   0.659  0.0405 -0.1508  1.2583
  710TMC3    C210494   0.757   0.920   0.563 -0.0089  0.0158 -0.3187
  710TMC3    C310495   0.849   0.830   0.597  0.1689  0.2136 -0.3052
  710TMC3    C410496   0.657   0.876   0.782 -0.5789  0.1081  0.3022
  710TMC3    C510497   0.756   0.784   0.807  0.2394  0.2564  0.0161
  710TMC3    C610498   0.851   0.751   0.711  0.2121 -0.0142  0.0328
  710TMC3     C10499   0.549   1.018   0.619  0.2968  0.2761  0.7466
  710TMC3     O10500   0.571   1.089   0.525 -0.1540  0.4498 -0.1090
  710TMC3     H10501   0.745   0.960   0.463 -0.9976  1.3190  0.3218
  710TMC3    H110502   0.592   0.905   0.864 -0.2502 -0.3214  0.7144
  710TMC3    H210503   0.905   0.657   0.715 -2.0033 -1.3613 -1.3289
  710TMC3    C710504   0.746   0.705   0.931  0.0594  0.5287  0.4091
  710TMC3    C810505   0.945   0.808   0.488  0.3472 -0.3392 -0.8596
  710TMC3    O110506   0.629   0.686   0.969 -0.0963 -0.0738  0.5470
  710TMC3    O210507   0.938   0.857   0.375  0.3200 -0.4618  0.5727
  711TMC3    C110508   4.413   1.650  15.364  0.8295  0.4949  0.0630
  711TMC3    C210509   4.433   1.538  15.441 -0.4513  0.5577 -0.2348
  711TMC3    C310510   4.474   1.555  15.574 -0.6839  0.3764  0.6068
  711TMC3    C410511   4.444   1.772  15.417 -0.0655 -0.1337 -0.2527
  711TMC3    C510512   4.481   1.782  15.545  0.5778  0.6855 -0.6775
  711TMC3    C610513   4.489   1.678  15.629 -0.3354 -0.1197 -1.0280
  711TMC3     C10514   4.419   1.626  15.223 -0.3899 -0.1108 -0.4766
  711TMC3     O10515   4.459   1.515  15.189 -0.6373 -0.4328 -0.4120
  711TMC3     H10516   4.422   1.439  15.399 -0.3059  0.8012 -0.8505
  711TMC3    H110517   4.447   1.859  15.353 -1.4940 -0.1266 -0.3048
  711TMC3    H210518   4.511   1.689  15.735  0.4972 -1.3485 -1.0876
  711TMC3    C710519   4.598   1.863  15.574 -0.1976 -0.8937 -1.1053
  711TMC3    C810520   4.588   1.463  15.589 -0.1596  0.1532 -0.0259
  711TMC3    O110521   4.681   1.809  15.646 -0.8698 -0.0188  0.2223
  711TMC3    O210522   4.599   1.361  15.526  0.2428 -0.7355 -0.5408
  712MPD2     C10523   0.916   2.577  13.711  0.3525 -0.4013 -0.7619
  712MPD2    C110524   0.864   2.682  13.645  0.0757  0.3010 -0.0066
  712MPD2    C210525   0.948   2.786  13.611 -0.1360  0.0308 -0.6712
  712MPD2    C310526   1.072   2.798  13.658 -0.3470  0.0817 -0.6680
  712MPD2    C410527   1.123   2.695  13.729 -0.1088 -0.1738  0.3339
  712MPD2    C510528   1.049   2.577  13.742 -0.1093  0.8226 -0.6465
  712MPD2     H10529   0.907   2.869  13.556  0.6392  1.2932  0.6736
  712MPD2    H110530   1.228   2.690  13.755  1.1911  0.0811 -4.8325
  712MPD2    H210531   0.854   2.499  13.753  0.5772  1.2284  2.5428
  712MPD2    H310532   1.093   2.491  13.793 -2.1551 -1.0599 -2.0918
  712MPD2     N10533   1.152   2.912  13.650  0.0027 -0.3847  0.2338
  712MPD2    H510534   1.247   2.908  13.686 -0.0132  1.7356  0.5336
  712MPD2    N110535   0.731   2.685  13.606  0.2255  0.0984 -0.5292
  712MPD2    H710536   0.704   2.766  13.553 -1.8430  0.2373  0.7312
  713TMC3    C110537   1.225   3.130  13.627  0.3699  0.4094  0.0988
  713TMC3    C210538   1.326   3.111  13.710 -0.0028  0.1493 -1.2521
  713TMC3    C310539   1.367   3.224  13.783  0.1736 -1.4476  0.5781
  713TMC3    C410540   1.171   3.251  13.603 -0.7898  0.0504 -0.0097
  713TMC3    C510541   1.199   3.350  13.693 -0.5318  0.3245  0.5973
  713TMC3    C610542   1.305   3.339  13.776 -0.4379  0.3859  0.8521
  713TMC3     C10543   1.136   3.021  13.573 -0.0304  0.1726  0.0296
  713TMC3     O10544   1.046   3.046  13.494 -0.0096  0.4922  0.5231
  713TMC3     H10545   1.372   3.013  13.714 -0.2166  0.1685  1.4766
  713TMC3    H110546   1.093   3.257  13.528  0.2485  3.1900 -0.8459
  713TMC3    H210547   1.323   3.414  13.852 -0.5215  0.7963  0.4650
  713TMC3    C710548   1.153   3.483  13.671 -0.1895  0.1990  0.4288
  713TMC3    C810549   1.505   3.216  13.830 -0.5764 -0.7633  1.2874
  713TMC3    O110550   1.235   3.574  13.672 -0.0146 -0.2943 -0.0150
  713TMC3    O210551   1.569   3.317  13.815 -0.3095 -0.2107  0.3958
  714MPD2     C10552   3.141   0.962   1.686  0.1148 -0.1195  0.2977
  714MPD2    C110553   3.219   0.949   1.574  0.1212  0.1881 -0.6861
  714MPD2    C210554   3.193   1.033   1.466  0.1293 -0.0610 -0.1184
  714MPD2    C310555   3.094   1.128   1.472 -0.8224 -1.0795  0.5572
  714MPD2    C410556   3.010   1.136   1.584 -0.2720 -0.1103 -0.6408
  714MPD2    C510557   3.032   1.044   1.681  0.3654 -0.3078 -0.7159
  714MPD2     H10558   3.243   1.021   1.371 -3.2664  0.8489 -2.0224
  714MPD2    H110559   2.924   1.201   1.590 -0.7249 -0.8356  0.5728
  714MPD2    H210560   3.158   0.908   1.778 -0.3329  2.8413  2.1418
  714MPD2    H310561   2.970   1.066   1.767 -0.0700  0.0163 -1.1105
  714MPD2     N10562   3.078   1.217   1.364 -0.0812 -0.1213  0.4752
  714MPD2    H510563   3.138   1.188   1.288  0.6285  1.9384  0.2536
  714MPD2    N110564   3.331   0.871   1.585  0.1367 -0.4618 -0.7208
  714MPD2    H710565   3.358   0.847   1.680 -1.0314 -0.1977 -0.3269
  715TMC3    C110566   3.544   0.786   1.532 -0.5895 -0.5929  0.1948
  715TMC3    C210567   3.610   0.698   1.458 -0.3906 -0.2195  0.1667
  715TMC3    C310568   3.733   0.658   1.494 -0.3595 -0.2774 -1.3654
  715TMC3    C410569   3.604   0.858   1.633  0.5247 -0.6078 -0.5881
  715TMC3    C510570   3.735   0.821   1.651  0.3693 -0.1999  0.5881
  715TMC3    C610571   3.800   0.720   1.602  0.5595  0.3210 -0.2431
  715TMC3     C10572   3.413   0.834   1.483  0.9419  0.0659  0.2255
  715TMC3     O10573   3.377   0.809   1.370 -0.3687 -0.2290 -0.5207
  715TMC3     H10574   3.564   0.648   1.373  0.7018  0.8676 -1.0630
  715TMC3    H110575   3.552   0.919   1.706 -1.8991 -2.3951 -0.8101
  715TMC3    H210576   3.908   0.715   1.610  0.4662  2.2812  2.4607
  715TMC3    C710577   3.809   0.883   1.758  0.0904 -0.1744  0.5236
  715TMC3    C810578   3.809   0.569   1.401 -0.6757  0.7767 -0.0233
  715TMC3    O110579   3.909   0.825   1.802  0.6167  0.1502  0.1691
  715TMC3    O210580   3.754   0.526   1.301  0.4008 -0.5718  0.2909
  716MPD2     C10581   3.761   3.392  10.062  0.2402 -0.8358 -0.3242
  716MPD2    C110582   3.822   3.391   9.938 -0.0778 -1.0018 -0.1427
  716MPD2    C210583   3.835   3.273   9.876 -0.0434 -0.3209 -0.0234
  716MPD2    C310584   3.783   3.162   9.927 -0.0059 -0.7093  0.4218
  716MPD2    C410585   3.730   3.156  10.052 -0.7526  0.2715 -0.0513
  716MPD2    C510586   3.720   3.277  10.116  0.1816 -0.3913  0.2088
  716MPD2     H10587   3.894   3.258   9.786  1.3309 -0.1972  0.8579
  716MPD2    H110588   3.690   3.064  10.092  1.6286 -1.2151 -1.0527
  716MPD2    H210589   3.759   3.483  10.122 -0.1604 -2.0281  1.4467
  716MPD2    H310590   3.689   3.268  10.220  0.1714  0.3528  0.2724
  716MPD2     N10591   3.775   3.049   9.841 -0.1576 -1.1900 -0.3042
  716MPD2    H510592   3.803   3.064   9.745  2.3904 -1.8091  0.3236
  716MPD2    N110593   3.858   3.516   9.880  0.3307 -0.6950 -0.1217
  716MPD2    H710594   3.828   3.600   9.929  1.1245 -1.9343  2.4950
  717TMC3    C110595   3.751   2.821   9.776  0.5640 -0.2828  0.0350
  717TMC3    C210596   3.768   2.859   9.645  0.8929  0.0675  0.5288
  717TMC3    C310597   3.768   2.765   9.555  0.1532  0.2195 -0.2213
  717TMC3    C410598   3.736   2.691   9.812 -1.0720 -0.5572  0.1251
  717TMC3    C510599   3.747   2.595   9.717  0.1718  0.4632 -0.0227
  717TMC3    C610600   3.761   2.635   9.584 -0.2694  0.2944  0.3711
  717TMC3     C10601   3.733   2.925   9.876 -0.1130 -0.6729  0.5376
  717TMC3     O10602   3.720   2.867   9.983  0.3621 -0.3191 -0.0828
  717TMC3     H10603   3.765   2.965   9.623  2.8984  0.0078 -0.0795
  717TMC3    H110604   3.703   2.659   9.910 -0.7868 -2.0609 -0.2673
  717TMC3    H210605   3.783   2.565   9.504  0.6000 -0.2295  1.0738
  717TMC3    C710606   3.782   2.458   9.752 -0.2994 -0.2725  0.3326
  717TMC3    C810607   3.751   2.805   9.415  0.5542  0.6475  0.2421
  717TMC3    O110608   3.811   2.387   9.655  0.1676 -0.1395  0.0285
  717TMC3    O210609   3.728   2.924   9.402  0.6876 -0.2012  0.4613
  718MPD2     C10610   2.134   3.409  12.911  0.5781 -0.2121 -0.7479
  718MPD2    C110611   2.253   3.391  12.841 -0.4188 -0.7267  0.2421
  718MPD2    C210612   2.268   3.267  12.780 -0.0012 -0.8622  0.1319
  718MPD2    C310613   2.175   3.162  12.805 -0.1821 -0.2247 -0.4294
  718MPD2    C410614   2.055   3.187  12.869  0.2538  0.0013 -0.1287
  718MPD2    C510615   2.030   3.314  12.924 -0.0086  0.6955  0.9036
  718MPD2     H10616   2.355   3.244  12.720  0.6753  3.0230 -0.3584
  718MPD2    H110617   1.973   3.117  12.869 -0.6248  1.0516 -3.1164
  718MPD2    H210618   2.115   3.494  12.976 -0.2446 -0.5898 -0.4919
  718MPD2    H310619   1.937   3.333  12.977 -0.8928 -1.4956  0.1196
  718MPD2     N10620   2.189   3.043  12.736  0.3856  0.2751 -0.6626
  718MPD2    H510621   2.262   3.027  12.668  0.9726  2.2331 -0.4837
  718MPD2    N110622   2.334   3.505  12.828  0.2110  0.1902 -0.6409
  718MPD2    H710623   2.293   3.598  12.828 -2.5686 -1.0315 -2.0580
  719TMC3    C110624   2.525   3.603  12.727 -0.3127  0.0208  0.8536
  719TMC3    C210625   2.447   3.688  12.646 -0.0037  0.3299 -0.4060
  719TMC3    C310626   2.486   3.724  12.522 -0.5422 -0.0946 -0.2666
  719TMC3    C410627   2.656   3.585  12.693 -0.1070  0.0177  0.0383
  719TMC3    C510628   2.704   3.640  12.576  0.4879  0.3024 -0.4388
  719TMC3    C610629   2.620   3.702  12.488  0.0192  0.3781  0.0733
  719TMC3     C10630   2.469   3.488  12.802  0.1048 -0.5241  0.4137
  719TMC3     O10631   2.538   3.388  12.811  0.6361  0.0573 -0.3768
  719TMC3     H10632   2.340   3.683  12.664  0.1820 -0.3204  0.5409
  719TMC3    H110633   2.709   3.527  12.767  0.8377 -1.5385 -1.8750
  719TMC3    H210634   2.654   3.720  12.386 -1.3192  0.7783 -0.3040
  719TMC3    C710635   2.844   3.634  12.544 -0.3276 -0.5727 -0.4962
  719TMC3    C810636   2.388   3.681  12.423 -0.1274  0.6408  0.1072
  719TMC3    O110637   2.872   3.653  12.425 -0.1496 -0.1078 -0.3872
  719TMC3    O210638   2.393   3.720  12.307 -0.1542  0.3967  0.1581
  720MPD2     C10639   1.630   0.124  13.874  0.1648 -0.0711  0.2113
  720MPD2    C110640   1.746   0.133  13.795 -0.3692 -0.7563  0.2436
  720MPD2    C210641   1.874   0.122  13.845  0.5031  0.0536  0.1559
  720MPD2    C310642   1.894   0.099  13.981  0.1970 -0.2148  0.1052
  720MPD2    C410643   1.785   0.083  14.062  0.5183 -0.0370  0.2357
  720MPD2    C510644   1.657   0.096  14.006 -0.8838 -0.0623  0.6171
  720MPD2     H10645   1.962   0.133  13.783 -0.7404 -0.5116 -1.7087
  720MPD2    H110646   1.790   0.065  14.169  0.1644 -1.7081 -0.0169
  720MPD2    H210647   1.529   0.149  13.844 -0.6788 -3.2253  0.3798
  720MPD2    H310648   1.570   0.095  14.071 -2.9633 -0.4991 -2.1759
  720MPD2     N10649   2.029   0.082  14.026  0.6898 -0.0056 -0.2079
  720MPD2    H510650   2.092   0.082  13.947  2.3990  3.0357  1.1410
  720MPD2    N110651   1.741   0.174  13.662  0.0069  0.1856 -0.1354
  720MPD2    H710652   1.825   0.204  13.614 -0.4341  0.7991 -0.5221
  721TMC3    C110653   2.216   0.101  14.155 -0.3203  0.1487 -0.2741
  721TMC3    C210654   2.265   0.052  14.271 -0.0337  0.7701  0.8873
  721TMC3    C310655   2.401   0.031  14.279 -0.1350 -0.0960 -0.2894
  721TMC3    C410656   2.286   0.113  14.037  0.1184  0.3849  0.2868
  721TMC3    C510657   2.422   0.091  14.046 -0.4154 -0.2548  0.1398
  721TMC3    C610658   2.477   0.051  14.165  0.3642  1.4549 -0.2990
  721TMC3     C10659   2.074   0.096  14.146 -0.1271 -0.9105 -0.0198
  721TMC3     O10660   2.018   0.133  14.247 -0.0842 -0.0917  0.2889
  721TMC3     H10661   2.200   0.035  14.356 -3.1781  1.0565 -1.4475
  721TMC3    H110662   2.247   0.179  13.960  1.2714 -0.4894 -1.0435
  721TMC3    H210663   2.584   0.035  14.169  0.0114 -0.6852  0.7779
  721TMC3    C710664   2.505   0.122  13.938 -0.0267  0.4483  0.1872
  721TMC3    C810665   2.464   4.712  14.406 -0.5975  0.0343  0.3777
  721TMC3    O110666   2.618   0.158  13.960 -0.0847 -0.7548  0.3937
  721TMC3    O210667   2.586   0.004  14.398  0.0370 -0.0933  0.3534
  722MPD2     C10668   4.717   3.167  13.383  0.0351 -0.0357 -0.6222
  722MPD2    C110669   4.681   3.294  13.336  0.2759 -0.0859 -0.1230
  722MPD2    C210670   4.548   3.320  13.305  0.4831  0.1266 -0.6736
  722MPD2    C310671   4.449   3.231  13.330  0.2018 -0.0195 -0.1209
  722MPD2    C410672   4.488   3.109  13.373 -0.1538 -0.2677  0.7374
  722MPD2    C510673   4.616   3.077  13.396 -0.4340 -0.0170  0.0073
  722MPD2     H10674   4.525   3.419  13.268 -0.2266  0.7823  1.4811
  722MPD2    H110675   4.421   3.025  13.385 -0.1298  0.1256  3.4309
  722MPD2    H210676   0.099   3.142  13.398 -0.4698 -1.8887 -0.1539
  722MPD2    H310677   4.641   2.976  13.426 -1.4794 -0.2949 -0.0433
  722MPD2     N10678   4.316   3.256  13.306  0.5477  0.2439  0.1687
  722MPD2    H510679   4.289   3.349  13.276  0.8751  0.4453  0.4994
  722MPD2    N110680   0.048   3.398  13.300 -0.2185 -0.0869 -0.0600
  722MPD2    H710681   0.006   3.482  13.263 -0.8798 -0.7256 -0.7401
  723TMC3    C110682   4.086   3.233  13.279 -0.0151 -0.1594  0.2225
  723TMC3    C210683   4.021   3.131  13.211 -0.3270 -0.1422 -0.0350
  723TMC3    C310684   3.917   3.167  13.125  0.1744  1.1548 -0.2039
  723TMC3    C410685   4.060   3.365  13.254  0.1898 -0.1738 -0.6150
  723TMC3    C510686   3.952   3.395  13.167  0.8520  0.2012  0.1149
  723TMC3    C610687   3.882   3.299  13.104 -0.1022 -0.4659 -0.3091
  723TMC3     C10688   4.210   3.175  13.323  0.1050  0.6029 -0.3840
  723TMC3     O10689   4.200   3.067  13.380  0.0158  0.0979 -0.3061
  723TMC3     H10690   4.042   3.025  13.218  0.6901  0.0722  0.2783
  723TMC3    H110691   4.121   3.443  13.298 -0.1404  0.5072 -1.3779
  723TMC3    H210692   3.806   3.315  13.029 -0.0578 -0.7644 -0.4180
  723TMC3    C710693   3.952   3.522  13.104  0.0636 -0.2421  0.2834
  723TMC3    C810694   3.840   3.066  13.055  0.6259  0.3640  0.2346
  723TMC3    O110695   4.052   3.590  13.110 -0.4338  0.4349 -0.4414
  723TMC3    O210696   3.730   3.102  13.019  0.5214  0.3270 -0.0210
  724TMC3    C110697   0.265   2.158   9.096  0.5265  0.5456  0.4324
  724TMC3    C210698   0.348   2.246   9.161  0.7071 -0.3624 -0.3528
  724TMC3    C310699   0.463   2.186   9.211 -0.5719  0.5724 -0.2863
  724TMC3    C410700   0.285   2.018   9.080  0.5959 -0.2618  0.0808
  724TMC3    C510701   0.397   1.961   9.142 -0.3757  0.3330  1.3263
  724TMC3    C610702   0.479   2.048   9.213  0.6156  0.0926 -0.0165
  724TMC3     C10703   0.168   2.199   8.998  0.5867 -0.2202  0.0497
  724TMC3     O10704   0.140   2.125   8.904  0.4631 -1.0562  0.2807
  724TMC3     H10705   0.348   2.352   9.139  2.3822 -0.2746  0.0524
  724TMC3    H110706   0.217   1.955   9.023  0.3368 -0.3907  0.5331
  724TMC3    H210707   0.555   1.999   9.273 -1.3868 -1.4468  1.2652
  724TMC3    C710708   0.391   1.826   9.193  0.1275  0.0557 -0.0282
  724TMC3    C810709   0.563   2.266   9.281 -0.1496 -0.1001 -0.6898
  724TMC3    O110710   0.480   1.795   9.269 -0.0415  0.0941  0.2559
  724TMC3    O210711   0.515   2.366   9.330  0.0354  0.1576 -0.3097
  725TMC3    C110712   2.283   0.547  12.528  0.7064 -0.2823 -0.4476
  725TMC3    C210713   2.258   0.567  12.394  0.0413 -0.0315 -0.0341
  725TMC3    C310714   2.173   0.476  12.331  0.5864  0.0954  1.1171
  725TMC3    C410715   2.232   0.442  12.599  0.0479 -0.5349  0.0968
  725TMC3    C510716   2.156   0.350  12.526  0.0043 -0.5196  0.1743
  725TMC3    C610717   2.118   0.370  12.396  0.2292 -0.6002 -0.7417
  725TMC3     C10718   2.366   0.641  12.594  0.0358  0.2110  0.1724
  725TMC3     O10719   2.392   0.743  12.526 -0.0041 -0.5230  0.5722
  725TMC3     H10720   2.320   0.640  12.343 -3.5488  2.0729 -1.3494
  725TMC3    H110721   2.264   0.414  12.699  1.2137  3.2774  0.8012
  725TMC3    H210722   2.064   0.300  12.333 -2.3132 -2.2513  3.2507
  725TMC3    C710723   2.159   0.205  12.567  0.6990  0.0560 -0.2195
  725TMC3    C810724   2.206   0.466  12.187  0.3769  0.7641 -0.3967
  725TMC3    O110725   2.160   0.124  12.475 -0.5302  0.6506 -0.2802
  725TMC3    O210726   2.210   0.356  12.142 -0.0427 -0.0333 -0.5384
  726MPD2     C10727   0.391   1.698   9.936  0.3053  0.0913  0.3569
  726MPD2    C110728   0.263   1.745   9.902  0.6713 -0.2757  0.1771
  726MPD2    C210729   0.161   1.654   9.901 -0.2908  0.0811  0.1677
  726MPD2    C310730   0.181   1.518   9.913 -0.6720  0.2926  0.1579
  726MPD2    C410731   0.308   1.467   9.919 -0.5711 -0.0846 -0.5498
  726MPD2    C510732   0.409   1.559   9.945  0.0875 -0.3433 -0.3075
  726MPD2     H10733   0.061   1.695   9.902  0.1094  1.0431  1.4746
  726MPD2    H110734   0.332   1.362   9.931  2.0595  0.2878 -2.4593
  726MPD2    H210735   0.480   1.760   9.943  1.4453 -1.5568  0.3384
  726MPD2    H310736   0.507   1.513   9.958  0.2355  0.0199 -0.1146
  726MPD2     N10737   0.066   1.436   9.916 -0.0817  0.2605 -0.3324
  726MPD2    H510738   0.086   1.342   9.949 -3.4744 -0.1093  0.7389
  726MPD2    N110739   0.228   1.882   9.887  0.7431  0.5104 -0.0224
  726MPD2    H710740   0.140   1.904   9.841 -0.0601 -1.1780  0.7012
  727TMC3    C110741   0.257   2.115   9.875  1.2990  0.2381 -0.5099
  727TMC3    C210742   0.304   2.219   9.951 -0.2877  0.9624  0.1137
  727TMC3    C310743   0.229   2.329   9.969  0.2105 -0.2605  0.1599
  727TMC3    C410744   0.130   2.120   9.814 -0.3901  0.0031 -1.2609
  727TMC3    C510745   0.058   2.239   9.830 -0.3987 -1.0941  0.4744
  727TMC3    C610746   0.106   2.344   9.906  0.1805 -0.0716 -0.2871
  727TMC3     C10747   0.322   1.978   9.896  0.1806  0.0697 -0.5468
  727TMC3     O10748   0.439   1.982   9.920  0.1863 -0.3135 -0.0520
  727TMC3     H10749   0.395   2.199  10.005 -0.2556  1.5407  0.2685
  727TMC3    H110750   0.100   2.042   9.745 -1.6926 -0.9827  0.4185
  727TMC3    H210751   0.049   2.435   9.923  0.6142  0.1450  0.0062
  727TMC3    C710752   4.660   2.260   9.752 -0.3657  0.2140 -0.6256
  727TMC3    C810753   0.292   2.456   9.998 -0.2002 -0.1012 -0.4659
  727TMC3    O110754   4.589   2.164   9.734  0.0848 -0.3172 -0.2649
  727TMC3    O210755   0.215   2.534  10.056 -0.1966  0.3038  0.2787
  728TMC3    C110756   4.016   0.611  15.469 -0.4920  0.2800 -0.1053
  728TMC3    C210757   3.977   0.736  15.478  0.2163 -0.3727  0.3891
  728TMC3    C310758   3.986   0.817  15.366 -0.2471  0.0978 -0.0596
  728TMC3    C410759   4.062   0.564  15.346  0.3744 -0.5224  0.4045
  728TMC3    C510760   4.086   0.646  15.239 -0.5124 -0.6512 -0.6959
  728TMC3    C610761   4.049   0.777  15.250  0.0785  0.6985  0.9608
  728TMC3     C10762   3.952   0.510  15.552 -0.2428 -0.0519  0.6334
  728TMC3     O10763   3.970   0.393  15.521 -0.1156 -0.0020  0.1961
  728TMC3     H10764   3.926   0.774  15.566  2.1142  2.1873  0.4031
  728TMC3    H110765   4.071   0.457  15.329  1.7111 -0.0494 -1.8564
  728TMC3    H210766   4.054   0.843  15.164  0.1603 -0.1719  0.2933
  728TMC3    C710767   4.183   0.606  15.136  0.0848  0.7915  0.8904
  728TMC3    C810768   3.926   0.950  15.369 -0.4279 -0.1478  0.2013
  728TMC3    O110769   4.226   0.490  15.143 -0.6290  0.5211 -0.2571
  728TMC3    O210770   3.816   0.959  15.419  0.0523 -0.4985 -0.6933
  729MPD2     C10771   2.906   1.785  15.949 -0.1335 -0.1744  0.0148
  729MPD2    C110772   2.869   1.915  15.979  0.6314 -0.1812  0.6202
  729MPD2    C210773   2.850   1.952  16.109 -0.8633 -0.4319  0.0688
  729MPD2    C310774   2.876   1.865  16.214 -0.5423 -0.4040  0.3840
  729MPD2    C410775   2.934   1.740  16.185  0.2124 -0.4980 -0.0382
  729MPD2    C510776   2.941   1.701  16.054 -0.0626 -0.1080 -0.0875
  729MPD2     H10777   2.805   2.046  16.140  0.0210  0.5936 -1.7668
  729MPD2    H110778   2.964   1.669  16.261 -1.7544 -0.6649  0.5831
  729MPD2    H210779   2.905   1.745  15.848 -0.5094 -0.5247  0.1609
  729MPD2    H310780   2.962   1.597  16.033  1.7382  0.6663 -2.2197
  729MPD2     N10781   2.854   1.894  16.353  0.0114  0.0455  0.0911
  729MPD2    H510782   2.872   1.812  16.410  1.1055 -0.4946 -1.0121
  729MPD2    N110783   2.816   2.005  15.880  0.4453 -0.6575  0.2485
  729MPD2    H710784   2.786   1.953  15.799 -0.7765 -1.2360  1.0692
  730TMC3    C110785   2.764   1.989  16.535  1.0019 -0.7857 -0.1599
  730TMC3    C210786   2.724   2.099  16.593 -0.0813  0.0339  0.0114
  730TMC3    C310787   2.615   2.104  16.676 -0.5885  0.0117 -0.5898
  730TMC3    C410788   2.685   1.867  16.544  0.0058 -1.3907 -0.1770
  730TMC3    C510789   2.576   1.874  16.632  0.0355  0.3365 -0.0792
  730TMC3    C610790   2.553   1.990  16.713 -0.5072 -0.5978  0.1570
  730TMC3     C10791   2.811   2.010  16.404 -0.1828  0.4205  0.3746
  730TMC3     O10792   2.788   2.114  16.347  0.8964  0.4075  0.5136
  730TMC3     H10793   2.763   2.198  16.575  1.0383 -0.2820  0.6828
  730TMC3    H110794   2.697   1.774  16.489 -0.7152 -0.7002 -1.5138
  730TMC3    H210795   2.469   1.991  16.781 -2.6616  1.0897 -2.5082
  730TMC3    C710796   2.454   1.794  16.600 -0.8565  0.2287  0.2165
  730TMC3    C810797   2.532   2.222  16.661 -0.1445  0.9293 -0.2205
  730TMC3    O110798   2.434   1.754  16.484  0.7440  0.9216 -0.3188
  730TMC3    O210799   2.538   2.281  16.554 -0.4504 -0.8220 -0.2521
  731MPD2     C10800   1.321   4.005  12.195 -0.3571  0.1541 -0.9498
  731MPD2    C110801   1.432   4.081  12.207 -1.1042 -0.1469 -0.2595
  731MPD2    C210802   1.470   4.126  12.334  1.0164  0.4940  0.0102
  731MPD2    C310803   1.400   4.087  12.445 -0.6239 -0.0432  0.2864
  731MPD2    C410804   1.289   4.007  12.423 -0.2740 -0.8806 -0.1502
  731MPD2    C510805   1.250   3.966  12.303 -0.2298 -0.2380  0.8661
  731MPD2     H10806   1.558   4.188  12.339  0.5529  1.0470  1.4263
  731MPD2    H110807   1.226   3.993  12.510 -2.2172  2.4081 -1.0223
  731MPD2    H210808   1.276   3.983  12.099 -1.1713 -1.2330 -0.2558
  731MPD2    H310809   1.159   3.908  12.300  0.3964 -1.1410 -0.4159
  731MPD2     N10810   1.437   4.137  12.572 -0.6926 -0.5422 -0.1918
  731MPD2    H510811   1.520   4.195  12.574  0.3242 -1.9496 -1.8898
  731MPD2    N110812   1.483   4.121  12.085 -0.4903  0.0668 -0.0348
  731MPD2    H710813   1.429   4.089  12.005 -1.7248  1.6391  0.1722
  732TMC3    C110814   1.630   4.230  11.948  0.0295 -0.6363  0.0544
  732TMC3    C210815   1.536   4.243  11.847 -0.4697  0.0721  0.0337
  732TMC3    C310816   1.578   4.248  11.722  1.3717 -0.5304 -0.4202
  732TMC3    C410817   1.759   4.268  11.930 -0.2358 -0.1757 -0.0148
  732TMC3    C510818   1.787   4.297  11.798 -0.2781  0.3226  0.2915
  732TMC3    C610819   1.708   4.278  11.690  0.4414  0.1646  0.7799
  732TMC3     C10820   1.597   4.192  12.077 -0.2308  0.7872 -0.2077
  732TMC3     O10821   1.688   4.221  12.155  0.0067  0.0517 -0.0146
  732TMC3     H10822   1.431   4.220  11.864 -0.3921 -0.3061  0.0074
  732TMC3    H110823   1.835   4.264  12.007  0.6947 -0.7727 -0.9670
  732TMC3    H210824   1.739   4.284  11.586 -2.0671  2.3347  0.1602
  732TMC3    C710825   1.924   4.351  11.763  0.7556 -0.6610 -0.5087
  732TMC3    C810826   1.480   4.239  11.611 -0.0605  0.6983  0.2913
  732TMC3    O110827   1.936   4.407  11.652 -0.8934  0.4766  0.7407
  732TMC3    O210828   1.525   4.264  11.505 -0.1154  0.6121  0.2550
  733TMC3    C110829   1.842   2.827  12.605  0.7018 -0.9876 -0.5613
  733TMC3    C210830   1.947   2.796  12.681 -0.0909 -0.7239 -0.5239
  733TMC3    C310831   2.067   2.862  12.644 -0.6926 -0.4470 -0.3989
  733TMC3    C410832   1.849   2.915  12.507 -0.5080  0.6419 -0.6979
  733TMC3    C510833   1.966   2.974  12.474 -0.1371 -0.1064 -0.0771
  733TMC3    C610834   2.080   2.944  12.537 -0.0443 -0.2484  0.4426
  733TMC3     C10835   1.721   2.849  12.686 -0.2443  0.0413  0.0785
  733TMC3     O10836   1.656   2.947  12.657 -0.0843 -0.8887  0.6592
  733TMC3     H10837   1.937   2.735  12.770 -0.5342  0.9480  0.5796
  733TMC3    H110838   1.757   2.949  12.460 -1.2965  1.5526  1.5142
  733TMC3    H210839   2.176   2.982  12.504 -0.7365  0.7645 -0.4072
  733TMC3    C710840   1.964   3.088  12.395 -0.3536  0.7702  0.5026
  733TMC3    C810841   2.113   2.929  12.771  0.5163 -0.3751 -0.3219
  733TMC3    O110842   1.918   3.082  12.283 -0.2631  0.2648 -0.1448
  733TMC3    O210843   2.053   2.911  12.876  0.1196  0.6624  0.3831
  734MPD2     C10844   0.445   0.448  11.698  0.2706 -0.2995 -0.7275
  734MPD2    C110845   0.330   0.493  11.640  0.2391  0.4563  0.2798
  734MPD2    C210846   0.344   0.560  11.517 -0.2497 -0.4505 -0.5427
  734MPD2    C310847   0.463   0.572  11.449 -0.3153 -0.0128  0.7681
  734MPD2    C410848   0.577   0.524  11.515  0.5925  0.5116 -0.3970
  734MPD2    C510849   0.564   0.463  11.639 -0.6199 -0.2997  0.3913
  734MPD2     H10850   0.252   0.605  11.480 -1.2291 -1.9509  0.0397
  734MPD2    H110851   0.675   0.521  11.469 -0.6134 -1.2105 -2.8652
  734MPD2    H210852   0.447   0.383  11.785 -2.3223  2.9124  1.7202
  734MPD2    H310853   0.650   0.446  11.703 -1.0088  0.3703  1.0886
  734MPD2     N10854   0.462   0.617  11.313  0.4347  0.0240 -0.1735
  734MPD2    H510855   0.379   0.669  11.286  0.1499  0.0938  0.8254
  734MPD2    N110856   0.201   0.473  11.707 -0.1137  0.1541 -0.0149
  734MPD2    H710857   0.201   0.422  11.795  0.8220 -1.8718 -1.1992
  735TMC3    C110858   4.689   0.439  11.724 -0.5088  0.5287  0.0978
  735TMC3    C210859   4.572   0.495  11.682 -0.2673 -0.0447 -0.1350
  735TMC3    C310860   4.467   0.421  11.645 -0.4007 -0.0362 -0.6415
  735TMC3    C410861   4.695   0.298  11.726  0.0577 -0.7984  0.6734
  735TMC3    C510862   4.578   0.232  11.711 -0.4600 -0.8702  0.3657
  735TMC3    C610863   4.462   0.292  11.687 -0.0919 -0.4154 -0.0414
  735TMC3     C10864   0.077   0.505  11.657 -0.2230  0.6821 -0.8292
  735TMC3     O10865   0.056   0.561  11.551  0.0322  0.1174 -0.2156
  735TMC3     H10866   4.569   0.603  11.675  0.1431 -0.2352 -3.5064
  735TMC3    H110867   0.067   0.245  11.724 -0.1458 -1.1080 -0.6354
  735TMC3    H210868   4.376   0.229  11.667 -0.8082  0.7867 -0.7874
  735TMC3    C710869   4.587   0.099  11.664  0.4813  0.1711  0.2168
  735TMC3    C810870   4.437   0.430  11.501 -0.0300 -0.2091 -0.3602
  735TMC3    O110871   4.499   0.031  11.715 -0.3940  0.4436 -0.0929
  735TMC3    O210872   4.339   0.374  11.456  0.1313 -0.5802  0.4541
  736MPD2     C10873   4.692   4.559  11.570  0.5391 -0.0899  0.5084
  736MPD2    C110874   0.003   4.677  11.512  0.1993  0.1158 -0.2544
  736MPD2    C210875   0.095   4.679  11.407 -0.1506  0.0067  0.1763
  736MPD2    C310876   0.136   4.555  11.353  0.0069 -0.3298 -0.9054
  736MPD2    C410877   0.092   4.427  11.408  0.4484 -0.3987  0.3090
  736MPD2    C510878   0.011   4.434  11.523  0.7914 -0.2370  0.8695
  736MPD2     H10879   0.131   0.050  11.368 -0.2079  0.9804  2.4907
  736MPD2    H110880   0.119   4.329  11.370 -1.7562 -0.4646 -1.1153
  736MPD2    H210881   4.615   4.568  11.645  0.9691 -2.0087  1.1865
  736MPD2    H310882   4.691   4.341  11.558 -0.8998 -0.1045 -0.8633
  736MPD2     N10883   0.237   4.548  11.252  0.4121  0.0837 -0.0368
  736MPD2    H510884   0.275   4.456  11.234  0.7911  0.5167 -1.4232
  736MPD2    N110885   4.679   0.081  11.562 -0.0135 -0.0455  0.2121
  736MPD2    H710886   0.008   0.162  11.528 -1.0583  0.9335  0.9296
  737TMC3    C110887   0.382   4.606  11.093 -0.8172 -0.3260  0.3795
  737TMC3    C210888   0.382   4.651  10.962 -0.3806 -0.0759 -0.3852
  737TMC3    C310889   0.495   4.628  10.894  0.8604  0.2675 -0.5199
  737TMC3    C410890   0.484   4.540  11.156 -0.0602 -0.3007 -1.0617
  737TMC3    C510891   0.598   4.533  11.089  0.6003 -1.0113  0.5402
  737TMC3    C610892   0.606   4.574  10.958 -0.3005  0.6147 -0.3226
  737TMC3     C10893   0.281   4.655  11.179  0.4065  0.1559  0.1915
  737TMC3     O10894   0.232   0.046  11.168  0.0181 -0.8625  0.5712
  737TMC3     H10895   0.304   4.718  10.928 -0.8960 -1.6069 -2.1667
  737TMC3    H110896   0.480   4.519  11.262 -2.0732 -2.5749 -1.5875
  737TMC3    H210897   0.693   4.565  10.894  0.2804 -0.1875  0.5719
  737TMC3    C710898   0.690   4.430  11.128 -0.2697 -1.0307  0.7578
  737TMC3    C810899   0.509   4.669  10.752 -1.0159 -0.3057 -0.1420
  737TMC3    O110900   0.659   4.366  11.228  0.0767 -1.1294 -0.1683
  737TMC3    O210901   0.617   4.689  10.701  0.1564  0.8035 -0.4685
  738MPD2     C10902   0.184   4.123  15.196  0.2006 -0.1836 -0.3907
  738MPD2    C110903   0.236   3.998  15.155 -0.9063  0.1748 -0.3527
  738MPD2    C210904   0.370   3.988  15.149  1.1348  0.7362  0.5863
  738MPD2    C310905   0.456   4.094  15.162 -0.3191 -0.0552 -0.2284
  738MPD2    C410906   0.406   4.208  15.201  0.2121  0.3970 -0.2243
  738MPD2    C510907   0.271   4.227  15.218  0.4012  0.1090  0.0231
  738MPD2     H10908   0.411   3.892  15.121 -0.5485 -0.2140  1.3782
  738MPD2    H110909   0.471   4.289  15.233  1.2661 -0.6867  0.3881
  738MPD2    H210910   0.080   4.149  15.207  0.4765  0.8893 -0.3308
  738MPD2    H310911   0.240   4.327  15.247 -2.5113 -1.1749  1.3227
  738MPD2     N10912   0.592   4.084  15.134 -0.7482 -0.3141  0.3328
  738MPD2    H510913   0.652   4.164  15.151 -0.1720 -0.5973 -0.3591
  738MPD2    N110914   0.160   3.883  15.138 -0.1874  1.0205  0.6321
  738MPD2    H710915   0.197   3.795  15.103 -0.4342  1.1579  0.0145
  739TMC3    C110916   0.771   4.046  14.992  0.5583  0.6064  0.3771
  739TMC3    C210917   0.789   4.015  14.861 -0.1934  0.4840 -0.5597
  739TMC3    C310918   0.907   4.051  14.800 -0.5548 -0.5596 -0.3471
  739TMC3    C410919   0.872   4.078  15.073  0.1359 -0.5432 -0.1959
  739TMC3    C510920   0.991   4.098  15.006 -0.0594  0.0525 -0.4038
  739TMC3    C610921   1.013   4.096  14.873  0.8373  0.2272  0.0329
  739TMC3     C10922   0.651   3.988  15.050  0.3799 -0.3646 -0.0928
  739TMC3     O10923   0.603   3.891  14.995  0.0949 -0.0904  0.0326
  739TMC3     H10924   0.714   3.977  14.792 -1.9493  1.6365  0.7066
  739TMC3    H110925   0.871   4.082  15.182 -1.9083  0.1416 -0.2388
  739TMC3    H210926   1.110   4.121  14.832  0.4305  1.2788 -0.2828
  739TMC3    C710927   1.101   4.167  15.080  0.3676  0.5250 -0.1970
  739TMC3    C810928   0.904   4.080  14.661 -0.2888  0.3639 -0.1904
  739TMC3    O110929   1.208   4.168  15.019 -0.1169  0.3663  0.1784
  739TMC3    O210930   0.837   3.998  14.598 -0.4971  0.1045 -0.0796
  740TMC3    C110931   1.783   0.492  13.887  0.0322  0.0623 -0.3808
  740TMC3    C210932   1.822   0.481  14.018  0.1920  0.3292 -0.4320
  740TMC3    C310933   1.951   0.444  14.039 -0.4455  0.3095  0.3207
  740TMC3    C410934   1.869   0.487  13.780  0.0335 -1.1754  0.6592
  740TMC3    C510935   1.993   0.444  13.808  0.2999  0.0669 -0.0175
  740TMC3    C610936   2.035   0.430  13.936 -0.2666 -0.7401 -0.0408
  740TMC3     C10937   1.644   0.488  13.852 -0.0451 -0.1325 -0.0153
  740TMC3     O10938   1.611   0.502  13.735 -0.0664  0.1344 -0.7403
  740TMC3     H10939   1.750   0.514  14.093 -0.3919  0.2963 -0.9726
  740TMC3    H110940   1.823   0.479  13.682  0.4253 -2.6865  0.5975
  740TMC3    H210941   2.137   0.399  13.954 -0.0246 -0.0971 -0.2898
  740TMC3    C710942   2.068   0.371  13.707 -0.1692  0.9109 -0.2072
  740TMC3    C810943   2.010   0.457  14.168 -0.0397  0.4224 -0.0530
  740TMC3    O110944   2.135   0.275  13.745  0.1841 -0.1217 -0.1273
  740TMC3    O210945   2.130   0.429  14.174  0.0321 -0.0275 -0.6505
  741TMC3    C110946   0.727   4.506  14.115 -0.3742  0.1612 -0.1875
  741TMC3    C210947   0.687   4.395  14.188  0.7714 -0.6741 -0.2601
  741TMC3    C310948   0.705   4.387  14.322 -0.4770 -0.6639  0.4688
  741TMC3    C410949   0.814   4.594  14.177  0.0873 -0.3511  0.0214
  741TMC3    C510950   0.832   4.581  14.315  0.0538  0.0579 -0.4134
  741TMC3    C610951   0.781   4.479  14.385  0.4668  0.0865  0.6580
  741TMC3     C10952   0.727   4.495  13.965  0.0805  0.5623 -1.0675
  741TMC3     O10953   0.785   4.579  13.905  0.7013  0.2935  0.3844
  741TMC3     H10954   0.644   4.311  14.134 -1.4483  0.2446  0.0633
  741TMC3    H110955   0.851   4.681  14.124 -0.1299  1.4472  2.8098
  741TMC3    H210956   0.775   4.489  14.493  0.3098 -0.3769  0.6884
  741TMC3    C710957   0.943   4.659  14.364  0.3337 -0.3478  0.8073
  741TMC3    C810958   0.625   4.288  14.388  0.8150  0.3977  0.0630
  741TMC3    O110959   0.993   0.023  14.292 -0.2033  0.1952  0.7823
  741TMC3    O210960   0.555   4.229  14.305  0.2408 -0.1502  0.2392
  742TMC3    C110961   0.326   3.292  15.097 -0.1773  0.0279  0.0880
  742TMC3    C210962   0.261   3.184  15.046  0.5803 -0.2765  0.2787
  742TMC3    C310963   0.316   3.112  14.946 -0.7146  0.2696 -0.1664
  742TMC3    C410964   0.451   3.323  15.054  0.2700  0.8377  0.1436
  742TMC3    C510965   0.510   3.233  14.964  0.1507  0.1581  0.9399
  742TMC3    C610966   0.442   3.130  14.899  0.0063 -0.3503  0.5119
  742TMC3     C10967   0.258   3.352  15.212 -0.3510 -0.1135 -0.0171
  742TMC3     O10968   0.178   3.278  15.270 -0.9780 -0.5727 -0.4566
  742TMC3     H10969   0.153   3.184  15.056  0.3092 -2.6658 -2.3961
  742TMC3    H110970   0.499   3.411  15.095  1.0289  0.6810 -0.4093
  742TMC3    H210971   0.486   3.071  14.820 -0.7037  0.2651 -0.3378
  742TMC3    C710972   0.645   3.234  14.939  0.2305  0.4653 -0.0748
  742TMC3    C810973   0.230   3.019  14.869  0.0349 -0.3309 -0.0273
  742TMC3    O110974   0.677   3.186  14.831  0.8788  0.5572 -0.8701
  742TMC3    O210975   0.299   2.930  14.820  0.4475 -0.0031  0.3433
  743MPD2     C10976   4.478   3.423   2.001 -0.0598 -0.1624  0.1498
  743MPD2    C110977   4.460   3.489   1.889  0.5072  0.5461 -0.1655
  743MPD2    C210978   4.535   3.448   1.781  0.2133  0.8467  0.1291
  743MPD2    C310979   4.640   3.363   1.787  0.6550  0.0488 -0.5766
  743MPD2    C410980   4.671   3.313   1.909 -0.2081 -0.5583  0.1252
  743MPD2    C510981   4.585   3.337   2.008 -0.9936 -0.4644 -0.3242
  743MPD2     H10982   4.517   3.487   1.682 -0.3353  1.8281  0.6122
  743MPD2    H110983   0.029   3.241   1.920 -0.0202 -0.7196 -2.2616
  743MPD2    H210984   4.425   3.449   2.092 -0.0510  0.2682  0.0296
  743MPD2    H310985   4.595   3.297   2.108 -3.1124 -0.7721 -0.2376
  743MPD2     N10986   4.719   3.346   1.667 -0.4988  0.1626 -0.1067
  743MPD2    H510987   4.689   3.387   1.579  0.0547  1.7814  0.4676
  743MPD2    N110988   4.358   3.585   1.874  0.1484  0.1532  0.2410
  743MPD2    H710989   4.318   3.617   1.961  0.1976  1.3203 -0.1749
  744TMC3    C110990   4.207   3.723   1.762  0.7198  0.3720 -0.6380
  744TMC3    C210991   4.207   3.805   1.875  0.1290 -0.4711  0.1842
  744TMC3    C310992   4.095   3.867   1.910  0.1628 -0.0774 -0.1259
  744TMC3    C410993   4.103   3.712   1.675  1.0770  0.0705 -0.3453
  744TMC3    C510994   3.994   3.783   1.711  1.3457  0.6131  0.3421
  744TMC3    C610995   3.988   3.853   1.827 -0.1463 -0.0013 -0.2602
  744TMC3     C10996   4.311   3.629   1.750 -0.6682  0.7595 -0.0414
  744TMC3     O10997   4.333   3.590   1.638  0.2749 -0.1360 -0.4271
  744TMC3     H10998   4.299   3.821   1.930  0.2531  1.3183 -0.5386
  744TMC3    H110999   4.117   3.643   1.592 -1.3340  0.6194 -1.2023
  744TMC3    H211000   3.898   3.909   1.852 -2.3848 -3.9045  0.4875
  744TMC3    C711001   3.873   3.759   1.628  0.6405  0.0700 -0.6970
  744TMC3    C811002   4.096   3.987   2.000  0.2373 -0.4337  0.2407
  744TMC3    O111003   3.762   3.761   1.684  0.2797 -0.4817 -0.3269
  744TMC3    O211004   4.018   4.076   1.960  0.5777  0.1340 -0.2295
  745TMC3    C111005   0.505   2.651  13.621 -0.1316 -0.0926  0.2118
  745TMC3    C211006   0.441   2.675  13.744 -0.0932  0.7210  0.6610
  745TMC3    C311007   0.355   2.776  13.757 -0.8483  0.4793 -0.1889
  745TMC3    C411008   0.484   2.732  13.511  0.3446  0.8557  0.4607
  745TMC3    C511009   0.380   2.825  13.520  0.0895  0.8718 -0.5909
  745TMC3    C611010   0.326   2.854  13.646 -0.1252  0.3846  0.3845
  745TMC3     C11011   0.638   2.593  13.648 -0.0289 -0.6246  0.1644
  745TMC3     O11012   0.635   2.505  13.735  0.0150  0.0530 -0.2321
  745TMC3     H11013   0.453   2.598  13.819  1.3650  1.4232  1.1450
  745TMC3    H111014   0.527   2.706  13.415  0.9060 -2.3286  1.5771
  745TMC3    H211015   0.274   2.946  13.670 -2.0925 -0.2994 -1.2913
  745TMC3    C711016   0.358   2.928  13.417  0.1706  0.0041 -0.6556
  745TMC3    C811017   0.323   2.817  13.891  0.3927  0.2315 -1.6402
  745TMC3    O111018   0.275   3.008  13.434  0.1794  0.4100 -0.4188
  745TMC3    O211019   0.223   2.877  13.917  0.7462  0.4803 -0.6691
  746TMC3    C111020   2.993   0.027  10.496 -0.1242 -0.5170 -0.5494
  746TMC3    C211021   3.014   0.025  10.364  0.2291  0.0005 -0.6649
  746TMC3    C311022   2.948   4.644  10.294 -0.4576  0.6713 -0.5332
  746TMC3    C411023   2.909   4.667  10.567 -0.3813 -0.0159 -0.1328
  746TMC3    C511024   2.838   4.575  10.494 -0.8288 -0.1866  0.0621
  746TMC3    C611025   2.863   4.558  10.363 -0.0549 -0.4193 -0.0273
  746TMC3     C11026   3.058   0.132  10.572  0.1190  0.0268  0.1876
  746TMC3     O11027   3.033   0.136  10.692  0.3213  0.7097  0.2541
  746TMC3     H11028   3.085   0.089  10.313 -1.7319  2.6932 -0.0718
  746TMC3    H111029   2.898   4.676  10.675 -2.2513  0.2971 -0.3499
  746TMC3    H211030   2.834   4.467  10.310 -0.0026 -0.0694 -0.6637
  746TMC3    C711031   2.751   4.477  10.549 -0.0852  0.6808 -0.2814
  746TMC3    C811032   3.019   4.598  10.171  0.0979 -0.5254  0.2517
  746TMC3    O111033   2.730   4.369  10.499  0.4157  0.1187  0.0768
  746TMC3    O211034   3.005   4.477  10.154 -0.1639 -0.2432  0.1792
  747TMC3    C111035   1.422   4.307  10.501  0.2800  0.3752  0.2874
  747TMC3    C211036   1.337   4.263  10.597  0.5626 -0.2148 -0.0688
  747TMC3    C311037   1.398   4.221  10.723 -0.6243 -0.2498  0.1756
  747TMC3    C411038   1.540   4.364  10.542  0.6073  0.0572 -0.5800
  747TMC3    C511039   1.582   4.355  10.670 -0.0006 -0.2543 -0.4386
  747TMC3    C611040   1.527   4.269  10.760 -0.2891  0.2523 -0.2077
  747TMC3     C11041   1.348   4.355  10.380  0.6743 -0.0673  0.0248
  747TMC3     O11042   1.410   4.442  10.315  0.0462 -0.4088  0.2526
  747TMC3     H11043   1.237   4.223  10.581 -0.0003  2.1432 -2.5879
  747TMC3    H111044   1.597   4.424  10.472  2.2621 -0.4697  0.3215
  747TMC3    H211045   1.561   4.255  10.862 -1.2547  1.6680  0.3182
  747TMC3    C711046   1.657   4.472  10.736 -0.3679  0.1998  0.3212
  747TMC3    C811047   1.309   4.177  10.833  0.2714  0.3519  0.2931
  747TMC3    O111048   1.649   4.486  10.857 -0.0564 -0.7598  0.3778
  747TMC3    O211049   1.358   4.100  10.915  0.3322 -0.7033 -0.3477
  748MPD2     C11050   2.155   0.985   1.471 -0.0836  0.1311 -1.1184
  748MPD2    C111051   2.126   0.860   1.421  0.3396 -1.2694 -0.1447
  748MPD2    C211052   2.222   0.758   1.416  0.2469  0.1889 -0.6270
  748MPD2    C311053   2.345   0.783   1.474  0.7137 -0.5545 -0.3329
  748MPD2    C411054   2.378   0.916   1.518  1.1113  0.2907 -0.2210
  748MPD2    C511055   2.281   1.018   1.513 -0.0554  0.4659 -0.4699
  748MPD2     H11056   2.200   0.656   1.383  2.3629 -0.5072  0.1529
  748MPD2    H111057   2.477   0.947   1.548  0.9523 -1.4665  2.1452
  748MPD2    H211058   2.074   1.056   1.458  0.7323  0.8999 -1.9428
  748MPD2    H311059   2.311   1.119   1.539 -1.0674  0.8843 -0.9073
  748MPD2     N11060   2.442   0.678   1.476  0.1326  0.0108 -0.0660
  748MPD2    H511061   2.420   0.589   1.432 -0.2184  0.3099 -0.5069
  748MPD2    N111062   1.991   0.839   1.387 -0.4531  0.1391  0.3349
  748MPD2    H711063   1.927   0.918   1.395 -0.0861  0.5054 -0.3054
  749TMC3    C111064   2.615   0.536   1.547  0.2247  0.1482 -0.1307
  749TMC3    C211065   2.672   0.487   1.667 -0.0605  0.2453  0.1128
  749TMC3    C311066   2.769   0.390   1.658  0.2573  0.4936  0.3882
  749TMC3    C411067   2.666   0.506   1.419  0.1711 -0.2571 -0.3112
  749TMC3    C511068   2.756   0.402   1.416  0.1475  0.3277 -0.2762
  749TMC3    C611069   2.803   0.345   1.532 -0.0369  0.3216 -1.0193
  749TMC3     C11070   2.558   0.674   1.552 -0.3239  1.0355 -0.3573
  749TMC3     O11071   2.598   0.753   1.638 -0.6573  0.5205 -0.2927
  749TMC3     H11072   2.637   0.538   1.756 -0.9949  0.7601 -0.5363
  749TMC3    H111073   2.625   0.556   1.333  0.0205  1.6406  0.8466
  749TMC3    H211074   2.881   0.270   1.526  0.2047  0.4556  0.5358
  749TMC3    C711075   2.856   0.421   1.321  0.3707  0.3564  0.0235
  749TMC3    C811076   2.854   0.372   1.770 -1.1773 -0.0564 -0.2444
  749TMC3    O111077   2.859   0.531   1.275 -0.2724 -0.2403  0.4352
  749TMC3    O211078   2.817   0.438   1.867 -0.1596  0.0750  0.0340
  750MPD2     C11079   3.799   1.909  10.982 -0.2605  0.3734  0.3198
  750MPD2    C111080   3.685   1.838  11.016 -0.7797 -0.6644 -0.3099
  750MPD2    C211081   3.685   1.699  11.014  0.2742 -0.0104 -0.2046
  750MPD2    C311082   3.790   1.637  10.942  0.2446 -0.5809  0.2190
  750MPD2    C411083   3.901   1.713  10.910  0.0507 -0.1233 -0.7592
  750MPD2    C511084   3.903   1.847  10.918 -0.2515  0.2984  0.1503
  750MPD2     H11085   3.597   1.642  11.041  1.1920 -1.0208  0.6095
  750MPD2    H111086   3.998   1.671  10.888  0.4860  1.5121 -1.9321
  750MPD2    H211087   3.803   2.018  10.988  1.3364  0.1595  3.2916
  750MPD2    H311088   3.993   1.904  10.896  0.5664 -1.3135 -0.7345
  750MPD2     N11089   3.799   1.494  10.948 -0.0663 -0.1926 -0.0557
  750MPD2    H511090   3.729   1.442  11.000  0.9183 -2.3939 -0.9100
  750MPD2    N111091   3.575   1.916  11.059 -0.6057 -0.0462 -0.3909
  750MPD2    H711092   3.585   2.016  11.074  4.1102 -0.4912 -0.4489
  751TMC3    C111093   3.870   1.279  10.916  0.1019 -0.6627 -0.4619
  751TMC3    C211094   3.810   1.235  11.028  0.0194  0.3963 -0.1834
  751TMC3    C311095   3.758   1.106  11.020 -0.3562  0.2348 -0.0632
  751TMC3    C411096   3.913   1.185  10.823 -0.0607  0.0348  0.2018
  751TMC3    C511097   3.869   1.063  10.819  0.2434  0.4858  0.6181
  751TMC3    C611098   3.780   1.016  10.918  0.4711 -0.7544 -0.1927
  751TMC3     C11099   3.897   1.419  10.886 -0.5430 -0.5954  0.3421
  751TMC3     O11100   3.979   1.443  10.805  0.2215 -0.1041 -0.2645
  751TMC3     H11101   3.775   1.302  11.105 -0.7685  0.3253 -0.4753
  751TMC3    H111102   3.955   1.224  10.731 -0.1602  0.7779  0.4669
  751TMC3    H211103   3.736   0.917  10.921  0.1155 -0.5016  2.7907
  751TMC3    C711104   3.929   0.967  10.719 -0.0586 -0.5982 -0.1572
  751TMC3    C811105   3.650   1.079  11.112  0.6604 -0.2309  0.0724
  751TMC3    O111106   4.029   0.996  10.656 -0.3090 -0.0250 -0.4758
  751TMC3    O211107   3.666   1.125  11.226  0.0941  0.0203 -0.2384
  752TMC3    C111108   2.567   2.737  16.735 -0.7477 -0.7396  0.3213
  752TMC3    C211109   2.635   2.614  16.748 -0.1698 -0.3350  0.1525
  752TMC3    C311110   2.694   2.575  16.861  0.1774  0.0086  0.5901
  752TMC3    C411111   2.561   2.826  16.842  0.2041 -0.2267 -0.2511
  752TMC3    C511112   2.628   2.780  16.951  0.4025 -0.0646 -0.3536
  752TMC3    C611113   2.697   2.658  16.968  0.2378 -0.0102  0.2599
  752TMC3     C11114   2.474   2.762  16.624 -0.8744 -0.0323 -0.2863
  752TMC3     O11115   2.395   2.856  16.631 -0.5108  0.0068 -0.2213
  752TMC3     H11116   2.604   2.533  16.684 -0.8010  0.0831 -0.0705
  752TMC3    H111117   2.509   2.921  16.832 -0.9515 -1.0834 -2.4873
  752TMC3    H211118   2.763   2.637  17.051 -0.3977 -2.1511  0.2119
  752TMC3    C711119   2.631   2.859  17.074 -0.1200  0.4652  0.2727
  752TMC3    C811120   2.756   2.448  16.863 -0.3533  0.2860  0.3936
  752TMC3    O111121   2.651   2.787  17.176 -0.3828  0.6829 -0.1134
  752TMC3    O211122   2.772   2.391  16.758  0.5273 -0.1299 -0.0041
  753TMC3    C111123   4.215   2.717  13.266  0.0522  0.6448  0.0137
  753TMC3    C211124   4.274   2.705  13.389 -0.4871 -0.0421  0.4598
  753TMC3    C311125   4.363   2.608  13.415  0.4060 -0.1406 -0.4966
  753TMC3    C411126   4.263   2.640  13.162 -0.3680 -0.4385 -0.5987
  753TMC3    C511127   4.357   2.549  13.194 -0.5727 -0.3126 -0.1159
  753TMC3    C611128   4.419   2.536  13.315 -0.1719 -0.1382 -0.3181
  753TMC3     C11129   4.074   2.726  13.257 -0.1687 -0.1817 -0.9750
  753TMC3     O11130   4.021   2.636  13.194  0.0257 -0.7870  0.4233
  753TMC3     H11131   4.231   2.755  13.475 -0.2528  2.7612 -1.0425
  753TMC3    H111132   4.224   2.656  13.063 -2.8810  2.1839  0.8111
  753TMC3    H211133   4.497   2.462  13.331  1.7885  1.9483 -0.2493
  753TMC3    C711134   4.353   2.418  13.126  0.3584 -0.0250  0.1531
  753TMC3    C811135   4.383   2.546  13.547  0.3900  0.0738  0.9623
  753TMC3    O111136   4.449   2.344  13.138  0.8233 -0.4331 -0.3924
  753TMC3    O211137   4.425   2.432  13.547  0.0117 -0.4430  0.8279
  754MPD2     C11138   3.338   1.560  12.835 -0.2047 -0.2723 -0.2334
  754MPD2    C111139   3.314   1.485  12.941  0.1423 -0.1173  0.1289
  754MPD2    C211140   3.180   1.455  12.972 -0.0904  0.8312  0.6777
  754MPD2    C311141   3.077   1.521  12.907  0.5092  0.3915 -0.1856
  754MPD2    C411142   3.119   1.617  12.814 -0.2026  0.5505 -0.3475
  754MPD2    C511143   3.245   1.641  12.777 -0.4264  0.0659  0.4171
  754MPD2     H11144   3.171   1.385  13.054 -0.5976  1.1597  0.9033
  754MPD2    H111145   3.048   1.680  12.762 -0.3492 -1.1587 -2.1903
  754MPD2    H211146   3.441   1.567  12.802 -0.3615 -0.0390 -0.6795
  754MPD2    H311147   3.270   1.719  12.706  0.1778  0.2048  0.7782
  754MPD2     N11148   2.940   1.502  12.923  0.1275  0.5264  0.5161
  754MPD2    H511149   2.883   1.570  12.874  0.2879  0.2324 -0.0822
  754MPD2    N111150   3.433   1.427  12.998  0.9599  0.7335 -0.5223
  754MPD2    H711151   3.520   1.442  12.949  0.7335 -1.3557 -1.5506
  755MPD2     C11152   1.984   1.799  12.846  0.1684 -0.2067  0.6747
  755MPD2    C111153   2.081   1.829  12.934  0.0971 -0.2437  0.3213
  755MPD2    C211154   2.201   1.757  12.935  0.0015 -0.2883  0.4939
  755MPD2    C311155   2.215   1.651  12.840 -0.2899 -0.2613  0.1027
  755MPD2    C411156   2.117   1.634  12.744  0.1618 -0.2389  0.0806
  755MPD2    C511157   2.001   1.705  12.753 -0.4191 -0.0145  0.2734
  755MPD2     H11158   2.275   1.778  13.011 -0.4249 -1.5711  1.2693
  755MPD2    H111159   2.120   1.556  12.669  1.0510 -0.0173 -0.1115
  755MPD2    H211160   1.888   1.848  12.852  0.5402  0.6247 -0.1587
  755MPD2    H311161   1.925   1.687  12.678 -0.2653 -0.6083  0.2554
  755MPD2     N11162   2.322   1.560  12.840  0.5198  0.3649  0.0414
  755MPD2    H511163   2.324   1.469  12.795 -1.6391  0.7514 -0.7840
  755MPD2    N111164   2.054   1.915  13.049 -0.3153  0.1529 -0.0075
  755MPD2    H711165   2.099   1.890  13.137  2.2698  0.3509 -1.2780
  756MPD2     C11166   3.366   1.161   9.539  0.0731 -0.1561  0.1539
  756MPD2    C111167   3.458   1.056   9.553 -0.6969  0.1553 -0.2262
  756MPD2    C211168   3.415   0.921   9.530 -0.3574  0.0343  0.3552
  756MPD2    C311169   3.278   0.908   9.506 -0.1430 -0.2071  0.3280
  756MPD2    C411170   3.192   1.011   9.509 -0.0471 -0.2721 -0.1214
  756MPD2    C511171   3.237   1.135   9.520  0.0572  0.2922  0.2721
  756MPD2     H11172   3.481   0.836   9.543 -0.1545 -0.0770 -1.3685
  756MPD2    H111173   3.084   0.996   9.509 -0.1495  0.4840 -0.1122
  756MPD2    H211174   3.394   1.265   9.551 -0.1757 -0.0342 -0.2969
  756MPD2    H311175   3.157   1.208   9.526 -0.5309 -0.4195  1.1080
  756MPD2     N11176   3.236   0.777   9.461 -0.2458  0.2797 -0.1717
  756MPD2    H511177   3.308   0.707   9.477 -0.5402  0.4073  1.7631
  756MPD2    N111178   3.592   1.093   9.595 -0.2898  0.2755 -0.2830
  756MPD2    H711179   3.608   1.192   9.611 -0.7317  0.3280 -0.1835
  757MPD2     C11180   3.405   4.544   9.337 -0.6487  0.0429  0.4007
  757MPD2    C111181   3.309   4.566   9.242 -0.1129 -0.2551  0.0310
  757MPD2    C211182   3.252   4.688   9.245  0.0362 -0.1073  0.7139
  757MPD2    C311183   3.278   0.063   9.344 -0.9574 -0.2724  0.4513
  757MPD2    C411184   3.372   0.031   9.442  0.1184  1.0648  0.3558
  757MPD2    C511185   3.445   4.640   9.429  0.0071  0.4700  0.9061
  757MPD2     H11186   3.193   4.718   9.159 -0.2323  0.5447  1.1220
  757MPD2    H111187   3.392   0.098   9.525  1.4820  1.3715 -0.2275
  757MPD2    H211188   3.459   4.450   9.333 -2.5017 -0.9784 -0.9665
  757MPD2    H311189   3.523   4.612   9.499  1.0150 -0.2194 -0.4875
  757MPD2     N11190   3.207   0.179   9.331  0.5109  0.7162 -0.0284
  757MPD2    H511191   3.145   0.182   9.250 -0.5146 -0.2412  0.7110
  757MPD2    N111192   3.288   4.467   9.141 -0.0709  0.8098  0.2010
  757MPD2    H711193   3.337   4.378   9.145 -1.0406  0.1198 -3.0794
  758MPD2     C11194   2.912   1.218  16.046  0.8664 -0.4241 -0.5249
  758MPD2    C111195   3.020   1.175  16.125  0.9390 -0.2143  0.2200
  758MPD2    C211196   3.060   1.247  16.233 -0.4772  0.1167  0.8279
  758MPD2    C311197   2.986   1.352  16.284  0.0616 -0.2964 -0.4883
  758MPD2    C411198   2.881   1.387  16.206  0.3774 -0.1533 -0.1811
  758MPD2    C511199   2.845   1.327  16.088  0.8546  0.2805  0.0943
  758MPD2     H11200   3.150   1.206  16.277 -1.8131 -1.2927  2.2334
  758MPD2    H111201   2.828   1.475  16.242 -0.1023 -0.5295  0.0296
  758MPD2    H211202   2.886   1.178  15.949  0.5588  0.7374 -0.9244
  758MPD2    H311203   2.753   1.360  16.041  0.3142 -0.0661  0.8917
  758MPD2     N11204   3.013   1.420  16.404 -0.0342  0.7570 -0.0740
  758MPD2    H511205   2.943   1.488  16.430 -0.5726 -0.7528  2.3763
  758MPD2    N111206   3.087   1.055  16.082  0.0336 -0.3749  0.5845
  758MPD2    H711207   3.049   1.011  15.999  2.8446  0.0228 -0.9306
  759MPD2     C11208   2.752   2.967   9.738 -0.0460  0.1065 -0.3973
  759MPD2    C111209   2.665   3.067   9.787  0.2316 -0.3615  0.2033
  759MPD2    C211210   2.699   3.200   9.757 -0.2356 -0.3328  0.1130
  759MPD2    C311211   2.814   3.230   9.695  0.4212 -0.3182 -0.0747
  759MPD2    C411212   2.898   3.131   9.645 -0.1958 -0.1830 -0.6248
  759MPD2    C511213   2.863   3.005   9.672  0.1358  0.8573 -1.1295
  759MPD2     H11214   2.626   3.273   9.789 -1.3649 -1.0882 -0.7260
  759MPD2    H111215   2.989   3.144   9.588  1.2140 -0.8340  1.4665
  759MPD2    H211216   2.734   2.862   9.755 -0.0514  0.2340  0.3708
  759MPD2    H311217   2.927   2.923   9.641  0.5747  1.4671 -1.8436
  759MPD2     N11218   2.842   3.370   9.672  0.6202  0.4777 -0.2835
  759MPD2    H511219   2.782   3.446   9.701  1.7410  0.6582  1.5666
  759MPD2    N111220   2.550   3.047   9.866 -0.0346  0.3196 -0.0100
  759MPD2    H711221   2.492   3.128   9.881  0.1931  0.3756  0.5773
  760MPD2     C11222   1.739   1.653  11.818  0.1856  0.3041 -0.1224
  760MPD2    C111223   1.852   1.688  11.748  0.0008 -0.0277 -0.2055
  760MPD2    C211224   1.922   1.587  11.688  0.0101  0.3809  0.1985
  760MPD2    C311225   1.887   1.456  11.686  0.0011  0.2109 -0.2941
  760MPD2    C411226   1.776   1.424  11.760 -0.0297  0.1549  0.4321
  760MPD2    C511227   1.706   1.518  11.824 -0.1121  0.4416 -0.3211
  760MPD2     H11228   2.013   1.624  11.643 -0.9505 -1.6809 -3.3883
  760MPD2    H111229   1.744   1.321  11.764 -1.1627  0.4983  0.2548
  760MPD2    H211230   1.669   1.719  11.868 -1.8262 -1.9217 -0.0124
  760MPD2    H311231   1.622   1.484  11.884  0.9970 -1.8292 -0.0693
  760MPD2     N11232   1.970   1.352  11.635 -0.2395  0.6920 -0.0153
  760MPD2    H511233   1.944   1.265  11.683  0.8362 -0.2515 -1.1495
  760MPD2    N111234   1.901   1.820  11.738  0.4295 -0.0552  0.2194
  760MPD2    H711235   1.983   1.831  11.680 -0.1713  0.5615 -0.5019
  761MPD2     C11236   3.153   0.948  11.195 -0.0485  0.3908 -0.2083
  761MPD2    C111237   3.180   0.927  11.059  0.6460 -0.1281  0.1006
  761MPD2    C211238   3.307   0.947  11.014 -0.3753  0.1990 -0.6584
  761MPD2    C311239   3.409   1.003  11.098 -0.2921  0.6289 -1.2289
  761MPD2    C411240   3.380   1.033  11.230 -0.6849  0.3089  0.0537
  761MPD2    C511241   3.253   1.002  11.275 -0.2775  0.6954  0.3153
  761MPD2     H11242   3.330   0.943  10.908  1.3691 -1.0518 -0.2312
  761MPD2    H111243   3.452   1.067  11.304 -1.5392 -0.0771  1.0668
  761MPD2    H211244   3.057   0.918  11.235 -1.1301  1.3912 -2.1064
  761MPD2    H311245   3.234   1.035  11.377  0.4203  1.0458  0.3337
  761MPD2     N11246   3.534   1.033  11.045 -0.4741 -0.8069  0.4193
  761MPD2    H511247   3.536   1.022  10.944 -0.5761 -1.6302  0.5064
  761MPD2    N111248   3.079   0.857  10.988 -0.5104 -0.7045  0.0001
  761MPD2    H711249   2.989   0.845  11.033 -0.0749  0.0314  1.0607
  762MPD2     C11250   3.308   0.894  10.430 -0.4268 -0.4506 -0.8339
  762MPD2    C111251   3.243   0.778  10.401 -1.2352  0.2630 -0.6479
  762MPD2    C211252   3.265   0.710  10.284  0.0548 -0.1296 -0.5448
  762MPD2    C311253   3.355   0.766  10.187 -0.5412 -0.2099  0.2339
  762MPD2    C411254   3.402   0.894  10.205  0.8328  0.3806 -0.3671
  762MPD2    C511255   3.379   0.951  10.330  0.4670 -0.4736 -0.7593
  762MPD2     H11256   3.219   0.614  10.265 -1.0159  0.5593 -1.4400
  762MPD2    H111257   3.455   0.956  10.134  0.2247 -1.9889 -2.8848
  762MPD2    H211258   3.299   0.947  10.524 -2.0866 -1.5751 -0.3676
  762MPD2    H311259   3.412   1.053  10.350  0.3022 -0.7988  1.1622
  762MPD2     N11260   3.375   0.694  10.072 -0.2799 -0.8116 -0.5445
  762MPD2    H511261   3.353   0.595  10.065  1.3729 -1.1853 -0.5386
  762MPD2    N111262   3.151   0.741  10.502 -0.1689  0.6924  0.5661
  762MPD2    H711263   3.148   0.802  10.584 -0.3759  2.2583 -0.5977
  763MPD2     C11264   0.875   0.605  16.064 -0.3590  0.9908 -0.4881
  763MPD2    C111265   0.827   0.720  16.008  0.4503 -0.3763 -0.1627
  763MPD2    C211266   0.759   0.810  16.090  0.2936 -0.3239  0.5171
  763MPD2    C311267   0.746   0.790  16.229 -0.3552 -0.5253  0.2312
  763MPD2    C411268   0.803   0.673  16.282 -0.0739  0.2763  0.3119
  763MPD2    C511269   0.857   0.578  16.201  0.2444 -0.1032  0.6152
  763MPD2     H11270   0.737   0.904  16.041  2.0939 -0.2836 -0.2308
  763MPD2    H111271   0.796   0.664  16.390 -1.9339  1.1618  0.2562
  763MPD2    H211272   0.918   0.532  15.997 -1.2751  0.5298 -0.5686
  763MPD2    H311273   0.911   0.494  16.243 -1.1754 -1.4455 -0.2474
  763MPD2     N11274   0.687   0.876  16.318 -0.1876 -0.4501 -0.2229
  763MPD2    H511275   0.677   0.842  16.413  0.5324  0.1709  0.0733
  763MPD2    N111276   0.834   0.740  15.869  0.1831 -0.2883  0.1629
  763MPD2    H711277   0.782   0.821  15.835 -1.0900 -0.4351  1.7399
  764MPD2     C11278   3.064   3.028   0.269 -0.2907 -0.3199 -0.2634
  764MPD2    C111279   3.020   2.951   0.165  0.0729  0.4661  0.2202
  764MPD2    C211280   3.003   2.812   0.180 -0.2269 -0.6525 -0.3852
  764MPD2    C311281   3.042   2.755   0.293  0.6372 -0.0878  0.0549
  764MPD2    C411282   3.080   2.831   0.398  0.4936  0.2355  0.3255
  764MPD2    C511283   3.081   2.969   0.388  0.1181  0.4392 -0.1280
  764MPD2     H11284   2.973   2.751   0.096  1.8433 -0.8243 -0.9868
  764MPD2    H111285   3.101   2.794   0.498 -2.2074  1.2936  1.2852
  764MPD2    H211286   3.101   3.129   0.268  0.1201 -0.4707 -0.3906
  764MPD2    H311287   3.118   3.020   0.476 -0.7322  1.1637 -0.1921
  764MPD2     N11288   3.016   2.614   0.301  0.1601  0.8012 -0.6688
  764MPD2    H511289   2.966   2.585   0.218  1.4239 -0.7097 -0.9116
  764MPD2    N111290   3.001   3.000   0.037 -0.0432 -0.2658 -0.3818
  764MPD2    H711291   2.987   2.928  17.661 -0.1016 -1.2778  0.6633
  765MPD2     C11292   2.909   0.433  15.031 -0.0886 -0.0939 -0.0146
  765MPD2    C111293   2.859   0.433  15.161 -0.2888  0.1372 -0.0844
  765MPD2    C211294   2.927   0.373  15.263  0.1308 -0.1917  0.5466
  765MPD2    C311295   3.039   0.301  15.229  0.6432  0.5520  0.5711
  765MPD2    C411296   3.079   0.293  15.097 -0.0332 -0.4982 -0.3049
  765MPD2    C511297   3.019   0.365  15.000 -0.0918 -0.1213 -0.8946
  765MPD2     H11298   2.893   0.371  15.365 -0.7664 -1.3864  0.2277
  765MPD2    H111299   3.168   0.233  15.079 -1.7143 -3.1376  0.2859
  765MPD2    H211300   2.847   0.469  14.950  1.8581  1.9401 -0.5987
  765MPD2    H311301   3.039   0.359  14.894 -0.8555  2.2783 -1.1671
  765MPD2     N11302   3.099   0.229  15.336  0.0398 -0.3995  0.0931
  765MPD2    H511303   3.065   0.259  15.427 -1.3994  0.3670 -0.7029
  765MPD2    N111304   2.739   0.493  15.182 -0.3019 -0.5935 -0.1489
  765MPD2    H711305   2.678   0.511  15.103  1.1832 -0.9620 -1.3669
  766MPD2     C11306   2.058   0.897  14.932 -0.2210 -0.0660 -0.8201
  766MPD2    C111307   2.177   0.827  14.939 -0.4562  0.3365  0.1890
  766MPD2    C211308   2.273   0.833  14.838 -0.7087  0.0155 -0.1747
  766MPD2    C311309   2.241   0.897  14.720  1.0970 -1.1656 -0.5904
  766MPD2    C411310   2.120   0.955  14.710 -0.5058  0.3171  0.1836
  766MPD2    C511311   2.034   0.958  14.818 -0.3063  0.0687 -0.3002
  766MPD2     H11312   2.372   0.800  14.868 -0.2040  2.2133  0.5430
  766MPD2    H111313   2.105   1.020  14.624  1.3411  1.1307  0.4768
  766MPD2    H211314   1.989   0.904  15.015 -1.9719 -0.6832 -2.2352
  766MPD2    H311315   1.947   1.022  14.810  0.7958  1.2683 -2.5966
  766MPD2     N11316   2.329   0.893  14.608  0.2183  0.1062 -0.0775
  766MPD2    H511317   2.313   0.962  14.535  0.7370  0.0963 -0.2013
  766MPD2    N111318   2.211   0.780  15.069 -0.6294 -0.6917 -0.0155
  766MPD2    H711319   2.164   0.809  15.154 -1.1673 -0.6817 -0.3181
  767MPD2     C11320   1.890   1.032  14.423  0.2765 -0.1859 -0.0517
  767MPD2    C111321   2.021   1.082  14.397  0.7019 -0.4449  0.5346
  767MPD2    C211322   2.095   1.023  14.298  0.0906  0.7735 -0.2134
  767MPD2    C311323   2.043   0.923  14.217  0.3367 -0.6950 -0.3453
  767MPD2    C411324   1.912   0.882  14.232 -0.4197  0.4071 -0.5161
  767MPD2    C511325   1.839   0.937  14.339  0.2639  0.6903 -0.0104
  767MPD2     H11326   2.199   1.051  14.288 -0.1950  1.8423 -0.2329
  767MPD2    H111327   1.877   0.803  14.166 -0.2367 -0.5145  0.4884
  767MPD2    H211328   1.827   1.066  14.504  0.1185 -1.6076  0.4207
  767MPD2    H311329   1.733   0.919  14.351  0.4199 -1.5567 -2.0313
  767MPD2     N11330   2.138   0.857  14.135 -0.2196  1.1581 -0.2250
  767MPD2    H511331   2.233   0.889  14.148  0.0927 -0.2917  1.1701
  767MPD2    N111332   2.071   1.186  14.482  0.2393  0.0999  0.3489
  767MPD2    H711333   2.007   1.221  14.553  0.4474  0.1462  0.5144
  768MPD2     C11334   2.230   3.461  11.132 -0.1565 -0.5540 -0.1775
  768MPD2    C111335   2.297   3.581  11.113  0.3371 -0.1886 -0.2271
  768MPD2    C211336   2.407   3.597  11.189 -0.4077  0.2387 -0.5250
  768MPD2    C311337   2.443   3.510  11.298 -0.0964 -0.7486 -0.2309
  768MPD2    C411338   2.366   3.398  11.322  0.2367 -0.1072 -0.0375
  768MPD2    C511339   2.268   3.377  11.232 -0.2329 -0.0789 -0.1075
  768MPD2     H11340   2.454   3.691  11.163 -2.7492  1.5295 -0.0917
  768MPD2    H111341   2.391   3.322  11.395  2.0589 -0.0862 -0.6335
  768MPD2    H211342   2.156   3.424  11.061 -0.0192  0.2273 -0.7315
  768MPD2    H311343   2.221   3.280  11.228 -1.2938  0.3331  1.8340
  768MPD2     N11344   2.550   3.536  11.382 -0.3033  0.5280 -0.9460
  768MPD2    H511345   2.553   3.492  11.474 -1.6053 -0.8694 -1.5816
  768MPD2    N111346   2.278   3.669  11.006 -0.1767  0.0244 -0.6908
  768MPD2    H711347   2.339   3.751  11.007  1.1535 -0.9723  0.1915
  769MPD2     C11348   3.777   1.986  14.924 -0.4145  0.8685  0.1142
  769MPD2    C111349   3.680   1.991  15.022  0.2967  0.0057 -0.1299
  769MPD2    C211350   3.721   2.032  15.147  0.1561 -0.5253 -0.4009
  769MPD2    C311351   3.856   2.067  15.162  1.0612  0.3303 -0.5003
  769MPD2    C411352   3.949   2.047  15.066  0.0862  0.3310  0.3849
  769MPD2    C511353   3.907   2.004  14.944 -0.5286 -0.6071 -0.1522
  769MPD2     H11354   3.651   2.046  15.229  0.3196 -0.3358 -0.2909
  769MPD2    H111355   4.056   2.060  15.076  0.3804  0.0041 -2.1923
  769MPD2    H211356   3.747   1.949  14.826  0.4285  0.2835  0.0760
  769MPD2    H311357   3.976   2.001  14.861 -0.4798 -0.3714 -0.1201
  769MPD2     N11358   3.883   2.124  15.289 -0.1132 -0.3851  0.6365
  769MPD2    H511359   3.796   2.128  15.340 -0.6682  0.0526 -0.3338
  769MPD2    N111360   3.551   1.969  14.988  0.2217  0.0294  0.0347
  769MPD2    H711361   3.527   1.962  14.890 -0.1926 -2.2836  0.2944
  770MPD2     C11362   2.895   1.250  15.075 -0.8144  0.2423 -0.5510
  770MPD2    C111363   3.030   1.269  15.071 -0.3764 -0.5476  0.9784
  770MPD2    C211364   3.082   1.396  15.081  0.3716  0.0503  0.4482
  770MPD2    C311365   3.001   1.511  15.068  0.9700 -0.2866 -0.1170
  770MPD2    C411366   2.858   1.484  15.075  0.0891 -0.7154 -0.3176
  770MPD2    C511367   2.812   1.357  15.085 -0.0326  0.8172 -0.2311
  770MPD2     H11368   3.190   1.402  15.080  0.3056  1.1794 -0.0304
  770MPD2    H111369   2.786   1.564  15.094 -0.8814 -1.8771  0.8491
  770MPD2    H211370   2.854   1.150  15.076 -0.1145 -0.0423 -0.2790
  770MPD2    H311371   2.706   1.342  15.101  0.3648 -0.9606  0.7817
  770MPD2     N11372   3.067   1.634  15.062  0.0649 -0.4741 -0.1842
  770MPD2    H511373   3.167   1.620  15.049  0.1671 -0.5622  0.7124
  770MPD2    N111374   3.103   1.155  15.053 -0.4036  0.2468  0.7654
  770MPD2    H711375   3.047   1.075  15.025 -0.8788  0.2830  1.6055
  771MPD2     C11376   0.093   4.173  13.195  0.1429  0.6919 -0.2135
  771MPD2    C111377   0.067   4.294  13.130  0.3734  1.1381  0.3731
  771MPD2    C211378   4.691   4.298  13.039 -0.1349  0.5992  0.5091
  771MPD2    C311379   4.622   4.181  13.006 -0.0993  0.2278  0.5647
  771MPD2    C411380   4.657   4.062  13.059 -1.1696  0.0153  0.3103
  771MPD2    C511381   0.027   4.056  13.157  0.0639 -0.0702  0.7200
  771MPD2     H11382   4.672   4.395  12.995  0.2056 -0.0765 -1.1267
  771MPD2    H111383   4.605   3.970  13.036  0.6108 -0.9018 -0.1002
  771MPD2    H211384   0.169   4.163  13.272 -0.7965  0.2031  0.6443
  771MPD2    H311385   0.050   3.957  13.193 -0.7089 -0.2557  0.6801
  771MPD2     N11386   4.502   4.193  12.925 -0.0897  0.1901  0.1402
  771MPD2    H511387   4.467   4.288  12.922  3.0748  1.3547 -0.2894
  771MPD2    N111388   0.140   4.413  13.146 -0.1284  0.1284  0.3101
  771MPD2    H711389   0.108   4.485  13.083  2.9688  0.2966 -1.0703
  772MPD2     C11390   4.462   0.226  13.093  0.2135 -0.1659  0.5279
  772MPD2    C111391   4.479   0.107  13.164  0.5425  0.3715 -0.2758
  772MPD2    C211392   4.378   0.019  13.182  0.1284  0.6593  0.1201
  772MPD2    C311393   4.260   0.030  13.127  0.0068 -0.3448  0.3540
  772MPD2    C411394   4.242   0.146  13.052 -0.2490  0.1841  0.4895
  772MPD2    C511395   4.344   0.237  13.028 -0.2466  0.4171  0.2770
  772MPD2     H11396   4.405   4.661  13.249  2.4622  0.7882 -0.6643
  772MPD2    H111397   4.149   0.163  12.998 -1.1782 -0.8725  1.7578
  772MPD2    H211398   4.530   0.309  13.077  0.5244 -0.1411  2.0162
  772MPD2    H311399   4.313   0.331  12.984  0.4059  0.2070 -0.6313
  772MPD2     N11400   4.149   4.675  13.167  0.2433 -0.1879  0.3909
  772MPD2    H511401   4.060   4.705  13.129 -0.2436 -2.4368 -0.2349
  772MPD2    N111402   4.604   0.078  13.234  0.1820 -0.5875 -0.0967
  772MPD2    H711403   4.608   4.721  13.296 -0.5510 -0.4020  0.2038
  773MPD2     C11404   3.888   1.234   0.365  0.2606 -0.0785  0.0802
  773MPD2    C111405   3.836   1.164   0.256  0.6569  0.4223  0.4397
  773MPD2    C211406   3.858   1.029   0.245 -1.1759  0.0141 -0.2435
  773MPD2    C311407   3.943   0.958   0.331  0.5892  0.4961 -0.2582
  773MPD2    C411408   4.001   1.023   0.437  0.3319 -0.2288 -1.1525
  773MPD2    C511409   3.966   1.157   0.458  0.6851 -0.0183  0.4569
  773MPD2     H11410   3.818   0.983   0.156  0.1679  0.1562 -0.9235
  773MPD2    H111411   4.065   0.984   0.515  1.0015 -0.9767 -2.0711
  773MPD2    H211412   3.872   1.335   0.402 -1.1068  0.9482 -3.3241
  773MPD2    H311413   4.007   1.215   0.540  1.2416  0.4111 -0.1212
  773MPD2     N11414   3.955   0.819   0.312  0.1963  0.0059 -0.2383
  773MPD2    H511415   3.938   0.782   0.219  1.6308 -0.1887 -0.4169
  773MPD2    N111416   3.765   1.222   0.148  0.3385  0.2787 -0.4431
  773MPD2    H711417   3.729   1.158   0.078 -2.2887  1.2453  0.0149
  774MPD2     C11418   2.900   0.770  13.330 -0.6942 -0.2961  0.7054
  774MPD2    C111419   3.025   0.748  13.384 -0.1102  0.5411  0.1057
  774MPD2    C211420   3.113   0.850  13.405  0.8582  0.1801 -0.3194
  774MPD2    C311421   3.067   0.979  13.378  0.8818 -0.5200 -0.2579
  774MPD2    C411422   2.945   1.003  13.322 -0.2128  0.2760  0.1248
  774MPD2    C511423   2.862   0.894  13.288 -0.0311 -0.5646  0.2673
  774MPD2     H11424   3.211   0.849  13.450 -1.5204 -0.6251  4.9140
  774MPD2    H111425   2.904   1.096  13.286 -1.5068 -0.1233  0.5601
  774MPD2    H211426   2.839   0.687  13.296  0.4961 -0.8237 -0.1890
  774MPD2    H311427   2.770   0.913  13.234 -0.5294 -0.4382  1.1645
  774MPD2     N11428   3.162   1.085  13.405  0.0127  0.0263 -0.0158
  774MPD2    H511429   3.257   1.056  13.430  0.3076  0.3546 -0.7676
  774MPD2    N111430   3.059   0.614  13.419 -0.2051  0.2972  0.1149
  774MPD2    H711431   2.986   0.546  13.403  2.0475 -2.1287  0.1492
  775MPD2     C11432   4.132   1.971  15.781 -1.0379 -0.2907 -0.4026
  775MPD2    C111433   4.138   2.082  15.862 -0.0424  0.1425  0.5725
  775MPD2    C211434   4.206   2.195  15.824 -0.0878  0.0302  0.0015
  775MPD2    C311435   4.267   2.202  15.698 -0.2653  0.4213  0.0706
  775MPD2    C411436   4.268   2.082  15.619  0.6743 -0.0090  0.0630
  775MPD2    C511437   4.190   1.972  15.662  0.0054  0.3522  0.1643
  775MPD2     H11438   4.204   2.279  15.892 -0.7095  0.0177 -0.0059
  775MPD2    H111439   4.319   2.079  15.523 -1.5976 -0.2223 -1.1465
  775MPD2    H211440   4.078   1.883  15.815 -2.1686  1.0253  1.2040
  775MPD2    H311441   4.184   1.886  15.596  2.0420 -0.1817  0.6469
  775MPD2     N11442   4.342   2.323  15.657  0.2758  0.1617  0.2334
  775MPD2    H511443   4.381   2.319  15.563 -0.7713  0.4874 -0.2120
  775MPD2    N111444   4.060   2.076  15.982  0.1272 -0.8651 -0.0921
  775MPD2    H711445   4.024   1.982  15.993  0.0550 -0.9072 -0.7154
  776MPD2     C11446   3.198   2.471  11.575 -0.1714 -0.0109  0.4280
  776MPD2    C111447   3.275   2.448  11.464  0.0109  0.3442  0.4739
  776MPD2    C211448   3.372   2.550  11.431 -0.5398 -0.3501  0.6563
  776MPD2    C311449   3.386   2.664  11.504  0.0585  0.4818  0.4393
  776MPD2    C411450   3.306   2.676  11.621  0.5649 -0.2163 -0.2668
  776MPD2    C511451   3.210   2.581  11.652 -0.1491 -0.2255  0.1584
  776MPD2     H11452   3.430   2.544  11.340  3.0611  2.4107  2.7521
  776MPD2    H111453   3.309   2.768  11.678 -0.2375 -0.8376  0.7949
  776MPD2    H211454   3.119   2.398  11.595 -0.3750 -0.3266 -1.5271
  776MPD2    H311455   3.147   2.588  11.740 -1.7543 -1.2669 -0.9308
  776MPD2     N11456   3.496   2.752  11.469 -0.0414  0.0879  0.2717
  776MPD2    H511457   3.544   2.739  11.380 -0.5861  3.1403 -0.4497
  776MPD2    N111458   3.257   2.332  11.391 -0.5308  0.2668 -0.7923
  776MPD2    H711459   3.185   2.266  11.419 -0.7666  1.9425  2.4853
  777MPD2     C11460   3.621   4.657   1.084  0.2265 -0.1615  0.5469
  777MPD2    C111461   3.660   4.563   1.173  0.1648 -0.1800 -0.2729
  777MPD2    C211462   3.715   4.448   1.115 -0.3985  0.6728 -0.6070
  777MPD2    C311463   3.741   4.438   0.979 -0.4274 -0.4049 -0.8161
  777MPD2    C411464   3.737   4.549   0.905 -0.3665  0.2464  0.0079
  777MPD2    C511465   3.670   4.659   0.955 -0.4175 -0.3712  0.1837
  777MPD2     H11466   3.748   4.362   1.173 -3.3061 -0.2748 -0.3581
  777MPD2    H111467   3.774   4.563   0.805  2.5793 -0.5372  0.9971
  777MPD2    H211468   3.562   0.020   1.116  0.0333 -1.0718  2.6403
  777MPD2    H311469   3.664   0.026   0.894 -1.7906 -0.0683  0.7807
  777MPD2     N11470   3.786   4.313   0.926  0.1242 -0.0730  0.3123
  777MPD2    H511471   3.798   4.240   0.995 -0.7010 -1.0790 -0.6184
  777MPD2    N111472   3.635   4.584   1.308 -0.3052 -0.3762  0.5396
  777MPD2    H711473   3.579   4.665   1.334  0.3968  0.6331 -1.0756
  778MPD2     C11474   4.413   4.621  14.882  0.8208 -0.3953 -0.3529
  778MPD2    C111475   4.379   4.593  14.747  0.6311  0.2545  0.5442
  778MPD2    C211476   4.473   4.633  14.651 -0.5294 -0.3814 -0.0195
  778MPD2    C311477   4.602   4.686  14.683  0.0914 -0.3988  0.0008
  778MPD2    C411478   4.635   4.695  14.818 -0.4528 -0.2452 -0.4545
  778MPD2    C511479   4.535   4.666  14.911 -0.1961 -0.3871 -0.0690
  778MPD2     H11480   4.435   4.617  14.551  1.8557 -0.7307 -0.8839
  778MPD2    H111481   0.000   0.013  14.865 -0.6667  0.6196 -0.8200
  778MPD2    H211482   4.351   4.620  14.970  1.2456 -2.1534 -0.0542
  778MPD2    H311483   4.559   4.676  15.016 -4.1828 -0.3534  0.8454
  778MPD2     N11484   4.683   0.013  14.579  0.2961  0.1810  0.1591
  778MPD2    H511485   4.637   0.015  14.488 -0.8837 -1.0827  0.7047
  778MPD2    N111486   4.254   4.544  14.711 -0.1384 -0.9357  0.3365
  778MPD2    H711487   4.241   4.540  14.610  1.1686  1.2768  0.0952
  779MPD2     C11488   4.084   3.560  14.350  1.1913  0.4347 -0.8815
  779MPD2    C111489   4.204   3.532  14.404  0.1115 -0.0122 -0.6868
  779MPD2    C211490   4.274   3.634  14.472  0.8978 -0.2708  0.2626
  779MPD2    C311491   4.232   3.768  14.470  0.3456  0.0037 -0.3588
  779MPD2    C411492   4.107   3.786  14.423 -0.3040  0.0807 -0.0990
  779MPD2    C511493   4.037   3.685  14.364  0.2761 -0.1456 -1.2291
  779MPD2     H11494   4.369   3.612  14.518  0.9802  1.4731  0.9001
  779MPD2    H111495   4.055   3.879  14.439 -0.0549  0.1269  0.4337
  779MPD2    H211496   4.019   3.482  14.311  2.2782 -1.1211  0.4268
  779MPD2    H311497   3.939   3.697  14.319  0.5720 -0.2932 -1.8988
  779MPD2     N11498   4.311   3.879  14.492  0.1475  0.2139  0.1285
  779MPD2    H511499   4.268   3.969  14.471 -1.0632 -0.6375 -1.0630
  779MPD2    N111500   4.254   3.402  14.423 -0.3972  0.7046  0.0246
  779MPD2    H711501   4.330   3.395  14.490  0.2726  0.0710 -0.8073
  780MPD2     C11502   3.429   2.841   0.163 -0.1793 -0.3736  0.1280
  780MPD2    C111503   3.544   2.774   0.141 -0.1865  0.3536  0.1564
  780MPD2    C211504   3.660   2.840   0.158 -0.4680  0.3418  0.2051
  780MPD2    C311505   3.665   2.976   0.189 -0.8958  0.7311 -0.4815
  780MPD2    C411506   3.545   3.046   0.201  1.1203 -0.5010  0.3233
  780MPD2    C511507   3.426   2.978   0.184  0.1698  0.1951 -0.0106
  780MPD2     H11508   3.748   2.776   0.160 -1.4286 -0.9822 -0.0669
  780MPD2    H111509   3.541   3.154   0.209 -0.3791 -0.5742  0.5791
  780MPD2    H211510   3.331   2.801   0.136 -0.6712 -0.1325  1.5426
  780MPD2    H311511   3.333   3.034   0.180  0.7730  1.3294  1.9430
  780MPD2     N11512   3.798   3.037   0.201  0.1114  0.0592 -0.1087
  780MPD2    H511513   3.871   2.967   0.194  0.8459  0.6364  1.8103
  780MPD2    N111514   3.546   2.632   0.119 -0.2958  0.3593 -0.1498
  780MPD2    H711515   3.465   2.578   0.148  0.1965 -0.7018 -0.7288
  781MPD2     C11516   1.627   4.703  11.669  0.1813 -0.0144  0.0026
  781MPD2    C111517   1.641   0.118  11.691  0.4780 -0.4959 -0.5085
  781MPD2    C211518   1.704   0.187  11.586 -0.2916 -0.5193  0.2358
  781MPD2    C311519   1.744   0.135  11.462  0.2250  0.1155  0.0516
  781MPD2    C411520   1.725   0.000  11.443  0.5511  0.4463  0.0131
  781MPD2    C511521   1.675   4.648  11.552  0.4372 -0.1153 -0.0424
  781MPD2     H11522   1.721   0.293  11.604 -0.2207 -0.4397 -0.3224
  781MPD2    H111523   1.749   4.666  11.354  1.3347 -1.4809  1.4699
  781MPD2    H211524   1.582   4.639  11.744  1.0620 -2.8618 -1.9041
  781MPD2    H311525   1.657   4.543  11.532 -0.8582  0.1271 -0.1690
  781MPD2     N11526   1.795   0.207  11.352  0.3280 -0.3171 -0.1673
  781MPD2    H511527   1.811   0.153  11.268 -2.5091 -1.2902 -0.0821
  781MPD2    N111528   1.590   0.192  11.802 -0.1819 -0.4093 -0.1848
  781MPD2    H711529   1.612   0.290  11.797  1.3453 -0.8146 -1.2144
  782MPD2     C11530   4.104   0.770   9.737 -0.4417  0.2354 -0.3801
  782MPD2    C111531   4.154   0.778   9.865 -0.2324  0.3025 -0.3683
  782MPD2    C211532   4.193   0.899   9.904  0.0579  0.0051  0.1905
  782MPD2    C311533   4.189   1.016   9.822  0.8236 -0.2865  0.2695
  782MPD2    C411534   4.138   1.007   9.696  0.1180 -0.6133  0.2905
  782MPD2    C511535   4.092   0.885   9.658 -0.4311 -0.5359  0.4676
  782MPD2     H11536   4.222   0.915  10.008  2.1898  0.2070 -0.4364
  782MPD2    H111537   4.131   1.081   9.616  0.0143 -1.4003 -0.4262
  782MPD2    H211538   4.057   0.683   9.693  0.5412  0.8092 -2.5858
  782MPD2    H311539   4.060   0.873   9.555 -2.7883 -3.2781  1.5273
  782MPD2     N11540   4.229   1.140   9.876 -0.3254  0.5511  0.8275
  782MPD2    H511541   4.239   1.149   9.977  2.0326  0.0826  0.6382
  782MPD2    N111542   4.175   0.673   9.951  0.2650 -0.4180 -0.0852
  782MPD2    H711543   4.216   0.690  10.043 -1.0978 -0.7725  0.5906
  783MPD2     C11544   3.824   0.620  10.683  0.0105  0.2001 -0.4331
  783MPD2    C111545   3.897   0.731  10.648 -0.3150 -0.3226  0.3072
  783MPD2    C211546   4.004   0.711  10.566 -0.3081 -0.1347 -0.3855
  783MPD2    C311547   4.035   0.594  10.513 -0.0526  0.8492 -0.3373
  783MPD2    C411548   3.964   0.487  10.557 -0.0421  0.0814 -0.4915
  783MPD2    C511549   3.856   0.499  10.639 -0.5311  0.3308  0.3392
  783MPD2     H11550   4.056   0.798  10.529  0.0307 -0.1211  0.1254
  783MPD2    H111551   3.991   0.387  10.522  0.7841 -0.0183  0.4347
  783MPD2    H211552   3.739   0.637  10.748 -0.1057 -4.3953  0.6422
  783MPD2    H311553   3.812   0.406  10.674 -2.2609  0.7410 -0.7014
  783MPD2     N11554   4.140   0.582  10.415  0.5844 -0.0103 -0.3522
  783MPD2    H511555   4.147   0.663  10.354 -1.5881  0.5029  0.1003
  783MPD2    N111556   3.863   0.851  10.718  0.5493  0.4591 -0.0201
  783MPD2    H711557   3.776   0.845  10.771 -0.8637 -1.7253 -2.5844
  784MPD2     C11558   1.988   0.857   0.582  0.0584 -0.1117  0.1367
  784MPD2    C111559   1.970   0.942   0.690  0.2313 -0.3422 -0.5703
  784MPD2    C211560   1.900   1.058   0.673  0.2017 -0.1093  0.0211
  784MPD2    C311561   1.848   1.095   0.550  0.2140 -0.2319  0.5269
  784MPD2    C411562   1.872   1.010   0.441  0.4697 -0.5990  0.0737
  784MPD2    C511563   1.947   0.898   0.457  0.5055  0.3205 -0.1740
  784MPD2     H11564   1.885   1.133   0.751 -0.1754  0.0864 -0.2413
  784MPD2    H111565   1.827   1.024   0.343 -0.5411  1.6488  0.8664
  784MPD2    H211566   2.042   0.764   0.598 -1.4915 -0.5439  2.7875
  784MPD2    H311567   1.967   0.835   0.371  1.8360 -1.5310  1.4937
  784MPD2     N11568   1.756   1.205   0.541 -0.1864 -0.8006 -0.6604
  784MPD2    H511569   1.735   1.263   0.622 -0.2259  0.0045 -1.2457
  784MPD2    N111570   2.007   0.916   0.827 -0.0949  0.9704  0.4079
  784MPD2    H711571   1.975   0.986   0.893 -0.2512 -0.0766  1.4389
  785MPD2     C11572   1.892   4.323  10.344  0.1533  0.5135 -0.0107
  785MPD2    C111573   1.831   4.362  10.232  0.3297 -0.3639 -0.3261
  785MPD2    C211574   1.720   4.293  10.186  0.1958  0.0074 -0.1532
  785MPD2    C311575   1.684   4.179  10.253 -0.0312  0.4889 -0.1023
  785MPD2    C411576   1.744   4.142  10.372  0.3288 -0.0015 -0.4323
  785MPD2    C511577   1.860   4.207  10.411 -0.5377  0.7063  0.0586
  785MPD2     H11578   1.671   4.312  10.091  0.5509  0.4713 -0.2449
  785MPD2    H111579   1.720   4.051  10.426  1.0401  0.3008  0.4023
  785MPD2    H211580   1.987   4.365  10.375  0.3787  1.0913 -1.4848
  785MPD2    H311581   1.921   4.167  10.491 -0.1243 -1.5924 -1.4154
  785MPD2     N11582   1.591   4.100  10.183  0.1607  0.2242  0.0625
  785MPD2    H511583   1.563   4.148  10.099 -3.3222  1.1628  1.7668
  785MPD2    N111584   1.894   4.461  10.147  0.1592  0.2232 -0.5505
  785MPD2    H711585   1.974   4.511  10.183  0.0301 -0.0736  0.1356
  786MPD2     C11586   4.561   2.837  14.594  0.7308  0.5208 -0.4063
  786MPD2    C111587   4.695   2.814  14.591  0.0021  0.4846 -0.6650
  786MPD2    C211588   0.054   2.874  14.681 -0.5765 -0.6580  0.4608
  786MPD2    C311589   0.008   2.972  14.766  0.2064 -0.0245  0.1384
  786MPD2    C411590   4.607   3.012  14.762 -0.0220  0.7907 -0.6083
  786MPD2    C511591   4.516   2.940  14.681 -0.1147  0.9120  1.2669
  786MPD2     H11592   0.159   2.845  14.677 -0.5226 -0.2988 -0.6548
  786MPD2    H111593   4.567   3.099  14.813  0.5108  1.1370 -0.7811
  786MPD2    H211594   4.499   2.799  14.514 -0.9714 -0.3367  1.3221
  786MPD2    H311595   4.413   2.970  14.672 -1.0246 -2.0434  1.9412
  786MPD2     N11596   0.095   3.049  14.850  0.5465  0.5357  0.0837
  786MPD2    H511597   0.056   3.134  14.888  0.1319  0.7984 -0.9246
  786MPD2    N111598   0.033   2.720  14.513 -0.0888  0.5395 -0.4033
  786MPD2    H711599   0.131   2.695  14.524 -0.4847 -0.5852  0.6142
  787MPD2     C11600   0.218   2.142  14.744  0.0979  0.9330  0.9503
  787MPD2    C111601   0.286   2.161  14.624 -0.0144  0.0143  0.1288
  787MPD2    C211602   0.394   2.076  14.594  0.6895  0.5931 -0.0627
  787MPD2    C311603   0.420   1.974  14.687  0.4014 -0.2548 -1.1699
  787MPD2    C411604   0.342   1.964  14.800  0.2697 -0.1883  0.3576
  787MPD2    C511605   0.241   2.049  14.826 -0.5232 -0.3016  1.3282
  787MPD2     H11606   0.443   2.085  14.498  0.3406 -0.8379 -0.3788
  787MPD2    H111607   0.345   1.878  14.866  0.9615 -0.8419 -0.5186
  787MPD2    H211608   0.131   2.202  14.764 -0.4921  0.2176  0.5358
  787MPD2    H311609   0.177   2.054  14.914 -2.2597 -2.4380  0.1984
  787MPD2     N11610   0.532   1.892  14.652  0.2504  0.1529  0.2194
  787MPD2    H511611   0.591   1.908  14.571  1.5850 -0.5603  1.0379
  787MPD2    N111612   0.226   2.254  14.536 -0.1516  0.2002 -0.3585
  787MPD2    H711613   0.143   2.303  14.566  1.3774  1.4922  1.7373
  788MPD2     C11614   1.934   0.223   1.038 -0.3252  0.0855  0.6306
  788MPD2    C111615   2.062   0.169   1.018 -0.0791  0.2680 -0.4211
  788MPD2    C211616   2.159   0.253   0.963 -0.2975 -0.6283 -0.4533
  788MPD2    C311617   2.121   0.378   0.921  0.3281 -0.5207 -0.0776
  788MPD2    C411618   1.993   0.426   0.932 -0.1544 -0.4434 -0.2409
  788MPD2    C511619   1.898   0.349   0.989  0.4023 -0.0907  0.6236
  788MPD2     H11620   2.255   0.207   0.947  0.3204 -0.1153  1.6978
  788MPD2    H111621   1.967   0.525   0.894  2.6517 -0.2071 -1.5778
  788MPD2    H211622   1.853   0.172   1.089 -1.0853 -0.1094 -0.7811
  788MPD2    H311623   1.798   0.388   1.007 -0.5507 -1.3101 -1.9803
  788MPD2     N11624   2.219   0.454   0.848  0.4258  0.3425 -0.2526
  788MPD2    H511625   2.203   0.550   0.819  0.6445  0.3014 -0.5089
  788MPD2    N111626   2.085   0.038   1.058  0.5507 -0.1511  0.1520
  788MPD2    H711627   2.009   0.002   1.114  0.0228  1.4399  0.4606
  789MPD2     C11628   3.024   0.529  16.258  0.0444  0.6032 -0.1773
  789MPD2    C111629   2.952   0.516  16.376 -0.2113 -0.6634  0.3607
  789MPD2    C211630   2.848   0.599  16.392 -0.6597  0.7252 -0.3507
  789MPD2    C311631   2.814   0.696  16.306  0.6089 -0.0134 -0.6585
  789MPD2    C411632   2.894   0.715  16.194  0.8309 -0.5837  0.4036
  789MPD2    C511633   3.000   0.629  16.169  0.6351  0.5928 -0.0299
  789MPD2     H11634   2.796   0.594  16.487  1.6672  0.3169  0.8988
  789MPD2    H111635   2.870   0.794  16.125 -1.4107 -0.6768  1.0654
  789MPD2    H211636   3.108   0.464  16.237 -0.8607 -0.6678  0.1302
  789MPD2    H311637   3.071   0.637  16.087  0.9311  1.1976  0.2789
  789MPD2     N11638   2.692   0.771  16.312  0.2919  0.4849  0.4601
  789MPD2    H511639   2.686   0.842  16.240 -1.4850 -0.7114 -0.5579
  789MPD2    N111640   2.987   0.421  16.476  0.1793 -0.4795  0.7024
  789MPD2    H711641   2.922   0.423  16.554 -1.0428 -0.2614 -0.3122
  790MPD2     C11642   3.434   2.146  13.668  0.0066  0.1801  0.4389
  790MPD2    C111643   3.495   2.028  13.625  0.2516  0.2378  0.6415
  790MPD2    C211644   3.480   1.992  13.494 -0.1862  0.7994  0.4075
  790MPD2    C311645   3.407   2.069  13.396 -0.6489 -0.5809 -0.1648
  790MPD2    C411646   3.345   2.181  13.452  0.3835 -0.3124 -0.1602
  790MPD2    C511647   3.357   2.217  13.586 -0.0812  0.4141  0.6852
  790MPD2     H11648   3.519   1.898  13.456 -2.1319 -0.1913  0.8656
  790MPD2    H111649   3.270   2.239  13.401  1.3464 -0.6012 -1.9036
  790MPD2    H211650   3.448   2.181  13.770  0.8236  1.8053 -0.2260
  790MPD2    H311651   3.294   2.295  13.628 -2.7651 -1.6913  0.5990
  790MPD2     N11652   3.398   2.031  13.259 -0.4935  0.2659 -0.5164
  790MPD2    H511653   3.441   1.945  13.228 -0.0236  0.1430  0.4786
  790MPD2    N111654   3.561   1.951  13.726  0.0835 -0.7516  0.1718
  790MPD2    H711655   3.550   1.983  13.822 -0.4352 -1.7593  0.4553
  791MPD2     C11656   2.864   2.313  12.757  0.4546  0.1262  0.1521
  791MPD2    C111657   2.917   2.204  12.701 -0.5332  0.2931  0.4426
  791MPD2    C211658   2.854   2.156  12.589  0.9918  0.8291  0.4808
  791MPD2    C311659   2.733   2.202  12.548 -0.1634  0.5767 -0.5712
  791MPD2    C411660   2.681   2.309  12.606  0.4340  0.0242 -0.6179
  791MPD2    C511661   2.750   2.368  12.703 -0.4958 -0.5281  0.1645
  791MPD2     H11662   2.897   2.072  12.536 -0.8363  0.1338  0.1074
  791MPD2    H111663   2.592   2.362  12.574 -0.3096 -2.2446 -2.3339
  791MPD2    H211664   2.916   2.370  12.833 -0.7552  0.9608  0.3506
  791MPD2    H311665   2.707   2.461  12.738  0.7482  0.2897 -0.4610
  791MPD2     N11666   2.679   2.136  12.434 -0.0571  0.2989  0.2914
  791MPD2    H511667   2.738   2.063  12.393  0.7187  0.7063  0.6905
  791MPD2    N111668   3.042   2.167  12.763  0.1258 -0.1967 -0.3141
  791MPD2    H711669   3.071   2.228  12.839 -1.2527  0.1911 -0.0956
  792MPD2     C11670   3.957   1.995  10.626  0.0160 -0.2524  0.3407
  792MPD2    C111671   3.829   2.036  10.641  0.6911  0.6519 -0.1247
  792MPD2    C211672   3.719   1.952  10.633  0.2957  0.5395 -0.4515
  792MPD2    C311673   3.740   1.828  10.579 -0.0034 -0.2999 -0.8969
  792MPD2    C411674   3.869   1.783  10.564 -0.1311 -0.6317 -0.2525
  792MPD2    C511675   3.972   1.868  10.587 -0.8345 -0.3789  0.0813
  792MPD2     H11676   3.623   1.976  10.677 -0.5510 -2.5586 -0.5773
  792MPD2    H111677   3.892   1.679  10.546  0.2589 -0.0566 -3.0869
  792MPD2    H211678   4.045   2.058  10.616  0.4934 -0.6913  1.7558
  792MPD2    H311679   4.071   1.826  10.571 -0.4872  0.2512  0.6089
  792MPD2     N11680   3.635   1.737  10.570  0.3675 -0.0042 -0.1393
  792MPD2    H511681   3.655   1.639  10.552 -0.1169  0.1854 -1.6863
  792MPD2    N111682   3.803   2.181  10.649 -0.3089 -0.3084  0.1916
  792MPD2    H711683   3.892   2.227  10.662 -0.5926 -0.0429  1.2438
  793MPD2     C11684   3.772   0.982  10.339 -0.6159  0.6207 -0.0120
  793MPD2    C111685   3.760   1.097  10.264 -0.2681 -0.0435  0.1999
  793MPD2    C211686   3.682   1.195  10.323  0.6621  0.1620 -0.3053
  793MPD2    C311687   3.620   1.186  10.444  0.1776  0.7307 -0.4602
  793MPD2    C411688   3.626   1.066  10.514  0.1073  0.1126  0.1853
  793MPD2    C511689   3.707   0.962  10.458  0.4106 -0.8941 -1.0809
  793MPD2     H11690   3.668   1.288  10.269  1.0960  1.2691  1.4696
  793MPD2    H111691   3.580   1.047  10.611  0.3371 -0.6878  0.1305
  793MPD2    H211692   3.841   0.902  10.314  0.4235  1.2996  0.6870
  793MPD2    H311693   3.732   0.875  10.518  1.1298 -1.1425 -1.7236
  793MPD2     N11694   3.539   1.292  10.492 -0.0236 -0.0928  0.3192
  793MPD2    H511695   3.516   1.365  10.424  1.1136 -0.1264 -0.0985
  793MPD2    N111696   3.827   1.124  10.142 -0.1586  0.4047  0.3497
  793MPD2    H711697   3.801   1.213  10.099  0.7263  0.7708  0.5716
  794MPD2     C11698   3.537   2.004  17.543  0.9733  0.5498 -0.3402
  794MPD2    C111699   3.525   1.919  17.439 -0.1913 -0.0929  0.2481
  794MPD2    C211700   3.464   1.965  17.323 -0.7243 -0.3451  0.0198
  794MPD2    C311701   3.427   2.094  17.314 -0.1129 -0.1445 -0.3319
  794MPD2    C411702   3.448   2.181  17.417 -0.0737 -0.3850  0.0884
  794MPD2    C511703   3.500   2.136  17.535  0.4796 -0.3020 -0.2780
  794MPD2     H11704   3.447   1.901  17.237  0.7503 -0.3524 -0.2724
  794MPD2    H111705   3.424   2.286  17.402 -0.7912 -0.4182  1.0540
  794MPD2    H211706   3.583   1.970  17.635 -0.9449  2.3416  1.2604
  794MPD2    H311707   3.513   2.208  17.616  0.9078 -0.2377 -0.4044
  794MPD2     N11708   3.360   2.156  17.205  0.0153 -0.7374  0.2225
  794MPD2    H511709   3.355   2.257  17.212  1.9664 -0.8230  2.9008
  794MPD2    N111710   3.554   1.781  17.458 -0.3808 -0.8465  0.2313
  794MPD2    H711711   3.533   1.723  17.378 -0.3600 -4.1120  2.6145
  795MPD2     C11712   0.806   3.771  13.426 -0.1214  0.5312 -0.2516
  795MPD2    C111713   0.750   3.649  13.439  0.1974  0.3086 -0.6315
  795MPD2    C211714   0.815   3.557  13.516 -0.0309 -0.1937  0.6776
  795MPD2    C311715   0.943   3.579  13.566  0.2788  0.2187 -1.1936
  795MPD2    C411716   0.997   3.703  13.548  0.1149 -0.1958  0.0907
  795MPD2    C511717   0.928   3.802  13.483 -0.0556  1.3565 -0.0783
  795MPD2     H11718   0.777   3.461  13.550  1.0664  0.1100  2.7996
  795MPD2    H111719   1.099   3.725  13.577  0.4120 -0.8706 -0.4426
  795MPD2    H211720   0.763   3.850  13.365 -0.7346  2.3610  2.5508
  795MPD2    H311721   0.967   3.902  13.467  0.9842  1.1201  0.9504
  795MPD2     N11722   1.017   3.472  13.623 -0.2719 -0.0339  0.2792
  795MPD2    H511723   0.982   3.377  13.630  2.7233 -1.1196  0.4544
  795MPD2    N111724   0.637   3.603  13.373  0.3936 -0.2968  0.3767
  795MPD2    H711725   0.601   3.514  13.404 -1.5222  0.7768  1.2348
  796MPD2     C11726   1.142   0.906  15.998 -0.4631 -0.3879  0.5497
  796MPD2    C111727   1.123   0.908  16.132 -0.4145  0.8829  0.2904
  796MPD2    C211728   1.053   1.011  16.185  0.0666 -0.3370 -0.0553
  796MPD2    C311729   1.003   1.115  16.109  0.4992  0.8732  0.2526
  796MPD2    C411730   1.023   1.114  15.971  0.6396 -0.0337  0.3510
  796MPD2    C511731   1.082   1.003  15.916 -0.4744  0.8383  0.1045
  796MPD2     H11732   1.040   1.022  16.292  0.4204 -0.4116 -0.0052
  796MPD2    H111733   0.980   1.188  15.905  0.0517 -1.3254 -0.7054
  796MPD2    H211734   1.193   0.820  15.957 -0.1373 -1.0175  2.2893
  796MPD2    H311735   1.082   0.992  15.808  1.7584  1.8311  0.0024
  796MPD2     N11736   0.932   1.219  16.170  0.4696 -0.3848 -0.1676
  796MPD2    H511737   0.930   1.222  16.271 -2.5076 -3.5305 -0.1504
  796MPD2    N111738   1.183   0.801  16.202 -0.0238  0.7355  0.6970
  796MPD2    H711739   1.241   0.737  16.148  0.5055  1.6177  0.2190
  797MPD2     C11740   2.045   0.172  17.400  0.5474 -0.1379  0.1910
  797MPD2    C111741   2.146   0.269  17.390  0.3014  0.1407 -1.1984
  797MPD2    C211742   2.119   0.387  17.320 -0.0774 -0.0062 -1.1368
  797MPD2    C311743   2.007   0.401  17.246  0.3286  0.3279 -0.4973
  797MPD2    C411744   1.917   0.297  17.245  0.1933 -0.2914  0.0577
  797MPD2    C511745   1.934   0.191  17.326 -0.3919 -0.3034  0.2654
  797MPD2     H11746   2.200   0.459  17.327 -1.5140  1.6147 -1.1132
  797MPD2    H111747   1.837   0.307  17.172 -0.5280 -0.6558  0.8032
  797MPD2    H211748   2.049   0.081  17.459 -1.0369 -0.0383  0.4742
  797MPD2    H311749   1.863   0.109  17.320 -0.0223 -0.6032 -0.0685
  797MPD2     N11750   1.975   0.510  17.174  0.3770  0.6305  0.0433
  797MPD2    H511751   1.908   0.505  17.098  0.4627  0.8703 -0.0482
  797MPD2    N111752   2.260   0.271  17.469 -0.3307  0.4894  0.2444
  797MPD2    H711753   2.324   0.350  17.467 -1.1333  1.1477  0.5828
  798MPD2     C11754   2.431   0.996  17.440  0.1242  1.5268  0.2063
  798MPD2    C111755   2.365   0.879  17.393  0.7520 -0.2358  0.2178
  798MPD2    C211756   2.359   0.769  17.472  0.0459  0.1691 -0.0461
  798MPD2    C311757   2.431   0.769  17.590 -0.4768  0.2321  0.5248
  798MPD2    C411758   2.478   0.883  17.652  0.2030  0.0813 -0.0375
  798MPD2    C511759   2.468   1.001  17.577  0.5683  0.2107  0.3742
  798MPD2     H11760   2.321   0.677  17.432 -1.4318  0.9865 -0.5004
  798MPD2    H111761   2.527   0.877   0.055  0.5899  0.6822 -0.1940
  798MPD2    H211762   2.429   1.085  17.380  2.0165  2.2114  1.1707
  798MPD2    H311763   2.524   1.087  17.610  1.5342 -0.6218  0.9235
  798MPD2     N11764   2.437   0.640  17.639 -0.1460  0.1700  0.6293
  798MPD2    H511765   2.408   0.575  17.566 -0.1801  0.6861  0.1784
  798MPD2    N111766   2.294   0.866  17.266  0.0837 -0.4440 -1.0348
  798MPD2    H711767   2.237   0.784  17.247 -1.7783  0.6709 -0.2983
  799MPD2     C11768   0.390   1.575  14.191  1.0219  0.0005  0.2240
  799MPD2    C111769   0.406   1.483  14.089 -0.3728  0.7085  0.1153
  799MPD2    C211770   0.354   1.517  13.967 -0.5658 -0.1319 -0.2462
  799MPD2    C311771   0.283   1.633  13.944 -0.1653 -0.0064 -0.4352
  799MPD2    C411772   0.276   1.724  14.044 -0.2756  0.1084  0.2537
  799MPD2    C511773   0.320   1.690  14.171 -0.1898  0.4902 -0.4433
  799MPD2     H11774   0.359   1.445  13.887 -2.6753 -0.3266 -0.2128
  799MPD2    H111775   0.217   1.815  14.040 -0.6706 -0.1761 -0.5052
  799MPD2    H211776   0.426   1.555  14.291 -0.1421  3.5471  1.3504
  799MPD2    H311777   0.330   1.763  14.251 -0.0884  0.1128 -0.1097
  799MPD2     N11778   0.223   1.661  13.818  0.0521 -0.5575 -0.3739
  799MPD2    H511779   0.179   1.752  13.816  1.1123  0.0607  3.4804
  799MPD2    N111780   0.466   1.351  14.091  0.2216 -0.4615  0.4218
  799MPD2    H711781   0.485   1.306  14.002  2.1742  0.5490  0.3303
  800MPD2     C11782   0.532   3.016  14.308  0.1774 -0.1320 -0.2839
  800MPD2    C111783   0.613   2.921  14.251  0.0204 -0.7141  0.4029
  800MPD2    C211784   0.585   2.839  14.144  0.2380  0.0443 -0.9530
  800MPD2    C311785   0.469   2.868  14.084  0.6412 -0.1362 -0.3595
  800MPD2    C411786   0.380   2.953  14.145  0.3574  0.4783 -0.4266
  800MPD2    C511787   0.408   3.016  14.267  0.0590  0.4516 -0.2321
  800MPD2     H11788   0.652   2.765  14.101 -0.2746 -0.3075 -1.1565
  800MPD2    H111789   0.280   2.972  14.106 -0.6844 -1.0329  1.5351
  800MPD2    H211790   0.559   3.060  14.403  2.2104 -0.4301 -0.7270
  800MPD2    H311791   0.331   3.082  14.306  0.4857  0.3781  0.7229
  800MPD2     N11792   0.442   2.804  13.963 -0.3224 -0.1951  0.2629
  800MPD2    H511793   0.522   2.770  13.910  0.0895 -2.7309  2.5141
  800MPD2    N111794   0.746   2.937  14.295  0.3773 -0.6486 -0.3695
  800MPD2    H711795   0.776   3.024  14.339 -5.2635  2.1947 -2.2253
  801MPD2     C11796   0.733   3.389  13.829  0.4737  0.1457 -0.7377
  801MPD2    C111797   0.791   3.403  13.953 -0.0591 -0.5646  0.4070
  801MPD2    C211798   0.766   3.507  14.039  0.0719 -0.1623 -1.1212
  801MPD2    C311799   0.656   3.587  14.016 -0.1438 -0.2053  0.6005
  801MPD2    C411800   0.589   3.576  13.896  0.0691  0.4332  0.0235
  801MPD2    C511801   0.624   3.476  13.802 -0.2278  0.8026  0.4943
  801MPD2     H11802   0.817   3.503  14.134  1.0945 -1.4419 -1.7231
  801MPD2    H111803   0.502   3.639  13.881  0.5078  1.3094  1.1193
  801MPD2    H211804   0.759   3.307  13.763  3.9046  0.0804  0.6754
  801MPD2    H311805   0.573   3.471  13.706  2.4901  2.8095 -1.0669
  801MPD2     N11806   0.602   3.682  14.108 -0.3277  0.6874  0.1413
  801MPD2    H511807   0.519   3.734  14.084 -1.1887 -0.3415  0.8664
  801MPD2    N111808   0.883   3.311  14.010 -0.4042 -0.6251  0.3055
  801MPD2    H711809   0.908   3.311  14.108 -0.5437 -2.4782  0.3398
  802MPD2     C11810   0.775   3.602   0.332  0.3470 -0.9503  0.7479
  802MPD2    C111811   0.661   3.589   0.255  0.1711 -0.6355 -0.9481
  802MPD2    C211812   0.664   3.539   0.129  0.7190  0.1191 -0.2274
  802MPD2    C311813   0.786   3.491   0.073 -0.1095 -0.4163  0.0421
  802MPD2    C411814   0.898   3.530   0.144  0.0681  0.2657 -0.2230
  802MPD2    C511815   0.891   3.588   0.269 -0.9046 -0.4112 -0.7513
  802MPD2     H11816   0.583   3.543   0.057  0.7051 -4.8318 -0.4827
  802MPD2    H111817   0.989   3.489   0.102  0.7525  0.0422  1.4701
  802MPD2    H211818   0.782   3.655   0.426 -0.7201  0.2200  0.1693
  802MPD2    H311819   0.985   3.603   0.319 -1.9059 -0.3741  1.0982
  802MPD2     N11820   0.793   3.438  17.639  0.3885 -0.1286  0.3951
  802MPD2    H511821   0.701   3.423  17.599 -0.1150  0.5948  1.2799
  802MPD2    N111822   0.549   3.653   0.306 -0.6462 -0.0470 -0.4349
  802MPD2    H711823   0.551   3.687   0.401 -0.7912 -2.3562  0.3965
  803MPD2     C11824   1.595   2.437  11.563 -0.3409  0.0516  0.4860
  803MPD2    C111825   1.628   2.441  11.697  0.6270  0.4306 -0.3695
  803MPD2    C211826   1.587   2.335  11.775  0.5329  0.0899  0.3348
  803MPD2    C311827   1.532   2.218  11.711 -1.4674  0.5894  0.4884
  803MPD2    C411828   1.505   2.221  11.581 -0.1962  0.2555 -0.3272
  803MPD2    C511829   1.529   2.325  11.501  0.2021  0.3318 -0.3323
  803MPD2     H11830   1.588   2.333  11.883 -2.4164  4.8323  0.4715
  803MPD2    H111831   1.457   2.140  11.528  2.2387 -1.2229 -0.2444
  803MPD2    H211832   1.623   2.512  11.491  3.3131 -1.2091  0.6104
  803MPD2    H311833   1.489   2.316  11.401 -0.3246  2.9775 -0.3696
  803MPD2     N11834   1.488   2.112  11.793 -0.4446  0.6126 -0.3112
  803MPD2    H511835   1.468   2.129  11.891 -0.3928  1.3111 -0.4220
  803MPD2    N111836   1.684   2.553  11.759 -0.9429  0.6720 -0.4582
  803MPD2    H711837   1.698   2.540  11.858 -1.6825 -1.1487 -0.5979
  804MPD2     C11838   1.161   3.130  16.684  0.1127  0.5523  0.0032
  804MPD2    C111839   1.222   3.117  16.803 -0.1252 -0.7793  0.0238
  804MPD2    C211840   1.258   3.236  16.873  0.5032  0.6067  0.8064
  804MPD2    C311841   1.229   3.359  16.827  0.3235 -0.0434  0.8700
  804MPD2    C411842   1.160   3.364  16.713 -0.0045  0.2141  0.7641
  804MPD2    C511843   1.124   3.254  16.642 -0.2680  0.4190 -0.3248
  804MPD2     H11844   1.309   3.233  16.969  1.3602  0.0065  0.3313
  804MPD2    H111845   1.133   3.458  16.665 -0.9837  0.2663  1.4254
  804MPD2    H211846   1.134   3.041  16.628  1.1199  0.8487 -0.9641
  804MPD2    H311847   1.064   3.265  16.552 -1.4101  0.1226  0.3921
  804MPD2     N11848   1.280   3.476  16.893 -0.4221  0.7571 -0.0904
  804MPD2    H511849   1.329   3.458  16.980 -0.2964 -0.9491 -0.5140
  804MPD2    N111850   1.249   2.997  16.876 -0.2983 -0.3071 -0.0652
  804MPD2    H711851   1.294   2.995  16.967 -1.2474  2.4703  0.4480
  805MPD2     C11852   0.158   1.377  15.617 -0.0469  0.5590 -0.3466
  805MPD2    C111853   0.102   1.483  15.674  0.1584  0.0991 -0.0226
  805MPD2    C211854   0.182   1.569  15.753  0.3798  0.2497 -0.7833
  805MPD2    C311855   0.323   1.552  15.757 -0.0769  0.3912 -0.3456
  805MPD2    C411856   0.382   1.447  15.686 -0.6918  0.1672 -1.1047
  805MPD2    C511857   0.293   1.359  15.626  0.0761 -0.0940  0.4192
  805MPD2     H11858   0.137   1.645  15.816 -0.0189  0.3358 -1.1656
  805MPD2    H111859   0.487   1.422  15.675 -0.7931 -0.7042 -0.0969
  805MPD2    H211860   0.109   1.303  15.554  0.2235  1.0252 -1.1039
  805MPD2    H311861   0.327   1.284  15.556 -0.2748 -0.3542  0.5289
  805MPD2     N11862   0.401   1.647  15.822  0.1786 -0.0325 -0.4379
  805MPD2    H511863   0.349   1.725  15.863  0.1519 -0.3163  0.0712
  805MPD2    N111864   4.689   1.526  15.658  0.4619  0.4366 -0.4066
  805MPD2    H711865   4.667   1.619  15.693  0.8208  0.4269 -0.1533
  806MPD2     C11866   1.413   1.336   0.119 -0.5715 -0.7883  0.1733
  806MPD2    C111867   1.318   1.396   0.196 -0.3659 -0.1035 -0.3955
  806MPD2    C211868   1.288   1.531   0.181  0.1248 -0.2166 -0.3176
  806MPD2    C311869   1.357   1.609   0.085  0.3586 -0.3723  1.0443
  806MPD2    C411870   1.448   1.542   0.006 -0.1671  0.0122 -0.1265
  806MPD2    C511871   1.473   1.409   0.017 -0.2160 -0.3005 -0.2149
  806MPD2     H11872   1.217   1.587   0.239  1.1075 -0.2310  0.9044
  806MPD2    H111873   1.502   1.594  17.621 -0.7664  0.6373 -0.1279
  806MPD2    H211874   1.427   1.228   0.118 -0.8834 -0.8402  1.8454
  806MPD2    H311875   1.535   1.357  17.639  1.7016  0.9498  0.5519
  806MPD2     N11876   1.344   1.746   0.087 -0.4701  0.6698  0.9395
  806MPD2    H511877   1.278   1.793   0.149 -0.7505  0.3545  0.8788
  806MPD2    N111878   1.264   1.324   0.304  0.1573  0.3284 -0.4249
  806MPD2    H711879   1.290   1.226   0.305  1.9393  0.7983 -0.6031
  807MPD2     C11880   0.700   1.151   0.973 -0.2300  0.0616 -0.0863
  807MPD2    C111881   0.830   1.098   0.994  0.1203 -0.0198  0.4166
  807MPD2    C211882   0.853   1.025   1.109  0.4491  0.1742  1.0172
  807MPD2    C311883   0.754   0.993   1.202  0.7835 -0.1999 -1.1033
  807MPD2    C411884   0.630   1.050   1.182 -0.5816 -0.9246 -0.4018
  807MPD2    C511885   0.603   1.123   1.064 -0.2519 -0.4238 -0.1986
  807MPD2     H11886   0.953   0.987   1.129  0.5610  0.5220  1.1230
  807MPD2    H111887   0.550   1.029   1.251  0.5003 -0.9090  0.8546
  807MPD2    H211888   0.668   1.198   0.881  2.6142 -1.2078 -1.7524
  807MPD2    H311889   0.501   1.153   1.043  0.4476 -0.0147 -2.9179
  807MPD2     N11890   0.774   0.892   1.301 -0.0204 -0.3205  0.2445
  807MPD2    H511891   0.856   0.833   1.294  1.2101  1.6558 -1.6594
  807MPD2    N111892   0.936   1.109   0.896  0.2435 -0.5587 -0.1959
  807MPD2    H711893   1.031   1.078   0.916 -0.5193 -4.2753 -2.3292
  808MPD2     C11894   1.535   2.350  10.032 -0.3875  0.2510  0.0331
  808MPD2    C111895   1.502   2.352   9.898  0.8098 -0.8026  0.2195
  808MPD2    C211896   1.517   2.469   9.837  0.3623  0.4516 -0.3562
  808MPD2    C311897   1.555   2.586   9.905 -0.2596 -0.1336 -0.4570
  808MPD2    C411898   1.557   2.585  10.048 -0.3545 -0.7878 -0.7596
  808MPD2    C511899   1.576   2.460  10.099 -0.9014  0.1679  0.0385
  808MPD2     H11900   1.502   2.476   9.729 -0.0973 -1.5742 -0.4302
  808MPD2    H111901   1.586   2.672  10.107 -0.0827 -2.0588  0.9772
  808MPD2    H211902   1.535   2.256  10.086  0.4589  0.0360 -0.3364
  808MPD2    H311903   1.599   2.444  10.204  1.2707  1.6209 -0.2217
  808MPD2     N11904   1.567   2.713   9.850  0.0540 -0.2827  0.6473
  808MPD2    H511905   1.562   2.791   9.914 -0.6988 -1.3686  1.9015
  808MPD2    N111906   1.468   2.244   9.825 -0.2979 -0.0024 -0.4203
  808MPD2    H711907   1.436   2.260   9.730  0.8753 -0.6682 -0.9287
  809MPD2     C11908   2.375   3.193   9.517 -0.2468  0.2239 -0.8930
  809MPD2    C111909   2.331   3.064   9.517  0.7013  0.3578  0.1834
  809MPD2    C211910   2.198   3.047   9.520 -0.3642 -0.0614 -0.0245
  809MPD2    C311911   2.105   3.146   9.530 -0.1733 -0.0122  0.2835
  809MPD2    C411912   2.157   3.274   9.543  0.1121 -1.0939  0.9463
  809MPD2    C511913   2.289   3.295   9.527  0.7865 -0.1197 -0.1203
  809MPD2     H11914   2.167   2.945   9.499  2.7993 -0.8763 -0.7041
  809MPD2    H111915   2.093   3.362   9.546  1.1145 -0.3258  0.0334
  809MPD2    H211916   2.482   3.215   9.518 -0.0967 -0.6648  1.3088
  809MPD2    H311917   2.327   3.396   9.538  0.5114 -0.3403  3.0050
  809MPD2     N11918   1.965   3.128   9.536 -0.4858 -0.4211  0.1853
  809MPD2    H511919   1.921   3.218   9.550  3.1004  1.4181 -0.3160
  809MPD2    N111920   2.421   2.957   9.488 -0.1709  0.8213 -0.1524
  809MPD2    H711921   2.376   2.866   9.484  1.7695 -0.0323 -2.3450
  810MPD2     C11922   1.044   1.755   9.920 -0.4310  0.0523 -0.8222
  810MPD2    C111923   0.992   1.852   9.845 -0.1133 -0.0020  0.6696
  810MPD2    C211924   1.033   1.981   9.877 -0.0714  0.1753 -0.1880
  810MPD2    C311925   1.126   2.006   9.983 -0.0626  0.0731 -0.0154
  810MPD2    C411926   1.167   1.903  10.056 -0.4750  0.4472 -0.2327
  810MPD2    C511927   1.125   1.778  10.028  0.5507  0.2703 -0.7940
  810MPD2     H11928   0.983   2.065   9.832  0.6443  0.2493 -0.8619
  810MPD2    H111929   1.237   1.913  10.139  0.0079  2.3430 -0.8735
  810MPD2    H211930   1.021   1.649   9.910 -0.6591  0.1733 -1.5693
  810MPD2    H311931   1.154   1.694  10.089  0.0325  1.0352  0.5172
  810MPD2     N11932   1.159   2.137  10.024 -0.2602 -0.0523  0.3225
  810MPD2    H511933   1.222   2.145  10.103 -2.4557  0.7965  1.9995
  810MPD2    N111934   0.894   1.827   9.749 -0.1658 -0.4858  0.1678
  810MPD2    H711935   0.868   1.913   9.702 -0.0944 -0.6253 -0.1266
  811MPD2     C11936   0.100   2.041   9.417 -0.1997 -0.4274  0.3771
  811MPD2    C111937   0.215   2.066   9.484 -0.7977  0.0222  0.6343
  811MPD2    C211938   0.247   2.204   9.501 -0.1127  0.2132 -0.0332
  811MPD2    C311939   0.172   2.300   9.440 -0.5453 -0.2718 -0.0163
  811MPD2    C411940   0.043   2.267   9.394 -0.0029  0.1756  0.5090
  811MPD2    C511941   0.012   2.138   9.381  0.6186 -0.4100  0.0815
  811MPD2     H11942   0.338   2.236   9.551  0.6721 -0.8926 -0.7547
  811MPD2    H111943   4.697   2.344   9.360 -1.0006 -1.3672 -0.9403
  811MPD2    H211944   0.081   1.937   9.390  0.2653 -0.4234  0.0415
  811MPD2    H311945   4.643   2.111   9.331  0.7545  1.5594 -1.2522
  811MPD2     N11946   0.218   2.436   9.440  0.8378  0.1331 -0.2833
  811MPD2    H511947   0.300   2.457   9.497 -0.4269 -0.6991  1.8212
  811MPD2    N111948   0.289   1.951   9.529  0.4692  0.2730 -0.3203
  811MPD2    H711949   0.256   1.856   9.514  0.5617  0.1769  0.0757
  812MPD2     C11950   4.320   2.255  12.061 -0.5780  0.3462 -0.3609
  812MPD2    C111951   4.257   2.255  12.188 -0.2770  0.6148  0.7767
  812MPD2    C211952   4.253   2.135  12.263  0.3179  0.1337 -0.2548
  812MPD2    C311953   4.333   2.032  12.224 -0.4133 -0.4384 -0.1861
  812MPD2    C411954   4.384   2.028  12.097  0.3459 -0.0175 -0.4875
  812MPD2    C511955   4.385   2.140  12.020  0.1916  0.0261  0.5247
  812MPD2     H11956   4.198   2.127  12.356  0.6639 -1.5222 -0.1908
  812MPD2    H111957   4.443   1.945  12.060 -1.0553 -0.7233 -1.1251
  812MPD2    H211958   4.324   2.342  11.996  2.5115 -0.0983 -0.7537
  812MPD2    H311959   4.447   2.140  11.931  0.7343  0.8072  0.9072
  812MPD2     N11960   4.360   1.935  12.327  0.3269 -0.0769 -0.5144
  812MPD2    H511961   4.313   1.953  12.415 -0.6337 -3.3947 -0.3366
  812MPD2    N111962   4.207   2.384  12.227 -0.1868  0.0247 -0.1454
  812MPD2    H711963   4.225   2.460  12.162  0.7349 -1.7123 -1.9029
  813MPD2     C11964   3.398   4.013  12.659  0.4174  0.3977 -0.7376
  813MPD2    C111965   3.382   4.128  12.727  0.2417  0.5271  0.6369
  813MPD2    C211966   3.299   4.137  12.837 -0.1531  0.2181  0.0948
  813MPD2    C311967   3.246   4.021  12.883  0.1140 -0.2998  0.8742
  813MPD2    C411968   3.254   3.905  12.814 -0.2537 -0.5119 -0.9359
  813MPD2    C511969   3.334   3.900  12.704 -0.5714  0.1685  0.7425
  813MPD2     H11970   3.298   4.227  12.898 -0.9588  0.7111 -0.6349
  813MPD2    H111971   3.198   3.816  12.838  1.9067 -1.5206  0.3589
  813MPD2    H211972   3.474   4.006  12.582  1.3908 -1.0069  0.3533
  813MPD2    H311973   3.332   3.807  12.647 -0.6918  0.9629 -0.5534
  813MPD2     N11974   3.161   4.028  13.000 -1.1595  0.1351  0.6421
  813MPD2    H511975   3.153   4.117  13.048 -0.9733  1.7784 -2.3704
  813MPD2    N111976   3.461   4.238  12.685  0.5331 -0.3050  0.2800
  813MPD2    H711977   3.539   4.219  12.622  1.0119  0.2820  0.6930
  814MPD2     C11978   4.216   0.488  11.912 -0.0083  0.2554  1.2184
  814MPD2    C111979   4.178   0.564  11.804 -0.8630  0.0483  0.0185
  814MPD2    C211980   4.216   0.697  11.799 -0.0459 -0.6632 -0.1246
  814MPD2    C311981   4.293   0.753  11.901  1.1720 -0.6569 -0.0240
  814MPD2    C411982   4.321   0.666  12.005 -0.2982  0.5888 -0.2129
  814MPD2    C511983   4.291   0.537  12.010 -0.5298  0.4628 -0.2183
  814MPD2     H11984   4.180   0.763  11.721 -2.0093 -0.0357  1.3159
  814MPD2    H111985   4.379   0.699  12.091  0.0559  0.8247 -0.5415
  814MPD2    H211986   4.181   0.386  11.918 -0.3523  0.3262  0.5031
  814MPD2    H311987   4.322   0.472  12.092 -0.1359 -0.2265 -0.9194
  814MPD2     N11988   4.338   0.889  11.911  0.3681  0.7053 -0.4767
  814MPD2    H511989   4.392   0.910  11.994  0.4075  0.1376 -0.3560
  814MPD2    N111990   4.096   0.516  11.693 -0.2671  0.3784 -0.1932
  814MPD2    H711991   4.070   0.587  11.626  0.5266  1.5236  0.7018
  815MPD2     C11992   4.361   3.398  11.959  0.3757 -0.7659 -0.1482
  815MPD2    C111993   4.268   3.430  11.859  0.7241  0.0273 -0.2875
  815MPD2    C211994   4.133   3.446  11.886  0.3652  0.4795 -0.5376
  815MPD2    C311995   4.085   3.442  12.017 -0.0589  0.8583 -0.6585
  815MPD2    C411996   4.178   3.431  12.122 -0.4288 -0.2058  0.2287
  815MPD2    C511997   4.307   3.401  12.087  0.7127 -0.8065  0.3112
  815MPD2     H11998   4.058   3.456  11.809 -1.3976  0.5609  1.2060
  815MPD2    H111999   4.157   3.427  12.229  0.5253  0.8213  0.4498
  815MPD2    H212000   4.460   3.361  11.934  0.1883  0.0446 -2.0388
  815MPD2    H312001   4.380   3.372  12.161  0.3551 -0.2745  0.8723
  815MPD2     N12002   3.949   3.476  12.048  0.7020  0.1732  0.0289
  815MPD2    H512003   3.888   3.489  11.969  0.6630  2.4853  0.4404
  815MPD2    N112004   4.316   3.447  11.728 -0.0208  0.3518 -0.2929
  815MPD2    H712005   4.407   3.404  11.713 -0.3662 -0.6899  0.6662
  816MPD2     C12006   4.721   2.891  17.692 -0.2674  0.1267 -0.7862
  816MPD2    C112007   4.679   2.956  17.579  0.3872 -0.5488  0.2572
  816MPD2    C212008   0.010   2.918  17.458  0.2929 -0.4532  0.6989
  816MPD2    C312009   0.102   2.824  17.449 -0.3160  0.0862 -0.4496
  816MPD2    C412010   0.151   2.756  17.563 -0.1875 -0.1868 -0.8810
  816MPD2    C512011   0.096   2.793  17.686 -0.1887  0.1494  0.1473
  816MPD2     H12012   4.700   2.966  17.367  3.4841  0.1270 -0.1432
  816MPD2    H112013   0.229   2.681  17.557  0.0301 -0.2718  3.1426
  816MPD2    H212014   4.679   2.918   0.095 -2.5160 -2.8654 -0.9148
  816MPD2    H312015   0.125   2.746   0.085  0.4101 -0.1011 -0.1687
  816MPD2     N12016   0.141   2.798  17.312  0.0155  0.2873  0.1990
  816MPD2    H512017   0.108   2.857  17.236  0.5539  0.8420  0.3939
  816MPD2    N112018   4.562   3.036  17.581  0.1003  0.5079 -0.4846
  816MPD2    H712019   4.519   3.043  17.673  2.2899  2.8091  0.3482
  817MPD2     C12020   4.037   4.507   9.664 -0.3555 -0.7459 -0.2738
  817MPD2    C112021   4.033   4.430   9.548  0.7630 -0.3575 -0.4651
  817MPD2    C212022   3.962   4.493   9.441  0.2665  0.0780 -0.1040
  817MPD2    C312023   3.909   4.618   9.448 -0.1462 -0.1680 -0.1558
  817MPD2    C412024   3.927   4.691   9.561 -0.2598  0.1136 -0.0390
  817MPD2    C512025   3.992   4.634   9.664  0.3286 -0.2703 -0.0359
  817MPD2     H12026   3.958   4.445   9.344  0.8577  1.6688 -0.9127
  817MPD2    H112027   3.893   0.071   9.570  1.1369  0.8596 -3.2669
  817MPD2    H212028   4.100   4.475   9.746 -2.1210 -1.3062  0.8673
  817MPD2    H312029   4.019   4.687   9.755  1.3843 -0.3267 -0.3180
  817MPD2     N12030   3.842   4.660   9.331 -0.5620 -0.1669  0.5069
  817MPD2    H512031   3.860   4.596   9.254 -2.6961  0.4571 -0.5001
  817MPD2    N112032   4.100   4.304   9.527 -0.0919 -0.1285 -0.1455
  817MPD2    H712033   4.100   4.262   9.435 -0.0246 -1.8920  0.6443
  818MPD2     C12034   3.099   3.873   9.869  0.1714  0.4110  0.0323
  818MPD2    C112035   2.987   3.826   9.932 -0.2901 -0.5852  0.0704
  818MPD2    C212036   2.976   3.692   9.959 -0.0248 -0.2938 -0.3544
  818MPD2    C312037   3.076   3.600   9.917  0.2158 -0.7118 -0.2394
  818MPD2    C412038   3.194   3.654   9.871 -0.0171 -0.2082  0.4225
  818MPD2    C512039   3.198   3.784   9.837 -0.2349  0.0761  0.7966
  818MPD2     H12040   2.881   3.657   9.996 -0.1674  2.4594  1.9003
  818MPD2    H112041   3.279   3.592   9.845 -0.4423 -0.6877  0.1804
  818MPD2    H212042   3.122   3.976   9.846  0.1588 -0.0841 -2.1856
  818MPD2    H312043   3.288   3.821   9.788 -0.4259  1.7952  1.7223
  818MPD2     N12044   3.066   3.456   9.937  0.5937 -0.4123 -0.1577
  818MPD2    H512045   3.145   3.400   9.908 -0.1607 -0.6664 -1.6795
  818MPD2    N112046   2.873   3.909   9.973 -0.1913  0.1239 -0.3945
  818MPD2    H712047   2.788   3.861   9.999  0.2163  0.3221  1.2484
  819MPD2     C12048   1.153   1.853  15.837  0.3713  0.5122 -0.6170
  819MPD2    C112049   1.135   1.787  15.721  0.0379 -0.0788  0.3388
  819MPD2    C212050   1.214   1.673  15.700 -0.1766 -0.0785  0.3265
  819MPD2    C312051   1.312   1.631  15.787  0.5005 -0.1479  0.2607
  819MPD2    C412052   1.331   1.703  15.906  0.2214 -0.5365  0.1541
  819MPD2    C512053   1.242   1.805  15.930 -0.2958 -0.0325  0.2085
  819MPD2     H12054   1.197   1.622  15.606  0.6427 -1.0780  0.7178
  819MPD2    H112055   1.395   1.677  15.990  0.6132  1.8312  0.5893
  819MPD2    H212056   1.085   1.933  15.864  1.5460  1.3126 -0.0086
  819MPD2    H312057   1.252   1.856  16.025  0.3173 -0.7707  0.5382
  819MPD2     N12058   1.393   1.517  15.755  0.1357 -0.0419 -0.1384
  819MPD2    H512059   1.390   1.482  15.660 -2.9014 -0.1230  0.0032
  819MPD2    N112060   1.028   1.811  15.635  0.6941  0.0636  0.0545
  819MPD2    H712061   1.019   1.743  15.560 -2.4526  0.9511 -0.3790
  820MPD2     C12062   4.714   2.188  15.447 -0.1972 -0.6679  0.4427
  820MPD2    C112063   4.720   2.053  15.483 -0.2542  0.7500 -0.3351
  820MPD2    C212064   0.125   1.995  15.507 -0.3497  0.2336 -0.1071
  820MPD2    C312065   0.246   2.068  15.491  0.5214 -0.4417 -0.0103
  820MPD2    C412066   0.231   2.201  15.464 -0.3233 -0.2680 -0.8558
  820MPD2    C512067   0.107   2.262  15.444 -0.1213  0.3993  0.3976
  820MPD2     H12068   0.139   1.888  15.514 -3.5558 -0.1123  0.9754
  820MPD2    H112069   0.322   2.256  15.444 -0.2554 -0.4927 -1.1562
  820MPD2    H212070   4.624   2.247  15.447  0.1049 -0.1940  1.8217
  820MPD2    H312071   0.107   2.371  15.443  1.0424  0.3867 -0.4543
  820MPD2     N12072   0.367   2.002  15.502  0.1625 -0.2659 -0.2528
  820MPD2    H512073   0.367   1.902  15.513  0.7998 -0.2316  0.0522
  820MPD2    N112074   4.601   1.984  15.507 -0.1625 -0.9188 -0.2925
  820MPD2    H712075   4.523   2.032  15.464  0.0830 -1.7035 -1.6068
  821MPD2     C12076   0.364   3.117  13.186 -0.9123 -0.2910 -0.7292
  821MPD2    C112077   0.442   3.007  13.197  0.6521  0.3509  0.3678
  821MPD2    C212078   0.552   3.004  13.111  0.4377 -0.1871  0.7885
  821MPD2    C312079   0.573   3.091  13.010 -0.6459  0.3571  0.1770
  821MPD2    C412080   0.488   3.199  13.005 -0.0975 -0.4980  0.2283
  821MPD2    C512081   0.383   3.211  13.083  0.7344  0.0950 -0.3048
  821MPD2     H12082   0.620   2.923  13.135  1.6516  0.7511  0.5239
  821MPD2    H112083   0.496   3.275  12.928  0.9900  2.3756  3.1897
  821MPD2    H212084   0.283   3.133  13.256 -1.9889  1.6174 -2.4040
  821MPD2    H312085   0.326   3.303  13.072  0.7335 -0.1852 -2.5659
  821MPD2     N12086   0.683   3.089  12.921 -0.1310 -0.3709  1.1016
  821MPD2    H512087   0.682   3.137  12.832 -0.6843 -3.4997 -0.5736
  821MPD2    N112088   0.440   2.913  13.307 -0.2768 -0.6528 -0.3674
  821MPD2    H712089   0.502   2.833  13.309  1.0226  0.3842  1.2240
  822MPD2     C12090   1.428   2.887  15.532  0.5183  0.0584 -0.1782
  822MPD2    C112091   1.449   2.794  15.632 -0.6107 -0.7510 -0.8088
  822MPD2    C212092   1.415   2.822  15.765  0.6178  0.2203 -0.5195
  822MPD2    C312093   1.371   2.952  15.797  1.2149 -0.0716  0.3582
  822MPD2    C412094   1.345   3.044  15.697  0.1092  0.6977  0.2760
  822MPD2    C512095   1.368   3.002  15.564  0.0250  0.5968 -0.8724
  822MPD2     H12096   1.434   2.753  15.846 -0.5526 -0.0553 -0.4764
  822MPD2    H112097   1.314   3.146  15.717 -1.5344 -0.0888  1.7035
  822MPD2    H212098   1.464   2.870  15.431  2.4549 -0.5605  0.6093
  822MPD2    H312099   1.356   3.073  15.483  1.2073 -0.0531 -1.6150
  822MPD2     N12100   1.354   2.972  15.934  0.2934  0.0233  0.0603
  822MPD2    H512101   1.393   2.901  15.996  0.8280 -0.5252 -0.9081
  822MPD2    N112102   1.494   2.666  15.601 -0.3372  0.5614 -0.2062
  822MPD2    H712103   1.524   2.612  15.681 -0.8530  0.6982  0.0788
  823MPD2     C12104   1.524   2.734  16.715 -0.4882  0.9439 -0.3346
  823MPD2    C112105   1.498   2.713  16.582  0.1481  0.5327 -0.2818
  823MPD2    C212106   1.539   2.597  16.527  0.0868  0.9488  0.4104
  823MPD2    C312107   1.613   2.496  16.598  0.1876 -0.1078 -0.2212
  823MPD2    C412108   1.630   2.516  16.735 -0.1850 -0.3273  0.3643
  823MPD2    C512109   1.593   2.637  16.788  0.4961  0.0793 -0.1837
  823MPD2     H12110   1.519   2.587  16.421  1.0498  0.2726  0.2899
  823MPD2    H112111   1.690   2.442  16.786  0.1069  0.3767  1.0537
  823MPD2    H212112   1.485   2.821  16.767 -0.0531  0.0651  1.4697
  823MPD2    H312113   1.607   2.665  16.892 -1.2462 -0.0719  0.1005
  823MPD2     N12114   1.676   2.383  16.540  0.0358  0.4066 -0.6291
  823MPD2    H512115   1.736   2.324  16.595 -0.5539 -0.2216 -0.6615
  823MPD2    N112116   1.423   2.813  16.515 -0.5039 -0.3170 -0.4404
  823MPD2    H712117   1.399   2.897  16.566 -1.5689 -0.6311 -0.4365
  824MPD2     C12118   1.816   1.942  15.276  1.0038  0.1464  0.1195
  824MPD2    C112119   1.897   2.045  15.311 -0.0194 -0.6836  0.3660
  824MPD2    C212120   2.027   2.022  15.294 -0.3276 -0.1336  0.3023
  824MPD2    C312121   2.084   1.907  15.244 -0.2598  0.1423 -0.6857
  824MPD2    C412122   2.003   1.802  15.208  0.4363  0.3745  0.1082
  824MPD2    C512123   1.869   1.822  15.219 -0.2710 -0.1175 -0.5430
  824MPD2     H12124   2.098   2.099  15.324  0.0694 -0.1036 -0.7022
  824MPD2    H112125   2.037   1.706  15.172 -0.7746  0.1472 -0.4130
  824MPD2    H212126   1.713   1.932  15.307  1.6939 -0.7523  2.1044
  824MPD2    H312127   1.796   1.745  15.198 -2.2670  1.4197  0.6714
  824MPD2     N12128   2.225   1.897  15.246  0.4424 -0.3212 -0.8839
  824MPD2    H512129   2.282   1.966  15.293  1.1329 -1.3619 -0.1830
  824MPD2    N112130   1.848   2.154  15.386  0.6324 -0.3012 -0.5675
  824MPD2    H712131   1.918   2.221  15.417  0.1169  0.5255 -1.1730
  825MPD2     C12132   3.004   2.152  15.243  0.4935 -0.0130  0.0521
  825MPD2    C112133   2.884   2.147  15.175  0.4344  0.1526  0.2937
  825MPD2    C212134   2.862   2.246  15.076  0.6555  0.1756  0.3159
  825MPD2    C312135   2.958   2.342  15.055  0.1455  0.6199  0.8570
  825MPD2    C412136   3.083   2.338  15.127 -0.3280  0.1188  0.1669
  825MPD2    C512137   3.099   2.248  15.227  0.3208 -0.9570  0.9174
  825MPD2     H12138   2.778   2.240  15.009  0.9267  1.5633 -0.1391
  825MPD2    H112139   3.168   2.403  15.109 -2.6352  3.2874  0.6928
  825MPD2    H212140   3.035   2.073  15.312 -0.0072  0.7276  1.1345
  825MPD2    H312141   3.191   2.245  15.285  1.3447  0.0593 -0.6437
  825MPD2     N12142   2.948   2.443  14.961 -0.3744  0.8978 -0.8590
  825MPD2    H512143   3.021   2.512  14.950 -0.1544  1.2398  2.8357
  825MPD2    N112144   2.802   2.040  15.209  0.0899 -0.0110  0.3280
  825MPD2    H712145   2.841   1.970  15.270 -1.6367 -0.2647  1.1537
  826MPD2     C12146   2.405   2.203  13.237 -0.8233 -1.3103  0.3531
  826MPD2    C112147   2.350   2.200  13.110  0.4799 -1.0427  0.0687
  826MPD2    C212148   2.227   2.256  13.090 -0.4725  0.3620  0.4979
  826MPD2    C312149   2.164   2.332  13.190  0.5481  0.1537  0.0085
  826MPD2    C412150   2.224   2.331  13.316  0.3424 -0.4972  0.2128
  826MPD2    C512151   2.349   2.276  13.334  0.1491 -0.5364  0.1351
  826MPD2     H12152   2.179   2.244  12.993 -0.4040  2.6222  0.1854
  826MPD2    H112153   2.166   2.378  13.395  1.1262  1.3046 -0.2660
  826MPD2    H212154   2.494   2.144  13.255  1.4866  2.3028  0.7753
  826MPD2    H312155   2.387   2.264  13.435 -0.4682  0.8162  0.5337
  826MPD2     N12156   2.059   2.412  13.185  0.5151 -0.0312  0.0631
  826MPD2    H512157   2.032   2.459  13.270 -0.5921  0.8854 -0.7905
  826MPD2    N112158   2.398   2.106  13.018 -0.0801 -0.1066  0.7143
  826MPD2    H712159   2.478   2.049  13.043 -1.2864 -1.8881  0.5751
  827MPD2     C12160   2.968   2.293  10.509  0.2842 -0.8833  0.0019
  827MPD2    C112161   3.001   2.426  10.480  0.2808  0.7664  0.3758
  827MPD2    C212162   3.013   2.454  10.344  0.3875  0.0001  0.0256
  827MPD2    C312163   3.012   2.357  10.245  0.6230 -0.0887  0.3500
  827MPD2    C412164   2.995   2.223  10.275  0.5524 -0.5579 -0.2608
  827MPD2    C512165   2.966   2.201  10.407  0.2245 -0.3051 -0.5436
  827MPD2     H12166   3.039   2.555  10.316 -0.7288  0.3094  0.1124
  827MPD2    H112167   3.007   2.134  10.215 -1.1213 -1.2935  0.4924
  827MPD2    H212168   2.959   2.266  10.613 -1.4016  1.2296  0.4070
  827MPD2    H312169   2.948   2.098  10.436 -1.2495  1.1116  3.6110
  827MPD2     N12170   3.029   2.418  10.118 -0.0121 -0.0451 -0.5935
  827MPD2    H512171   3.036   2.519  10.120  1.1570 -0.0686 -3.8204
  827MPD2    N112172   3.009   2.521  10.582  0.2620 -0.8499 -0.4005
  827MPD2    H712173   2.991   2.492  10.678  0.0038 -3.1579 -1.1514
  828MPD2     C12174   1.022   2.736  12.600  0.5247  0.1414 -0.0856
  828MPD2    C112175   1.011   2.841  12.503 -0.0431  0.2464 -0.3035
  828MPD2    C212176   1.118   2.908  12.476  0.1659 -0.5103 -0.5919
  828MPD2    C312177   1.234   2.879  12.539 -0.0054 -0.1720 -0.0010
  828MPD2    C412178   1.243   2.785  12.642  0.0631 -0.4401  0.3049
  828MPD2    C512179   1.135   2.713  12.674  0.7751  0.3415  0.5888
  828MPD2     H12180   1.100   2.988  12.405  0.5641 -0.2639 -0.4219
  828MPD2    H112181   1.342   2.760  12.679  0.3766 -0.7407 -0.7453
  828MPD2    H212182   0.941   2.667  12.619  1.1485 -0.5172  0.1771
  828MPD2    H312183   1.143   2.633  12.747  0.7229  0.1814  0.4197
  828MPD2     N12184   1.349   2.957  12.518 -0.4528 -0.2235 -0.0985
  828MPD2    H512185   1.415   2.946  12.595 -1.8398  0.2342  1.1620
  828MPD2    N112186   0.896   2.866  12.425 -0.0354 -0.2608  0.1920
  828MPD2    H712187   0.914   2.937  12.355  1.5680 -1.3584 -0.5142
  829MPD2     C12188   1.087   3.056  11.629  0.3470  0.0205 -0.2992
  829MPD2    C112189   0.949   3.046  11.615 -0.0047 -0.1514 -0.1560
  829MPD2    C212190   0.870   2.995  11.721  0.2029  0.1775 -0.4567
  829MPD2    C312191   0.922   2.971  11.845  0.7416  0.5807  0.6465
  829MPD2    C412192   1.056   2.993  11.860 -0.0301  0.2150  0.1434
  829MPD2    C512193   1.136   3.037  11.757  0.0463  0.1447  0.4499
  829MPD2     H12194   0.770   2.978  11.682  0.0735  1.6428 -0.8011
  829MPD2    H112195   1.111   2.977  11.952 -2.5592 -1.5739  1.3104
  829MPD2    H212196   1.149   3.102  11.554  0.4335  2.9332  1.5880
  829MPD2    H312197   1.243   3.050  11.768 -0.0541  1.3217  0.0141
  829MPD2     N12198   0.849   2.928  11.958 -0.0619  0.2301  0.1777
  829MPD2    H512199   0.898   2.907  12.045  0.4812  1.0320  0.0633
  829MPD2    N112200   0.901   3.064  11.485  0.3531  0.3417  0.7446
  829MPD2    H712201   0.968   3.093  11.415 -0.5968 -0.9906 -0.7263
  830MPD2     C12202   1.903   1.347  15.201  0.1192 -0.4087 -0.3707
  830MPD2    C112203   1.773   1.349  15.236  0.5042 -0.7101  0.6155
  830MPD2    C212204   1.675   1.415  15.158  0.5601  0.3396 -0.2926
  830MPD2    C312205   1.708   1.464  15.032  0.0149 -0.4524 -0.0206
  830MPD2    C412206   1.846   1.463  14.998 -0.3321  0.4280 -0.5103
  830MPD2    C512207   1.941   1.402  15.082  0.0307  0.5448 -0.0432
  830MPD2     H12208   1.575   1.436  15.195  1.0587  0.6755  0.8922
  830MPD2    H112209   1.876   1.504  14.902 -0.6307  0.2491 -0.6817
  830MPD2    H212210   1.977   1.294  15.260 -0.5601 -0.0798  0.7747
  830MPD2    H312211   2.045   1.391  15.052 -0.2446  0.2610 -0.8999
  830MPD2     N12212   1.615   1.534  14.950 -0.1027 -0.0106 -0.1063
  830MPD2    H512213   1.655   1.581  14.870 -1.7134 -1.3542 -1.6989
  830MPD2    N112214   1.753   1.305  15.369  0.4780 -0.2983  0.8054
  830MPD2    H712215   1.840   1.292  15.419  0.3336 -1.6376  0.7155
  831MPD2     C12216   1.698   2.941  16.146  0.0777 -0.5737  0.3437
  831MPD2    C112217   1.704   2.889  16.016  0.9926  0.3622  0.6376
  831MPD2    C212218   1.673   2.757  15.990 -0.7874 -0.3218 -0.0069
  831MPD2    C312219   1.637   2.673  16.090  0.3536  0.5342 -1.1335
  831MPD2    C412220   1.656   2.721  16.216  0.0112 -0.0846 -0.2058
  831MPD2    C512221   1.685   2.850  16.242  0.0842 -0.2271 -0.1828
  831MPD2     H12222   1.690   2.726  15.887 -0.7028 -1.5687  0.3795
  831MPD2    H112223   1.644   2.649  16.296  1.0184  0.9336  0.8568
  831MPD2    H212224   1.712   3.046  16.172  0.6537 -0.5427 -0.0885
  831MPD2    H312225   1.690   2.886  16.344 -0.5698 -1.3215  0.2389
  831MPD2     N12226   1.589   2.541  16.075  0.0281 -0.1433 -0.0300
  831MPD2    H512227   1.576   2.486  16.159 -0.2967 -2.2019 -1.4356
  831MPD2    N112228   1.729   2.967  15.902  0.5372  0.0994 -0.0186
  831MPD2    H712229   1.761   2.920  15.818 -1.1370 -1.5948  0.2839
  832MPD2     C12230   0.406   4.048  17.463  0.2359 -0.1568  0.0792
  832MPD2    C112231   0.357   4.167  17.510  0.0763 -0.1308 -0.7019
  832MPD2    C212232   0.224   4.190  17.486 -0.1070 -0.5313 -0.7167
  832MPD2    C312233   0.139   4.094  17.436 -0.5353  0.3472  0.2228
  832MPD2    C412234   0.192   3.966  17.394 -0.3078 -0.3113  0.2146
  832MPD2    C512235   0.328   3.952  17.400 -0.3032 -0.4282  0.1167
  832MPD2     H12236   0.174   4.277  17.529  1.3655  1.7925 -3.7016
  832MPD2    H112237   0.144   3.889  17.334  1.9741 -0.3822 -1.5081
  832MPD2    H212238   0.510   4.034  17.489 -0.3824 -2.9828  1.0113
  832MPD2    H312239   0.375   3.866  17.354  0.1409  0.5440 -1.2588
  832MPD2     N12240   4.719   4.112  17.431  0.3605 -0.1831 -0.2408
  832MPD2    H512241   4.661   4.040  17.389 -0.3756 -0.2833  0.9592
  832MPD2    N112242   0.436   4.246  17.597 -0.1733 -0.3295  0.4219
  832MPD2    H712243   0.528   4.208  17.616  0.5859  0.5156 -1.5414
  833MPD2     C12244   2.727   0.556  12.120  0.1151 -0.3883 -0.6158
  833MPD2    C112245   2.697   0.643  12.017  0.1488  0.7055  0.2911
  833MPD2    C212246   2.712   0.593  11.885 -0.6280 -0.7056 -0.1404
  833MPD2    C312247   2.742   0.460  11.857 -0.0943 -0.0795  0.6736
  833MPD2    C412248   2.750   0.370  11.961  0.7670 -0.5190  0.2489
  833MPD2    C512249   2.757   0.421  12.093 -0.1685  0.0953 -0.2050
  833MPD2     H12250   2.683   0.661  11.806 -2.0668 -0.3707  0.6630
  833MPD2    H112251   2.767   0.263  11.948 -0.7376 -0.9151  1.4714
  833MPD2    H212252   2.715   0.600  12.218  0.2016  0.0842 -0.8144
  833MPD2    H312253   2.780   0.361  12.180  0.5038 -0.5816 -0.8379
  833MPD2     N12254   2.741   0.424  11.725  0.7826 -0.3507 -0.1599
  833MPD2    H512255   2.712   0.329  11.704 -1.0880  0.1893  0.0472
  833MPD2    N112256   2.648   0.775  12.042 -0.4418  0.1718  0.3031
  833MPD2    H712257   2.625   0.797  12.138  0.9611  1.7211  0.2955
  834MPD2     C12258   2.051   4.695  11.372  0.9666  0.1669  0.2728
  834MPD2    C112259   2.099   0.011  11.250  0.7344  0.4388 -0.4529
  834MPD2    C212260   2.178   0.123  11.255  0.4739 -0.1806  0.7363
  834MPD2    C312261   2.220   0.180  11.376 -0.2217 -0.3388 -0.0489
  834MPD2    C412262   2.168   0.131  11.494  0.4860  0.5338  0.1091
  834MPD2    C512263   2.079   0.028  11.495 -0.5974 -0.4341  0.0347
  834MPD2     H12264   2.231   0.161  11.169  0.3246 -0.3336  0.5770
  834MPD2    H112265   2.181   0.178  11.590  1.9741  0.1092  0.1062
  834MPD2    H212266   2.006   4.596  11.375  1.0091  0.0654 -2.5176
  834MPD2    H312267   2.038   4.713  11.588 -0.5040 -2.1255 -0.6173
  834MPD2     N12268   2.312   0.282  11.375  0.3596  0.1255  0.7605
  834MPD2    H512269   2.326   0.324  11.284  3.3509  0.5205  1.4056
  834MPD2    N112270   2.079   4.648  11.136 -0.0462 -0.2169 -0.5753
  834MPD2    H712271   2.009   4.575  11.150 -0.3340  0.3694  1.0788
  835MPD2     C12272   1.805   3.798  10.503 -0.7960 -0.0507  0.2637
  835MPD2    C112273   1.757   3.675  10.527 -0.4374 -0.1312 -0.0379
  835MPD2    C212274   1.737   3.638  10.655  0.4777 -0.4710 -0.1739
  835MPD2    C312275   1.775   3.710  10.766 -0.1337  0.1315 -0.3753
  835MPD2    C412276   1.837   3.828  10.740  0.6081 -0.0888 -0.7546
  835MPD2    C512277   1.843   3.877  10.612 -0.0228  0.3546 -0.4772
  835MPD2     H12278   1.689   3.543  10.672  2.5786 -1.3401  0.8531
  835MPD2    H112279   1.866   3.902  10.814 -1.4768  0.4480 -0.4713
  835MPD2    H212280   1.811   3.819  10.397 -0.5159 -0.7219  0.1535
  835MPD2    H312281   1.892   3.972  10.599 -2.5359  1.4994 -1.6255
  835MPD2     N12282   1.741   3.672  10.901 -0.3537 -0.1405 -0.5932
  835MPD2    H512283   1.770   3.728  10.981 -1.5584  1.2688 -1.1399
  835MPD2    N112284   1.744   3.573  10.434  0.0337 -0.3189  0.1058
  835MPD2    H712285   1.709   3.484  10.468 -0.3112 -0.8684 -1.7128
  836MPD2     C12286   1.042   3.481  11.081  0.0068  0.9744  0.3410
  836MPD2    C112287   1.116   3.512  11.196 -0.3591  0.0380  0.8183
  836MPD2    C212288   1.052   3.487  11.327  0.8496 -0.5325  0.5033
  836MPD2    C312289   0.919   3.448  11.339 -0.4721  0.1377 -0.5796
  836MPD2    C412290   0.853   3.417  11.224 -0.0869 -0.2403 -0.4704
  836MPD2    C512291   0.916   3.434  11.101  0.3315  0.3773  0.0402
  836MPD2     H12292   1.106   3.513  11.417 -1.5755 -3.4146  2.7669
  836MPD2    H112293   0.752   3.379  11.225 -1.1943  2.6363 -3.0223
  836MPD2    H212294   1.075   3.503  10.980  0.2228  0.2424  0.2484
  836MPD2    H312295   0.851   3.419  11.016  0.1099 -2.3626  0.6778
  836MPD2     N12296   0.854   3.427  11.458 -0.2813  0.2750  0.1081
  836MPD2    H512297   0.760   3.389  11.453 -1.6310  3.3841  1.2944
  836MPD2    N112298   1.256   3.550  11.183  0.1691  0.5539 -0.2976
  836MPD2    H712299   1.295   3.536  11.091  0.1733  2.3736 -0.5765
  837MPD2     C12300   0.200   3.035   9.875  0.4490 -0.2870 -0.5632
  837MPD2    C112301   0.148   3.051   9.751  0.6350 -0.7917  0.0030
  837MPD2    C212302   0.082   3.171   9.716  0.3042  0.1536  0.5653
  837MPD2    C312303   0.047   3.270   9.809 -0.0447 -0.2992 -0.6549
  837MPD2    C412304   0.082   3.243   9.944  0.0469  0.5237  0.1561
  837MPD2    C512305   0.162   3.130   9.968  0.1408  0.9099 -0.2354
  837MPD2     H12306   0.061   3.184   9.610  2.2589 -0.7219  0.0685
  837MPD2    H112307   0.062   3.321  10.017  0.4542  0.7372  0.0392
  837MPD2    H212308   0.251   2.947   9.912  0.6735 -0.0703 -0.3554
  837MPD2    H312309   0.195   3.109  10.069 -0.6270 -0.9690 -0.3705
  837MPD2     N12310   4.698   3.388   9.773 -0.1369 -0.0128  0.3651
  837MPD2    H512311   4.678   3.401   9.675 -2.7801  2.2207  1.1994
  837MPD2    N112312   0.174   2.964   9.653 -0.1754 -0.1369 -0.0513
  837MPD2    H712313   0.131   2.974   9.561 -0.8686  2.3161  0.5545
  838MPD2     C12314   3.999   1.565  11.418 -0.4588 -0.1910 -0.5387
  838MPD2    C112315   3.983   1.433  11.382  0.4250 -0.4236  0.4519
  838MPD2    C212316   3.879   1.356  11.442 -0.3416  0.0777  0.0007
  838MPD2    C312317   3.794   1.417  11.532  0.3864 -0.1776 -0.1424
  838MPD2    C412318   3.820   1.546  11.568 -0.0213  0.8005  0.4088
  838MPD2    C512319   3.918   1.621  11.514 -0.4801 -1.0589  0.4585
  838MPD2     H12320   3.866   1.257  11.399  2.4285 -1.1992  2.0688
  838MPD2    H112321   3.755   1.600  11.635 -0.1271 -0.8921  1.6861
  838MPD2    H212322   4.070   1.631  11.369 -0.0238  0.5852  1.1653
  838MPD2    H312323   3.944   1.720  11.551 -0.3524  0.4680 -3.7589
  838MPD2     N12324   3.685   1.338  11.577  0.1206  0.1490 -0.5028
  838MPD2    H512325   3.658   1.251  11.532  0.0496  0.6472 -1.4277
  838MPD2    N112326   4.072   1.374  11.287 -0.2198  0.2970  0.2736
  838MPD2    H712327   4.052   1.279  11.257  0.3327  0.3676 -0.3077
  839MPD2     C12328   3.837   0.762  11.466  0.3232 -0.0366 -0.1466
  839MPD2    C112329   3.811   0.798  11.336 -0.1534  0.3327  0.2201
  839MPD2    C212330   3.909   0.860  11.264  0.0850 -0.2164  0.0758
  839MPD2    C312331   4.035   0.886  11.307 -0.4552 -0.0360  0.4712
  839MPD2    C412332   4.056   0.850  11.437  0.1790  0.7154  0.6551
  839MPD2    C512333   3.958   0.800  11.512 -0.5902 -0.0078  0.0780
  839MPD2     H12334   3.897   0.868  11.157 -2.3176  1.0603  0.4387
  839MPD2    H112335   4.153   0.877  11.478  0.5031 -0.3781  0.6141
  839MPD2    H212336   3.764   0.708  11.525  2.7218  1.4702  4.2075
  839MPD2    H312337   3.978   0.787  11.617 -1.4239 -1.2789  0.0865
  839MPD2     N12338   4.134   0.961  11.238 -0.9654  0.2610 -0.4200
  839MPD2    H512339   4.223   0.989  11.279  0.2890 -2.2689 -1.3879
  839MPD2    N112340   3.691   0.774  11.272  0.1672  0.1180 -0.4009
  839MPD2    H712341   3.687   0.766  11.171  0.6788 -1.6051 -0.2912
  840MPD2     C12342   3.624   2.902  10.417 -0.0945  0.4128 -0.0392
  840MPD2    C112343   3.556   2.972  10.516  0.0896  0.2524 -0.6959
  840MPD2    C212344   3.608   3.094  10.558 -0.4193  0.2096 -0.7448
  840MPD2    C312345   3.723   3.148  10.507  0.2511  0.1200  0.3884
  840MPD2    C412346   3.790   3.073  10.414 -0.1058 -0.1878  0.2855
  840MPD2    C512347   3.735   2.958  10.363  0.2747 -0.1530 -0.1362
  840MPD2     H12348   3.549   3.163  10.616  1.2944  0.9748  0.0684
  840MPD2    H112349   3.883   3.115  10.379 -0.6783  0.0417 -0.9517
  840MPD2    H212350   3.590   2.805  10.381 -4.0185  1.4184  0.9355
  840MPD2    H312351   3.788   2.908  10.282  1.8980  0.4036  0.5863
  840MPD2     N12352   3.788   3.270  10.544 -0.3670  0.2508  0.4949
  840MPD2    H512353   3.873   3.294  10.494 -1.5033 -0.6350 -1.9204
  840MPD2    N112354   3.440   2.913  10.574  0.1695  0.2388  0.3573
  840MPD2    H712355   3.409   2.822  10.542  0.3978  1.1238 -2.3933
  841MPD2     C12356   3.230   3.097  14.698  0.1893 -0.0111 -0.3089
  841MPD2    C112357   3.195   3.055  14.571  0.1258  0.3760 -0.0840
  841MPD2    C212358   3.180   3.147  14.472 -0.5124 -0.0847  0.5090
  841MPD2    C312359   3.174   3.278  14.500  0.4022  0.4395 -0.2493
  841MPD2    C412360   3.186   3.325  14.626 -0.0705  0.0765  0.5365
  841MPD2    C512361   3.208   3.229  14.726  0.7335 -0.1924 -0.3097
  841MPD2     H12362   3.160   3.118  14.369  2.4837 -1.4447  0.2759
  841MPD2    H112363   3.161   3.428  14.651  1.6757  0.5718  0.2383
  841MPD2    H212364   3.274   3.041  14.780  0.8969  1.7515  0.5301
  841MPD2    H312365   3.220   3.260  14.829 -0.2389 -0.4462 -0.1251
  841MPD2     N12366   3.168   3.366  14.392 -0.2291  0.2745  0.0673
  841MPD2    H512367   3.167   3.315  14.304  0.7606 -2.4275  1.6298
  841MPD2    N112368   3.183   2.921  14.528 -0.1991  0.1990 -0.3226
  841MPD2    H712369   3.179   2.901  14.429 -0.6459  1.1404 -0.4849
  842MPD2     C12370   3.602   3.809  16.672  0.2474 -0.3569  0.0413
  842MPD2    C112371   3.666   3.929  16.682 -0.3136 -0.0154 -0.3051
  842MPD2    C212372   3.721   3.951  16.802  0.7370 -0.3890  0.3907
  842MPD2    C312373   3.720   3.866  16.912  0.2173  0.1814 -0.2281
  842MPD2    C412374   3.651   3.749  16.898  0.3796  0.5597 -0.2189
  842MPD2    C512375   3.591   3.719  16.778  0.6092  0.3890 -0.7322
  842MPD2     H12376   3.785   4.039  16.803  1.5434 -0.9375 -2.8592
  842MPD2    H112377   3.659   3.666  16.967 -2.5062 -0.5312 -1.1972
  842MPD2    H212378   3.534   3.786  16.591 -1.7288 -0.0207  1.6096
  842MPD2    H312379   3.538   3.626  16.757 -1.9874  1.7210 -0.0480
  842MPD2     N12380   3.777   3.898  17.036  0.4081 -0.1361 -0.1174
  842MPD2    H512381   3.763   3.834  17.114  1.3938 -0.7215 -0.4205
  842MPD2    N112382   3.642   4.030  16.583  0.3924  0.0369 -0.3055
  842MPD2    H712383   3.579   4.002  16.509 -1.4794 -0.3069  1.4037
  843MPD2     C12384   1.209   4.394  17.524 -0.9315 -0.2992  0.1702
  843MPD2    C112385   1.250   4.328  17.637  0.5087  0.6051  0.0661
  843MPD2    C212386   1.373   4.364  17.686 -0.7363  0.3561 -0.1188
  843MPD2    C312387   1.455   4.459  17.627 -0.1046  0.0895  0.0819
  843MPD2    C412388   1.417   4.525  17.510  0.3120 -0.3672  0.2176
  843MPD2    C512389   1.295   4.487  17.463 -0.4550 -0.9727  0.2220
  843MPD2     H12390   1.410   4.311   0.079 -1.3894  0.7370  0.3889
  843MPD2    H112391   1.487   4.595  17.465  0.1281 -1.7284 -2.1593
  843MPD2    H212392   1.115   4.375  17.475  0.4583 -0.0914 -2.5881
  843MPD2    H312393   1.262   4.537  17.372  1.1328  0.8964  0.6928
  843MPD2     N12394   1.586   4.495  17.668 -0.2614 -0.2916 -0.0893
  843MPD2    H512395   1.628   4.578  17.627 -1.9511  0.2072 -0.8029
  843MPD2    N112396   1.157   4.243   0.002 -0.3038 -0.1515 -0.3850
  843MPD2    H712397   1.073   4.222  17.643 -0.6339 -2.5706  1.1016
  844MPD2     C12398   4.368   3.832  16.885  0.4685  0.4412 -0.2774
  844MPD2    C112399   4.484   3.778  16.831  0.3932 -0.3953 -0.6039
  844MPD2    C212400   4.602   3.845  16.854  0.3245 -0.1892  0.2703
  844MPD2    C312401   4.612   3.960  16.926 -0.7820  0.2599  0.5666
  844MPD2    C412402   4.496   4.014  16.983 -0.0920 -0.0379 -0.2019
  844MPD2    C512403   4.380   3.946  16.956 -0.5485 -0.1321 -0.1352
  844MPD2     H12404   4.690   3.814  16.799  0.2484  0.3215 -0.1463
  844MPD2    H112405   4.495   4.108  17.037 -0.3564 -0.1486 -0.0123
  844MPD2    H212406   4.270   3.793  16.863  0.7993 -2.2843  3.0945
  844MPD2    H312407   4.283   3.984  16.983  0.9032  4.3438 -1.2062
  844MPD2     N12408   0.017   4.018  16.938  0.0627  0.7010  0.2853
  844MPD2    H512409   0.092   3.984  16.879 -1.1371 -0.2710 -0.7130
  844MPD2    N112410   4.480   3.671  16.740  0.0899  0.4813  0.2159
  844MPD2    H712411   4.568   3.630  16.709  1.0368  2.8412 -0.1648
  845MPD2     C12412   0.732   0.029  17.243  0.1051  0.3268 -0.0578
  845MPD2    C112413   0.625   0.005  17.315  0.6286 -0.3427  0.7225
  845MPD2    C212414   0.556   4.610  17.303  0.3094 -0.0435 -0.4297
  845MPD2    C312415   0.586   4.520  17.204  0.6917 -0.1017  0.3021
  845MPD2    C412416   0.705   4.541  17.132 -0.1257  0.7000  0.5526
  845MPD2    C512417   0.769   4.665  17.145 -0.2099  0.0070 -0.0295
  845MPD2     H12418   0.478   4.583  17.372  0.2018  2.3848  0.3988
  845MPD2    H112419   0.754   4.466  17.071 -1.8268 -0.1445  0.2108
  845MPD2    H212420   0.789   0.121  17.249  0.2884  0.2219 -0.2074
  845MPD2    H312421   0.853   4.678  17.078  1.1164 -0.2518  1.5508
  845MPD2     N12422   0.526   4.388  17.186  0.1953  0.1902 -0.2964
  845MPD2    H512423   0.568   4.334  17.111  1.0042 -1.0031  0.9987
  845MPD2    N112424   0.602   0.101  17.416 -0.1012 -0.5226  0.0629
  845MPD2    H712425   0.666   0.179  17.419  3.0143 -3.1365  1.0333
  846MPD2     C12426   2.138   0.278  13.199  0.2838 -0.2225 -0.2059
  846MPD2    C112427   2.100   0.407  13.216  0.3125  0.3066 -0.4586
  846MPD2    C212428   2.076   0.445  13.346  0.8268  0.5999  0.5019
  846MPD2    C312429   2.076   0.368  13.461 -0.2964 -0.4508 -0.6803
  846MPD2    C412430   2.111   0.243  13.435  0.5387  0.4465 -0.0251
  846MPD2    C512431   2.150   0.196  13.313  0.5049 -0.0205  0.1234
  846MPD2     H12432   2.046   0.548  13.361  1.3602  1.1423 -2.2752
  846MPD2    H112433   2.104   0.176  13.520 -2.0969 -0.8893 -1.2795
  846MPD2    H212434   2.162   0.230  13.105  1.5363 -0.0057 -0.0014
  846MPD2    H312435   2.185   0.095  13.298  1.5848  0.3109  0.4687
  846MPD2     N12436   2.040   0.429  13.583  0.7729 -0.1972  0.3360
  846MPD2    H512437   1.990   0.517  13.586 -0.0085 -0.6726  1.0495
  846MPD2    N112438   2.096   0.503  13.114 -0.3871 -0.6191  1.0077
  846MPD2    H712439   2.085   0.598  13.147 -0.9152 -0.4703  0.4039
  847MPD2     C12440   2.128   1.962  14.054 -0.4378  0.1894  0.1225
  847MPD2    C112441   2.072   1.864  14.140  0.2039  1.1028 -0.3617
  847MPD2    C212442   2.035   1.735  14.087 -0.5578 -0.2605 -0.0272
  847MPD2    C312443   2.083   1.693  13.967 -0.3632 -0.6383 -0.3452
  847MPD2    C412444   2.147   1.788  13.890 -0.9130 -0.1449 -0.1784
  847MPD2    C512445   2.173   1.914  13.935  0.2383  0.3844 -0.3227
  847MPD2     H12446   1.980   1.662  14.145  0.8040 -1.2144  0.0556
  847MPD2    H112447   2.184   1.757  13.793 -0.3766  3.3359 -1.0950
  847MPD2    H212448   2.159   2.062  14.083 -1.0770  0.2010  0.7748
  847MPD2    H312449   2.245   1.967  13.874 -0.0877 -0.9274 -1.8516
  847MPD2     N12450   2.066   1.560  13.927  0.4120  0.2992 -0.7826
  847MPD2    H512451   2.008   1.502  13.987 -0.5040  0.0494 -1.9189
  847MPD2    N112452   2.020   1.887  14.267  0.7693 -0.4838 -0.8159
  847MPD2    H712453   1.953   1.824  14.309  1.3362 -0.0791  0.7042
  848MPD2     C12454   4.023   4.600  17.400 -0.7284  0.0384 -0.0842
  848MPD2    C112455   4.157   4.582  17.380 -0.6975 -0.3785  0.2458
  848MPD2    C212456   4.223   4.671  17.297 -0.1940  0.7493  0.0137
  848MPD2    C312457   4.145   0.041  17.228  0.3428  0.1931  0.0131
  848MPD2    C412458   4.010   0.057  17.246 -0.7354  0.0555  0.0443
  848MPD2    C512459   3.954   4.698  17.337  0.6064 -0.6129 -0.3527
  848MPD2     H12460   4.328   4.655  17.274  0.1038  1.7604  0.7054
  848MPD2    H112461   3.952   0.140  17.207 -1.5311  0.1972  1.5577
  848MPD2    H212462   3.967   4.536  17.467 -2.0947  2.2818  0.9563
  848MPD2    H312463   3.852   4.713  17.368 -0.0125 -1.0739 -2.1626
  848MPD2     N12464   4.202   0.123  17.120 -0.1489  0.1967  0.2477
  848MPD2    H512465   4.147   0.196  17.076 -0.1106  0.2681  0.3178
  848MPD2    N112466   4.233   4.471  17.424 -0.4408  0.4702 -0.7320
  848MPD2    H712467   4.330   4.483  17.398 -0.3224  0.6857 -0.1956
  849MPD2     C12468   4.350   4.714  13.534 -0.0868  0.3017 -0.2563
  849MPD2    C112469   4.339   4.586  13.585 -0.5412  0.3953 -0.7140
  849MPD2    C212470   4.244   4.548  13.672 -0.5713 -0.1155  0.6006
  849MPD2    C312471   4.154   4.641  13.721  0.6115 -0.1817 -0.1254
  849MPD2    C412472   4.158   0.041  13.672  1.4841  0.2921 -0.2696
  849MPD2    C512473   4.247   0.075  13.568  0.3399  0.4411 -0.5593
  849MPD2     H12474   4.233   4.450  13.716 -2.3788 -0.4616 -0.6195
  849MPD2    H112475   4.085   0.116  13.699 -0.3078 -0.2294 -3.6926
  849MPD2    H212476   4.429   0.017  13.465 -0.1965  0.7815 -0.2009
  849MPD2    H312477   4.232   0.179  13.540 -1.0811  0.1947 -0.7301
  849MPD2     N12478   4.081   4.601  13.833 -0.3257 -0.3638 -0.0927
  849MPD2    H512479   4.103   4.508  13.865  1.0519 -0.6422 -1.8339
  849MPD2    N112480   4.443   4.493  13.547  0.2556  0.2380  0.0153
  849MPD2    H712481   4.425   4.402  13.588 -1.1086  0.2141 -0.6053
  850MPD2     C12482   1.168   2.464  14.410  0.6641  0.7881  0.7307
  850MPD2    C112483   1.208   2.585  14.460 -0.2227  0.4385 -0.4986
  850MPD2    C212484   1.334   2.603  14.509  0.1685 -0.0269 -0.1801
  850MPD2    C312485   1.425   2.504  14.503  0.8116 -0.1952  0.5612
  850MPD2    C412486   1.395   2.389  14.441  0.1122  0.2264  0.1329
  850MPD2    C512487   1.265   2.365  14.400 -0.4703  0.0991  0.7108
  850MPD2     H12488   1.358   2.696  14.559  0.8387  0.5714 -1.6228
  850MPD2    H112489   1.470   2.311  14.431  0.1982  0.4088 -0.6666
  850MPD2    H212490   1.068   2.446  14.372  1.3091  1.7040 -1.4032
  850MPD2    H312491   1.246   2.267  14.359 -0.7698  0.2322  0.5319
  850MPD2     N12492   1.557   2.517  14.555 -0.3604  0.3170 -0.3788
  850MPD2    H512493   1.605   2.428  14.548 -1.0524 -0.1128  0.2484
  850MPD2    N112494   1.106   2.682  14.475  0.0380 -0.1792 -0.2935
  850MPD2    H712495   1.018   2.669  14.426 -1.2744  1.2075  1.6933
  851MPD2     C12496   1.651   2.518  15.060 -0.5112  0.0044 -0.1542
  851MPD2    C112497   1.516   2.506  15.025 -0.9139 -0.7550 -0.4515
  851MPD2    C212498   1.475   2.370  15.021  0.0132 -0.1539  0.0087
  851MPD2    C312499   1.565   2.264  15.029 -0.2154  0.0394  0.3401
  851MPD2    C412500   1.694   2.281  15.053  0.1553  0.6488  0.2550
  851MPD2    C512501   1.732   2.412  15.080 -0.1473 -0.0648 -0.3299
  851MPD2     H12502   1.373   2.345  14.994  0.4011 -0.4072 -1.1972
  851MPD2    H112503   1.762   2.198  15.072 -0.6946 -0.3308 -1.0285
  851MPD2    H212504   1.694   2.617  15.074  1.4624 -0.2927 -4.3978
  851MPD2    H312505   1.833   2.429  15.116  1.2531 -0.6154 -3.9749
  851MPD2     N12506   1.508   2.143  15.004  0.4462  0.2141  0.4955
  851MPD2    H512507   1.407   2.137  14.993  0.3962 -3.2002  2.9312
  851MPD2    N112508   1.436   2.616  14.984 -0.5928  0.1743  0.6237
  851MPD2    H712509   1.479   2.708  14.987 -3.0124  1.2254  3.3470
  852MPD2     C12510   1.672   3.566   9.609 -0.5319 -0.1716 -0.6818
  852MPD2    C112511   1.710   3.690   9.656  0.1079 -0.1767 -0.2720
  852MPD2    C212512   1.823   3.749   9.605  0.1588 -0.3913 -0.2110
  852MPD2    C312513   1.909   3.678   9.521 -0.0689 -0.3626 -0.7625
  852MPD2    C412514   1.870   3.545   9.488 -0.5855  0.2611  0.1786
  852MPD2    C512515   1.757   3.491   9.530  0.3322  0.0464  0.4775
  852MPD2     H12516   1.839   3.851   9.638  1.9041 -1.6372  2.7123
  852MPD2    H112517   1.929   3.489   9.416  0.8124  0.7229  0.9523
  852MPD2    H212518   1.590   3.511   9.653 -1.8667  0.7788 -2.0018
  852MPD2    H312519   1.726   3.391   9.501 -0.2733 -0.1937  1.9924
  852MPD2     N12520   2.036   3.731   9.485 -0.0585  0.4444 -0.0161
  852MPD2    H512521   2.056   3.825   9.517  0.7676  0.0189  0.7003
  852MPD2    N112522   1.642   3.767   9.752 -0.0241 -0.3492  0.5031
  852MPD2    H712523   1.676   3.860   9.773 -1.1262 -0.1012  1.1778
  853MPD2     C12524   3.244   0.433  12.245 -0.5865  0.9844  0.1099
  853MPD2    C112525   3.156   0.335  12.271  0.0277  0.0905 -0.3326
  853MPD2    C212526   3.120   0.251  12.167 -0.5209 -0.9559  0.1505
  853MPD2    C312527   3.179   0.269  12.039  0.0607  0.1166 -0.9428
  853MPD2    C412528   3.270   0.376  12.017  0.7552 -0.1338 -0.2913
  853MPD2    C512529   3.305   0.455  12.123 -0.2198  0.3098 -0.3048
  853MPD2     H12530   3.044   0.175  12.181  1.0683 -3.1990 -3.4702
  853MPD2    H112531   3.315   0.385  11.919  1.9708 -0.6418  0.2115
  853MPD2    H212532   3.268   0.501  12.327  1.7064  1.1235 -0.6842
  853MPD2    H312533   3.376   0.535  12.108  0.5815 -0.3002  0.2013
  853MPD2     N12534   3.138   0.200  11.924 -0.3124 -0.7956  0.2133
  853MPD2    H512535   3.187   0.218  11.837 -0.1038  0.9586  0.7003
  853MPD2    N112536   3.100   0.332  12.404  1.1160  0.1045 -0.8774
  853MPD2    H712537   3.139   0.394  12.475 -1.8931 -0.5295  1.3441
  854MPD2     C12538   0.322   0.103  12.805  0.3833 -0.7960 -0.0368
  854MPD2    C112539   0.304   0.028  12.697 -0.1629 -0.2369  0.0023
  854MPD2    C212540   0.302   4.611  12.711 -0.6576 -0.4690  0.9609
  854MPD2    C312541   0.316   4.558  12.836 -0.6498  0.4951  0.2854
  854MPD2    C412542   0.355   4.632  12.947  0.2161 -0.4804 -0.3028
  854MPD2    C512543   0.352   0.043  12.924  0.0155 -0.0153  0.7929
  854MPD2     H12544   0.287   4.548  12.623  1.9262  0.0043  0.1726
  854MPD2    H112545   0.368   4.590  13.046 -1.5287 -0.1652  0.0662
  854MPD2    H212546   0.327   0.211  12.808  0.7539 -0.8196  0.1252
  854MPD2    H312547   0.378   0.110  13.006 -0.1657  0.1459  0.7185
  854MPD2     N12548   0.314   4.416  12.863 -0.7608 -0.0961  0.2091
  854MPD2    H512549   0.361   4.387  12.948  1.1854  1.1984 -0.4145
  854MPD2    N112550   0.308   0.097  12.572 -0.4552  0.2623 -0.0201
  854MPD2    H712551   0.318   0.198  12.581 -1.5335  0.4053 -0.4325
  855MPD2     C12552   0.950   4.204  13.372 -0.1423 -0.2114  0.4682
  855MPD2    C112553   0.829   4.141  13.398 -0.2808 -0.2182 -0.6988
  855MPD2    C212554   0.739   4.115  13.302  0.3305  0.3897  0.0027
  855MPD2    C312555   0.767   4.144  13.167 -0.0628 -0.6111 -0.0302
  855MPD2    C412556   0.892   4.197  13.134  0.8046  0.3727 -0.2890
  855MPD2    C512557   0.978   4.227  13.236  0.1127  0.5613 -0.2172
  855MPD2     H12558   0.647   4.063  13.327  0.5074 -0.0401 -0.2428
  855MPD2    H112559   0.918   4.230  13.034 -0.8373  0.0457 -0.8331
  855MPD2    H212560   1.026   4.212  13.449  1.0721  0.3033 -0.7883
  855MPD2    H312561   1.073   4.272  13.206  0.1231  1.3962  1.0394
  855MPD2     N12562   0.670   4.125  13.061 -0.3530 -0.2737  0.5151
  855MPD2    H512563   0.696   4.138  12.964  1.5267  0.2189  1.0938
  855MPD2    N112564   0.788   4.093  13.524  0.7324 -0.2820 -0.1686
  855MPD2    H712565   0.696   4.050  13.527  0.4561  0.4086  1.0870
  856MPD2     C12566   2.828   0.522  13.739 -0.4840  0.2652  0.4559
  856MPD2    C112567   2.931   0.616  13.762 -0.1232  0.0465 -0.2178
  856MPD2    C212568   2.909   0.744  13.724  0.3171  0.4320 -0.3854
  856MPD2    C312569   2.790   0.782  13.667  0.3975  0.1926  0.7899
  856MPD2    C412570   2.700   0.688  13.636 -0.2953 -0.2564 -0.4785
  856MPD2    C512571   2.717   0.557  13.680  0.1706  0.1551  0.3592
  856MPD2     H12572   2.987   0.810  13.760  1.1979 -1.5784  1.3806
  856MPD2    H112573   2.603   0.712  13.594 -0.9364 -1.9482  0.0361
  856MPD2    H212574   2.837   0.416  13.760 -1.0840 -0.1393 -1.3496
  856MPD2    H312575   2.638   0.483  13.667 -0.3395  0.5936  0.9834
  856MPD2     N12576   2.769   0.916  13.632  0.0289  0.2975  0.2468
  856MPD2    H512577   2.681   0.936  13.586  0.2725 -1.0603 -0.8157
  856MPD2    N112578   3.058   0.578  13.816  0.4197 -0.2187 -0.3446
  856MPD2    H712579   3.125   0.654  13.823  0.5962 -0.5734  1.8396
  857MPD2     C12580   3.788   2.617  12.807 -0.6494 -0.2882  0.1900
  857MPD2    C112581   3.925   2.642  12.828  0.1808  0.4576 -0.7276
  857MPD2    C212582   3.956   2.758  12.890  0.1213 -0.2483  0.6636
  857MPD2    C312583   3.864   2.850  12.940 -0.0600  0.2975  0.1801
  857MPD2    C412584   3.727   2.831  12.919  0.6754  0.2156  0.0711
  857MPD2    C512585   3.697   2.716  12.849 -0.5180 -0.0241 -0.0054
  857MPD2     H12586   4.056   2.777  12.927 -0.6379  2.5311  1.2992
  857MPD2    H112587   3.649   2.895  12.956  0.1445  1.1134 -2.6244
  857MPD2    H212588   3.745   2.538  12.746  1.5808 -1.3553  0.0192
  857MPD2    H312589   3.594   2.700  12.819 -0.4903  0.9823 -0.6117
  857MPD2     N12590   3.916   2.959  13.013  0.1356 -0.3430  0.4122
  857MPD2    H512591   4.016   2.964  13.028 -0.0782 -1.8235  2.4388
  857MPD2    N112592   4.018   2.549  12.778 -0.3655  0.2432 -0.1836
  857MPD2    H712593   3.975   2.463  12.745 -1.1412  0.9650 -1.0548
  858MPD2     C12594   0.040   1.546  16.489 -0.2261 -0.5455 -0.0249
  858MPD2    C112595   0.173   1.526  16.483  0.6245  0.0331 -0.1172
  858MPD2    C212596   0.257   1.639  16.505  0.3384  0.6862  0.2138
  858MPD2    C312597   0.207   1.763  16.553 -0.2612 -0.2051  0.5902
  858MPD2    C412598   0.066   1.768  16.577  0.1048  0.6455 -0.2579
  858MPD2    C512599   4.712   1.666  16.538  0.1322  0.4336 -0.5964
  858MPD2     H12600   0.363   1.624  16.486  0.3197  0.7777  0.0365
  858MPD2    H112601   0.028   1.857  16.625 -1.2254  0.8597 -1.7001
  858MPD2    H212602   4.682   1.475  16.473  0.9711 -1.8092 -0.4876
  858MPD2    H312603   4.604   1.676  16.542  0.0219  0.2861 -3.1376
  858MPD2     N12604   0.285   1.875  16.584  0.3549 -0.0688  0.3611
  858MPD2    H512605   0.230   1.951  16.622 -2.2913  0.1024 -3.8423
  858MPD2    N112606   0.222   1.394  16.460  0.0527  0.1020  0.7485
  858MPD2    H712607   0.153   1.321  16.477 -0.0672 -0.3731 -1.7894
  859MPD2     C12608   3.812   3.809  14.961  0.0643 -0.2866 -0.4237
  859MPD2    C112609   3.706   3.772  14.878 -0.0503 -0.4728  0.0093
  859MPD2    C212610   3.688   3.635  14.863  0.6642 -0.0287 -0.7201
  859MPD2    C312611   3.782   3.544  14.904 -0.8763  0.1979  0.0127
  859MPD2    C412612   3.883   3.585  14.987 -0.5866 -0.9361  0.2341
  859MPD2    C512613   3.894   3.714  15.019  0.6891 -0.6000 -0.1722
  859MPD2     H12614   3.611   3.605  14.792  0.5625 -0.9642 -0.2125
  859MPD2    H112615   3.957   3.519  15.032  1.1329  1.0601  0.3403
  859MPD2    H212616   3.825   3.914  14.985  0.6273 -0.4238 -0.1255
  859MPD2    H312617   3.983   3.748  15.071 -1.3116  1.1349  2.1093
  859MPD2     N12618   3.769   3.405  14.885  0.0444  0.1121  0.0074
  859MPD2    H512619   3.842   3.341  14.916  0.8292  0.3122 -1.4372
  859MPD2    N112620   3.627   3.874  14.816  0.0886  0.1514  0.1376
  859MPD2    H712621   3.653   3.970  14.831 -0.5674  1.0161 -4.4983
  860MPD2     C12622   1.254   4.310  11.424  0.6831  0.2773 -0.7547
  860MPD2    C112623   1.236   4.279  11.557  0.5907  0.2096  0.3501
  860MPD2    C212624   1.111   4.298  11.617  0.0489  0.0859  0.3234
  860MPD2    C312625   1.008   4.356  11.545 -0.5696 -0.5626 -0.7633
  860MPD2    C412626   1.026   4.390  11.413  0.4078 -0.1770  0.0362
  860MPD2    C512627   1.150   4.362  11.356  0.1056  0.4664 -0.3901
  860MPD2     H12628   1.091   4.288  11.723 -1.0242 -1.3831 -0.0272
  860MPD2    H112629   0.951   4.436  11.350  1.3431  2.0660  0.5558
  860MPD2    H212630   1.346   4.291  11.370  0.0086 -0.4007 -1.6646
  860MPD2    H312631   1.160   4.384  11.251 -0.7667 -0.9456 -0.7692
  860MPD2     N12632   0.891   4.389  11.624  0.1357  0.1707  0.0238
  860MPD2    H512633   0.867   4.342  11.711 -0.7813 -1.6773 -1.2191
  860MPD2    N112634   1.346   4.233  11.638  0.3125  0.1757 -0.3680
  860MPD2    H712635   1.316   4.208  11.731  0.6289 -1.5504 -0.7298
  861MPD2     C12636   0.126   2.574  10.690  0.9588  0.0836  0.2381
  861MPD2    C112637   0.037   2.637  10.766  0.6621  0.4457  0.0572
  861MPD2    C212638   4.636   2.675  10.702  0.2366 -0.6368 -0.1379
  861MPD2    C312639   4.624   2.686  10.562 -0.3728  0.4314  0.5793
  861MPD2    C412640   4.717   2.622  10.490 -0.4810  0.1166 -0.7211
  861MPD2    C512641   0.104   2.564  10.554  0.0325 -0.1511  0.2942
  861MPD2     H12642   4.558   2.724  10.760  0.4319  2.0834 -2.1697
  861MPD2    H112643   4.716   2.642  10.383  0.4935  0.1619 -0.7188
  861MPD2    H212644   0.221   2.532  10.721 -0.2505 -1.9170  1.2385
  861MPD2    H312645   0.189   2.523  10.500 -0.2827 -1.5145  0.8202
  861MPD2     N12646   4.520   2.763  10.504 -0.2041 -0.6655 -0.5207
  861MPD2    H512647   4.520   2.749  10.403  1.3530 -1.2623 -0.4465
  861MPD2    N112648   0.047   2.674  10.899  0.0762 -0.0546  0.2742
  861MPD2    H712649   4.684   2.692  10.951  0.1528 -0.1031  0.4193
  862MPD2     C12650   4.156   2.936   9.894 -0.6727 -0.0181 -0.1701
  862MPD2    C112651   4.215   2.855   9.991  0.4542  0.3197 -0.2308
  862MPD2    C212652   4.222   2.724   9.977  0.0328 -0.2388  0.1584
  862MPD2    C312653   4.172   2.659   9.866  1.4153 -0.4046 -0.5516
  862MPD2    C412654   4.127   2.734   9.763 -0.0465 -0.6164 -0.3467
  862MPD2    C512655   4.122   2.872   9.780 -0.2833 -0.4637  0.2062
  862MPD2     H12656   4.286   2.676  10.050  1.0221  5.0460  2.7508
  862MPD2    H112657   4.093   2.681   9.675 -0.8431 -0.2287 -0.2693
  862MPD2    H212658   4.134   3.042   9.896 -1.3630 -0.1813  0.7767
  862MPD2    H312659   4.082   2.929   9.696  0.6794  1.1930  0.8710
  862MPD2     N12660   4.184   2.521   9.852 -0.5343 -0.4631  0.2784
  862MPD2    H512661   4.168   2.478   9.761  0.7796  1.5788 -0.9394
  862MPD2    N112662   4.273   2.904  10.108  0.2761  0.3361  0.6433
  862MPD2    H712663   4.316   2.835  10.168 -1.0091 -0.2266  0.9120
  863MPD2     C12664   3.388   1.036  16.545  0.0950 -0.1320  1.0013
  863MPD2    C112665   3.400   1.087  16.672 -0.5455  0.5359 -0.8244
  863MPD2    C212666   3.472   1.021  16.768  0.2374  0.5595 -0.6921
  863MPD2    C312667   3.515   0.887  16.748 -0.1480 -0.2152 -0.0582
  863MPD2    C412668   3.511   0.838  16.619  0.2535  0.1653 -0.1900
  863MPD2    C512669   3.453   0.917  16.521 -0.7225  0.1113  0.0147
  863MPD2     H12670   3.485   1.062  16.868  0.8122 -1.8299  0.2203
  863MPD2    H112671   3.551   0.739  16.598 -0.9171 -0.7542  1.9337
  863MPD2    H212672   3.331   1.086  16.467  2.5754 -0.3483 -0.9240
  863MPD2    H312673   3.448   0.865  16.426 -1.4558  0.9965 -0.4169
  863MPD2     N12674   3.557   0.829  16.866 -0.1507  1.0719  0.6195
  863MPD2    H512675   3.559   0.888  16.948 -3.0464 -1.4585  2.5035
  863MPD2    N112676   3.329   1.206  16.695 -0.3673 -0.1740  0.1389
  863MPD2    H712677   3.280   1.247  16.616  4.3511  1.8383 -1.7255
  864MPD2     C12678   3.839   2.264  17.454  0.2609 -0.0424 -0.3183
  864MPD2    C112679   3.898   2.201  17.348 -0.0666  0.3324 -0.5603
  864MPD2    C212680   3.936   2.263  17.235  0.1244  0.0260  0.4540
  864MPD2    C312681   3.899   2.395  17.219  0.4385 -0.3322  0.1431
  864MPD2    C412682   3.850   2.469  17.323  0.6127 -0.5914 -0.1516
  864MPD2    C512683   3.818   2.397  17.442  0.3728 -0.2101 -0.0480
  864MPD2     H12684   3.977   2.195  17.161  0.6645  1.2194 -0.3237
  864MPD2    H112685   3.859   2.577  17.321 -1.0477 -0.4340  0.5000
  864MPD2    H212686   3.805   2.215  17.545  1.9595  1.2331  1.0059
  864MPD2    H312687   3.788   2.454  17.529 -2.6279  1.2671 -2.0473
  864MPD2     N12688   3.915   2.463  17.095 -0.3198  0.2763 -0.4561
  864MPD2    H512689   3.896   2.563  17.094 -0.4340  0.2482 -1.0799
  864MPD2    N112690   3.942   2.064  17.353  0.2197 -0.3830 -0.2544
  864MPD2    H712691   3.970   2.018  17.266  2.7388  1.5974 -0.4857
  865MPD2     C12692   3.663   2.671  16.295  0.3309  0.2565  0.0585
  865MPD2    C112693   3.720   2.601  16.401  0.2550 -0.1124 -0.5887
  865MPD2    C212694   3.716   2.651  16.525  0.6115 -0.2931  0.0335
  865MPD2    C312695   3.672   2.782  16.545  1.3089 -0.0233  0.0964
  865MPD2    C412696   3.603   2.845  16.441  0.4926  0.5073  0.1771
  865MPD2    C512697   3.602   2.792  16.315  0.1795  0.7617 -0.0943
  865MPD2     H12698   3.746   2.585  16.607  0.3877  1.3686  1.4614
  865MPD2    H112699   3.539   2.928  16.469  0.9401  0.9193 -0.0091
  865MPD2    H212700   3.656   2.641  16.191 -1.1412  0.8664 -0.0159
  865MPD2    H312701   3.540   2.836  16.238  1.2552 -0.3800 -1.6175
  865MPD2     N12702   3.663   2.843  16.679 -0.3989  0.0432  0.5841
  865MPD2    H512703   3.606   2.927  16.677 -0.3464  0.0672  0.0732
  865MPD2    N112704   3.777   2.476  16.363 -0.2529  0.2255  0.8967
  865MPD2    H712705   3.770   2.435  16.270  1.4556 -0.2430  0.9819
  866MPD2     C12706   0.529   2.823  11.224 -0.0397  0.1064  0.4274
  866MPD2    C112707   0.532   2.810  11.088  0.2017 -0.3024  0.1279
  866MPD2    C212708   0.431   2.866  11.010 -0.5410 -0.6104  0.1129
  866MPD2    C312709   0.328   2.940  11.069  0.1958  0.7976 -0.2754
  866MPD2    C412710   0.335   2.968  11.201  0.5154  0.9043  0.1426
  866MPD2    C512711   0.432   2.913  11.274  0.4356 -0.2624 -0.3363
  866MPD2     H12712   0.430   2.856  10.902  0.6847  2.2108 -0.1515
  866MPD2    H112713   0.259   3.026  11.253 -0.5136 -1.9541  1.8080
  866MPD2    H212714   0.607   2.788  11.290 -0.0987 -0.8511 -0.0170
  866MPD2    H312715   0.430   2.927  11.382  2.3962 -0.8948 -0.2214
  866MPD2     N12716   0.222   2.991  10.987 -0.0377  0.3628 -0.0559
  866MPD2    H512717   0.229   2.974  10.887 -0.4713 -1.1111  0.1671
  866MPD2    N112718   0.630   2.729  11.032  0.6838  0.6803 -0.0425
  866MPD2    H712719   0.684   2.677  11.100  1.5585  1.2798 -0.2750
  867MPD2     C12720   2.964   2.771  16.770  0.5777  1.0924 -0.5866
  867MPD2    C112721   3.026   2.727  16.886  0.2979  0.1385  0.6279
  867MPD2    C212722   3.023   2.802  16.996  0.1484  0.6149  0.2073
  867MPD2    C312723   2.966   2.927  16.996 -0.0676 -0.1827  0.8760
  867MPD2    C412724   2.917   2.980  16.882  0.1297 -0.1000  0.5707
  867MPD2    C512725   2.929   2.908  16.763 -0.1235  0.3606  0.3288
  867MPD2     H12726   3.071   2.761  17.084 -0.4785 -0.3166  0.1198
  867MPD2    H112727   2.875   3.079  16.889 -0.3581 -0.2728  0.1330
  867MPD2    H212728   2.957   2.709  16.682 -1.9860 -0.8441  0.9519
  867MPD2    H312729   2.901   2.950  16.667  2.4012  0.2459 -0.4792
  867MPD2     N12730   2.957   3.011  17.111 -0.1499  0.0452 -0.3350
  867MPD2    H512731   2.912   3.101  17.097  0.6760  0.9363  2.7641
  867MPD2    N112732   3.066   2.593  16.875 -0.4457 -0.3954 -0.1279
  867MPD2    H712733   3.054   2.545  16.786 -1.5060 -1.5773  0.6636
  868MPD2     C12734   4.566   1.071  12.544  1.0714  0.6142  0.6759
  868MPD2    C112735   4.573   0.953  12.614 -0.0460 -0.5910  0.2600
  868MPD2    C212736   4.478   0.926  12.710 -0.0760 -0.0180  0.3836
  868MPD2    C312737   4.377   1.011  12.736 -0.2716 -0.2126  0.5442
  868MPD2    C412738   4.371   1.131  12.665 -0.3194 -0.6543 -0.0848
  868MPD2    C512739   4.468   1.156  12.569 -0.2260 -0.3491 -0.0240
  868MPD2     H12740   4.475   0.832  12.763 -1.1811  0.0979  0.5186
  868MPD2    H112741   4.301   1.209  12.692  1.9298  1.3393  0.0620
  868MPD2    H212742   4.633   1.082  12.460 -1.9303  1.1098 -1.6373
  868MPD2    H312743   4.482   1.244  12.506  1.4107 -0.1376  0.6401
  868MPD2     N12744   4.289   0.977  12.840 -0.4776  0.5267  0.5584
  868MPD2    H512745   4.301   0.884  12.879 -1.2472  0.0720 -0.3041
  868MPD2    N112746   4.684   0.868  12.580  0.0965 -0.6501 -0.0259
  868MPD2    H712747   0.012   0.880  12.493 -0.6829 -0.6208 -0.4774
  869MPD2     C12748   0.620   3.222   1.680 -0.5311  0.1407  0.2313
  869MPD2    C112749   0.519   3.306   1.723  0.0134 -0.5739  0.4454
  869MPD2    C212750   0.495   3.418   1.648  0.1983 -0.1270  0.2109
  869MPD2    C312751   0.583   3.459   1.547 -0.2582  0.1590  0.3314
  869MPD2    C412752   0.686   3.373   1.507 -0.4528  0.6429 -0.5492
  869MPD2    C512753   0.694   3.251   1.566  0.4511  0.0789  0.3450
  869MPD2     H12754   0.410   3.481   1.673  0.2267 -0.6260  1.5560
  869MPD2    H112755   0.758   3.406   1.433 -1.9032  1.0419 -1.7845
  869MPD2    H212756   0.637   3.124   1.725 -0.2252 -0.7982 -1.9177
  869MPD2    H312757   0.771   3.179   1.539  0.7623  0.8767 -0.9072
  869MPD2     N12758   0.575   3.586   1.485  0.2376 -0.5550  0.4640
  869MPD2    H512759   0.641   3.599   1.408 -0.3816 -1.0373 -0.1494
  869MPD2    N112760   0.448   3.267   1.840  0.0489  0.1847 -0.2483
  869MPD2    H712761   0.475   3.179   1.884  1.1759  0.5807 -0.1503
  870MPD2     C12762   0.836   2.333   1.563 -0.0002  0.1805 -0.6255
  870MPD2    C112763   0.969   2.334   1.528  0.7543  0.1565  0.2223
  870MPD2    C212764   1.014   2.456   1.475 -0.6516 -0.5863  0.4425
  870MPD2    C312765   0.939   2.571   1.468  0.3593  0.5049  0.2330
  870MPD2    C412766   0.808   2.567   1.510  0.8503 -0.4060  0.8799
  870MPD2    C512767   0.751   2.447   1.538 -0.5028 -0.6069  0.0983
  870MPD2     H12768   1.116   2.466   1.441 -0.6403 -1.2851  0.2773
  870MPD2    H112769   0.749   2.658   1.501 -1.5029 -2.1237 -0.9488
  870MPD2    H212770   0.789   2.248   1.610 -0.9476  0.2047 -1.5222
  870MPD2    H312771   0.648   2.444   1.570 -1.6768 -1.2731 -3.7401
  870MPD2     N12772   1.010   2.685   1.432  0.1372 -0.4809  0.4233
  870MPD2    H512773   1.101   2.672   1.389  0.5999  0.4307  1.1389
  870MPD2    N112774   1.047   2.215   1.547  0.0467  0.3675  0.5193
  870MPD2    H712775   0.990   2.139   1.582  1.5692 -1.0071  0.0212
  871MPD2     C12776   1.927   1.923  15.814 -0.3824 -0.1265 -0.4356
  871MPD2    C112777   2.009   1.938  15.926  0.3978 -0.0757 -0.0801
  871MPD2    C212778   2.144   1.928  15.906 -0.3616 -0.5655 -0.4169
  871MPD2    C312779   2.192   1.950  15.775  1.1185  0.4715  0.2305
  871MPD2    C412780   2.110   1.943  15.661 -0.3842  0.2571  0.2967
  871MPD2    C512781   1.975   1.924  15.682 -0.0396  0.3217 -0.3050
  871MPD2     H12782   2.218   1.947  15.983 -2.0980 -1.9056  1.5852
  871MPD2    H112783   2.149   1.926  15.561 -1.5957 -2.1039  0.2338
  871MPD2    H212784   1.821   1.907  15.830 -0.3952  1.7664  1.4068
  871MPD2    H312785   1.902   1.913  15.603 -1.3740  0.2436  0.9398
  871MPD2     N12786   2.326   1.994  15.772 -0.1761 -0.8935 -0.6259
  871MPD2    H512787   2.373   2.008  15.861 -0.1118 -1.0506 -0.6346
  871MPD2    N112788   1.958   1.961  16.055  0.0352  0.0792  0.4154
  871MPD2    H712789   2.020   1.946  16.134  1.4566  0.7527 -0.5731
  872MPD2     C12790   2.592   0.230  13.447  0.4991 -1.0743  0.3131
  872MPD2    C112791   2.682   0.199  13.548  0.4710  0.4082  0.3507
  872MPD2    C212792   2.633   0.160  13.667  0.1421  0.0455 -0.0898
  872MPD2    C312793   2.500   0.144  13.688 -0.7164  0.4697  0.3152
  872MPD2    C412794   2.417   0.155  13.577 -0.3144 -0.1621  1.2693
  872MPD2    C512795   2.464   0.200  13.462 -0.2542 -1.3663  0.7301
  872MPD2     H12796   2.702   0.141  13.748 -2.1265 -1.4888  1.4968
  872MPD2    H112797   2.316   0.121  13.596  0.0796 -0.6580  2.4982
  872MPD2    H212798   2.627   0.259  13.348  0.4677  0.2821  0.6997
  872MPD2    H312799   2.402   0.203  13.373 -2.1440  0.2346  2.0845
  872MPD2     N12800   2.441   0.107  13.816  0.3818 -0.3715  0.5327
  872MPD2    H512801   2.342   0.086  13.822  0.0573  0.3347 -2.3828
  872MPD2    N112802   2.818   0.225  13.533 -0.3500 -0.2946 -0.2868
  872MPD2    H712803   2.860   0.269  13.451  1.2556  0.0938  0.7508
  873MPD2     C12804   4.087   4.325   1.197 -0.3252 -0.2263  0.3404
  873MPD2    C112805   4.163   4.430   1.245 -0.2553  0.1049 -0.7861
  873MPD2    C212806   4.298   4.438   1.225 -0.4737  0.5343 -0.9063
  873MPD2    C312807   4.364   4.329   1.173 -0.5768 -0.0047 -0.6979
  873MPD2    C412808   4.294   4.210   1.148  0.3292  0.1881  0.3651
  873MPD2    C512809   4.152   4.213   1.149 -0.1885  0.1887  0.4176
  873MPD2     H12810   4.351   4.530   1.250 -0.2885 -0.7362  3.3590
  873MPD2    H112811   4.354   4.127   1.110 -0.6384 -0.3064 -0.0885
  873MPD2    H212812   3.979   4.330   1.185 -0.1273  0.4936 -1.1891
  873MPD2    H312813   4.098   4.136   1.097 -1.1886  0.4265  1.1108
  873MPD2     N12814   4.503   4.332   1.149 -0.2639 -0.4464 -0.0545
  873MPD2    H512815   4.537   4.243   1.114 -0.3955 -0.4905 -0.0687
  873MPD2    N112816   4.092   4.530   1.309  0.5675 -0.1105 -0.5213
  873MPD2    H712817   3.991   4.519   1.312  0.8643 -2.4876  0.8294
  874MPD2     C12818   3.878   0.152  16.300  0.0838  0.1036 -0.2591
  874MPD2    C112819   3.889   0.069  16.408  0.5472  0.3281 -1.1188
  874MPD2    C212820   3.971   0.106  16.521 -0.0830  0.2444  0.4372
  874MPD2    C312821   4.041   0.227  16.528 -0.1182  0.2433  0.0679
  874MPD2    C412822   4.028   0.303  16.409  0.6080  0.1980 -0.7267
  874MPD2    C512823   3.949   0.267  16.305 -0.8657  0.5973 -0.4874
  874MPD2     H12824   3.979   0.042  16.608 -0.4961  1.0190  1.0366
  874MPD2    H112825   4.073   0.401  16.397 -1.6563  1.4441  1.1580
  874MPD2    H212826   3.821   0.119  16.213 -0.8341 -2.1588  1.1822
  874MPD2    H312827   3.944   0.336  16.222  0.2446  0.3391 -0.7757
  874MPD2     N12828   4.121   0.244  16.644 -0.4683 -0.0602 -0.0582
  874MPD2    H512829   4.115   0.166  16.708 -0.1657 -1.9150 -2.2967
  874MPD2    N112830   3.821   4.672  16.406  0.0217 -0.7051 -0.1951
  874MPD2    H712831   3.758   4.666  16.326 -0.7340 -0.2560  0.3635
  875MPD2     C12832   0.195   3.263  14.531  1.1320 -0.8140  0.3258
  875MPD2    C112833   0.066   3.259  14.589  0.4491 -0.2147 -0.7786
  875MPD2    C212834   0.041   3.321  14.702 -0.7156 -0.1769 -0.1736
  875MPD2    C312835   0.139   3.390  14.773  0.2524 -0.4994 -0.3684
  875MPD2    C412836   0.267   3.393  14.719  0.7821 -0.8502  0.1053
  875MPD2    C512837   0.297   3.321  14.605 -0.3553  0.7225  0.5348
  875MPD2     H12838   4.667   3.312  14.750 -0.3478 -0.6731  0.4774
  875MPD2    H112839   0.351   3.437  14.770  1.8807 -1.9678 -0.7345
  875MPD2    H212840   0.221   3.232  14.431  1.9582  3.3978 -0.7820
  875MPD2    H312841   0.398   3.322  14.564 -0.3706  1.1540  0.5110
  875MPD2     N12842   0.106   3.462  14.895 -0.1943  0.1931 -0.5712
  875MPD2    H512843   0.178   3.527  14.924  1.7070 -1.7354 -0.9338
  875MPD2    N112844   4.678   3.210  14.517  0.3500  0.1470 -0.3703
  875MPD2    H712845   4.586   3.238  14.549  0.0832 -1.2169  0.0430
  876MPD2     C12846   4.008   0.144  15.749  0.6345 -0.6117 -0.4366
  876MPD2    C112847   3.964   0.059  15.650 -0.3345  0.2289 -0.3189
  876MPD2    C212848   3.961   4.643  15.682  0.0645  0.5128 -0.3614
  876MPD2    C312849   4.009   4.589  15.806  0.4867 -0.4173 -0.1949
  876MPD2    C412850   4.060   4.683  15.892 -0.6669 -0.4375 -0.0727
  876MPD2    C512851   4.057   0.093  15.869 -0.4215  0.2755  0.5595
  876MPD2     H12852   3.921   4.573  15.610  1.9118 -1.0490  0.1290
  876MPD2    H112853   4.096   4.657  15.991  1.4287 -1.5265 -1.1240
  876MPD2    H212854   4.008   0.251  15.731 -0.5073 -0.8189 -1.7071
  876MPD2    H312855   4.099   0.152  15.950 -1.6033  0.3417  1.1260
  876MPD2     N12856   3.997   4.449  15.830 -0.4092  0.0043  0.1040
  876MPD2    H512857   3.951   4.389  15.762 -0.8069 -0.0313  0.4060
  876MPD2    N112858   3.935   0.110  15.518  0.2646  0.7009  0.3151
  876MPD2    H712859   3.943   0.209  15.500 -2.1639  0.5373 -1.7349
  877MPD2     C12860   3.746   0.732  15.118  0.2776  0.1121  0.2515
  877MPD2    C112861   3.813   0.648  15.030  0.5700  0.0543  0.2780
  877MPD2    C212862   3.877   0.692  14.919  0.4932  0.1878 -0.3593
  877MPD2    C312863   3.860   0.826  14.882  0.4004  0.2617  0.1993
  877MPD2    C412864   3.790   0.912  14.964 -0.4013 -0.6933  0.2882
  877MPD2    C512865   3.731   0.863  15.080  0.2789  0.2816 -0.8676
  877MPD2     H12866   3.922   0.630  14.843  1.8163 -0.4514  0.9383
  877MPD2    H112867   3.777   1.019  14.947  1.6866 -0.6173 -0.7870
  877MPD2    H212868   3.702   0.708  15.214 -0.7237  0.5995 -0.0908
  877MPD2    H312869   3.677   0.923  15.152  0.3507 -1.3986  0.5979
  877MPD2     N12870   3.903   0.871  14.755  0.1602  0.3194  0.4603
  877MPD2    H512871   3.880   0.960  14.711  0.9363  1.0929  1.6025
  877MPD2    N112872   3.816   0.509  15.053 -0.7757 -0.2848 -0.0694
  877MPD2    H712873   3.838   0.459  14.967  1.1325  3.0333 -1.5520
  878MPD2     C12874   3.882   4.093  13.067  0.0577  0.6932  0.4812
  878MPD2    C112875   3.936   4.215  13.030  0.5571  0.0177 -0.1888
  878MPD2    C212876   4.072   4.244  13.074  0.3141  0.1818  0.4822
  878MPD2    C312877   4.141   4.144  13.145  0.1011 -0.0359  0.2024
  878MPD2    C412878   4.090   4.025  13.163  0.0610  0.3613  0.0268
  878MPD2    C512879   3.954   4.009  13.142  0.8914  0.4404 -0.5907
  878MPD2     H12880   4.118   4.340  13.056  0.8424  0.2011  1.9602
  878MPD2    H112881   4.134   3.941  13.217  1.5419  1.9816  1.3412
  878MPD2    H212882   3.786   4.055  13.034 -0.3688  0.6785  1.7150
  878MPD2    H312883   3.904   3.915  13.164  0.6838  1.0232  1.3863
  878MPD2     N12884   4.268   4.182  13.203  0.1126  0.7889 -0.6685
  878MPD2    H512885   4.294   4.280  13.195  0.3460  0.6620 -1.4936
  878MPD2    N112886   3.859   4.290  12.934 -0.3483 -0.2754 -0.1113
  878MPD2    H712887   3.762   4.260  12.926  0.0326 -2.1198  2.3295
  879MPD2     C12888   4.307   0.788  17.020  0.0361 -0.2365 -0.0626
  879MPD2    C112889   4.297   0.678  17.102 -0.3258 -0.0892 -0.5122
  879MPD2    C212890   4.194   0.593  17.070  0.3008 -0.2625 -0.3055
  879MPD2    C312891   4.122   0.605  16.953 -0.3665 -0.2276  0.0496
  879MPD2    C412892   4.148   0.709  16.872  0.6872  0.5660  0.4025
  879MPD2    C512893   4.224   0.810  16.913 -0.1338  0.1733 -0.5000
  879MPD2     H12894   4.167   0.512  17.137  1.1764 -1.5835 -1.5346
  879MPD2    H112895   4.098   0.713  16.775  0.6877  2.7972  0.4926
  879MPD2    H212896   4.387   0.860  17.034 -0.4541  0.3325 -0.1428
  879MPD2    H312897   4.243   0.891  16.844  2.1604 -0.1421 -0.2337
  879MPD2     N12898   4.013   0.523  16.917  0.1298 -0.3163 -0.0620
  879MPD2    H512899   3.957   0.553  16.837  0.3426  2.2119  0.7277
  879MPD2    N112900   4.387   0.667  17.219 -0.1231 -0.4878 -0.7337
  879MPD2    H712901   4.447   0.749  17.225  0.9230 -1.2017 -1.2981
  880MPD2     C12902   1.682   2.174   0.157 -0.1799 -0.0626 -0.0847
  880MPD2    C112903   1.636   2.176   0.286 -0.0197 -0.3611  1.4383
  880MPD2    C212904   1.618   2.052   0.346 -0.0157 -0.0270  0.6258
  880MPD2    C312905   1.651   1.939   0.275  0.2352  0.1286 -0.2173
  880MPD2    C412906   1.699   1.937   0.145 -0.7032 -1.2502  0.2820
  880MPD2    C512907   1.706   2.059   0.086 -0.3999 -0.4271  0.3161
  880MPD2     H12908   1.585   2.038   0.448  0.9176 -2.0129  0.6454
  880MPD2    H112909   1.712   1.848   0.084  1.6312 -0.6446 -0.1245
  880MPD2    H212910   1.680   2.266   0.099  0.8722  0.4609  0.7059
  880MPD2    H312911   1.732   2.067  17.675  1.2157 -0.8261  0.6778
  880MPD2     N12912   1.619   1.822   0.342  0.0491  0.0651  0.2058
  880MPD2    H512913   1.568   1.834   0.429  0.7382 -1.1609  0.7808
  880MPD2    N112914   1.604   2.302   0.340  0.2174  0.4071 -0.0162
  880MPD2    H712915   1.602   2.379   0.274  0.2545  0.6250  0.2366
  881MPD2     C12916   1.229   2.997  17.483 -0.5993 -0.0075  0.1289
  881MPD2    C112917   1.294   2.877  17.459 -0.0231 -0.4038  0.3143
  881MPD2    C212918   1.322   2.804  17.575 -0.1555  0.0307 -0.2014
  881MPD2    C312919   1.309   2.862   0.011  0.2142 -0.7269 -0.6514
  881MPD2    C412920   1.263   2.981   0.021  0.1031 -0.1279 -0.2532
  881MPD2    C512921   1.218   3.051  17.606 -0.6034  0.6667 -0.7367
  881MPD2     H12922   1.350   2.699  17.577  1.4669  0.4668  0.0702
  881MPD2    H112923   1.255   3.030   0.117  2.8708 -0.0872 -0.0246
  881MPD2    H212924   1.206   3.054  17.394 -0.4720 -0.6630 -0.3259
  881MPD2    H312925   1.171   3.147  17.620 -0.8270  0.5970 -0.9971
  881MPD2     N12926   1.336   2.806   0.138  0.4354 -0.4043 -0.7406
  881MPD2    H512927   1.352   2.863   0.220  0.1556 -0.3793 -0.7032
  881MPD2    N112928   1.273   2.825  17.329 -0.4460  0.3633  0.2418
  881MPD2    H712929   1.245   2.893  17.259  0.7280  0.6134  0.0256
  882MPD2     C12930   3.847   0.342  14.153  0.7630 -0.0182 -0.3148
  882MPD2    C112931   3.797   0.421  14.259 -0.0026  0.3808  0.2079
  882MPD2    C212932   3.734   0.359  14.359 -0.4335  0.8218  0.0137
  882MPD2    C312933   3.697   0.222  14.346  0.0322  0.2639 -0.1681
  882MPD2    C412934   3.729   0.151  14.232  0.8047 -0.3412 -0.3349
  882MPD2    C512935   3.808   0.211  14.133  0.2682  0.1940 -0.0438
  882MPD2     H12936   3.717   0.412  14.452 -1.4957  1.9592 -0.8289
  882MPD2    H112937   3.725   0.043  14.232 -1.5057 -0.2434  2.3710
  882MPD2    H212938   3.898   0.379  14.064  0.5787  0.1828 -0.3372
  882MPD2    H312939   3.831   0.163  14.039 -2.5860  0.1379 -0.7061
  882MPD2     N12940   3.616   0.146  14.437  0.2276  0.6620 -0.4402
  882MPD2    H512941   3.590   0.052  14.408  1.8510  0.1142 -0.1302
  882MPD2    N112942   3.831   0.564  14.255 -0.7812 -0.2694 -0.5850
  882MPD2    H712943   3.915   0.589  14.205 -2.8646  1.9324 -3.0203
  883MPD2     C12944   1.282   4.706  16.282  0.3417  0.5839  0.1126
  883MPD2    C112945   1.362   4.698  16.174 -0.4763 -0.0040  0.8111
  883MPD2    C212946   1.497   4.671  16.193  0.3325  0.0198 -1.1613
  883MPD2    C312947   1.552   4.662  16.324 -0.5417 -0.8495 -0.1088
  883MPD2    C412948   1.467   4.681  16.430  0.5969  0.2202 -0.7634
  883MPD2    C512949   1.331   4.701  16.407 -0.0128  0.7386  0.1301
  883MPD2     H12950   1.576   4.666  16.119  0.2056  0.2348 -1.3130
  883MPD2    H112951   1.505   4.689  16.532 -0.5788 -3.0242 -0.0656
  883MPD2    H212952   1.177   0.007  16.274  0.0721 -0.6710 -0.0561
  883MPD2    H312953   1.273   0.002  16.495 -1.9918  0.6586 -1.1457
  883MPD2     N12954   1.697   4.646  16.337 -0.6075  0.1731 -0.1255
  883MPD2    H512955   1.739   4.654  16.244 -1.8431  2.1643 -0.5280
  883MPD2    N112956   1.320   4.714  16.041  0.1470 -0.8301  0.0161
  883MPD2    H712957   1.390   0.008  15.970 -0.6691  0.5262 -0.4536
  884MPD2     C12958   2.790   0.851  14.969 -0.0553 -0.8682  0.4200
  884MPD2    C112959   2.835   0.933  14.869 -0.2307 -1.2947 -0.3790
  884MPD2    C212960   2.753   1.030  14.825 -0.0877  0.4317 -0.9257
  884MPD2    C312961   2.626   1.060  14.880  0.1050  0.4024  0.9382
  884MPD2    C412962   2.584   0.979  14.988  0.2348  0.1803  0.3162
  884MPD2    C512963   2.668   0.879  15.028 -0.3111 -0.8545 -0.6714
  884MPD2     H12964   2.787   1.099  14.749 -2.6105  0.9890 -1.5388
  884MPD2    H112965   2.491   0.986  15.042  0.2454  0.9090  0.2475
  884MPD2    H212966   2.847   0.778  15.026 -0.9304 -0.3908  1.8989
  884MPD2    H312967   2.633   0.807  15.101 -1.7552 -0.7619 -1.2791
  884MPD2     N12968   2.545   1.165  14.837  0.0191 -0.2057 -0.4295
  884MPD2    H512969   2.574   1.208  14.750  0.7088 -1.3052 -0.7500
  884MPD2    N112970   2.971   0.922  14.824 -0.2252  0.1447 -0.4214
  884MPD2    H712971   2.998   0.985  14.748 -0.6353  0.2264 -0.4979
  885MPD2     C12972   1.611   0.226  17.408  0.7316  0.0515  0.5396
  885MPD2    C112973   1.633   0.344  17.484 -0.1102 -1.3193 -0.6119
  885MPD2    C212974   1.605   0.463  17.422 -0.3669 -0.1617 -0.1440
  885MPD2    C312975   1.567   0.469  17.284  0.5177  0.3160 -0.4060
  885MPD2    C412976   1.570   0.351  17.204 -0.7873  0.6130 -0.1559
  885MPD2    C512977   1.585   0.231  17.270 -0.4777 -0.1880 -0.1593
  885MPD2     H12978   1.611   0.559  17.471 -0.6611 -0.9615  1.4369
  885MPD2    H112979   1.556   0.339  17.097  2.2875 -0.0332 -0.4904
  885MPD2    H212980   1.639   0.127  17.441 -0.5099 -0.4580  0.0776
  885MPD2    H312981   1.598   0.141  17.212 -0.1946  0.0520 -0.4664
  885MPD2     N12982   1.535   0.595  17.229  0.4693  0.3088 -0.1703
  885MPD2    H512983   1.548   0.665  17.301 -3.1517  0.8213 -0.0120
  885MPD2    N112984   1.661   0.331  17.622  0.6533 -0.2532  0.5118
  885MPD2    H712985   1.680   0.237  17.654  1.7629  0.3954  1.7244
  886MPD2     C12986   2.127   0.392  15.285  0.1104  0.7433  0.2796
  886MPD2    C112987   2.244   0.314  15.307 -0.8972  0.2335 -0.1693
  886MPD2    C212988   2.337   0.288  15.204  0.0393 -0.1816  0.4629
  886MPD2    C312989   2.307   0.330  15.072 -0.3706  0.4572 -0.2119
  886MPD2    C412990   2.181   0.384  15.056 -0.5793  0.1828 -0.3756
  886MPD2    C512991   2.100   0.423  15.158 -0.1197 -0.7103 -0.5425
  886MPD2     H12992   2.416   0.216  15.221 -0.4689 -0.6741  0.7693
  886MPD2    H112993   2.163   0.426  14.958 -1.4728 -0.3670 -0.4571
  886MPD2    H212994   2.056   0.412  15.365  1.2090  1.1287  1.1595
  886MPD2    H312995   2.024   0.500  15.157 -0.5422 -1.1295 -1.0000
  886MPD2     N12996   2.393   0.305  14.961 -0.4855  0.2135  0.2084
  886MPD2    H512997   2.375   0.356  14.876 -0.4945 -1.9920 -1.1297
  886MPD2    N112998   2.276   0.273  15.438 -0.2483 -0.0444  0.5481
  886MPD2    H712999   2.356   0.215  15.460  0.8628  0.4717 -2.0618
  887MPD2     C13000   2.719   0.248  16.061  0.5932 -0.4387  0.2962
  887MPD2    C113001   2.689   0.216  15.933  0.1649 -0.8434 -0.2367
  887MPD2    C213002   2.790   0.173  15.853 -0.4216  0.8655 -0.2647
  887MPD2    C313003   2.918   0.167  15.889  0.4247 -0.2773 -0.2492
  887MPD2    C413004   2.951   0.191  16.024  0.4532 -0.5405 -0.4600
  887MPD2    C513005   2.851   0.227  16.106  0.1571 -0.0466 -0.2297
  887MPD2     H13006   2.763   0.146  15.751 -0.0389  0.4346 -0.2526
  887MPD2    H113007   3.046   0.198  16.076 -0.5821  0.0455  1.3474
  887MPD2    H213008   2.647   0.285  16.133  0.1989  1.8222 -1.2618
  887MPD2    H313009   2.869   0.236  16.213  1.8905 -1.3809 -0.4159
  887MPD2     N13010   3.016   0.140  15.790 -0.4465 -0.0494 -0.2942
  887MPD2    H513011   2.979   0.132  15.696  0.9449  1.5939 -0.9666
  887MPD2    N113012   2.555   0.235  15.880 -0.9848  0.0327 -0.1004
  887MPD2    H713013   2.539   0.213  15.782 -1.2806 -0.0931 -0.0261
  888MPD2     C13014   0.357   4.565  14.333 -0.4488  0.5093  0.0256
  888MPD2    C113015   0.386   4.579  14.463  0.2927  0.2240  0.0189
  888MPD2    C213016   0.479   4.680  14.503 -0.0900  0.0835 -0.6047
  888MPD2    C313017   0.545   0.035  14.414 -0.2916  0.1937 -0.0978
  888MPD2    C413018   0.510   0.008  14.282  0.0518 -0.1510  0.1266
  888MPD2    C513019   0.424   4.637  14.237  0.7172 -0.0060  0.1304
  888MPD2     H13020   0.500   4.695  14.608 -0.4045 -2.4570 -0.1745
  888MPD2    H113021   0.556   0.059  14.198 -0.9572 -0.3038 -0.5262
  888MPD2    H213022   0.305   4.476  14.299  0.4109 -0.2808  0.7420
  888MPD2    H313023   0.411   4.616  14.131 -2.3522  0.5986  0.3891
  888MPD2     N13024   0.641   0.130  14.452  1.0185  0.0875 -0.4751
  888MPD2    H513025   0.654   0.147  14.551  1.2186  1.8204 -0.7938
  888MPD2    N113026   0.323   4.506  14.566  0.4815 -0.2907 -0.0200
  888MPD2    H713027   0.366   4.519  14.656 -2.1789  1.0942  1.0523
  889MPD2     C13028   3.679   3.654  12.878 -0.0570 -0.4390 -0.1512
  889MPD2    C113029   3.798   3.648  12.954 -0.3001 -0.3334 -0.4408
  889MPD2    C213030   3.894   3.736  12.906  0.3315 -0.6383 -0.1295
  889MPD2    C313031   3.863   3.843  12.824 -0.1336 -0.4718  0.3177
  889MPD2    C413032   3.742   3.855  12.761  0.1467  0.4776 -0.4232
  889MPD2    C513033   3.653   3.747  12.782  0.8823  0.5605  0.4100
  889MPD2     H13034   3.998   3.739  12.939  0.1871  1.2008  0.1391
  889MPD2    H113035   3.716   3.927  12.684 -2.3980  0.7413  0.6719
  889MPD2    H213036   3.598   3.589  12.908  0.0552  0.4778  2.2227
  889MPD2    H313037   3.554   3.746  12.738  1.4629  1.6646 -0.9147
  889MPD2     N13038   3.972   3.936  12.799 -0.0225  0.3829  0.3686
  889MPD2    H513039   4.058   3.917  12.849  0.6992  1.7916 -0.3692
  889MPD2    N113040   3.826   3.551  13.052  0.1668 -0.0068  0.2080
  889MPD2    H713041   3.747   3.492  13.075  0.4325 -0.5353 -0.2287
  890MPD2     C13042   4.470   0.696  14.727  0.2009 -0.0480  0.3202
  890MPD2    C113043   4.422   0.816  14.767 -0.2954 -0.7472  0.1242
  890MPD2    C213044   4.349   0.821  14.880 -0.0529 -0.8688  0.3467
  890MPD2    C313045   4.319   0.710  14.952  0.1412 -0.4868 -0.1982
  890MPD2    C413046   4.357   0.588  14.904 -0.3898  0.6277  0.2770
  890MPD2    C513047   4.437   0.582  14.795 -0.3057 -0.5941 -0.0780
  890MPD2     H13048   4.303   0.914  14.914 -0.0402 -0.0327 -1.9587
  890MPD2    H113049   4.324   0.500  14.958 -0.8980  0.2284 -0.6953
  890MPD2    H213050   4.531   0.686  14.638 -0.6147 -1.4421 -0.0787
  890MPD2    H313051   4.469   0.484  14.762  0.5616 -0.1805 -0.4526
  890MPD2     N13052   4.236   0.713  15.065 -0.5473  0.5952 -0.2878
  890MPD2    H513053   4.204   0.804  15.098 -0.6569 -0.4530  2.5250
  890MPD2    N113054   4.441   0.931  14.684  0.3865  0.8889 -0.3401
  890MPD2    H713055   4.491   0.917  14.597  0.5194 -2.5479  0.3033
  891MPD2     C13056   1.935   3.784  16.443 -1.2265  0.1216  0.1578
  891MPD2    C113057   1.916   3.883  16.541  0.5235 -0.8839  1.2864
  891MPD2    C213058   1.995   3.879  16.653 -0.0814  0.5026  0.0186
  891MPD2    C313059   2.090   3.784  16.673 -1.1373  0.3407  0.3649
  891MPD2    C413060   2.112   3.689  16.575 -0.3236  0.0266 -0.2394
  891MPD2    C513061   2.029   3.683  16.467  0.1694 -0.1660  0.1461
  891MPD2     H13062   1.981   3.952  16.732 -0.9677 -0.6843  0.9804
  891MPD2    H113063   2.176   3.602  16.581 -0.7695 -0.4182 -1.7914
  891MPD2    H213064   1.875   3.786  16.353 -1.8583  2.0553  0.6455
  891MPD2    H313065   2.040   3.603  16.395 -1.8671 -0.6200  0.3517
  891MPD2     N13066   2.183   3.801  16.784  0.2490 -0.5361 -0.1517
  891MPD2    H513067   2.168   3.878  16.848  0.8466 -0.5166 -0.0385
  891MPD2    N113068   1.817   3.986  16.524  0.2463 -0.5888 -0.4303
  891MPD2    H713069   1.775   3.990  16.432 -1.2871  2.2451  0.3846
  892MPD2     C13070   3.157   0.806  14.497 -0.4764 -0.2817 -0.2234
  892MPD2    C113071   3.054   0.718  14.519  0.1733 -0.0189 -0.3529
  892MPD2    C213072   3.075   0.589  14.557  0.3153 -0.8191  0.0040
  892MPD2    C313073   3.203   0.542  14.567  1.1488 -0.2084 -0.0337
  892MPD2    C413074   3.310   0.632  14.546 -0.6905 -0.6196  0.0400
  892MPD2    C513075   3.286   0.764  14.510 -0.0644  0.4340 -0.9564
  892MPD2     H13076   2.994   0.518  14.571  2.5521 -3.4133 -0.0810
  892MPD2    H113077   3.409   0.591  14.533 -0.6364 -0.1673 -1.0009
  892MPD2    H213078   3.141   0.905  14.454 -0.3623 -0.7018 -1.2393
  892MPD2    H313079   3.365   0.835  14.486  1.5919  0.1623  3.6750
  892MPD2     N13080   3.236   0.407  14.594  0.4779  0.7078  0.6258
  892MPD2    H513081   3.336   0.390  14.603  0.1736 -0.1706  2.3603
  892MPD2    N113082   2.921   0.757  14.498  0.5171 -0.1610 -1.0213
  892MPD2    H713083   2.845   0.690  14.510  0.1513  0.5764  0.6596
  893MPD2     C13084   1.492   2.244   1.936 -0.1216 -0.5130  0.0147
  893MPD2    C113085   1.355   2.225   1.916  0.2447 -0.5462 -0.0483
  893MPD2    C213086   1.298   2.095   1.922  0.0945 -0.7091  0.0018
  893MPD2    C313087   1.390   1.986   1.935  0.4570  0.0788  0.1324
  893MPD2    C413088   1.521   2.008   1.956 -0.0857 -0.0783  0.2049
  893MPD2    C513089   1.575   2.136   1.957 -0.3580 -0.1262 -0.3843
  893MPD2     H13090   1.191   2.084   1.916 -0.0441 -1.0180  3.1259
  893MPD2    H113091   1.585   1.920   1.965  0.6925  0.4821  0.2002
  893MPD2    H213092   1.540   2.341   1.930 -0.3429 -0.3600  0.7236
  893MPD2    H313093   1.682   2.153   1.957 -0.2275 -0.9577 -1.9195
  893MPD2     N13094   1.356   1.849   1.913  0.3114 -0.5464  0.3048
  893MPD2    H513095   1.436   1.787   1.909  0.8150 -0.0069  1.7514
  893MPD2    N113096   1.268   2.337   1.895 -0.3554  0.3800 -0.6150
  893MPD2    H713097   1.313   2.427   1.906 -0.3805  0.3280 -0.0952
  894MPD2     C13098   3.188   0.959   0.598 -0.3027  0.3182  0.4858
  894MPD2    C113099   3.148   0.912   0.725  0.3938 -0.4327 -0.5430
  894MPD2    C213100   3.085   0.998   0.812  0.5810 -0.3833 -0.0572
  894MPD2    C313101   3.091   1.133   0.781  0.0661  0.2317  0.0746
  894MPD2    C413102   3.139   1.184   0.665  0.5772 -0.0369 -0.1568
  894MPD2    C513103   3.184   1.092   0.576  0.0182  0.9382 -0.1715
  894MPD2     H13104   3.041   0.967   0.905 -1.5590 -1.5177 -1.4545
  894MPD2    H113105   3.147   1.289   0.639  1.6729  0.1857  1.0732
  894MPD2    H213106   3.235   0.889   0.529 -0.9154  0.2051  0.1785
  894MPD2    H313107   3.224   1.137   0.486  0.3631  0.2452 -0.3598
  894MPD2     N13108   3.056   1.222   0.887  0.3549  0.1847 -0.1723
  894MPD2    H513109   3.051   1.173   0.975 -2.0415  0.9460  0.0956
  894MPD2    N113110   3.155   0.772   0.766 -0.1624 -0.3540  0.2939
  894MPD2    H713111   3.108   0.749   0.853  0.6247  0.2156  0.8802
  895MPD2     C13112   2.268   4.098  13.898 -0.1500 -1.2365 -0.8260
  895MPD2    C113113   2.151   4.061  13.831 -0.2024 -0.6884  0.0893
  895MPD2    C213114   2.134   3.931  13.805  0.4669  0.5381  0.4964
  895MPD2    C313115   2.233   3.836  13.833  1.1598 -0.7771 -0.5104
  895MPD2    C413116   2.349   3.881  13.887 -0.6428 -0.3121 -0.3706
  895MPD2    C513117   2.366   4.008  13.925 -0.3848  0.4000 -0.4378
  895MPD2     H13118   2.041   3.899  13.759  1.3559 -2.3938  0.7468
  895MPD2    H113119   2.420   3.807  13.922  0.0888  1.5681  2.1217
  895MPD2    H213120   2.282   4.201  13.930 -2.3989 -0.4509 -2.3722
  895MPD2    H313121   2.449   4.041  13.986  0.1364  0.9088 -1.4253
  895MPD2     N13122   2.208   3.703  13.797  0.3868  0.1804 -0.1179
  895MPD2    H513123   2.111   3.680  13.776  0.3650 -0.3226  0.5358
  895MPD2    N113124   2.049   4.143  13.779 -0.2351 -0.7243  0.3533
  895MPD2    H713125   1.972   4.103  13.727  0.9930 -3.3867  0.5956
  896MPD2     C13126   0.007   1.519   2.071  0.0160 -0.2221 -0.3216
  896MPD2    C113127   4.698   1.509   1.937 -0.2848  0.3691  0.1330
  896MPD2    C213128   4.580   1.459   1.896 -0.5594  0.4560  0.3931
  896MPD2    C313129   4.484   1.427   1.988 -0.3789 -0.0121  0.0091
  896MPD2    C413130   4.512   1.444   2.118 -0.1758  0.5248  0.2638
  896MPD2    C513131   4.633   1.482   2.163 -1.0066  0.1212  0.0983
  896MPD2     H13132   4.560   1.440   1.792 -0.3634  1.0419  0.2474
  896MPD2    H113133   4.435   1.426   2.193 -0.5027 -1.0330 -0.4469
  896MPD2    H213134   0.103   1.549   2.109  0.4353 -1.8658 -0.0658
  896MPD2    H313135   4.644   1.501   2.269 -0.3019  2.4297 -0.3768
  896MPD2     N13136   4.355   1.392   1.944  0.7215  0.6003 -0.0461
  896MPD2    H513137   4.348   1.363   1.847 -2.6050  0.2506  0.3099
  896MPD2    N113138   0.075   1.533   1.841 -0.1706 -0.2274 -0.4731
  896MPD2    H713139   0.169   1.533   1.880 -0.1498  0.1487 -0.5249
  897MPD2     C13140   0.747   3.191   9.999 -0.8369  0.3389 -0.0393
  897MPD2    C113141   0.736   3.327  10.015 -0.2554 -0.1011  0.2360
  897MPD2    C213142   0.617   3.378  10.068 -0.2625 -0.5972 -0.2737
  897MPD2    C313143   0.515   3.295  10.105  0.2169 -0.1978 -0.9023
  897MPD2    C413144   0.527   3.159  10.082 -0.5565 -0.0133  0.0744
  897MPD2    C513145   0.645   3.106  10.023  0.5994 -0.3530  0.0199
  897MPD2     H13146   0.611   3.484  10.091  0.6459 -0.6120  0.0255
  897MPD2    H113147   0.445   3.090  10.101 -0.5325 -0.5848 -1.9108
  897MPD2    H213148   0.846   3.151   9.976 -1.5362 -1.1297 -0.5324
  897MPD2    H313149   0.666   3.001  10.005  2.3315 -0.0267  0.1672
  897MPD2     N13150   0.420   3.357  10.184 -0.0656 -0.2667 -0.1186
  897MPD2    H513151   0.418   3.458  10.187 -1.2691 -0.2971  0.1335
  897MPD2    N113152   0.844   3.411   9.974 -0.0498 -0.1648 -0.1617
  897MPD2    H713153   0.911   3.370   9.909 -2.3471 -1.7258 -1.5492
  898MPD2     C13154   2.851   3.909   0.260 -0.1015 -0.0718 -0.6748
  898MPD2    C113155   2.929   4.020   0.241 -0.6648 -0.1672  0.0479
  898MPD2    C213156   2.875   4.119   0.160  0.2121 -0.4607  0.1446
  898MPD2    C313157   2.759   4.095   0.090 -0.3548  0.2396  0.1306
  898MPD2    C413158   2.685   3.980   0.108  0.5191 -0.4619 -0.2971
  898MPD2    C513159   2.739   3.884   0.188  0.3982 -0.4547 -0.7390
  898MPD2     H13160   2.917   4.219   0.159 -0.0656 -0.3236  1.9888
  898MPD2    H113161   2.598   3.960   0.046  0.2123 -0.3472  0.0938
  898MPD2    H213162   2.890   3.832   0.325 -0.7768 -0.0082 -0.1951
  898MPD2    H313163   2.692   3.787   0.188  0.0611 -0.2930 -1.0571
  898MPD2     N13164   2.703   4.203   0.023  0.0453 -0.1484  0.0502
  898MPD2    H513165   2.756   4.289   0.017  0.7697 -0.5674  0.3326
  898MPD2    N113166   3.056   4.044   0.298  0.3030  0.1733  0.2012
  898MPD2    H713167   3.101   4.128   0.264 -2.5519  1.5828 -0.0548
  899MPD2     C13168   3.184   0.225  17.200  0.7210 -0.7672  0.4555
  899MPD2    C113169   3.291   0.272  17.273  0.0938  0.2742  0.4149
  899MPD2    C213170   3.311   0.218  17.398 -0.5933 -0.3549 -0.0355
  899MPD2    C313171   3.219   0.124  17.451  0.2744  0.4373  0.0990
  899MPD2    C413172   3.116   0.072  17.374  0.5974 -0.3476  0.5643
  899MPD2    C513173   3.096   0.128  17.254 -0.0772 -0.0421 -0.3957
  899MPD2     H13174   3.393   0.249  17.461  0.0742 -1.8426 -0.1863
  899MPD2    H113175   3.044   4.723  17.411 -0.9536  1.4533  1.0728
  899MPD2    H213176   3.154   0.270  17.106 -2.6422  2.0498  2.8516
  899MPD2    H313177   3.012   0.103  17.192  0.3943  2.3338 -1.9596
  899MPD2     N13178   3.223   0.095  17.586  0.3483  0.3856 -0.3937
  899MPD2    H513179   3.179   0.005  17.598  4.0362 -0.9494  3.0140
  899MPD2    N113180   3.375   0.373  17.221 -0.1811 -0.2472 -0.2616
  899MPD2    H713181   3.367   0.386  17.121  0.4921 -0.2258 -0.3090
  900MPD2     C13182   3.492   2.437  12.553 -0.1373  0.3422  0.4303
  900MPD2    C113183   3.416   2.343  12.489 -0.0326 -1.2269  0.1767
  900MPD2    C213184   3.283   2.371  12.468  0.9804 -0.0934 -0.4728
  900MPD2    C313185   3.225   2.490  12.512  0.5659 -0.8422  0.3929
  900MPD2    C413186   3.307   2.586  12.569  0.4641 -0.2376 -0.4016
  900MPD2    C513187   3.435   2.556  12.603  0.0680  0.2397 -0.5537
  900MPD2     H13188   3.230   2.300  12.405  1.0285  0.8142 -1.5392
  900MPD2    H113189   3.278   2.687  12.594  1.3402  0.1610 -1.0381
  900MPD2    H213190   3.596   2.431  12.582 -0.3710 -0.0326  1.1752
  900MPD2    H313191   3.506   2.629  12.639  0.7525  0.6002 -2.6412
  900MPD2     N13192   3.093   2.515  12.474 -0.4055 -0.4134 -0.3609
  900MPD2    H513193   3.044   2.442  12.424 -0.5053 -1.2085  0.8951
  900MPD2    N113194   3.458   2.217  12.445 -0.2015  0.0847  0.5176
  900MPD2    H713195   3.393   2.158  12.394  2.1556 -1.0373 -1.1908
  901MPD2     C13196   3.082   1.334  12.472 -0.8267 -0.0369  0.7692
  901MPD2    C113197   3.201   1.307  12.530  0.3419 -0.0802 -0.7796
  901MPD2    C213198   3.302   1.397  12.517 -0.6044  0.3922  0.2540
  901MPD2    C313199   3.284   1.511  12.444  0.0341 -0.1416 -0.2953
  901MPD2    C413200   3.168   1.526  12.372  0.4000  0.6079 -0.0730
  901MPD2    C513201   3.061   1.441  12.386  0.1146  0.1734 -0.0570
  901MPD2     H13202   3.396   1.392  12.570 -0.0283 -1.0915 -0.9116
  901MPD2    H113203   3.147   1.603  12.298 -1.4616 -2.2365 -2.5000
  901MPD2    H213204   2.992   1.273  12.473 -0.8836  0.0665  1.5548
  901MPD2    H313205   2.967   1.446  12.332  0.8607 -0.3387 -1.4268
  901MPD2     N13206   3.389   1.600  12.445 -0.1449 -0.0295  0.0310
  901MPD2    H513207   3.470   1.569  12.497  2.2398  3.6420 -1.5370
  901MPD2    N113208   3.214   1.186  12.600  0.4412 -0.3423  0.3386
  901MPD2    H713209   3.133   1.126  12.596  1.2365 -1.5861  3.1173
  902MPD2     C13210   2.135   0.042  12.892  0.4184 -0.0639 -0.2707
  902MPD2    C113211   2.170   0.052  12.758 -0.4038  0.3047 -0.1214
  902MPD2    C213212   2.205   4.655  12.694 -0.6914  0.4505  0.7014
  902MPD2    C313213   2.231   4.540  12.763 -0.4642  0.8652  0.4322
  902MPD2    C413214   2.191   4.534  12.893 -0.5891  0.4837 -1.1507
  902MPD2    C513215   2.147   4.646  12.953  0.6544  0.6604 -0.4350
  902MPD2     H13216   2.212   4.654  12.586 -0.8976 -0.6410  0.6990
  902MPD2    H113217   2.195   4.439  12.946 -2.1362  0.3299 -1.2961
  902MPD2    H213218   2.102   0.130  12.946 -1.2315 -0.1492 -1.1527
  902MPD2    H313219   2.102   4.642  13.052  0.2284 -2.0768 -0.7445
  902MPD2     N13220   2.273   4.429  12.696 -0.0463  0.7699  0.3015
  902MPD2    H513221   2.241   4.337  12.723  1.1658 -0.2479 -1.7664
  902MPD2    N113222   2.147   0.182  12.700 -0.0175  0.3337  0.1459
  902MPD2    H713223   2.124   0.254  12.767 -0.8527 -1.6883  2.0248
  903MPD2     C13224   2.381   4.506  11.948 -0.1533  0.2449 -0.1021
  903MPD2    C113225   2.340   4.396  12.015  0.2846  0.8012  0.0104
  903MPD2    C213226   2.231   4.329  11.974  0.5913 -0.5197 -0.0318
  903MPD2    C313227   2.153   4.380  11.868 -0.2304  0.7641  0.1617
  903MPD2    C413228   2.194   4.490  11.798  0.0435  0.6143 -0.5909
  903MPD2    C513229   2.316   4.550  11.836 -0.0944 -0.0739  0.2415
  903MPD2     H13230   2.195   4.246  12.034 -1.1042 -0.7684 -1.3892
  903MPD2    H113231   2.140   4.517  11.707 -0.6860  1.4483  0.0874
  903MPD2    H213232   2.469   4.558  11.985  0.0915 -0.5870  0.4694
  903MPD2    H313233   2.349   4.634  11.776 -0.2695  1.1732  1.8799
  903MPD2     N13234   2.027   4.321  11.855 -0.5862  0.1719  0.1410
  903MPD2    H513235   2.008   4.256  11.931  0.3544  0.3609  0.5504
  903MPD2    N113236   2.418   4.344  12.121 -0.1744 -0.4212 -0.3865
  903MPD2    H713237   2.492   4.405  12.155 -1.4263  1.6413 -1.3613
  904MPD2     C13238   1.947   3.403  14.099  0.2239  0.0996 -0.1405
  904MPD2    C113239   1.948   3.539  14.098 -0.1236 -0.2137 -0.5559
  904MPD2    C213240   2.079   3.600  14.110  0.5559  0.6929  0.1993
  904MPD2    C313241   2.199   3.529  14.116 -0.2336  0.2490  0.2851
  904MPD2    C413242   2.190   3.398  14.127 -0.4730 -0.1437 -0.0678
  904MPD2    C513243   2.067   3.341  14.116  0.0207 -0.4212  0.0052
  904MPD2     H13244   2.092   3.708  14.109 -0.6302  0.8319 -0.4694
  904MPD2    H113245   2.277   3.334  14.138 -0.9135 -0.9629 -1.2911
  904MPD2    H213246   1.852   3.350  14.096 -0.6858  1.6793  0.4374
  904MPD2    H313247   2.065   3.234  14.131 -1.6447 -0.3526  0.2463
  904MPD2     N13248   2.322   3.596  14.135 -0.1592 -0.5593 -0.2671
  904MPD2    H513249   2.321   3.697  14.145  0.4403 -0.6671  0.7772
  904MPD2    N113250   1.837   3.630  14.099  0.2694  0.1570 -0.6560
  904MPD2    H713251   1.861   3.728  14.093  0.1228  0.2383  0.0632
  905MPD2     C13252   1.488   3.414  13.482 -0.0349 -0.0716 -0.3635
  905MPD2    C113253   1.574   3.507  13.541  0.3331  0.5551  0.2962
  905MPD2    C213254   1.711   3.496  13.524  0.0592 -0.1529  0.4011
  905MPD2    C313255   1.764   3.387  13.458  0.5198 -0.3733 -0.0738
  905MPD2    C413256   1.680   3.302  13.397  0.5737 -0.3747 -0.8067
  905MPD2    C513257   1.543   3.314  13.405  0.1678 -0.2550 -0.0810
  905MPD2     H13258   1.769   3.550  13.598  1.8771 -0.3712 -0.8825
  905MPD2    H113259   1.714   3.209  13.352 -2.1362 -1.2287 -1.1167
  905MPD2    H213260   1.382   3.411  13.505 -0.0038 -0.2874 -0.2488
  905MPD2    H313261   1.479   3.237  13.363 -0.1094 -0.0273 -0.0769
  905MPD2     N13262   1.899   3.352  13.480  0.0652  0.0738  0.6003
  905MPD2    H513263   1.930   3.257  13.466  1.0466  0.5215 -0.3089
  905MPD2    N113264   1.517   3.597  13.635 -0.7227 -0.0194 -0.3292
  905MPD2    H713265   1.422   3.583  13.665 -0.1213 -1.3576  0.9175
  906MPD2     C13266   3.995   3.754  11.194  0.1619 -0.2610 -0.2712
  906MPD2    C113267   3.935   3.641  11.135  0.0436 -0.1285 -0.0103
  906MPD2    C213268   3.868   3.547  11.221 -0.1226 -0.6607  0.4132
  906MPD2    C313269   3.861   3.558  11.354 -0.6699 -0.5287 -0.0372
  906MPD2    C413270   3.919   3.676  11.409 -0.8535  0.0870 -0.3472
  906MPD2    C513271   3.981   3.768  11.332  0.1173  0.0951 -0.2238
  906MPD2     H13272   3.822   3.464  11.170 -1.7618 -0.2934  1.3050
  906MPD2    H113273   3.933   3.688  11.516 -2.1082 -1.7443  0.0176
  906MPD2    H213274   4.052   3.823  11.132  1.1444 -0.9176 -0.0842
  906MPD2    H313275   4.030   3.849  11.385 -0.0804  2.1693 -3.1951
  906MPD2     N13276   3.791   3.460  11.422  0.6098 -0.4786  0.0295
  906MPD2    H513277   3.747   3.382  11.375  0.2817 -1.9850  2.8757
  906MPD2    N113278   3.936   3.612  10.999  0.2024  0.2046  0.6612
  906MPD2    H713279   3.905   3.518  10.977 -0.8464  0.1383  2.4240
  907MPD2     C13280   3.051   3.142  15.110 -0.0688 -0.5828 -0.1313
  907MPD2    C113281   3.118   3.030  15.069 -0.0095 -0.2495  0.3296
  907MPD2    C213282   3.243   2.996  15.108 -0.3276  0.4953  0.1752
  907MPD2    C313283   3.311   3.092  15.191 -0.4429 -0.0315  0.2185
  907MPD2    C413284   3.254   3.216  15.217 -0.1227 -0.2920 -0.3628
  907MPD2    C513285   3.124   3.228  15.187 -0.7671  0.0968  0.4493
  907MPD2     H13286   3.301   2.914  15.068 -3.3575 -1.0147 -1.1315
  907MPD2    H113287   3.300   3.300  15.268 -0.6196 -0.9220  1.1229
  907MPD2    H213288   2.949   3.159  15.077  1.1994  0.9394 -3.2301
  907MPD2    H313289   3.078   3.321  15.220 -0.2152  0.5967 -0.1808
  907MPD2     N13290   3.440   3.048  15.239  0.1081 -0.4838 -0.1744
  907MPD2    H513291   3.468   2.953  15.218  0.1418 -1.0940  2.6353
  907MPD2    N113292   3.058   2.934  14.987  0.4155  0.5219 -0.3422
  907MPD2    H713293   3.108   2.846  14.975 -0.0756  0.2084 -0.0470
  908MPD2     C13294   1.432   3.168   9.414 -0.8122  0.3471 -0.2679
  908MPD2    C113295   1.314   3.113   9.459 -0.1626  0.3167 -0.0285
  908MPD2    C213296   1.228   3.203   9.522 -0.5774  0.3851  0.0762
  908MPD2    C313297   1.258   3.337   9.549 -0.4576 -0.3044 -0.2837
  908MPD2    C413298   1.375   3.384   9.496 -0.3805  0.1595  0.4821
  908MPD2    C513299   1.460   3.302   9.433 -0.1169  0.1465  0.0050
  908MPD2     H13300   1.135   3.160   9.559 -1.5043  1.5668 -0.8581
  908MPD2    H113301   1.409   3.486   9.499 -0.3707  0.1964 -1.3433
  908MPD2    H213302   1.512   3.116   9.362 -0.2688 -0.4579  1.3780
  908MPD2    H313303   1.552   3.348   9.397  0.6726 -2.4358 -1.2604
  908MPD2     N13304   1.167   3.410   9.622  0.2730  0.2523  0.6858
  908MPD2    H513305   1.076   3.374   9.650  0.7093 -0.7197  0.8659
  908MPD2    N113306   1.283   2.975   9.448 -0.1120  0.5024  0.0383
  908MPD2    H713307   1.190   2.951   9.481  0.5396 -2.1205 -0.0664
  909MPD2     C13308   0.671   1.699  11.819 -0.8938  0.2020  0.2182
  909MPD2    C113309   0.730   1.826  11.811  0.2879  0.2361  0.5618
  909MPD2    C213310   0.680   1.927  11.887 -0.0865  0.3375  0.8599
  909MPD2    C313311   0.572   1.904  11.970 -0.2956  0.7849 -0.3215
  909MPD2    C413312   0.512   1.782  11.976 -0.1091  0.4201  0.1327
  909MPD2    C513313   0.554   1.680  11.893 -0.6350  0.2866  0.5326
  909MPD2     H13314   0.737   2.020  11.888  1.6287 -0.7082 -0.5911
  909MPD2    H113315   0.423   1.751  12.030 -1.4087  1.0167 -1.6783
  909MPD2    H213316   0.695   1.612  11.758  1.4529  1.5796 -0.8147
  909MPD2    H313317   0.489   1.593  11.890  0.7346 -0.7887  1.8962
  909MPD2     N13318   0.526   2.017  12.033 -0.4222  0.6012  0.6135
  909MPD2    H513319   0.579   2.102  12.017  1.0468 -0.0144  2.2999
  909MPD2    N113320   0.840   1.849  11.727 -0.4257  0.0734  0.2316
  909MPD2    H713321   0.868   1.946  11.730  2.6345 -0.7957  0.0953
  910MPD2     C13322   1.958   3.325  15.836  0.1622  0.6144  0.4881
  910MPD2    C113323   2.023   3.288  15.718 -0.5403 -0.1016  0.8444
  910MPD2    C213324   1.987   3.354  15.601  0.6130  0.2432  0.0508
  910MPD2    C313325   1.886   3.448  15.600  0.3087  0.1795  0.2580
  910MPD2    C413326   1.811   3.478  15.711 -0.1209 -0.3787  0.1708
  910MPD2    C513327   1.855   3.413  15.826  0.0311  0.1959  0.0725
  910MPD2     H13328   2.046   3.333  15.512  0.9668 -0.6048  0.4855
  910MPD2    H113329   1.721   3.536  15.725  0.7240  0.6525  1.2991
  910MPD2    H213330   1.964   3.275  15.931 -1.1846 -1.9736 -0.7959
  910MPD2    H313331   1.810   3.425  15.924 -1.6180  1.4883 -0.8527
  910MPD2     N13332   1.846   3.519  15.487 -0.2253  0.2714  0.0002
  910MPD2    H513333   1.763   3.577  15.490 -0.6613 -0.2729 -1.4404
  910MPD2    N113334   2.121   3.185  15.731 -0.3131  0.1547 -0.4963
  910MPD2    H713335   2.135   3.148  15.825 -2.3911 -0.3747 -0.3942
  911MPD2     C13336   0.100   4.380  16.819  0.1345 -0.3891  0.1937
  911MPD2    C113337   0.175   4.409  16.707  0.5459  0.3241 -0.0743
  911MPD2    C213338   0.111   4.447  16.590 -0.5596 -0.5085 -0.2672
  911MPD2    C313339   4.692   4.458  16.583  0.5167 -0.0407  0.3034
  911MPD2    C413340   4.626   4.430  16.698 -0.2132 -0.0858 -0.5018
  911MPD2    C513341   4.685   4.389  16.810  0.3555 -0.0428 -0.3609
  911MPD2     H13342   0.170   4.458  16.499 -0.0106  0.8181  0.2536
  911MPD2    H113343   4.518   4.434  16.707  0.0114 -0.7466  2.4750
  911MPD2    H213344   0.160   4.348  16.904 -2.9558 -2.5455  1.5805
  911MPD2    H313345   4.628   4.362  16.898 -2.2062 -0.8033 -2.2643
  911MPD2     N13346   4.612   4.478  16.471  0.7633  0.5574 -0.3559
  911MPD2    H513347   4.511   4.469  16.478  1.0319 -0.7601  1.8540
  911MPD2    N113348   0.315   4.369  16.708 -0.2638  0.7224 -0.5769
  911MPD2    H713349   0.338   4.321  16.794 -1.3123 -0.0540 -0.7327
  912MPD2     C13350   4.382   3.990  15.886 -0.5271 -0.2781 -0.2675
  912MPD2    C113351   4.366   4.038  16.016 -0.4188  0.0252  0.3314
  912MPD2    C213352   4.344   3.942  16.117 -0.6065 -0.4457  0.4506
  912MPD2    C313353   4.338   3.808  16.088 -0.1809 -0.6545  0.0856
  912MPD2    C413354   4.337   3.762  15.961  0.4034  0.1932 -0.1458
  912MPD2    C513355   4.368   3.851  15.861 -0.3162 -0.6075 -0.3316
  912MPD2     H13356   4.328   3.976  16.219  1.4055  1.4788  0.1386
  912MPD2    H113357   4.319   3.658  15.934  1.8445 -0.2933  0.7122
  912MPD2    H213358   4.402   4.057  15.803  0.3260  0.6135  0.6543
  912MPD2    H313359   4.383   3.820  15.758 -5.1828 -3.0577 -0.3012
  912MPD2     N13360   4.332   3.725  16.202 -0.2762 -0.1795  0.2157
  912MPD2    H513361   4.335   3.775  16.290 -2.8013 -0.8029  0.6654
  912MPD2    N113362   4.361   4.176  16.037  0.2523 -0.5602  0.4841
  912MPD2    H713363   4.397   4.226  15.956  0.8866 -1.5764  0.1381
  913MPD2     C13364   1.334   0.066  10.364  0.6461  0.6525 -0.5049
  913MPD2    C113365   1.325   0.017  10.491  0.5112  0.0614 -0.0368
  913MPD2    C213366   1.224   4.650  10.524 -0.2619 -0.4266  0.2163
  913MPD2    C313367   1.123   4.615  10.430  0.3703  0.3288 -0.3076
  913MPD2    C413368   1.137   4.676  10.305 -0.2354  0.5047  0.3386
  913MPD2    C513369   1.232   0.041  10.277  0.5282  0.7423 -0.6682
  913MPD2     H13370   1.218   4.596  10.618 -0.2022 -1.4163 -0.3546
  913MPD2    H113371   1.076   4.650  10.219 -1.1112 -1.0698  1.4427
  913MPD2    H213372   1.410   0.133  10.327  0.9027  0.1805 -0.8276
  913MPD2    H313373   1.236   0.092  10.182 -0.5940  0.2178 -0.9996
  913MPD2     N13374   1.025   4.519  10.449 -0.4313  0.3010  0.4361
  913MPD2    H513375   0.964   4.506  10.369  3.4311 -1.5642 -2.2034
  913MPD2    N113376   1.431   0.052  10.574  0.3235 -0.2804 -0.0044
  913MPD2    H713377   1.495   0.119  10.531  0.4306 -0.1142  0.4128
  914MPD2     C13378   3.071   0.841  11.941  0.4233  0.1170 -0.7312
  914MPD2    C113379   3.141   0.945  11.999  0.2199 -0.0036 -0.6840
  914MPD2    C213380   3.174   0.941  12.134 -0.6859 -0.2953 -0.1329
  914MPD2    C313381   3.146   0.826  12.215 -0.3285 -0.1573  1.0196
  914MPD2    C413382   3.068   0.730  12.155 -0.0793 -0.3721 -0.2638
  914MPD2    C513383   3.031   0.743  12.025 -0.2042  0.1337 -0.2752
  914MPD2     H13384   3.217   1.028  12.183  0.1079 -1.2613  0.8905
  914MPD2    H113385   3.023   0.649  12.212  1.8878 -2.0781 -1.1415
  914MPD2    H213386   3.043   0.834  11.837  2.2318 -0.2645 -1.1909
  914MPD2    H313387   2.986   0.659  11.974 -0.2966  1.1433 -1.8510
  914MPD2     N13388   3.198   0.828  12.344  1.3996  0.2280 -0.2335
  914MPD2    H513389   3.261   0.906  12.362  0.6681  0.5432  0.9485
  914MPD2    N113390   3.172   1.042  11.904 -0.7846 -0.3276  0.0369
  914MPD2    H713391   3.137   1.036  11.809 -1.8998 -0.1425  0.4348
  915MPD2     C13392   1.604   0.874  15.484  0.0355  0.7878  0.3132
  915MPD2    C113393   1.476   0.922  15.500  0.0129 -0.3680  0.4513
  915MPD2    C213394   1.440   0.966  15.625  0.6843  0.2489 -0.0240
  915MPD2    C313395   1.522   0.968  15.737 -0.4692 -0.4157 -1.3275
  915MPD2    C413396   1.651   0.911  15.721 -1.0851  0.3738 -0.4145
  915MPD2    C513397   1.689   0.866  15.596 -0.5013 -0.0407 -1.4086
  915MPD2     H13398   1.339   1.001  15.644  0.8296  0.5387  0.2119
  915MPD2    H113399   1.717   0.893  15.805 -3.7951 -0.4125  1.5411
  915MPD2    H213400   1.642   0.836  15.391  2.3116 -1.6689  2.2506
  915MPD2    H313401   1.789   0.827  15.592 -0.2757  0.2623  1.5232
  915MPD2     N13402   1.469   1.024  15.854  0.6113 -0.3137  0.1225
  915MPD2    H513403   1.383   1.076  15.848  0.7856 -0.0306  0.0836
  915MPD2    N113404   1.382   0.933  15.396 -0.4820 -0.3380 -0.1403
  915MPD2    H713405   1.288   0.956  15.428 -0.3307  1.8637 -1.2459
  916MPD2     C13406   4.239   4.077  15.435 -0.2532  0.3999 -0.5448
  916MPD2    C113407   4.181   3.987  15.516  0.3208  0.1601  0.2508
  916MPD2    C213408   4.170   3.858  15.473 -0.1108  0.6037  0.1854
  916MPD2    C313409   4.199   3.820  15.347 -0.3219 -0.2830 -0.3584
  916MPD2    C413410   4.247   3.913  15.260 -0.6686  0.4079  0.5501
  916MPD2    C513411   4.270   4.040  15.311 -0.0986  0.2616 -0.1266
  916MPD2     H13412   4.148   3.780  15.546 -3.8455  2.7002  1.3110
  916MPD2    H113413   4.274   3.897  15.156 -0.1745 -1.7851  1.0203
  916MPD2    H213414   4.248   4.181  15.466  1.9913  0.1642 -0.3669
  916MPD2    H313415   4.301   4.117  15.241 -0.2829  1.7487  1.4214
  916MPD2     N13416   4.188   3.683  15.322  0.9440 -0.2492 -0.6799
  916MPD2    H513417   4.154   3.626  15.400  0.3780  1.8786  0.6256
  916MPD2    N113418   4.147   4.031  15.647  0.6100 -0.4550  0.0923
  916MPD2    H713419   4.167   4.128  15.671 -2.1196  0.7152 -2.3000
  917MPD2     C13420   0.082   0.871  10.592 -0.1567 -0.3813 -0.6504
  917MPD2    C113421   0.116   0.970  10.686 -0.2104  0.4889 -0.2829
  917MPD2    C213422   0.165   1.089  10.643  0.1799  0.1346 -0.1165
  917MPD2    C313423   0.166   1.116  10.503  0.1282  0.3209  0.0250
  917MPD2    C413424   0.121   1.019  10.413 -0.0808 -0.0133  0.3106
  917MPD2    C513425   0.083   0.896  10.456 -0.5235 -0.1166 -0.2173
  917MPD2     H13426   0.198   1.169  10.708  0.2606 -1.4641  1.8244
  917MPD2    H113427   0.139   1.033  10.307 -0.0286 -1.6305  0.0976
  917MPD2    H213428   0.046   0.774  10.624 -0.6726  0.2607  0.7044
  917MPD2    H313429   0.052   0.822  10.383 -1.5478 -0.4881  0.5948
  917MPD2     N13430   0.215   1.240  10.459 -0.2741  0.3525 -0.3605
  917MPD2    H513431   0.262   1.294  10.531 -1.1954  2.8712 -1.6386
  917MPD2    N113432   0.091   0.944  10.817 -1.2850 -0.7258  0.2666
  917MPD2    H713433   0.047   0.854  10.833 -0.3580 -1.0758  0.8386
  918MPD2     C13434   0.373   1.300  11.703  0.0761 -0.1676  0.6608
  918MPD2    C113435   0.430   1.192  11.632 -1.2297  0.7810 -0.2122
  918MPD2    C213436   0.353   1.148  11.525  0.8179 -0.2706  0.6461
  918MPD2    C313437   0.234   1.204  11.494 -0.1120 -0.9133  0.0247
  918MPD2    C413438   0.188   1.323  11.554 -0.0914  0.4814 -0.2877
  918MPD2    C513439   0.258   1.365  11.667  0.2281  0.4918  0.3675
  918MPD2     H13440   0.388   1.057  11.476 -3.2525 -2.1201  1.1275
  918MPD2    H113441   0.103   1.378  11.515 -0.2469  0.0543 -0.5486
  918MPD2    H213442   0.428   1.330  11.791 -1.4500 -0.4756  1.7143
  918MPD2    H313443   0.226   1.451  11.723 -1.6220 -0.0091  0.0962
  918MPD2     N13444   0.174   1.155  11.381 -0.1426  0.3024 -0.1696
  918MPD2    H513445   0.233   1.096  11.322  0.1835  1.4393 -0.9725
  918MPD2    N113446   0.555   1.135  11.671 -1.1347  0.3150 -0.0043
  918MPD2    H713447   0.598   1.163  11.758  0.6473  0.3854 -0.9021
  919MPD2     C13448   0.494   4.659  10.452  0.2753  0.1460 -0.2247
  919MPD2    C113449   0.388   4.621  10.536  0.1408  0.6345  0.4600
  919MPD2    C213450   0.276   4.569  10.477 -0.5883  0.0099 -0.3054
  919MPD2    C313451   0.267   4.564  10.337 -0.5134 -0.2221 -0.8604
  919MPD2    C413452   0.375   4.611  10.260 -0.1690 -0.1281 -0.7060
  919MPD2    C513453   0.488   4.655  10.316  0.2260  0.3303  0.5304
  919MPD2     H13454   0.186   4.531  10.525  0.9926 -2.5051  0.6769
  919MPD2    H113455   0.364   4.621  10.152  0.8191  0.6015 -0.7314
  919MPD2    H213456   0.587   4.704  10.486  0.0964 -0.1141  0.6181
  919MPD2    H313457   0.573   4.669  10.250  1.0180  0.9285  1.6954
  919MPD2     N13458   0.152   4.547  10.256  0.3360 -0.1822 -0.1527
  919MPD2    H513459   0.168   4.570  10.159  2.9687  1.4469  0.6712
  919MPD2    N113460   0.394   4.641  10.684 -0.1970 -0.0776  0.2982
  919MPD2    H713461   0.316   4.607  10.741  0.1638 -0.7366  0.3905
  920MPD2     C13462   4.440   4.382   9.354 -0.2320  0.2984 -0.0085
  920MPD2    C113463   4.385   4.499   9.406 -0.4028 -0.1966  0.2890
  920MPD2    C213464   4.412   4.538   9.537 -0.3114 -0.4997 -0.1837
  920MPD2    C313465   4.497   4.461   9.612  0.7488 -0.2421 -0.1232
  920MPD2    C413466   4.541   4.340   9.566 -0.3002 -0.5525  0.2712
  920MPD2    C513467   4.518   4.310   9.433 -0.0914  0.5869  1.1523
  920MPD2     H13468   4.370   4.631   9.575 -0.5082 -1.1061  1.0840
  920MPD2    H113469   4.613   4.277   9.617 -0.2514 -0.1126  0.7423
  920MPD2    H213470   4.429   4.340   9.255 -0.5472  1.0096 -0.2740
  920MPD2    H313471   4.550   4.216   9.391 -2.1431  0.1266  0.6048
  920MPD2     N13472   4.526   4.517   9.743  0.1951 -0.3900 -0.2290
  920MPD2    H513473   4.476   4.603   9.765 -1.7820 -1.8707  1.0894
  920MPD2    N113474   4.305   4.588   9.330 -0.0142  0.3372 -0.4044
  920MPD2    H713475   4.271   4.672   9.377  2.0883  0.4503  0.8910
  921MPD2     C13476   1.248   4.202  17.035  0.3136  0.0238 -0.2978
  921MPD2    C113477   1.235   4.228  16.906  0.7515 -0.4498  0.3097
  921MPD2    C213478   1.112   4.215  16.847  0.0489 -0.2537 -0.7043
  921MPD2    C313479   0.995   4.201  16.917  0.1650 -0.3062  0.0562
  921MPD2    C413480   1.001   4.190  17.048 -0.1332  0.2253 -0.4550
  921MPD2    C513481   1.127   4.187  17.107  0.0274 -0.5605 -0.2606
  921MPD2     H13482   1.108   4.232  16.740 -1.6554  2.8229 -0.1245
  921MPD2    H113483   0.915   4.176  17.114 -0.9362  2.3088 -1.0512
  921MPD2    H213484   1.345   4.210  17.083 -0.3462 -0.2174  1.0611
  921MPD2    H313485   1.116   4.188  17.215 -1.5838 -0.7040 -0.4249
  921MPD2     N13486   0.877   4.207  16.830  0.0632 -0.2810  0.2308
  921MPD2    H513487   0.894   4.226  16.732 -1.8977 -1.5915 -0.3575
  921MPD2    N113488   1.354   4.259  16.835  0.1629  0.1540  0.1716
  921MPD2    H713489   1.444   4.255  16.881 -0.7966  1.8429  2.1895
  922MPD2     C13490   2.233   2.597  16.829  0.1050  0.1806  0.9421
  922MPD2    C113491   2.290   2.526  16.939  0.3180 -0.2414  0.4741
  922MPD2    C213492   2.355   2.406  16.917 -0.2061 -0.1457 -0.4533
  922MPD2    C313493   2.373   2.354  16.792 -0.2590 -0.2697  0.0748
  922MPD2    C413494   2.314   2.423  16.685 -0.6537 -0.0485  0.0918
  922MPD2    C513495   2.245   2.536  16.702  0.0483  0.1235 -0.7025
  922MPD2     H13496   2.394   2.359  17.007  2.2119 -1.0732 -1.9860
  922MPD2    H113497   2.327   2.386  16.584  1.3421 -1.7343  0.9504
  922MPD2    H213498   2.195   2.698  16.838  0.3255  0.1985  1.6350
  922MPD2    H313499   2.220   2.592  16.612 -0.4184 -0.4733 -0.9492
  922MPD2     N13500   2.460   2.239  16.774 -0.6034  0.5688  0.6278
  922MPD2    H513501   2.488   2.182  16.853 -0.4140  2.6361  2.0584
  922MPD2    N113502   2.299   2.578  17.064 -0.1742 -0.1284  0.8560
  922MPD2    H713503   2.324   2.508  17.134  0.3126 -0.3230  0.4857
  923MPD2     C13504   3.918   2.821   8.926 -0.0661  0.1945  0.4366
  923MPD2    C113505   3.837   2.904   9.006 -0.2145 -0.2299 -0.2371
  923MPD2    C213506   3.812   2.868   9.133  0.9651 -0.1816  0.3852
  923MPD2    C313507   3.849   2.754   9.188  0.1959  0.3622  0.7072
  923MPD2    C413508   3.933   2.675   9.122  0.2688  0.5837  0.7013
  923MPD2    C513509   3.959   2.706   8.992  0.5940 -0.2193  0.4426
  923MPD2     H13510   3.746   2.934   9.186 -0.0222 -0.5976 -0.3284
  923MPD2    H113511   3.982   2.585   9.157  0.6539  0.2889 -0.6233
  923MPD2    H213512   3.941   2.854   8.826  1.7276 -1.1072  0.4205
  923MPD2    H313513   4.022   2.640   8.933  1.0592  0.3674  0.2904
  923MPD2     N13514   3.817   2.724   9.325  0.0465 -0.6023  0.1127
  923MPD2    H513515   3.855   2.636   9.356  0.9768 -0.4279 -0.5431
  923MPD2    N113516   3.787   3.026   8.962  0.1634  0.0963 -0.4089
  923MPD2    H713517   3.722   3.065   9.029 -0.3345  0.4851 -1.1195
  924MPD2     C13518   3.498   2.300  15.292 -0.3025  0.5942  0.3552
  924MPD2    C113519   3.509   2.349  15.421 -0.2161 -0.0631 -0.2535
  924MPD2    C213520   3.588   2.465  15.442  0.2780 -0.0819  0.5933
  924MPD2    C313521   3.647   2.527  15.329 -0.2071 -0.2193 -0.6096
  924MPD2    C413522   3.633   2.475  15.207  0.4199  0.2347 -0.6790
  924MPD2    C513523   3.558   2.366  15.189  0.5183 -0.4241 -0.8023
  924MPD2     H13524   3.604   2.508  15.540  3.4925  1.9409 -0.8094
  924MPD2    H113525   3.668   2.529  15.119  0.2177 -0.3541 -1.1183
  924MPD2    H213526   3.430   2.219  15.267 -0.7701  1.1821 -0.2951
  924MPD2    H313527   3.551   2.325  15.089  0.2050 -1.2676 -0.4343
  924MPD2     N13528   3.706   2.652  15.352 -0.0072 -0.3161  0.4181
  924MPD2    H513529   3.714   2.673  15.451 -0.8757 -1.1942  0.6783
  924MPD2    N113530   3.447   2.269  15.527  0.0051 -0.3357 -0.1153
  924MPD2    H713531   3.396   2.188  15.493 -0.0887 -0.7695  1.0587
  925MPD2     C13532   2.569   4.596  14.654 -0.0658  0.3952  0.5775
  925MPD2    C113533   2.433   4.612  14.624  0.0670 -0.0503  0.0820
  925MPD2    C213534   2.338   4.570  14.713  0.4820  0.7857  0.6193
  925MPD2    C313535   2.375   4.497  14.827 -0.7506 -0.3870  0.4414
  925MPD2    C413536   2.505   4.482  14.851  0.1056  0.1727 -0.4915
  925MPD2    C513537   2.601   4.533  14.767  0.5803  0.3215  0.0847
  925MPD2     H13538   2.235   4.579  14.682  0.6597 -0.6255 -0.4055
  925MPD2    H113539   2.537   4.421  14.935 -1.2324 -0.9726 -0.7939
  925MPD2    H213540   2.643   4.635  14.586  0.0905 -0.7517  0.0960
  925MPD2    H313541   2.704   4.503  14.779 -0.3485 -2.6299  0.6924
  925MPD2     N13542   2.282   4.450  14.920 -0.3726  0.4922  0.5191
  925MPD2    H513543   2.325   4.402  14.998 -0.6155  0.1728  0.4530
  925MPD2    N113544   2.386   4.669  14.506  0.1616 -0.2550  0.6014
  925MPD2    H713545   2.286   4.673  14.493  0.6745  3.9427 -2.3285
  926MPD2     C13546   0.537   3.110  13.763 -0.2844 -0.5167  0.2584
  926MPD2    C113547   0.479   3.182  13.658  0.0991  0.1030  0.2486
  926MPD2    C213548   0.540   3.182  13.536 -0.3171  0.3474  0.4104
  926MPD2    C313549   0.672   3.138  13.529 -0.0519 -0.3926 -0.0157
  926MPD2    C413550   0.726   3.070  13.635 -0.3964 -0.2465 -0.4268
  926MPD2    C513551   0.653   3.043  13.750 -1.1534 -0.6872  0.2301
  926MPD2     H13552   0.489   3.220  13.448 -0.3202  2.1999  1.2215
  926MPD2    H113553   0.831   3.042  13.635 -0.5235 -0.7485 -5.1711
  926MPD2    H213554   0.494   3.092  13.861  1.5430  1.3201  1.3903
  926MPD2    H313555   0.700   2.985  13.829  0.4526  1.7945  1.1027
  926MPD2     N13556   0.756   3.154  13.416  0.2587  0.0079  0.2740
  926MPD2    H513557   0.849   3.113  13.419 -0.5662 -1.9738 -1.1592
  926MPD2    N113558   0.351   3.237  13.661 -0.0039  0.5462  0.4887
  926MPD2    H713559   0.327   3.284  13.574  0.2795 -1.2966 -0.5859
  927MPD2     C13560   1.277   0.626   0.531 -0.8497  0.1649 -0.1128
  927MPD2    C113561   1.166   0.685   0.461 -0.0307  0.5680  0.2335
  927MPD2    C213562   1.162   0.672   0.322 -0.6499  0.7194  0.0302
  927MPD2    C313563   1.260   0.597   0.251  0.6109 -0.1344 -0.0257
  927MPD2    C413564   1.363   0.541   0.322  0.3150  0.1847  0.0139
  927MPD2    C513565   1.369   0.554   0.460 -0.2937  0.1059 -0.5615
  927MPD2     H13566   1.072   0.713   0.277 -0.3551  0.1162 -1.1147
  927MPD2    H113567   1.442   0.485   0.272 -1.4370 -1.2730 -1.1501
  927MPD2    H213568   1.275   0.625   0.639 -2.2512  2.6937 -0.0993
  927MPD2    H313569   1.441   0.500   0.519 -0.0461  0.5571 -0.4521
  927MPD2     N13570   1.236   0.582   0.116 -0.2264  0.0028  0.8902
  927MPD2    H513571   1.182   0.655   0.070  0.0243 -0.6133 -0.4067
  927MPD2    N113572   1.062   0.742   0.535  0.0582 -0.1286 -0.3952
  927MPD2    H713573   1.082   0.741   0.635 -1.6174  0.8620 -0.0542
  928MPD2     C13574   3.681   3.666   1.415 -0.1845  0.4327 -0.1346
  928MPD2    C113575   3.804   3.727   1.394 -0.2494 -0.3686 -0.1644
  928MPD2    C213576   3.847   3.751   1.268 -0.0981  0.2454  1.0845
  928MPD2    C313577   3.764   3.732   1.158 -0.9700 -0.3390 -0.0628
  928MPD2    C413578   3.643   3.675   1.186  0.4591 -0.0580 -0.4301
  928MPD2    C513579   3.601   3.636   1.308 -0.1536  0.1232 -0.4837
  928MPD2     H13580   3.948   3.788   1.261 -0.2697  0.4155 -0.4339
  928MPD2    H113581   3.573   3.667   1.104 -0.0546 -0.0808  0.0140
  928MPD2    H213582   3.653   3.630   1.513 -0.8880  2.6634  0.4740
  928MPD2    H313583   3.509   3.582   1.325 -0.7590  1.5517  0.8195
  928MPD2     N13584   3.781   3.781   1.027 -0.0821  0.2336 -0.0288
  928MPD2    H513585   3.709   3.773   0.955  0.5892  0.8224 -0.7646
  928MPD2    N113586   3.901   3.756   1.491  0.0287 -0.1118 -0.5062
  928MPD2    H713587   3.989   3.791   1.454  0.7604  0.4460  1.7787
  929MPD2     C13588   3.402   3.508  10.658 -0.6650 -0.2310 -0.1241
  929MPD2    C113589   3.314   3.411  10.683  1.3753  0.4118  0.1671
  929MPD2    C213590   3.287   3.316  10.585 -0.1244  0.4906 -0.3016
  929MPD2    C313591   3.330   3.345  10.456 -0.1558 -0.1534  0.1847
  929MPD2    C413592   3.424   3.443  10.435  0.2682 -0.0703 -0.3557
  929MPD2    C513593   3.464   3.515  10.538 -0.1613  0.6200  0.0834
  929MPD2     H13594   3.213   3.239  10.601  2.0259 -1.7460 -1.0903
  929MPD2    H113595   3.470   3.465  10.339 -0.3740  2.9661  0.0365
  929MPD2    H213596   3.435   3.580  10.732 -0.2024 -0.8058  0.2296
  929MPD2    H313597   3.538   3.592  10.519  0.7764  0.2068  2.1012
  929MPD2     N13598   3.275   3.275  10.335  0.2333  0.3508 -0.2280
  929MPD2    H513599   3.306   3.319  10.249 -0.3088  0.1560 -0.5193
  929MPD2    N113600   3.256   3.412  10.812 -0.3427  0.4997 -0.1108
  929MPD2    H713601   3.288   3.484  10.876 -0.1949 -0.1332  0.5225
  930MPD2     C13602   0.601   0.997  13.730  0.0008  0.6634 -0.8777
  930MPD2    C113603   0.565   1.083  13.627 -0.1833 -0.3112 -0.0096
  930MPD2    C213604   0.522   1.027  13.508 -0.7604 -0.3172 -0.3704
  930MPD2    C313605   0.498   0.891  13.489 -0.0247  0.2690  0.3044
  930MPD2    C413606   0.533   0.806  13.592  1.1013  0.1483 -0.0999
  930MPD2    C513607   0.582   0.859  13.709  0.0491  0.2458 -0.3708
  930MPD2     H13608   0.501   1.101  13.431  0.3689  0.7905  0.3628
  930MPD2    H113609   0.522   0.699  13.579  0.6813  0.3519 -1.4526
  930MPD2    H213610   0.655   1.031  13.817 -1.2951  2.8188 -0.9063
  930MPD2    H313611   0.592   0.786  13.789  0.7307  0.0572 -0.6252
  930MPD2     N13612   0.438   0.836  13.375  0.7326 -0.2483  0.4284
  930MPD2    H513613   0.439   0.735  13.364  1.0186 -0.1369 -0.5923
  930MPD2    N113614   0.587   1.222  13.638 -0.1513  0.6809 -0.4515
  930MPD2    H713615   0.567   1.266  13.548 -1.5337  2.9935  0.9928
  931MPD2     C13616   0.988   0.575   1.174  0.4503  0.4422 -0.2574
  931MPD2    C113617   0.864   0.595   1.120  0.5716  0.3160  0.0068
  931MPD2    C213618   0.753   0.533   1.180 -0.0733 -0.1714 -0.1329
  931MPD2    C313619   0.766   0.440   1.284  0.3011  1.4787  0.3232
  931MPD2    C413620   0.896   0.412   1.326  0.4246  0.8821  0.3035
  931MPD2    C513621   1.001   0.477   1.268  0.1539  0.3089  0.0319
  931MPD2     H13622   0.654   0.538   1.136 -0.0771 -1.0509 -0.2311
  931MPD2    H113623   0.917   0.343   1.406 -0.7697 -0.7556 -0.7933
  931MPD2    H213624   1.084   0.612   1.141 -0.4231  1.5850 -1.5204
  931MPD2    H313625   1.099   0.467   1.312 -0.1742 -0.8997  0.4898
  931MPD2     N13626   0.669   0.373   1.348 -0.0912  0.6233 -0.6548
  931MPD2    H513627   0.707   0.292   1.398 -0.4216  0.7734 -0.1645
  931MPD2    N113628   0.858   0.665   0.993  0.5453 -0.8171  0.0253
  931MPD2    H713629   0.941   0.688   0.940  0.9768 -3.5134 -0.4742
  932MPD2     C13630   1.733   4.067  10.975 -0.1043 -0.9909  0.9190
  932MPD2    C113631   1.838   4.114  11.052 -0.3207  0.9499  0.3898
  932MPD2    C213632   1.850   4.077  11.184  0.4232  0.5315  0.3859
  932MPD2    C313633   1.744   4.000  11.245  0.3065 -0.3092 -0.5078
  932MPD2    C413634   1.646   3.949  11.169 -0.3088  0.1213 -0.9601
  932MPD2    C513635   1.641   3.988  11.042  0.7886  0.4051 -0.0896
  932MPD2     H13636   1.927   4.125  11.243  0.0419  2.8328 -0.9852
  932MPD2    H113637   1.563   3.889  11.205 -0.2418  1.0342  0.7216
  932MPD2    H213638   1.716   4.101  10.873  0.6949  2.1643  1.8399
  932MPD2    H313639   1.552   3.948  10.996  0.5498  0.1841  0.5722
  932MPD2     N13640   1.731   3.974  11.383  0.2419 -1.0402 -0.3140
  932MPD2    H513641   1.653   3.923  11.424 -0.9128 -0.1003 -1.3534
  932MPD2    N113642   1.935   4.198  11.003  0.5379  0.3319  0.1300
  932MPD2    H713643   2.001   4.231  11.072  1.8540  0.7978 -1.3772
  933MPD2     C13644   4.343   4.070   2.258  1.0118  0.5607  0.4760
  933MPD2    C113645   4.224   4.082   2.185 -0.3086  0.0018  0.3069
  933MPD2    C213646   4.154   4.198   2.204 -0.4589  0.0398  0.1486
  933MPD2    C313647   4.187   4.298   2.287 -0.2614  0.3211  0.8702
  933MPD2    C413648   4.302   4.289   2.359 -0.2603 -0.7293  0.0975
  933MPD2    C513649   4.373   4.170   2.343  0.4822  0.0327  0.2038
  933MPD2     H13650   4.066   4.226   2.148  0.6585  1.4600 -0.9058
  933MPD2    H113651   4.349   4.367   2.418  1.0812  0.6152 -2.7684
  933MPD2    H213652   4.383   3.969   2.263  0.1393  0.3208  2.7935
  933MPD2    H313653   4.463   4.153   2.402  0.5748 -1.4118 -0.3667
  933MPD2     N13654   4.106   4.416   2.294 -0.2727  0.2230  0.1102
  933MPD2    H513655   4.023   4.410   2.235 -0.2057 -0.2088  0.0605
  933MPD2    N113656   4.191   3.980   2.095  0.1024  0.5104  0.0159
  933MPD2    H713657   4.234   3.888   2.099  1.2872  1.0791  0.5175
  934MPD2     C13658   3.859   1.191   2.178  0.2687  0.1162  0.1890
  934MPD2    C113659   3.951   1.112   2.109 -0.0910  0.4958 -0.2316
  934MPD2    C213660   3.922   1.041   1.995 -0.3819 -0.1714 -0.0504
  934MPD2    C313661   3.793   1.057   1.940 -0.1885 -0.2144 -0.1596
  934MPD2    C413662   3.705   1.139   2.001  0.0198  0.3697 -0.0906
  934MPD2    C513663   3.741   1.208   2.118  0.7575  0.2720 -0.3962
  934MPD2     H13664   3.991   0.985   1.933 -0.8071 -1.0456  0.2715
  934MPD2    H113665   3.611   1.161   1.951  0.2557  2.7741  0.5114
  934MPD2    H213666   3.875   1.238   2.274 -0.4746 -0.3203  0.5287
  934MPD2    H313667   3.664   1.268   2.167  0.7535  0.2067 -0.3224
  934MPD2     N13668   3.750   0.989   1.820  0.0129 -0.2375 -0.0483
  934MPD2    H513669   3.664   1.017   1.775  0.3093  1.3901  0.4075
  934MPD2    N113670   4.078   1.082   2.153 -0.1199 -0.8518 -0.0280
  934MPD2    H713671   4.138   1.013   2.108  1.2201 -0.2352  0.8416
  935MPD2     C13672   4.207   0.277   1.266 -0.3077 -0.6728  0.8762
  935MPD2    C113673   4.085   0.281   1.210 -0.0991  0.5722  0.3112
  935MPD2    C213674   3.993   0.366   1.262  0.9130  0.2487 -0.2937
  935MPD2    C313675   4.017   0.439   1.378 -0.3493 -0.2068  0.2154
  935MPD2    C413676   4.143   0.437   1.430 -0.2509  0.5366  0.0404
  935MPD2    C513677   4.239   0.362   1.369 -0.5861 -0.4299  0.0384
  935MPD2     H13678   3.890   0.350   1.232  1.0318  1.0764 -1.1577
  935MPD2    H113679   4.159   0.492   1.521  0.3957 -2.2516  1.6195
  935MPD2    H213680   4.288   0.209   1.240  0.6742  0.7734  0.1673
  935MPD2    H313681   4.344   0.365   1.398 -1.2065 -1.0202  2.3921
  935MPD2     N13682   3.928   0.526   1.449  0.4794  0.3022  0.3318
  935MPD2    H513683   3.969   0.584   1.522 -2.5098  0.8755  1.5738
  935MPD2    N113684   4.050   0.203   1.100  0.0221  0.8233  0.3420
  935MPD2    H713685   3.954   0.214   1.067 -0.2997  3.1793  2.0410
  936MPD2     C13686   2.012   3.350  12.291  0.0284 -0.1115  0.0596
  936MPD2    C113687   2.074   3.301  12.400  0.4879  0.1655 -0.6025
  936MPD2    C213688   2.168   3.382  12.462  0.2040 -0.5177 -0.0969
  936MPD2    C313689   2.210   3.500  12.408 -0.0258  0.9322  0.2006
  936MPD2    C413690   2.156   3.544  12.289  0.5322 -0.1854 -0.4039
  936MPD2    C513691   2.060   3.469  12.233 -0.9021  0.1635  0.3868
  936MPD2     H13692   2.209   3.356  12.559  1.4131 -2.7197 -1.1972
  936MPD2    H113693   2.191   3.633  12.238  1.7618 -1.0928 -1.1305
  936MPD2    H213694   1.928   3.306  12.239  1.1280 -1.4209 -0.6104
  936MPD2    H313695   2.018   3.505  12.139  3.6296  3.4714 -0.4071
  936MPD2     N13696   2.312   3.573  12.474  0.2108  0.3671  0.5980
  936MPD2    H513697   2.336   3.521  12.557 -0.4785 -0.4193  0.3052
  936MPD2    N113698   2.037   3.180  12.459  0.2331 -0.9907 -0.4434
  936MPD2    H713699   2.079   3.159  12.549  2.9305  1.3116 -1.1577
  937MPD2     C13700   0.895   4.218  11.132 -0.1640  0.2008  0.3817
  937MPD2    C113701   0.903   4.328  11.054 -0.7460 -0.0879  0.0436
  937MPD2    C213702   1.003   4.329  10.955 -0.2240 -0.1327  0.3480
  937MPD2    C313703   1.099   4.229  10.938  0.3160  0.2139  0.0473
  937MPD2    C413704   1.100   4.128  11.035 -0.6241 -0.2864  0.1495
  937MPD2    C513705   1.002   4.124  11.130 -0.0757  0.7378 -0.0983
  937MPD2     H13706   1.004   4.411  10.884  0.1556 -0.4296  0.0106
  937MPD2    H113707   1.178   4.053  11.045  1.0724  1.4987  0.3299
  937MPD2    H213708   0.830   4.218  11.218  0.2743  2.1249  0.7128
  937MPD2    H313709   1.006   4.046  11.205 -1.3518 -0.3225 -1.1371
  937MPD2     N13710   1.196   4.256  10.845 -0.5500 -0.4377  0.6647
  937MPD2    H513711   1.161   4.320  10.774 -1.0092 -0.6657  0.6826
  937MPD2    N113712   0.802   4.424  11.049 -0.7679  0.3346 -0.1081
  937MPD2    H713713   0.828   4.505  10.993  2.8649 -0.7019  0.0863
  938MPD2     C13714   3.333   0.344   1.148  0.4651 -0.1418  0.2200
  938MPD2    C113715   3.257   0.456   1.162 -0.2662 -0.3680 -0.1526
  938MPD2    C213716   3.132   0.447   1.218 -0.1683 -0.1119 -0.6476
  938MPD2    C313717   3.070   0.326   1.248 -0.0227 -0.2493  0.6168
  938MPD2    C413718   3.153   0.211   1.240 -0.0597 -0.3464  0.0147
  938MPD2    C513719   3.283   0.222   1.201  0.2403 -1.0335  0.3903
  938MPD2     H13720   3.086   0.542   1.241  0.2519 -0.6668  2.4976
  938MPD2    H113721   3.117   0.109   1.253  0.8459 -0.5231  1.1369
  938MPD2    H213722   3.436   0.340   1.114 -0.3238 -1.0945 -2.0828
  938MPD2    H313723   3.341   0.132   1.181  0.3572 -0.6499 -1.0174
  938MPD2     N13724   2.939   0.316   1.299 -0.1139  1.0840  0.4339
  938MPD2    H513725   2.911   0.228   1.341 -0.4254  0.7319 -0.5172
  938MPD2    N113726   3.311   0.583   1.126  0.1148 -0.2280  0.3508
  938MPD2    H713727   3.267   0.665   1.168  0.4730  0.7743 -1.2043
  939MPD2     C13728   0.478   2.433   0.355  0.7448  0.1919 -0.9475
  939MPD2    C113729   0.381   2.340   0.397 -0.0405  0.2420  0.6617
  939MPD2    C213730   0.406   2.209   0.367  0.6357 -0.4729 -0.0848
  939MPD2    C313731   0.515   2.167   0.296 -0.1790 -0.3698 -0.4506
  939MPD2    C413732   0.606   2.256   0.253 -0.3824  0.8401  0.3028
  939MPD2    C513733   0.586   2.386   0.284 -0.2042 -0.3775 -0.2189
  939MPD2     H13734   0.339   2.136   0.412  0.4275 -0.3971 -0.2775
  939MPD2    H113735   0.689   2.232   0.187 -0.9097  0.2826 -0.1594
  939MPD2    H213736   0.479   2.540   0.374  0.3665  0.3675 -1.9003
  939MPD2    H313737   0.664   2.455   0.251 -1.7956  1.0221 -1.0688
  939MPD2     N13738   0.531   2.027   0.281 -0.3984 -0.0787  0.5852
  939MPD2    H513739   0.469   1.976   0.343 -1.8924  0.8733 -0.1114
  939MPD2    N113740   0.264   2.383   0.462 -0.3069  0.2670  0.2403
  939MPD2    H713741   0.256   2.484   0.472 -2.1872  0.0947  0.3880
  940MPD2     C13742   2.570   2.889  13.070  0.8527  0.3282  0.8036
  940MPD2    C113743   2.709   2.931  13.077  0.5177 -0.6776  0.5762
  940MPD2    C213744   2.758   3.016  12.981  0.3588  0.1950  0.4001
  940MPD2    C313745   2.672   3.056  12.881  0.3175  0.5433 -0.3606
  940MPD2    C413746   2.537   3.023  12.882 -0.4117  0.2228 -0.0882
  940MPD2    C513747   2.488   2.936  12.975  0.4437  0.3020  0.2085
  940MPD2     H13748   2.865   3.028  12.991  0.6637 -1.0856 -1.3129
  940MPD2    H113749   2.467   3.048  12.803  0.7385 -0.9676 -1.5000
  940MPD2    H213750   2.530   2.811  13.133  0.4802  0.1963  0.4068
  940MPD2    H313751   2.383   2.909  12.976  0.8261 -1.0622  2.5649
  940MPD2     N13752   2.712   3.128  12.769  0.3614 -0.1136  0.2084
  940MPD2    H513753   2.634   3.163  12.713 -0.6750 -0.3723  1.4888
  940MPD2    N113754   2.811   2.879  13.166 -0.3305  0.0670  0.2973
  940MPD2    H713755   2.899   2.928  13.178 -0.2249  0.1454 -0.8193
  941MPD2     C13756   3.169   1.647   9.657  0.3840  0.3391  0.0228
  941MPD2    C113757   3.102   1.725   9.744 -0.3768  0.4050 -0.4843
  941MPD2    C213758   2.971   1.709   9.773 -0.1193 -0.2310 -0.0248
  941MPD2    C313759   2.906   1.609   9.700  0.5353 -0.8069 -0.8186
  941MPD2    C413760   2.968   1.525   9.620  0.2243 -0.2677 -0.5628
  941MPD2    C513761   3.105   1.543   9.593 -0.4303  0.2136  0.1703
  941MPD2     H13762   2.915   1.778   9.835 -1.8678 -1.2074 -0.4959
  941MPD2    H113763   2.916   1.440   9.578 -0.5166  0.8730 -1.9254
  941MPD2    H213764   3.276   1.648   9.640  0.3140  2.0542 -0.3047
  941MPD2    H313765   3.159   1.480   9.523 -1.1548  1.2462 -1.3434
  941MPD2     N13766   2.770   1.581   9.717 -0.3566  0.2600  0.9956
  941MPD2    H513767   2.739   1.513   9.648 -2.3082  1.6902  0.4510
  941MPD2    N113768   3.173   1.824   9.817  0.9534 -0.0891 -0.1160
  941MPD2    H713769   3.115   1.866   9.889  0.7687 -0.2383 -0.1775
  942MPD2     C13770   1.653   3.613   9.103 -0.8471  0.2634  0.3995
  942MPD2    C113771   1.633   3.480   9.110  0.2430 -0.2874 -0.0099
  942MPD2    C213772   1.738   3.394   9.119  0.5204 -0.1846  0.5438
  942MPD2    C313773   1.862   3.444   9.140 -0.4074 -0.4269 -0.1753
  942MPD2    C413774   1.887   3.578   9.122  0.2996 -0.0759  0.1681
  942MPD2    C513775   1.780   3.659   9.114  0.0980 -0.4024 -0.5201
  942MPD2     H13776   1.722   3.287   9.116  2.3689 -0.4846  1.4358
  942MPD2    H113777   1.988   3.618   9.130  0.9790 -1.7708  0.2044
  942MPD2    H213778   1.577   3.684   9.072  0.1929  1.8179  1.4441
  942MPD2    H313779   1.800   3.766   9.104  2.3246 -0.6959  0.7289
  942MPD2     N13780   1.981   3.370   9.154 -0.0288 -0.0013 -0.5117
  942MPD2    H513781   2.061   3.424   9.186 -0.7094  0.2259  0.8311
  942MPD2    N113782   1.508   3.418   9.109 -0.4932  0.0553 -0.1652
  942MPD2    H713783   1.512   3.317   9.114 -1.9610 -0.1049 -2.0827
  943MPD2     C13784   0.800   0.437   9.842  0.3853  0.0147  0.1653
  943MPD2    C113785   0.704   0.440   9.746  1.0260  0.0026 -0.0959
  943MPD2    C213786   0.678   0.560   9.680  0.0591 -0.1854 -0.3353
  943MPD2    C313787   0.749   0.674   9.708 -0.3798  1.2735 -0.4614
  943MPD2    C413788   0.850   0.671   9.805  0.2402 -0.0713  0.0384
  943MPD2    C513789   0.872   0.554   9.871 -0.0684  0.0773 -0.2527
  943MPD2     H13790   0.598   0.565   9.607 -0.1860  2.0384  0.0907
  943MPD2    H113791   0.910   0.758   9.828 -1.6010  0.8686  1.2396
  943MPD2    H213792   0.840   0.346   9.885 -0.9231 -0.2018  0.9269
  943MPD2    H313793   0.941   0.547   9.955  0.3040 -1.4227 -0.6800
  943MPD2     N13794   0.724   0.803   9.652  0.1620 -0.0127 -0.1104
  943MPD2    H513795   0.772   0.885   9.689  0.2568 -0.4590  0.7681
  943MPD2    N113796   0.622   0.319   9.713 -0.4145  0.1349  0.2742
  943MPD2    H713797   0.643   0.229   9.755 -0.9924 -0.2441 -0.2618
  944MPD2     C13798   1.414   0.481  10.262 -0.4938  0.3940  0.2396
  944MPD2    C113799   1.292   0.418  10.251 -0.1468 -0.8598 -0.1124
  944MPD2    C213800   1.233   0.390  10.368  0.2713 -0.0880 -0.4264
  944MPD2    C313801   1.291   0.403  10.494 -0.1688  0.5078 -0.1089
  944MPD2    C413802   1.418   0.455  10.505  0.5721 -0.2959  0.2200
  944MPD2    C513803   1.476   0.494  10.384 -0.8683  0.1198 -0.2914
  944MPD2     H13804   1.133   0.350  10.361  0.7268 -0.8570 -2.4280
  944MPD2    H113805   1.459   0.465  10.604  0.5757 -1.0921  0.3012
  944MPD2    H213806   1.465   0.509  10.171  1.7435  0.2185  1.4361
  944MPD2    H313807   1.579   0.529  10.385 -0.4909 -0.9837 -1.0777
  944MPD2     N13808   1.214   0.364  10.609  0.6698 -1.1956  0.4706
  944MPD2    H513809   1.126   0.317  10.588  0.3809  0.4726 -2.0590
  944MPD2    N113810   1.244   0.383  10.128 -0.5968 -0.4015  0.0608
  944MPD2    H713811   1.311   0.400  10.054  0.3531 -0.9954  0.7922
    1TCq1    O113812   4.662   1.809  14.366 -0.8989 -0.3793  0.1982
    1TCq1    C113813   4.567   1.873  14.441  0.0971  0.0457  0.5898
    1TCq1    O213814   4.454   1.905  14.407 -0.2124 -0.4728  0.0114
    1TCq1    C213815   4.613   1.909  14.568  1.0971  0.1415 -0.1642
    1TCq1    C313816   4.689   1.822  14.646  0.4882  0.4823 -0.1862
    1TCq1    C413817   4.702   1.843  14.782  0.3469 -0.2871 -0.6852
    1TCq1    C513818   4.628   1.936  14.844 -1.0445 -0.7868  0.5588
    1TCq1    C613819   4.547   2.016  14.766 -0.5359  0.4368  0.7840
    1TCq1    C713820   4.540   2.010  14.631  0.4121 -0.7154 -0.4321
    1TCq1    C813821   4.465   2.111  14.844  0.2218  0.6969 -0.6628
    1TCq1    O413822   4.498   2.123  14.958 -0.2710  0.1333  0.5580
    1TCq1    C913823   0.071   1.764  14.865  0.7646 -0.0507 -0.1589
    1TCq1    O513824   0.134   1.670  14.806  0.2594  0.1237 -0.7075
    1TCq1    O613825   0.078   1.784  14.990 -0.6496  0.4101 -0.4805
    1TCq1    H113826   0.023   1.822  14.415 -0.8606  0.4602 -0.0992
    1TCq1    H213827   0.009   1.735  14.598 -0.1874 -0.3880  0.8127
    1TCq1    H313828   4.641   1.950  14.951  0.9241  2.7827 -0.1563
    1TCq1    H413829   4.485   2.080  14.569  1.2861 -1.4337 -2.0219
    2MPD2     C13830   4.053   2.408  14.954 -0.3952  0.2540 -0.0821
    2MPD2    C113831   4.055   2.387  14.814  0.2733  0.6991 -0.4292
    2MPD2    C213832   4.159   2.305  14.765  0.4824  0.3366 -0.3128
    2MPD2    C313833   4.248   2.240  14.847 -0.4788 -0.1962 -0.7318
    2MPD2    C413834   4.250   2.273  14.984  0.4017 -0.5630 -0.0388
    2MPD2    C513835   4.146   2.361  15.030 -0.3888  0.8785 -0.2645
    2MPD2     H13836   4.176   2.293  14.659 -2.1258 -1.5351 -0.5206
    2MPD2    H113837   4.326   2.248  15.056 -0.3753 -1.6512  0.3979
    2MPD2    H213838   3.977   2.477  14.988 -1.2707 -0.6991 -0.0879
    2MPD2    H313839   4.147   2.389  15.135  0.0083 -2.0835  0.5259
    2MPD2     N13840   4.346   2.158  14.782  0.1451 -0.4317 -1.3650
    2MPD2    H513841   4.325   2.138  14.684  1.4011 -1.3444 -1.4514
    2MPD2    N113842   3.962   2.466  14.740  0.3270 -0.8689  0.3293
    2MPD2    H713843   3.897   2.519  14.797  1.1466 -2.3962  2.6753
    3TMC2    C113844   3.864   2.533  14.544 -0.1866 -0.6380 -0.3839
    3TMC2    C213845   3.894   2.666  14.561  0.5267  0.2669  0.0445
    3TMC2    C313846   3.851   2.758  14.476 -0.7581  0.4405 -0.8766
    3TMC2    C413847   3.788   2.492  14.438 -0.3714  0.2626  0.0226
    3TMC2    C513848   3.739   2.591  14.356  0.0257 -0.0330  0.0341
    3TMC2    C613849   3.767   2.719  14.371 -0.1054 -0.3372  0.2804
    3TMC2     C13850   3.941   2.436  14.610  0.3893  0.1714  0.5672
    3TMC2     O13851   3.990   2.344  14.540 -0.5272 -0.7257  0.3671
    3TMC2     H13852   3.958   2.702  14.641  1.5359  0.3827 -0.8186
    3TMC2    H113853   3.780   2.385  14.427  0.7087  0.2628 -0.7318
    3TMC2    H213854   3.706   2.798  14.327  0.6079  0.4810  0.7534
    3TMC2    C713855   3.662   2.547  14.237  0.0711  0.3676  0.5944
    3TMC2    C813856   3.905   2.890  14.480 -0.1757 -0.6526  0.4644
    3TMC2    O113857   3.622   2.432  14.231  0.2722  0.4528  0.3076
    3TMC2    O213858   3.847   2.984  14.427 -0.0426 -0.0243 -0.2120
    3TMC2    O513859   4.037   2.895  14.521 -1.2054 -0.1755 -0.4083
    3TMC2    H513860   4.078   2.810  14.545  1.1003  0.3342 -2.5946
    4MPD2     C13861   2.676   3.406  13.844  0.2656  0.0065 -0.3423
    4MPD2    C113862   2.715   3.433  13.713  0.0716 -0.1270 -0.6184
    4MPD2    C213863   2.835   3.387  13.670  0.2068  0.5045  1.1073
    4MPD2    C313864   2.926   3.323  13.754  0.2771 -0.0880  0.1034
    4MPD2    C413865   2.874   3.283  13.875 -0.1161  0.4500  0.2944
    4MPD2    C513866   2.751   3.314  13.913  0.0686  0.4487 -0.2800
    4MPD2     H13867   2.873   3.420  13.575 -1.0904  0.2985  0.5186
    4MPD2    H113868   2.929   3.218  13.942 -0.3619 -1.3139 -1.2247
    4MPD2    H213869   2.577   3.434  13.879  1.5751  2.7621  1.1902
    4MPD2    H313870   2.717   3.257  13.999  0.7180 -0.4536 -0.6161
    4MPD2     N13871   3.062   3.309  13.719 -0.4539  0.0749  0.6289
    4MPD2    H513872   3.091   3.340  13.626 -1.6481  2.3958  1.0278
    4MPD2    N113873   2.629   3.518  13.639  0.5010  0.3209  0.0441
    4MPD2    H713874   2.550   3.560  13.687 -0.1849 -1.2732  0.3044
    5TCq2    C113875   3.157   3.253  13.804 -0.3631 -0.3460  0.1989
    5TCq2    O213876   3.157   3.214  13.917  0.1505 -0.0607  0.0312
    5TCq2    C213877   3.288   3.252  13.745 -0.0965 -0.3482  0.0143
    5TCq2    C313878   3.350   3.370  13.727 -0.5043 -0.3050 -0.7235
    5TCq2    C413879   3.489   3.360  13.722 -0.2998  0.1932  0.5284
    5TCq2    C513880   3.557   3.245  13.730  0.4291 -0.4025 -0.1525
    5TCq2    C613881   3.482   3.124  13.747 -0.6924  0.9660  0.1274
    5TCq2    C713882   3.344   3.131  13.760 -0.7854 -0.1715  0.0689
    5TCq2    C813883   3.543   3.014  13.812  0.8473 -1.4902  0.2419
    5TCq2    O413884   3.649   3.035  13.873 -0.0945 -0.1280 -0.3616
    5TCq2    C913885   3.561   3.485  13.695  0.1938  0.4049 -0.3482
    5TCq2    O513886   3.683   3.468  13.661  0.2483  0.2102 -0.2079
    5TCq2    O613887   3.501   3.590  13.671 -0.2504  0.8819 -0.4223
    5TCq2    H213888   3.298   3.465  13.722 -0.0338 -0.0327 -0.3854
    5TCq2    H313889   3.665   3.250  13.722  0.2274  2.0988 -1.3669
    5TCq2    H413890   3.285   3.048  13.798  1.2691 -2.9293 -2.8345
    6MPD1     C13891   2.580   0.343  12.464  0.4225 -0.1602  0.4201
    6MPD1    C113892   2.501   0.246  12.425  0.3474  0.0927  0.0364
    6MPD1    C213893   2.488   0.142  12.515  0.0962  0.8524  0.4015
    6MPD1    C313894   2.519   0.161  12.648  0.2212  0.3356 -0.1878
    6MPD1    C413895   2.586   0.274  12.693 -0.0692 -0.7065  0.1274
    6MPD1    C513896   2.617   0.358  12.593 -0.5206  0.0618 -0.5094
    6MPD1     H13897   2.434   0.052  12.490  0.0825  0.6335  1.2032
    6MPD1    H113898   2.627   0.293  12.791 -0.2988  3.9593 -0.6727
    6MPD1    H213899   2.607   0.422  12.394 -5.9262  0.8637 -0.8487
    6MPD1    H313900   2.677   0.444  12.622  0.5865 -1.1547  0.7763
    6MPD1     N13901   2.501   0.055  12.739 -0.0493  0.4569 -0.8909
    6MPD1    H513902   2.482   4.683  12.710  0.5504 -0.5133  1.8949
    6MPD1    N113903   2.483   0.228  12.287  0.2608  0.2985  0.3822
    6MPD1    H613904   2.475   0.318  12.240  0.5853 -0.2679 -0.7618
    6MPD1    H713905   2.398   0.179  12.260  0.8052  0.0473 -0.8619
    7MPD2     C13906   2.173   4.351  13.326  0.2006  0.1300 -0.1409
    7MPD2    C113907   2.301   4.305  13.344  0.0206 -0.3950  0.5329
    7MPD2    C213908   2.327   4.185  13.404  0.2827 -0.3173 -0.7872
    7MPD2    C313909   2.219   4.110  13.451 -0.9373 -0.0032  0.2090
    7MPD2    C413910   2.093   4.153  13.429 -0.0253 -0.8846 -0.6275
    7MPD2    C513911   2.071   4.272  13.366 -0.5244  0.0151 -0.1166
    7MPD2     H13912   2.430   4.151  13.404  0.2995 -0.2662 -0.8059
    7MPD2    H113913   2.010   4.086  13.448  0.8113 -2.6301 -3.1831
    7MPD2    H213914   2.146   4.440  13.272  0.6626  0.4455  0.1442
    7MPD2    H313915   1.969   4.298  13.343 -0.9217 -1.4848 -0.0632
    7MPD2     N13916   2.243   3.973  13.501  0.9557  0.3979  0.1102
    7MPD2    H513917   2.166   3.915  13.532  0.9835 -0.1469 -0.8567
    7MPD2    N113918   2.414   4.374  13.296  0.2019 -0.0280 -0.2892
    7MPD2    H713919   2.498   4.318  13.293  1.7374  2.2763 -0.0357
    8TMC3    C113920   2.377   3.783  13.482 -0.8105 -0.1724  0.0580
    8TMC3    C213921   2.482   3.722  13.538  0.1335  0.4227  0.0273
    8TMC3    C313922   2.549   3.637  13.459 -0.4756 -0.1320 -0.3609
    8TMC3    C413923   2.337   3.769  13.351  0.0835  0.5311 -0.0824
    8TMC3    C513924   2.426   3.695  13.275  0.3606 -0.2597 -0.1108
    8TMC3    C613925   2.515   3.614  13.330 -0.2261  0.0279  0.1307
    8TMC3     C13926   2.367   3.921  13.524 -0.8248 -0.6500  0.4958
    8TMC3     O13927   2.467   3.981  13.558  0.1561 -1.0937 -0.3485
    8TMC3     H13928   2.528   3.762  13.628 -0.2583  2.2393 -0.5677
    8TMC3    H113929   2.269   3.845  13.314  0.6193 -0.9024 -3.9647
    8TMC3    H213930   2.575   3.549  13.269  0.1974  1.5411 -1.0633
    8TMC3    C713931   2.453   3.759  13.139 -0.2235  0.0619 -0.3408
    8TMC3    C813932   2.652   3.547  13.510 -0.2741  0.0598 -0.0417
    8TMC3    O113933   2.350   3.802  13.085 -0.4359  0.1551 -0.4380
    8TMC3    O213934   2.737   3.507  13.427 -0.5058  0.7386  0.1685
    9TMC3    C113935   2.542   4.657  12.934 -0.1704  0.1021 -0.7943
    9TMC3    C213936   2.575   4.553  12.852  0.2533 -0.1929 -0.5729
    9TMC3    C313937   2.563   4.430  12.909  0.5122 -0.6706 -0.4308
    9TMC3    C413938   2.482   4.641  13.054  0.0629  0.4762  0.3047
    9TMC3    C513939   2.476   4.512  13.106  0.4802  0.2497  0.6618
    9TMC3    C613940   2.517   4.404  13.033 -0.3433 -0.9761 -0.3716
    9TMC3     C13941   2.517   0.062  12.878  0.2849  1.0371  0.0345
    9TMC3     O13942   2.521   0.161  12.955  0.0770 -0.2465 -0.1537
    9TMC3     H13943   2.639   4.567  12.766 -0.5655 -0.1134 -1.1682
    9TMC3    H113944   2.443   0.004  13.107 -0.2078  0.0760  0.7611
    9TMC3    H213945   2.517   4.307  13.081 -1.5568 -0.8845 -0.1860
    9TMC3    C713946   2.397   4.489  13.226 -0.0804  0.6964  0.6707
    9TMC3    C813947   2.608   4.316  12.832  0.9737  0.9223 -0.1552
    9TMC3    O113948   2.335   4.583  13.278 -0.2839 -0.0100  0.1192
    9TMC3    O213949   2.682   4.336  12.738 -0.3193 -0.0021 -0.1303
   10MPD2     C13950   2.743   3.823  12.917  0.0722 -0.4980 -0.6210
   10MPD2    C113951   2.631   3.855  12.994  0.2113 -0.0999 -0.1211
   10MPD2    C213952   2.565   3.981  12.975 -0.1918  0.4162  0.2005
   10MPD2    C313953   2.624   4.076  12.892 -0.2614 -0.1416  0.1314
   10MPD2    C413954   2.737   4.051  12.832  0.2069  0.1491 -0.2764
   10MPD2    C513955   2.800   3.923  12.841 -0.2608  0.3485  0.5535
   10MPD2     H13956   2.470   4.002  13.023 -0.8819 -0.5459 -0.7314
   10MPD2    H113957   2.778   4.129  12.769  2.7724 -0.2065  0.9354
   10MPD2    H213958   2.803   3.735  12.935  0.7016 -0.2795 -1.6194
   10MPD2    H313959   2.891   3.895  12.788  0.9387  2.6558  1.4061
   10MPD2     N13960   2.562   4.202  12.888 -0.1620 -0.1270 -0.5729
   10MPD2    H513961   2.480   4.211  12.947 -0.2851  3.6715 -1.3032
   10MPD2    N113962   2.579   3.756  13.086  0.0900 -1.1339 -0.7025
   10MPD2    H713963   2.646   3.693  13.128  0.5806  0.0869  0.3501
   11MPD2     C13964   3.514   2.537  13.974 -0.3254 -0.0794  0.0321
   11MPD2    C113965   3.566   2.654  14.025  0.1795 -0.2508  0.3670
   11MPD2    C213966   3.548   2.775  13.963 -0.0507  0.2427 -0.4043
   11MPD2    C313967   3.486   2.778  13.841  0.0772 -0.4877  0.0767
   11MPD2    C413968   3.436   2.659  13.784 -0.6032 -0.0746  0.6345
   11MPD2    C513969   3.449   2.540  13.853 -0.5048 -0.7969  0.0556
   11MPD2     H13970   3.596   2.860  14.008 -1.7930  0.3605  1.2681
   11MPD2    H113971   3.388   2.676  13.688  1.4165 -0.5079 -0.4658
   11MPD2    H213972   3.535   2.444  14.027  1.8874  0.7339  0.5875
   11MPD2    H313973   3.403   2.452  13.810 -0.1892  0.2672 -2.4431
   11MPD2     N13974   3.477   2.895  13.773  0.3328 -0.1549 -0.4362
   11MPD2    H513975   3.419   2.892  13.690 -0.2296 -1.7302  0.0260
   11MPD2    N113976   3.647   2.653  14.146  0.0368 -0.4645 -0.4555
   11MPD2    H713977   3.704   2.734  14.169 -2.3006  1.3713 -1.1677
    1MPD1     C13978   1.690   4.453  17.272 -0.5833 -0.3172  0.1456
    1MPD1    C113979   1.616   4.539  17.187  0.5940  0.3284 -0.0819
    1MPD1    C213980   1.682   4.644  17.119  0.5401  1.0863 -0.1624
    1MPD1    C313981   1.820   4.658  17.130  0.6469 -0.0166  0.7161
    1MPD1    C413982   1.886   4.586  17.224  0.0794 -0.3120  1.2880
    1MPD1    C513983   1.823   4.486  17.293  0.3282  0.2182 -0.2567
    1MPD1     H13984   1.627   4.705  17.048 -2.0599 -0.0320  0.8907
    1MPD1    H113985   1.991   4.610  17.235 -0.0340  1.1833 -0.9963
    1MPD1    H213986   1.649   4.367  17.324  0.5625 -0.0594  1.5037
    1MPD1    H313987   1.877   4.416  17.357 -0.3995  0.4231  0.5842
    1MPD1     N13988   1.902   0.017  17.054 -0.1901 -0.1869  0.8545
    1MPD1    H513989   1.999   0.024  17.084  0.7985  0.4095 -2.5028
    1MPD1    N113990   1.482   4.501  17.152 -0.2329 -0.2223 -0.5226
    1MPD1    H613991   1.428   4.580  17.119 -0.0493 -0.0585 -0.4288
    1MPD1    H713992   1.437   4.445  17.224 -0.8485  1.6431  0.5352
    2MPD1     C13993   2.774   0.266  17.120 -0.3818  0.5179  0.2863
    2MPD1    C113994   2.691   0.200  17.210 -0.0934 -0.5266  0.0884
    2MPD1    C213995   2.556   0.197  17.177  0.6665  0.1679  0.4201
    2MPD1    C313996   2.507   0.269  17.066 -0.7097 -0.2754  0.2367
    2MPD1    C413997   2.592   0.338  16.984 -0.6199 -0.3143 -1.3839
    2MPD1    C513998   2.727   0.332  17.007 -0.9139 -0.4488 -0.3495
    2MPD1     H13999   2.484   0.142  17.238  1.4063 -0.5903  0.6073
    2MPD1    H114000   2.550   0.379  16.893 -0.4511  1.7962 -0.5072
    2MPD1    H214001   2.881   0.250  17.113 -0.5515 -0.3226 -0.5205
    2MPD1    H314002   2.804   0.366  16.938  0.5950 -0.9371  1.0803
    2MPD1     N14003   2.368   0.266  17.037 -0.3619 -0.3871 -0.5718
    2MPD1    H514004   2.316   0.183  17.062  1.8545 -1.7233 -0.3530
    2MPD1    N114005   2.757   0.135  17.314  0.1192 -0.4505  0.1722
    2MPD1    H614006   2.696   0.119  17.394  0.3764  1.0431  0.6526
    2MPD1    H714007   2.828   0.195  17.354  0.4839 -0.9881  0.3278
    3TMC3    C114008   2.177   0.295  16.894 -0.4290 -1.1283 -0.0249
    3TMC3    C214009   2.162   0.331  16.765 -0.1703  0.1307  0.0086
    3TMC3    C314010   2.059   0.275  16.702 -0.3346  0.1001 -0.4247
    3TMC3    C414011   2.085   0.210  16.957 -0.4114  0.2768  0.9277
    3TMC3    C514012   1.981   0.163  16.883 -0.1781 -0.1672 -0.0354
    3TMC3    C614013   1.973   0.183  16.752 -0.3014 -0.0441 -0.0550
    3TMC3     C14014   2.298   0.349  16.952 -0.4832 -0.3387  0.0784
    3TMC3     O14015   2.332   0.461  16.906  0.1650 -0.3960 -0.0119
    3TMC3     H14016   2.226   0.406  16.719 -1.5555 -0.4067 -2.8019
    3TMC3    H114017   2.093   0.209  17.065 -0.4550 -2.8922  0.9148
    3TMC3    H214018   1.893   0.137  16.695 -0.5346 -1.6440  1.5774
    3TMC3    C714019   1.866   0.078  16.935  0.1892  0.2102 -0.4849
    3TMC3    C814020   2.044   0.312  16.567  0.0479  0.5618 -0.2419
    3TMC3    O114021   1.762   0.060  16.872 -0.4283  0.5586  0.1704
    3TMC3    O214022   2.133   0.363  16.505  0.3461 -0.5470 -0.5736
    4MPD1     C14023   1.774   0.265  16.132 -0.1406 -0.3533 -0.6671
    4MPD1    C114024   1.686   0.251  16.239  0.1166 -0.1687  0.4777
    4MPD1    C214025   1.738   0.267  16.363  0.5386 -0.0371 -0.3390
    4MPD1    C314026   1.871   0.289  16.385 -0.2318  0.1229 -1.0026
    4MPD1    C414027   1.957   0.301  16.277  0.3376  0.0112  0.2340
    4MPD1    C514028   1.914   0.281  16.151  0.5310 -0.1488  0.2855
    4MPD1     H14029   1.670   0.262  16.448  1.8450  1.4482  0.7778
    4MPD1    H114030   2.064   0.305  16.296  0.0516  1.5911  1.5169
    4MPD1    H214031   1.746   0.274  16.028 -1.9842  0.6917 -0.0909
    4MPD1    H314032   1.977   0.284  16.063  0.4801 -2.1214  0.1802
    4MPD1     N14033   1.916   0.298  16.519  0.4347 -0.3483 -0.1152
    4MPD1    H514034   1.851   0.292  16.596 -2.5704 -1.2653 -2.7224
    4MPD1    N114035   1.540   0.255  16.225 -0.2308  0.2475  0.3349
    4MPD1    H614036   1.486   0.216  16.302 -1.8024 -1.4626 -1.6739
    4MPD1    H714037   1.513   0.211  16.138  1.2883  1.3062 -0.6695
    1TCq1    O114038   1.354   3.913  11.443  0.4557  0.1319  0.1661
    1TCq1    C114039   1.245   3.911  11.357  0.5619 -0.0025 -1.2464
    1TCq1    O214040   1.249   3.902  11.236 -0.2656  0.2296  0.2451
    1TCq1    C214041   1.110   3.900  11.415  0.1610  0.1864 -0.3928
    1TCq1    C314042   1.084   3.933  11.547 -0.0338 -0.0509 -0.6363
    1TCq1    C414043   0.971   3.900  11.611 -0.1204  0.3744  0.0036
    1TCq1    C514044   0.876   3.825  11.548 -0.2474  0.4718 -0.1494
    1TCq1    C614045   0.893   3.807  11.410 -0.6006  0.8188 -0.2491
    1TCq1    C714046   1.015   3.839  11.345  0.0635  0.1142  0.2015
    1TCq1    C814047   0.770   3.777  11.331 -0.1383 -0.4541  0.2258
    1TCq1    O414048   0.789   3.788  11.213 -0.0876  0.0712  0.4463
    1TCq1    C914049   0.960   3.890  11.759  0.1846 -0.2445 -0.5388
    1TCq1    O514050   0.859   3.829  11.810 -0.5219  0.0493 -0.3275
    1TCq1    O614051   1.062   3.933  11.824  0.3334  0.8077  0.1440
    1TCq1    H114052   1.325   3.918  11.537  1.5890  3.2226  0.3310
    1TCq1    H214053   1.152   3.994  11.605 -1.8842  0.8045  0.6301
    1TCq1    H314054   0.789   3.794  11.605 -1.0271  0.8812 -1.1322
    1TCq1    H414055   1.014   3.836  11.237  0.8763 -0.8079  0.2115
    2MPD1     C14056   0.280   3.666  11.257  0.6284  0.2537  0.5013
    2MPD1    C114057   0.299   3.683  11.392 -0.5045  0.3017 -0.6565
    2MPD1    C214058   0.421   3.728  11.434 -0.1427 -0.1042 -0.7539
    2MPD1    C314059   0.528   3.736  11.347  0.5656 -0.6004  0.6550
    2MPD1    C414060   0.509   3.716  11.218 -0.1617  0.8130 -0.2286
    2MPD1    C514061   0.383   3.687  11.176 -0.3040  0.6729  0.6964
    2MPD1     H14062   0.438   3.753  11.538 -1.8570  0.9617 -0.7143
    2MPD1    H114063   0.586   3.737  11.144 -1.0454  3.4137 -0.3907
    2MPD1    H214064   0.182   3.650  11.213  0.6703  0.1381  0.4495
    2MPD1    H314065   0.371   3.676  11.068 -0.9262 -1.0949  0.9389
    2MPD1     N14066   0.656   3.774  11.403 -0.4237  0.0663  0.1404
    2MPD1    H514067   0.657   3.799  11.501 -0.5657  3.3728 -0.6961
    2MPD1    N114068   0.188   3.676  11.479  0.4787 -0.2243 -0.6457
    2MPD1    H614069   0.117   3.610  11.448 -0.8160  0.3862  1.0125
    2MPD1    H714070   0.208   3.658  11.578 -1.8785  0.5738 -0.0224
    1TCq1    O114071   2.475   2.730   0.161  0.3195  0.2887 -0.3856
    1TCq1    C114072   2.500   2.695   0.286  0.4887 -0.0850 -0.5591
    1TCq1    O214073   2.575   2.747   0.369 -0.1236  0.2825  0.0396
    1TCq1    C214074   2.444   2.558   0.308 -0.4936 -0.0437  0.0922
    1TCq1    C314075   2.342   2.514   0.224 -0.4561 -0.8855 -0.1678
    1TCq1    C414076   2.288   2.397   0.261  0.1905 -0.5308  0.0857
    1TCq1    C514077   2.320   2.339   0.379 -0.5699 -0.6979  0.1199
    1TCq1    C614078   2.431   2.376   0.448 -0.0821 -0.8860  0.6189
    1TCq1    C714079   2.501   2.486   0.406 -0.5062  0.7295  0.1631
    1TCq1    C814080   2.490   2.280   0.532  0.0400  0.7477 -0.1599
    1TCq1    O414081   2.572   2.326   0.611 -0.5297  0.6023  0.0086
    1TCq1    C914082   2.149   2.378   0.231  0.5317 -0.3343  0.2394
    1TCq1    O514083   2.105   2.259   0.243 -0.5803  0.5815  0.3199
    1TCq1    O614084   2.087   2.478   0.182  0.1407 -0.4428 -0.0426
    1TCq1    H114085   2.458   2.648   0.110  1.8250  0.0902 -0.5620
    1TCq1    H214086   2.284   2.591   0.175 -0.5683  0.0091  1.3770
    1TCq1    H314087   2.256   2.263   0.422  0.6485 -1.0608  1.3008
    1TCq1    H414088   2.586   2.523   0.463  0.7482 -0.5357 -0.8726
    2MPD1     C14089   2.521   1.790   0.703 -0.0883  0.7376  0.1249
    2MPD1    C114090   2.478   1.792   0.575  0.0049 -0.4924  0.5931
    2MPD1    C214091   2.445   1.911   0.509 -0.8695  0.9082 -0.0262
    2MPD1    C314092   2.479   2.033   0.565 -0.1224  0.7784 -0.4833
    2MPD1    C414093   2.536   2.030   0.689 -0.2589  0.2265  1.3021
    2MPD1    C514094   2.549   1.913   0.759  0.0341 -0.2794  0.0737
    2MPD1     H14095   2.397   1.914   0.412  0.9814  1.9753 -0.8979
    2MPD1    H114096   2.566   2.117   0.745 -0.0144  0.5297  0.6862
    2MPD1    H214097   2.532   1.705   0.768 -1.0434  0.2010 -0.4104
    2MPD1    H314098   2.592   1.915   0.859 -0.2462  0.7440  0.1687
    2MPD1     N14099   2.440   2.152   0.504  0.2238 -0.5580  0.1938
    2MPD1    H514100   2.368   2.152   0.433  0.7994 -3.3559 -0.4064
    2MPD1    N114101   2.432   1.671   0.524 -0.1725 -0.2207  0.3147
    2MPD1    H614102   2.411   1.672   0.424  1.7027 -1.7726 -0.1019
    2MPD1    H714103   2.498   1.598   0.547  2.0191  1.5609 -0.2645
    1MPD1     C14104   0.089   4.258  10.888  0.2241 -0.2395 -0.1095
    1MPD1    C114105   0.098   4.398  10.884 -0.3452 -0.3712 -0.1313
    1MPD1    C214106   0.029   4.480  10.976 -0.8675 -0.2976 -0.3053
    1MPD1    C314107   4.672   4.415  11.071  0.7054  0.3899 -0.1641
    1MPD1    C414108   4.653   4.279  11.066 -0.5492 -0.0007 -0.0424
    1MPD1    C514109   0.005   4.208  10.978 -0.2199  0.2071 -0.4433
    1MPD1     H14110   0.042   4.587  10.973 -0.0685 -0.3992 -0.4505
    1MPD1    H114111   4.593   4.228  11.140 -1.8865  1.4202 -0.1514
    1MPD1    H214112   0.159   4.188  10.844  0.3398  1.8413 -3.2873
    1MPD1    H314113   4.713   4.100  10.976 -1.0149  0.2838  1.3845
    1MPD1     N14114   4.600   4.497  11.162  0.3744  0.0938 -0.3032
    1MPD1    H514115   4.614   4.595  11.141 -0.7791 -0.0816 -1.8864
    1MPD1    N114116   0.180   4.462  10.789 -0.1003 -0.7542 -0.2542
    1MPD1    H614117   0.213   4.405  10.711 -1.2424 -0.4603 -0.9459
    1MPD1    H714118   0.140   4.552  10.763 -2.0146 -1.7375 -0.7447
    2MPD1     C14119   2.367   4.243  11.624  0.2685 -0.1375 -0.9634
    2MPD1    C114120   2.346   4.133  11.544  0.0432  0.4484  0.4200
    2MPD1    C214121   2.432   4.116  11.434  0.1263  0.5521  0.1649
    2MPD1    C314122   2.551   4.196  11.414  0.4220  0.6986 -0.3714
    2MPD1    C414123   2.565   4.293  11.507  0.8236  0.3101  1.2136
    2MPD1    C514124   2.473   4.321  11.601 -0.0373  0.5011 -0.2897
    2MPD1     H14125   2.401   4.045  11.358 -0.4197  1.1058 -0.1347
    2MPD1    H114126   2.654   4.354  11.501  0.2514  0.8931 -1.3963
    2MPD1    H214127   2.295   4.282  11.695  0.9532 -2.2432  0.9018
    2MPD1    H314128   2.486   4.408  11.665  2.3932 -0.2045  0.1891
    2MPD1     N14129   2.644   4.186  11.309 -0.2254  0.3572  0.5386
    2MPD1    H514130   2.709   4.262  11.297  0.2730 -0.1113  0.2472
    2MPD1    N114131   2.222   4.066  11.542 -0.2621  0.4365 -0.4783
    2MPD1    H614132   2.171   4.088  11.628 -0.0789  1.7637 -0.7183
    2MPD1    H714133   2.232   3.965  11.533  0.8703  0.4134  0.9470
    3MPD1     C14134   2.699   3.346  10.767 -0.0540  0.3534 -0.5349
    3MPD1    C114135   2.600   3.413  10.836  0.5200  0.3599  0.5424
    3MPD1    C214136   2.624   3.540  10.882  0.4111  0.1773 -0.5707
    3MPD1    C314137   2.737   3.605  10.854 -0.0371  0.5632  0.0144
    3MPD1    C414138   2.841   3.536  10.792 -0.4344  0.2607 -0.7049
    3MPD1    C514139   2.822   3.407  10.747  0.3862  0.0458  0.1364
    3MPD1     H14140   2.545   3.591  10.936  0.8384  1.2718 -0.9851
    3MPD1    H114141   2.939   3.577  10.774  0.3925 -0.4177  2.2543
    3MPD1    H214142   2.673   3.250  10.724  1.1598  1.5543 -3.9016
    3MPD1    H314143   2.906   3.347  10.714  0.2288  0.3671 -0.8461
    3MPD1     N14144   2.749   3.730  10.908  0.2160  0.4052 -0.4339
    3MPD1    H514145   2.666   3.753  10.961  1.5618  1.8893  1.0148
    3MPD1    N114146   2.474   3.349  10.858 -0.7393 -0.3604  0.3520
    3MPD1    H614147   2.473   3.248  10.851  0.9235 -0.3325 -0.4537
    3MPD1    H714148   2.432   3.388  10.943 -0.6934 -0.2115  0.3071
    4MPD2     C14149   3.907   4.662  11.623  0.1253 -0.1948  0.1069
    4MPD2    C114150   3.953   4.713  11.504  0.5137 -0.2800 -0.2201
    4MPD2    C214151   3.860   0.035  11.413  0.1825 -0.2322  0.2576
    4MPD2    C314152   3.725   0.029  11.441  0.3639  0.3186  0.7926
    4MPD2    C414153   3.687   4.703  11.562 -0.1883  0.2638  0.4908
    4MPD2    C514154   3.772   4.655  11.654  0.3851 -0.2249 -0.3571
    4MPD2     H14155   3.895   0.069  11.316 -1.7699 -2.2510 -1.1431
    4MPD2    H114156   3.580   4.707  11.579 -0.2582 -0.8078  0.2550
    4MPD2    H214157   3.973   4.631  11.703  0.6784 -0.6877 -0.5462
    4MPD2    H314158   3.734   4.612  11.746  1.9111  0.7369  0.7160
    4MPD2     N14159   3.619   0.068  11.350  0.3212 -0.0538 -0.0158
    4MPD2    H514160   3.523   0.074  11.382  0.3984 -1.5260  0.4955
    4MPD2    N114161   4.085   4.722  11.466  0.5538 -0.4473  0.5231
    4MPD2    H714162   4.107   0.045  11.379  0.3183 -2.1411 -0.4371
    5TMC3    C114163   4.310   4.691  11.462 -0.2369  0.9986  0.8489
    5TMC3    C214164   4.382   4.577  11.430  0.3007  0.1923 -0.1945
    5TMC3    C314165   4.435   4.579  11.299  0.3766  0.7297 -0.2317
    5TMC3    C414166   4.291   0.075  11.373  0.2159 -0.2095 -0.1205
    5TMC3    C514167   4.338   0.066  11.246 -0.3328 -0.1349 -0.0210
    5TMC3    C614168   4.406   4.675  11.200  0.6987 -0.4155 -0.2776
    5TMC3     C14169   4.189   4.674  11.537 -0.2576  0.1224  0.1575
    5TMC3     O14170   4.186   4.592  11.631 -0.7708 -0.9905  0.2610
    5TMC3     H14171   4.400   4.508  11.511  0.0514  1.2754  0.7905
    5TMC3    H114172   4.250   0.168  11.411  0.1524 -1.4671  2.9235
    5TMC3    H214173   4.436   4.661  11.097  0.3155 -0.0822 -0.4344
    5TMC3    C714174   4.233   0.119  11.162 -0.1582 -0.3235 -0.2428
    5TMC3    C814175   4.507   4.462  11.255  0.5638 -0.2639 -0.2529
    5TMC3    O114176   4.134   0.141  11.227  0.1836  0.3283 -0.2377
    5TMC3    O214177   4.463   4.351  11.279  0.1544 -0.1203  0.0238
    6TMC3    C114178   2.730   4.085  11.114  0.4609  0.0086  0.1369
    6TMC3    C214179   2.750   3.961  11.064 -0.0222  0.6146 -0.7357
    6TMC3    C314180   2.831   3.948  10.955  0.9928  0.7218  0.1836
    6TMC3    C414181   2.793   4.195  11.065  0.0098  0.5294 -0.2813
    6TMC3    C514182   2.867   4.182  10.949 -0.2965 -0.7203 -0.3668
    6TMC3    C614183   2.898   4.055  10.901  0.0355 -0.1208  0.1672
    6TMC3     C14184   2.636   4.082  11.219 -0.3523 -0.2333 -0.2806
    6TMC3     O14185   2.563   3.986  11.221  0.5147 -0.3343  0.1550
    6TMC3     H14186   2.713   3.867  11.103 -0.4027 -0.4897 -3.7861
    6TMC3    H114187   2.753   4.295  11.081  2.3761  1.8663 -2.7290
    6TMC3    H214188   2.972   4.040  10.823  0.3144  0.6450  0.2875
    6TMC3    C714189   2.944   4.297  10.907  0.9512  0.4051  0.5635
    6TMC3    C814190   2.857   3.816  10.891 -0.1748 -0.3864  0.4592
    6TMC3    O114191   2.953   4.387  10.990 -1.0195 -0.0121 -0.3659
    6TMC3    O214192   2.966   3.785  10.841 -0.0094  0.2774  1.1162
    7MPD2     C14193   3.952   0.180  10.733 -0.0301  1.0842  0.5960
    7MPD2    C114194   3.919   0.179  10.866  0.3251  0.7882 -0.0710
    7MPD2    C214195   4.019   0.166  10.960 -0.3122  0.1560 -0.8451
    7MPD2    C314196   4.151   0.141  10.926  0.0861 -0.5102  0.3423
    7MPD2    C414197   4.182   0.128  10.793  0.2586 -0.0087 -0.5574
    7MPD2    C514198   4.081   0.153  10.696 -0.5957  0.2921 -0.2183
    7MPD2     H14199   3.980   0.161  11.061  2.2854 -3.1348 -0.0340
    7MPD2    H114200   4.284   0.126  10.758 -0.2409 -2.0176 -1.8990
    7MPD2    H214201   3.883   0.185  10.650  2.1952 -0.2992 -1.3328
    7MPD2    H314202   4.110   0.170  10.593  0.8648  2.5547  0.5567
    7MPD2     N14203   4.250   0.122  11.024 -1.1556 -0.2475 -0.0267
    7MPD2    H514204   4.345   0.102  10.993 -1.2276 -0.8137  0.1088
    7MPD2    N114205   3.792   0.192  10.912 -0.0434 -0.2139 -0.3965
    7MPD2    H714206   3.783   0.202  11.012 -0.8657 -0.7736 -0.4144
    8TMC3    C114207   3.563   0.239  10.928  0.3238  0.1223  0.3511
    8TMC3    C214208   3.467   0.152  10.895  0.4438  0.0335 -0.1691
    8TMC3    C314209   3.411   0.079  10.995 -0.3144  0.1061  0.1283
    8TMC3    C414210   3.593   0.261  11.060 -0.2568  0.3378 -0.4353
    8TMC3    C514211   3.540   0.182  11.157  0.1526  0.3762  0.3046
    8TMC3    C614212   3.451   0.087  11.124  0.1139  0.2374  1.0774
    8TMC3     C14213   3.674   0.222  10.838 -0.6334 -0.0290  0.7270
    8TMC3     O14214   3.656   0.222  10.717 -0.2583  0.5188 -0.1556
    8TMC3     H14215   3.435   0.147  10.791 -2.0072  3.0663  0.4598
    8TMC3    H114216   3.656   0.342  11.093  1.5655 -0.8699 -0.9497
    8TMC3    H214217   3.402   0.050  11.214  0.5022  0.5877  1.4361
    8TMC3    C714218   3.652   0.136  11.237  0.7200 -0.7812  1.1522
    8TMC3    C814219   3.332   4.691  10.948 -0.2342  0.2634 -0.1513
    8TMC3    O114220   3.758   0.151  11.179 -0.3069 -0.0958  0.3963
    8TMC3    O214221   3.291   4.620  11.034 -0.2902 -0.1473  0.5203
    9MPD2     C14222   3.267   4.552  10.603  0.9253 -0.1811  0.7934
    9MPD2    C114223   3.256   4.565  10.742  0.0491 -0.4684 -0.0844
    9MPD2    C214224   3.169   4.474  10.810  0.4937 -0.2309 -0.3955
    9MPD2    C314225   3.092   4.380  10.735  0.0977  0.0625 -0.4860
    9MPD2    C414226   3.122   4.363  10.601  0.7783 -0.7047  0.4690
    9MPD2    C514227   3.212   4.444  10.535  0.5040  0.0448 -0.3537
    9MPD2     H14228   3.157   4.479  10.918 -1.0848 -0.3884 -0.5632
    9MPD2    H114229   3.074   4.292  10.534  1.5398 -2.4902  1.8199
    9MPD2    H214230   3.320   4.619  10.537 -3.5405  0.6136 -1.9520
    9MPD2    H314231   3.212   4.450  10.427 -0.6685  1.5514 -0.2759
    9MPD2     N14232   2.999   4.290  10.785 -0.2914 -0.2085  0.6992
    9MPD2    H514233   2.961   4.218  10.724 -1.9775  2.0811 -0.9570
    9MPD2    N114234   3.327   4.666  10.813 -0.1634  0.2187  0.7677
    9MPD2    H714235   3.387   4.721  10.753  0.4691 -0.3450  0.8804
    1MPD1     C14236   4.248   2.303   0.118 -0.1729  0.3711  0.2696
    1MPD1    C114237   4.192   2.238   0.009 -0.2069 -0.1484  0.0308
    1MPD1    C214238   4.174   2.303  17.577 -0.3533  0.1430 -0.1464
    1MPD1    C314239   4.210   2.438  17.567  0.1059  0.4156 -0.1416
    1MPD1    C414240   4.243   2.513  17.680  0.2954 -0.8389 -0.7562
    1MPD1    C514241   4.266   2.439   0.101 -0.2467 -0.5473  0.1120
    1MPD1     H14242   4.141   2.249  17.490  0.0627  2.0800 -1.5004
    1MPD1    H114243   4.257   2.621  17.672 -4.2981 -0.2985 -1.8594
    1MPD1    H214244   4.260   2.255   0.214 -1.9991 -1.7006 -0.5391
    1MPD1    H314245   4.282   2.489   0.196  1.1281  1.2683 -1.0754
    1MPD1     N14246   4.215   2.500  17.442  0.2442 -0.6547  0.9398
    1MPD1    H514247   4.239   2.599  17.443  0.5732 -0.7138 -0.0972
    1MPD1    N114248   4.160   2.105   0.031 -0.1508  0.6092  0.1723
    1MPD1    H614249   4.138   2.084   0.128 -0.4533 -1.9691 -0.4493
    1MPD1    H714250   4.075   2.083  17.673  0.1300 -1.2856  0.5008
    2MPD1     C14251   4.562   2.513  16.397  1.0418  0.1947 -0.1330
    2MPD1    C114252   4.553   2.644  16.444  0.3318 -0.4341 -0.1987
    2MPD1    C214253   4.498   2.672  16.567  0.2910  0.4958  0.0005
    2MPD1    C314254   4.464   2.565  16.649 -1.0065  0.4094  0.2223
    2MPD1    C414255   4.487   2.435  16.612 -0.1031  0.1382  0.2771
    2MPD1    C514256   4.530   2.411  16.480 -0.2995  0.4201  0.2144
    2MPD1     H14257   4.475   2.774  16.595 -2.6775  0.7764 -3.4578
    2MPD1    H114258   4.468   2.361  16.689  0.9295  0.1021  0.5010
    2MPD1    H214259   4.592   2.486  16.297 -1.0084  1.7358 -1.1634
    2MPD1    H314260   4.551   2.312  16.442 -3.6515 -0.7114  1.3357
    2MPD1     N14261   4.429   2.604  16.785  0.2015 -0.3157  0.1514
    2MPD1    H514262   4.439   2.702  16.808 -0.7062 -0.2732  0.3837
    2MPD1    N114263   4.565   2.752  16.353 -0.0697  0.5081  0.6737
    2MPD1    H614264   4.581   2.839  16.404  2.3400  0.4015  0.0653
    2MPD1    H714265   4.637   2.747  16.282 -0.9768  0.0776 -0.2286
    3TCq2    C114266   4.391   2.515  16.884  0.3034  0.2099  0.5423
    3TCq2    O214267   4.371   2.388  16.882 -0.7993  1.1694 -0.4772
    3TCq2    C214268   4.343   2.579  17.008  0.7273  0.3095  0.7169
    3TCq2    C314269   4.293   2.706  17.007  0.3824  0.5556 -0.3933
    3TCq2    C414270   4.223   2.755  17.114  0.3485 -0.7760 -0.1942
    3TCq2    C514271   4.194   2.672  17.223  0.0606 -0.2139  0.7068
    3TCq2    C614272   4.238   2.539  17.213 -0.4441 -0.2702  0.4997
    3TCq2    C714273   4.321   2.496  17.113 -0.5945  0.6742 -0.2734
    3TCq2    C814274   4.216   2.443  17.319  0.8223  0.1313  0.1271
    3TCq2    O414275   4.247   2.325  17.295  0.1333 -0.1919 -0.8090
    3TCq2    C914276   4.180   2.889  17.114  0.3466  0.1845  0.0296
    3TCq2    O514277   4.212   2.963  17.014 -0.3308 -0.2401  0.2279
    3TCq2    O614278   4.082   2.907  17.190  0.4358  0.0514  0.0877
    3TCq2    H214279   4.294   2.771  16.921  2.0151  1.0309 -0.0038
    3TCq2    H314280   4.130   2.701  17.306 -1.0437 -1.2280  0.2038
    3TCq2    H414281   4.380   2.406  17.124 -1.0008  0.5521  0.9052
    1TCq1    O114282   1.314   2.046  12.176  0.4656  0.0927  0.2026
    1TCq1    C114283   1.385   2.158  12.149  0.3456  0.1502  0.1624
    1TCq1    O214284   1.386   2.214  12.039  0.0443 -0.7301  0.0161
    1TCq1    C214285   1.481   2.176  12.260 -0.5640 -0.1341  0.1733
    1TCq1    C314286   1.446   2.135  12.382 -0.0306  1.0030  0.0350
    1TCq1    C414287   1.538   2.127  12.478  0.0130  0.0891 -0.8383
    1TCq1    C514288   1.666   2.157  12.454  0.5645  0.0276 -0.2759
    1TCq1    C614289   1.694   2.209  12.329  0.2565 -0.7189  0.1715
    1TCq1    C714290   1.604   2.227  12.229  0.2225  0.1993  0.2614
    1TCq1    C814291   1.823   2.273  12.302  0.3611 -0.7417 -0.5299
    1TCq1    O414292   1.852   2.293  12.187  0.1018  0.4726  0.2520
    1TCq1    C914293   1.507   2.066  12.606  0.3312  0.0930 -0.0056
    1TCq1    O514294   1.590   2.070  12.699 -0.2705  0.0277 -0.0099
    1TCq1    O614295   1.405   1.990  12.612  0.0074  0.0767 -0.7081
    1TCq1    H114296   1.315   2.010  12.268 -0.1284  1.9407  0.9298
    1TCq1    H214297   1.348   2.108  12.420 -0.3569  0.5753 -1.1098
    1TCq1    H314298   1.736   2.125  12.530  0.5290 -0.8824 -0.6297
    1TCq1    H414299   1.625   2.277  12.135 -0.8337  0.1700  0.0039
    2MPD2     C14300   2.097   2.374  12.333 -0.8777 -0.0740 -0.1345
    2MPD2    C114301   2.012   2.356  12.439 -0.3266  0.2791 -0.4101
    2MPD2    C214302   2.057   2.382  12.570 -0.2823  0.5554 -0.3059
    2MPD2    C314303   2.182   2.434  12.598 -0.2078  0.1709 -0.3192
    2MPD2    C414304   2.263   2.449  12.485 -0.2358  0.1144 -0.8338
    2MPD2    C514305   2.222   2.421  12.358 -0.5778  0.2115  0.0710
    2MPD2     H14306   1.999   2.352  12.657  1.3886 -2.3461 -0.1984
    2MPD2    H114307   2.365   2.484  12.494 -0.3766  0.1894  0.4194
    2MPD2    H214308   2.078   2.343  12.231 -0.9060  0.2638 -0.2325
    2MPD2    H314309   2.291   2.430  12.275  0.3005 -1.1919  0.6456
    2MPD2     N14310   2.225   2.467  12.733 -0.0867 -0.2147 -0.0884
    2MPD2    H514311   2.160   2.446  12.808 -1.0844 -0.6702 -1.0724
    2MPD2    N114312   1.881   2.301  12.422  0.8501 -0.0788  0.5734
    2MPD2    H714313   1.826   2.280  12.505  0.6047 -1.9774 -0.0673
    3TCq1    O114314   2.716   2.434  13.203 -0.7775 -0.7005 -0.0080
    3TCq1    C114315   2.662   2.375  13.092  0.0383  0.8577 -0.2814
    3TCq1    O214316   2.705   2.275  13.035  0.8312 -0.4717 -0.0532
    3TCq1    C214317   2.541   2.446  13.063  0.0085  0.1703  0.2177
    3TCq1    C314318   2.488   2.526  13.160  0.5735  0.2451  0.4158
    3TCq1    C414319   2.379   2.610  13.124  0.0562  0.6996  0.2919
    3TCq1    C514320   2.327   2.598  12.997  0.0598 -0.0616  0.2759
    3TCq1    C614321   2.381   2.508  12.910  0.2056 -0.5916 -0.3731
    3TCq1    C714322   2.488   2.440  12.935 -0.2312  0.1576 -0.7764
    3TCq1    C814323   2.348   2.521  12.764  0.1509  0.0666 -0.0532
    3TCq1    O414324   2.440   2.559  12.693 -0.2026 -0.9276  0.0557
    3TCq1    C914325   2.303   2.691  13.215  0.0018  1.2341 -0.6795
    3TCq1    O514326   2.186   2.716  13.182  0.5697 -0.1074  0.3992
    3TCq1    O614327   2.352   2.705  13.328 -0.1469  0.1582  0.3576
    3TCq1    H114328   2.675   2.522  13.212  0.2827 -0.4285  2.0819
    3TCq1    H214329   2.513   2.521  13.266  0.2631  0.9616  0.5270
    3TCq1    H314330   2.245   2.656  12.956 -1.6692 -3.4615 -1.0938
    3TCq1    H414331   2.511   2.367  12.858 -0.1045 -0.9123  0.2800
    1MPD2     C14332   1.927   3.607  14.469 -0.0101 -0.1194 -0.5238
    1MPD2    C114333   1.868   3.486  14.445 -0.8430  0.2069  0.1565
    1MPD2    C214334   1.951   3.378  14.447 -0.2865  0.0992  0.4962
    1MPD2    C314335   2.085   3.388  14.473 -0.5083  0.5016 -0.6891
    1MPD2    C414336   2.139   3.510  14.508  0.1520 -0.2015  0.8050
    1MPD2    C514337   2.056   3.614  14.518 -0.2384 -0.5486  0.4629
    1MPD2     H14338   1.916   3.278  14.421 -0.7019  0.4983 -0.5023
    1MPD2    H114339   2.243   3.526  14.534  0.1976 -0.7259  0.9632
    1MPD2    H214340   1.873   3.701  14.465  0.3839  0.1127 -0.3269
    1MPD2    H314341   2.092   3.711  14.550  0.0074 -0.8747  1.1747
    1MPD2     N14342   2.155   3.267  14.464 -0.3346 -0.8236  0.1912
    1MPD2    H514343   2.098   3.186  14.443 -2.1247 -0.4865  3.6404
    1MPD2    N114344   1.728   3.470  14.436  0.3055 -0.3685 -1.0680
    1MPD2    H714345   1.668   3.552  14.435  4.0147  2.3585 -0.1470
    2TMC3    C114346   1.516   3.356  14.446 -0.3559 -0.2750 -0.1797
    2TMC3    C214347   1.473   3.226  14.459  0.3752  0.0268 -0.8105
    2TMC3    C314348   1.385   3.174  14.373  0.4048  1.3438 -0.5291
    2TMC3    C414349   1.470   3.423  14.335 -0.4978  0.9074  0.5893
    2TMC3    C514350   1.387   3.362  14.244 -0.1252 -0.3076  0.6283
    2TMC3    C614351   1.347   3.235  14.260 -0.0605 -0.7047  0.0088
    2TMC3     C14352   1.660   3.350  14.470 -0.3566  0.4026  0.0022
    2TMC3     O14353   1.704   3.240  14.497 -0.0997  0.1253 -0.5879
    2TMC3     H14354   1.517   3.178  14.546  2.0697 -1.2335 -2.3378
    2TMC3    H114355   1.520   3.519  14.327 -0.4234  0.9507  1.5771
    2TMC3    H214356   1.292   3.180  14.184  0.8623  0.6637 -1.6745
    2TMC3    C714357   1.315   3.440  14.147  0.5262  0.0397 -0.3477
    2TMC3    C814358   1.421   3.038  14.344 -1.2728 -0.8485 -0.5102
    2TMC3    O114359   1.245   3.378  14.071 -0.1677  0.0013 -0.2204
    2TMC3    O214360   1.340   2.965  14.296  0.0134 -0.2582 -0.7144
    3TCq1    O114361   1.363   4.683  13.950 -0.3948 -0.0124  0.3955
    3TCq1    C114362   1.429   4.581  13.892  0.0468 -0.4555 -0.3296
    3TCq1    O214363   1.428   4.559  13.769  0.0819 -0.2808  0.5776
    3TCq1    C214364   1.428   4.473  13.981 -0.3646  0.9241 -0.4965
    3TCq1    C314365   1.483   4.483  14.107  0.9010 -0.7865 -0.2016
    3TCq1    C414366   1.464   4.374  14.188  0.3327  0.2815 -0.5804
    3TCq1    C514367   1.405   4.262  14.147  0.2434 -0.2909 -0.5108
    3TCq1    C614368   1.359   4.260  14.019  0.5948  0.1747  0.4482
    3TCq1    C714369   1.357   4.364  13.935  0.2055 -0.0987  0.2302
    3TCq1    C814370   1.281   4.150  13.976  0.3515 -0.3105  0.0375
    3TCq1    O414371   1.197   4.170  13.891  0.2869 -0.1397  0.0615
    3TCq1    C914372   1.518   4.379  14.326 -0.4283 -0.0015  0.0854
    3TCq1    O514373   1.549   4.491  14.364  0.6861 -0.1150 -0.5809
    3TCq1    O614374   1.507   4.282  14.397 -0.1899  0.1630  0.0055
    3TCq1    H114375   1.332   4.642  14.033  0.1972 -0.4932  0.3803
    3TCq1    H214376   1.538   4.567  14.147  2.0466 -1.4117 -0.4438
    3TCq1    H314377   1.378   4.182  14.215  0.2792 -1.7098 -2.1604
    3TCq1    H414378   1.311   4.362  13.837 -1.7183 -3.1889  1.2070
    4MPD2     C14379   1.179   3.879  13.906 -0.3902 -0.3302 -0.4314
    4MPD2    C114380   1.267   3.902  14.012 -0.4521 -0.2424 -0.3358
    4MPD2    C214381   1.305   3.796  14.097  0.3746 -0.0069 -0.1991
    4MPD2    C314382   1.268   3.668  14.069 -0.0898 -0.0018 -0.2326
    4MPD2    C414383   1.175   3.645  13.972  0.5913 -0.0483 -0.0355
    4MPD2    C514384   1.125   3.753  13.897  0.0685 -0.0979 -0.5278
    4MPD2     H14385   1.369   3.823  14.180  0.8715 -1.9581  0.0518
    4MPD2    H114386   1.132   3.546  13.961  3.4238 -1.1856 -0.8825
    4MPD2    H214387   1.148   3.960  13.840 -0.4750  0.5937  0.7543
    4MPD2    H314388   1.063   3.732  13.810  0.0649 -2.2518 -0.0133
    4MPD2     N14389   1.327   3.571  14.160  0.5273 -0.9456 -0.1958
    4MPD2    H514390   1.374   3.603  14.245 -0.5130 -0.0863  0.0596
    4MPD2    N114391   1.319   4.031  14.039 -0.1909  0.1560  0.5009
    4MPD2    H714392   1.384   4.036  14.116 -0.0314  2.6271  0.1913
    5TMC2    C114393   2.206   2.921  14.367 -0.2734 -0.1976 -1.0975
    5TMC2    C214394   2.289   2.846  14.449 -0.2203 -0.3404 -0.0287
    5TMC2    C314395   2.367   2.910  14.540 -0.3734 -0.0382  0.7682
    5TMC2    C414396   2.244   3.058  14.355  0.0634  0.3765  0.4524
    5TMC2    C514397   2.328   3.122  14.446  0.2143  0.2020 -0.1263
    5TMC2    C614398   2.376   3.042  14.545 -0.0535 -0.6764 -0.4998
    5TMC2     C14399   2.064   2.927  14.388  0.2064  0.1663  0.3341
    5TMC2     O14400   2.026   3.040  14.415 -0.5468 -1.0915 -0.0243
    5TMC2     H14401   2.270   2.740  14.462 -0.8374 -0.4149 -1.4957
    5TMC2    H114402   2.199   3.120  14.278  3.7178 -1.0015 -2.8196
    5TMC2    H214403   2.430   3.093  14.624 -1.1428 -0.6468  0.2326
    5TMC2    C714404   2.283   3.245  14.498 -0.4897  0.6315 -0.2582
    5TMC2    C814405   2.401   2.842  14.662  0.2593 -0.0381  0.3409
    5TMC2    O114406   2.363   3.326  14.545  0.2866 -0.2626  0.1322
    5TMC2    O214407   2.467   2.738  14.648 -0.1141  0.6154 -0.6576
    5TMC2    O514408   2.272   2.829  14.695  0.4441 -0.0533  0.2029
    5TMC2    H514409   2.229   2.917  14.697  0.1541 -0.1743 -0.6501
    6MPD2     C14410   1.578   2.773  14.314 -0.1791 -0.0713 -1.0846
    6MPD2    C114411   1.630   2.891  14.358  0.8803 -0.2745 -0.1234
    6MPD2    C214412   1.764   2.895  14.389 -0.4390 -0.4199 -0.0547
    6MPD2    C314413   1.851   2.793  14.361  0.5669  0.4448  0.5066
    6MPD2    C414414   1.793   2.674  14.312  0.3980 -0.0965  0.5244
    6MPD2    C514415   1.660   2.665  14.298  0.4741 -0.2017 -0.6377
    6MPD2     H14416   1.798   2.990  14.430  0.3574 -0.9413  0.4771
    6MPD2    H114417   1.859   2.590  14.294  0.2102 -1.0376  4.2478
    6MPD2    H214418   1.474   2.752  14.295 -1.1213  2.0260  1.6906
    6MPD2    H314419   1.617   2.576  14.254  2.1325 -1.0086 -0.6083
    6MPD2     N14420   1.997   2.810  14.365 -0.1227 -0.4037  0.1347
    6MPD2    H514421   2.051   2.733  14.327  0.5124  1.1031 -1.9809
    6MPD2    N114422   1.558   3.010  14.374 -0.1858  0.7624  0.2015
    6MPD2    H714423   1.610   3.087  14.413 -0.4253  0.8601  0.3264
  945NH3     N114424   0.816   2.332  14.588 -0.1062 -0.3041 -0.0685
  945NH3     H214425   0.852   2.310  14.680  0.3483  0.4433 -0.0655
  945NH3     H314426   0.720   2.340  14.617  0.4170 -1.1441  1.8732
  945NH3     H414427   0.855   2.425  14.574  0.8030 -0.4250  1.6604
  946SOD     NA14428   3.609   0.857  13.766 -0.1582 -0.2069  0.3148
  947SOD     NA14429   4.586   0.663  13.142 -0.6204  0.2592  0.5965
  948SOD     NA14430   1.352   1.439   9.471 -0.0961 -0.3754 -0.4186
  949SOD     NA14431   3.019   2.147   8.792  0.1054  0.6159 -0.5751
  950SOD     NA14432   4.175   3.050  14.864 -0.4566 -0.3125 -0.2199
  951SOD     NA14433   1.893   0.132   3.472 -0.4708 -0.1189 -0.1147
  952SOD     NA14434   1.496   0.808  11.048  0.0773 -0.1074  0.3724
  953SOD     NA14435   0.044   0.512   0.277 -0.0755  0.0289 -0.0067
  954SOD     NA14436   0.854   1.305  11.313 -0.1834 -0.5651  0.0020
  955SOD     NA14437   4.389   2.216  13.589  0.5932  0.1915 -0.4186
  956SOD     NA14438   4.039   3.108  17.079 -0.4328 -0.0430  0.3348
  957SOD     NA14439   2.691   1.736  10.149  0.2914  0.4090  0.1523
  958SOD     NA14440   4.290   3.845   6.712 -0.1609  0.5575  0.2336
  959SOD     NA14441   3.613   2.155  14.588  0.3684  0.0238 -0.1576
  960SOD     NA14442   4.025   1.247  12.270 -0.0108  0.5077 -0.1048
  961SOD     NA14443   1.927   1.106   1.925 -0.0252  0.0511  0.4834
  962SOD     NA14444   1.254   2.735  10.573 -0.0618 -0.0921  0.1482
  963SOD     NA14445   0.503   3.579   2.823 -0.2739 -0.1180  0.2042
  964SOD     NA14446   3.113   2.903  12.702  0.8907  0.8065 -0.1853
  965SOD     NA14447   1.017   1.374   1.082  0.2485 -0.5210  0.0938
  966SOD     NA14448   3.996   3.261  14.101  0.2917  0.6210 -0.3495
  967SOD     NA14449   4.294   1.785   8.720 -0.1270 -0.0411 -0.2531
  968SOD     NA14450   1.762   1.181  12.009  0.1153 -0.4065 -0.2837
  969SOD     NA14451   4.341   3.034  16.269 -0.4016 -0.2125  0.1167
  970SOD     NA14452   0.322   0.486   9.163  0.0717 -0.0052 -0.2842
  971SOD     NA14453   0.391   1.310  14.991  0.5563  0.2513  0.3666
  972SOD     NA14454   1.235   3.802  11.844  0.2213 -0.1666  0.4966
  973SOD     NA14455   0.304   2.304  17.660 -0.5586 -0.2007  0.3593
  974SOD     NA14456   2.641   2.136  11.497  0.1886  0.2561 -0.2644
  975SOD     NA14457   1.175   0.433   2.401  0.0132  0.1601  0.3650
  976SOD     NA14458   1.245   2.833  10.893 -0.1045 -0.2107 -0.2926
  977SOD     NA14459   2.378   2.352  11.631 -0.4757  0.1602  0.0885
  978SOD     NA14460   1.765   1.423   1.722  0.2813 -0.2893 -0.0551
  979SOD     NA14461   2.653   4.418  13.678  0.2119  0.2501 -0.0556
  980SOD     NA14462   0.234   4.357   9.381  0.0391  0.3878  0.4195
  981SOD     NA14463   1.146   2.328  10.541 -0.3960 -0.1666 -0.3850
  982SOD     NA14464   4.644   3.595  17.613  0.2528  0.5869 -0.1053
  983SOD     NA14465   3.611   4.112  11.072  0.1062  0.1624  0.2644
  984SOD     NA14466   3.150   3.805  12.123 -0.0120 -0.6537 -0.0148
  985SOD     NA14467   2.166   2.344  11.376  0.5016 -0.7722  0.6562
  986SOD     NA14468   4.156   3.296   1.312  0.0086 -0.4809  0.4879
  987SOD     NA14469   2.324   2.654  13.536 -0.3201 -0.0687 -0.5615
  988SOD     NA14470   1.175   0.196   1.761 -0.5303  0.0515  0.3232
  989SOD     NA14471   1.906   1.769   9.361  0.3425  0.0341  0.4732
  990SOD     NA14472   3.069   3.260   2.987  0.1510  0.2197  0.0119
  991SOD     NA14473   3.557   2.217  14.276  0.0968 -0.6078  0.4998
  992SOD     NA14474   1.564   4.070  15.468 -0.5233 -0.3849  0.3207
  993SOD     NA14475   3.066   3.207   0.814  0.4661 -0.0867 -0.0533
  994SOD     NA14476   3.195   4.203  13.933  0.4372 -0.6440 -0.2857
  995SOD     NA14477   4.350   3.473  12.582 -0.4124 -0.1616 -0.0242
  996SOD     NA14478   4.369   2.435   5.430  0.4852  0.0560 -0.2447
  997SOD     NA14479   2.700   3.200  14.833 -0.2287 -0.2650 -0.1126
  998SOD     NA14480   4.631   0.808  15.420 -0.5908 -0.3291 -0.0955
  999SOD     NA14481   0.736   1.892   6.635 -0.1891 -0.2967  0.3549
 1000SOD     NA14482   1.008   1.228  10.748 -0.6856  0.1329 -0.3414
 1001SOD     NA14483   3.688   3.172  10.900 -0.8179  0.1596 -0.2787
 1002SOD     NA14484   1.192   1.158   8.599  0.1279  0.1003 -0.0669
 1003SOD     NA14485   2.332   2.825  12.304  0.1587 -0.1600  0.3905
 1004SOD     NA14486   4.263   1.314   1.079 -0.2454  0.3084 -0.1039
 1005SOD     NA14487   1.845   4.668  12.162  0.4954  0.0683 -0.5342
 1006SOD     NA14488   3.485   2.053  10.414 -0.1539  0.0917 -0.4984
 1007SOD     NA14489   0.051   1.963   0.488 -0.1591 -0.4638 -0.0640
 1008SOD     NA14490   1.320   0.010  13.678  0.0608  0.0818 -0.0205
 1009SOD     NA14491   0.909   2.517  15.575  0.6354  0.5316 -0.1430
 1010SOD     NA14492   3.368   3.881  17.431 -0.5756 -0.8675 -0.4290
 1011SOD     NA14493   3.826   2.993   6.340 -0.4348  0.0939 -0.1290
 1012SOL     OW14494   4.459   2.090  15.983 -0.2783  0.0475  0.3083
 1012SOL    HW114495   4.372   2.111  15.948  0.5951  3.5867  0.2933
 1012SOL    HW214496   4.471   2.006  15.938  0.4519  0.1140  0.3887
 1013SOL     OW14497   0.921   3.592   2.793  0.8526 -0.1322  0.0209
 1013SOL    HW114498   0.911   3.616   2.700 -2.7557 -1.4857  0.0964
 1013SOL    HW214499   0.965   3.507   2.793  2.3796  0.6469 -1.4778
 1014SOL     OW14500   1.237   3.701   4.705  0.3424 -0.1713  0.4079
 1014SOL    HW114501   1.142   3.689   4.709  0.5667 -1.3761  1.7114
 1014SOL    HW214502   1.249   3.794   4.726  0.7846  0.3904 -2.3204
 1015SOL     OW14503   1.365   2.347   6.116 -0.0472  0.3616  0.0187
 1015SOL    HW114504   1.347   2.339   6.022 -1.6158 -2.9918  0.6489
 1015SOL    HW214505   1.397   2.262   6.143 -0.5765  0.2670  0.3386
 1016SOL     OW14506   4.234   3.722  12.872 -0.1596 -0.8177  0.3184
 1016SOL    HW114507   4.293   3.650  12.849  1.6684  0.3089  1.4081
 1016SOL    HW214508   4.269   3.736  12.961  1.7886 -3.1016 -0.0733
 1017SOL     OW14509   0.907   3.377   3.108 -0.0028  0.0065 -0.2411
 1017SOL    HW114510   0.976   3.361   3.043 -1.1292 -0.4953 -1.3395
 1017SOL    HW214511   0.823   3.390   3.064  0.9303 -1.4589 -2.4832
 1018SOL     OW14512   1.069   4.191   0.576 -0.1848 -0.4010 -0.3604
 1018SOL    HW114513   1.083   4.224   0.665  0.5364  2.1409 -1.4222
 1018SOL    HW214514   1.090   4.269   0.526 -0.8417 -2.1936 -3.4392
 1019SOL     OW14515   4.357   3.491   7.908 -0.3085 -0.3023 -0.2232
 1019SOL    HW114516   4.328   3.543   7.833  1.8800  0.6277 -0.3996
 1019SOL    HW214517   4.430   3.548   7.932 -1.7293  1.3811  0.1193
 1020SOL     OW14518   4.588   1.394   4.126  0.0873  0.8341  0.1317
 1020SOL    HW114519   4.599   1.300   4.110  0.3822  1.4250 -3.2136
 1020SOL    HW214520   4.514   1.395   4.187  1.0085  1.3212  1.2177
 1021SOL     OW14521   2.677   3.543   5.895  0.3765  0.3823  0.3251
 1021SOL    HW114522   2.636   3.593   5.966 -0.5129 -0.1143  0.1672
 1021SOL    HW214523   2.667   3.450   5.914 -2.3359  1.2862  3.3442
 1022SOL     OW14524   0.340   0.902   2.950 -0.1786  0.2619 -0.0768
 1022SOL    HW114525   0.304   0.845   2.882  0.0626  1.6668 -1.3783
 1022SOL    HW214526   0.263   0.950   2.981 -0.3114 -0.0831  0.1214
 1023SOL     OW14527   1.278   0.921   7.668  0.4270  0.0881 -0.1501
 1023SOL    HW114528   1.272   0.826   7.655  0.1712  0.4119 -2.2939
 1023SOL    HW214529   1.247   0.924   7.759  1.2803  1.9257  0.0762
 1024SOL     OW14530   3.457   1.689  15.561 -0.7464 -0.5882 -0.3413
 1024SOL    HW114531   3.414   1.703  15.476  0.6545  0.1992 -0.9335
 1024SOL    HW214532   3.469   1.594  15.559  1.5167 -0.2977 -0.3348
 1025SOL     OW14533   4.597   3.476   5.535 -0.2227 -0.0939  0.0315
 1025SOL    HW114534   4.577   3.470   5.628 -0.3226 -0.3006 -0.0034
 1025SOL    HW214535   4.543   3.409   5.493 -1.8564  0.3649  1.4243
 1026SOL     OW14536   2.250   1.240   3.999 -0.1794  0.6031 -0.7469
 1026SOL    HW114537   2.312   1.268   4.066  0.0609  0.4903 -0.9234
 1026SOL    HW214538   2.169   1.291   4.008 -0.9678 -0.3944 -2.3708
 1027SOL     OW14539   0.414   4.562  16.956  0.8147  0.4290  0.0116
 1027SOL    HW114540   0.330   4.600  16.980  0.8882  1.0491 -0.7279
 1027SOL    HW214541   0.446   4.539  17.043 -0.2780  0.6735  0.4723
 1028SOL     OW14542   1.733   1.830   3.958  0.2244 -0.5254  0.2008
 1028SOL    HW114543   1.815   1.878   3.967 -1.0440  1.4295  1.0984
 1028SOL    HW214544   1.730   1.796   4.047 -0.5458 -2.3684 -0.5007
 1029SOL     OW14545   2.642   1.398  10.998  0.2697  0.2611  0.3419
 1029SOL    HW114546   2.561   1.374  11.044 -0.2118  0.6342 -0.3146
 1029SOL    HW214547   2.651   1.490  11.020 -2.3227  0.1953  1.6367
 1030SOL     OW14548   2.728   0.630   5.085  0.5563  0.3823 -0.2364
 1030SOL    HW114549   2.709   0.691   5.155  1.3144 -1.3172  1.4637
 1030SOL    HW214550   2.639   0.617   5.052  0.1189 -1.3924  1.6717
 1031SOL     OW14551   3.821   0.487   4.491 -0.6826  0.0143  0.1994
 1031SOL    HW114552   3.848   0.488   4.583 -1.5865 -0.9210  0.4689
 1031SOL    HW214553   3.773   0.405   4.482  0.7556 -0.7962 -0.1111
 1032SOL     OW14554   2.196   1.589   8.917 -0.3510 -0.2145 -0.6110
 1032SOL    HW114555   2.219   1.655   8.983  0.4802  0.3399 -1.4614
 1032SOL    HW214556   2.107   1.573   8.948  0.6351 -1.8372  1.3977
 1033SOL     OW14557   2.190   3.271   3.883  0.0815 -0.1955  0.2851
 1033SOL    HW114558   2.156   3.205   3.943  1.2067  0.0553  1.1961
 1033SOL    HW214559   2.182   3.218   3.804  2.8840 -3.2540  2.0840
 1034SOL     OW14560   2.333   4.699   0.466 -1.1599  0.1297  0.0122
 1034SOL    HW114561   2.255   4.649   0.443 -0.7684 -0.6126  0.2742
 1034SOL    HW214562   2.395   4.645   0.417 -1.1147  0.3972 -0.2276
 1035SOL     OW14563   2.050   4.603  14.474 -0.0263 -0.2735 -0.4594
 1035SOL    HW114564   2.013   4.686  14.505 -2.6558 -0.8693 -1.9776
 1035SOL    HW214565   1.992   4.544  14.522  2.0245 -0.7553  1.4047
 1036SOL     OW14566   3.474   0.181   5.947 -0.3787  0.4153 -0.3024
 1036SOL    HW114567   3.433   0.136   6.021 -0.7379  3.1157  1.1377
 1036SOL    HW214568   3.470   0.119   5.875 -0.6564  0.3324 -0.2164
 1037SOL     OW14569   2.762   3.478  16.812  1.2070  0.3836  0.5972
 1037SOL    HW114570   2.669   3.489  16.832  1.9144  2.5539  2.6436
 1037SOL    HW214571   2.779   3.545  16.745 -0.5213  0.6953  0.4858
 1038SOL     OW14572   0.180   1.607   5.090  0.0174 -0.2617 -0.4152
 1038SOL    HW114573   0.158   1.577   5.001  0.0551  0.7850 -0.7841
 1038SOL    HW214574   0.224   1.691   5.081  2.2631 -1.0618  3.5375
 1039SOL     OW14575   4.133   4.296   3.196 -0.6110 -0.4379  0.7069
 1039SOL    HW114576   4.228   4.294   3.194 -0.6907 -1.5474 -1.7808
 1039SOL    HW214577   4.119   4.384   3.230  1.3516  0.5003 -0.9455
 1040SOL     OW14578   3.970   1.362   5.248 -0.2213 -0.1082  0.3532
 1040SOL    HW114579   4.022   1.351   5.327  0.8880 -1.4785 -0.5749
 1040SOL    HW214580   4.004   1.288   5.198 -1.5055 -0.7580  0.4326
 1041SOL     OW14581   2.716   3.237   7.000  0.5266  0.0476 -0.6025
 1041SOL    HW114582   2.641   3.193   7.040  0.3487  1.2731  0.4099
 1041SOL    HW214583   2.761   3.160   6.963  1.9230  0.2477  0.6852
 1042SOL     OW14584   3.216   3.199  12.053 -0.0045  0.1058  0.0629
 1042SOL    HW114585   3.247   3.186  12.142  0.9076  1.1336 -0.1172
 1042SOL    HW214586   3.251   3.283  12.023  1.2628 -0.5059 -0.1456
 1043SOL     OW14587   0.417   2.364   5.034 -0.3327  0.1861  0.3807
 1043SOL    HW114588   0.433   2.454   5.005 -1.5884  0.0241 -0.8029
 1043SOL    HW214589   0.363   2.331   4.963  0.9199 -2.3728  0.6331
 1044SOL     OW14590   1.114   1.046   5.665  0.6817 -0.0092  0.0100
 1044SOL    HW114591   1.177   0.974   5.668  1.0323  0.2159 -2.4369
 1044SOL    HW214592   1.162   1.117   5.710 -0.1331 -0.1099  1.0346
 1045SOL     OW14593   3.715   0.032   5.316 -0.0842  0.0778 -0.6060
 1045SOL    HW114594   3.678   0.013   5.230 -2.9462  0.0460  0.6189
 1045SOL    HW214595   3.711   4.668   5.357 -1.8399 -0.2219 -1.3890
 1046SOL     OW14596   3.682   2.429  11.694  0.3403 -0.3935 -0.0225
 1046SOL    HW114597   3.649   2.504  11.744  1.1852  1.3009 -1.9899
 1046SOL    HW214598   3.597   2.410  11.653 -0.3040 -1.0085  1.6245
 1047SOL     OW14599   3.312   4.194   2.890 -0.1271 -0.0664 -0.0597
 1047SOL    HW114600   3.372   4.196   2.815  1.5025 -1.4887  1.2262
 1047SOL    HW214601   3.342   4.117   2.939  1.7693  2.0431  2.0608
 1048SOL     OW14602   2.510   3.438  16.939 -0.3669 -0.4197 -0.3155
 1048SOL    HW114603   2.467   3.427  17.024  0.1637 -1.3348 -0.1650
 1048SOL    HW214604   2.441   3.474  16.884  0.3930  0.1119 -0.9129
 1049SOL     OW14605   0.463   3.472   8.030  0.4051  0.4286  0.2730
 1049SOL    HW114606   0.554   3.476   8.001  0.4489 -1.2369  0.1707
 1049SOL    HW214607   0.466   3.410   8.103 -1.6466 -0.0300 -0.0217
 1050SOL     OW14608   3.329   4.369   3.529  0.0029 -0.3306  0.0610
 1050SOL    HW114609   3.394   4.428   3.492  1.7306 -1.2659  1.6248
 1050SOL    HW214610   3.386   4.293   3.524 -1.7082 -1.6411  0.3381
 1051SOL     OW14611   1.393   1.787  10.608  0.0855  0.0038 -0.7481
 1051SOL    HW114612   1.422   1.824  10.525  0.0524 -0.5137 -0.9889
 1051SOL    HW214613   1.467   1.728  10.615  0.1196  0.2290  0.7043
 1052SOL     OW14614   0.988   2.009   2.842 -0.0526 -0.1300 -0.2787
 1052SOL    HW114615   1.066   1.955   2.855  0.2123  0.4943  0.7571
 1052SOL    HW214616   0.975   2.047   2.929  0.2221  0.9172 -0.6892
 1053SOL     OW14617   4.394   2.722   4.548  0.0917 -0.1063  1.1645
 1053SOL    HW114618   4.452   2.646   4.548  2.3990  1.7071 -0.9128
 1053SOL    HW214619   4.450   2.787   4.590  1.4728 -0.5439 -0.0244
 1054SOL     OW14620   2.547   3.902   4.509 -0.2028 -0.1112 -0.5154
 1054SOL    HW114621   2.483   3.835   4.484 -2.2083  1.5322  0.2808
 1054SOL    HW214622   2.541   3.966   4.438  2.2728  2.2261  1.3972
 1055SOL     OW14623   0.448   4.350   7.562 -0.1638  0.3009  0.2481
 1055SOL    HW114624   0.430   4.266   7.521 -0.3308  1.0117 -1.1277
 1055SOL    HW214625   0.543   4.356   7.565 -0.2174  1.0424  0.5114
 1056SOL     OW14626   1.761   4.014   6.675 -0.5123 -0.1542  0.2342
 1056SOL    HW114627   1.684   3.959   6.663  1.3680 -2.3698 -1.4801
 1056SOL    HW214628   1.808   3.977   6.750  0.6004 -1.5738 -1.1724
 1057SOL     OW14629   0.058   1.760   3.928  0.0990 -0.3227 -0.1629
 1057SOL    HW114630   0.069   1.851   3.957 -1.7850 -0.6266  1.4706
 1057SOL    HW214631   0.114   1.704   3.982  1.5787  0.9938 -0.3252
 1058SOL     OW14632   2.855   1.801   4.601  0.0350  0.2274 -0.4477
 1058SOL    HW114633   2.942   1.793   4.641 -0.7548  0.4240  1.2743
 1058SOL    HW214634   2.864   1.867   4.531 -4.3759  0.5568 -0.7139
 1059SOL     OW14635   4.291   2.022   1.576 -0.9756 -0.1383 -0.0934
 1059SOL    HW114636   4.303   2.060   1.663 -2.2953  2.6031 -1.0859
 1059SOL    HW214637   4.258   2.105   1.541 -1.7002 -0.5242 -0.3485
 1060SOL     OW14638   1.659   1.251   3.920 -0.1028  0.3195 -0.0034
 1060SOL    HW114639   1.717   1.326   3.919 -0.1664  0.3715  0.5541
 1060SOL    HW214640   1.598   1.288   3.983  1.4363  1.2796  0.9111
 1061SOL     OW14641   0.084   1.665   3.387 -0.0215 -0.0894 -0.3157
 1061SOL    HW114642   0.016   1.715   3.433 -2.0003 -2.7179 -0.3680
 1061SOL    HW214643   0.050   1.670   3.298  1.3829  0.4364 -0.8208
 1062SOL     OW14644   3.106   2.980   0.802  0.4048 -0.3213  0.3671
 1062SOL    HW114645   3.085   2.907   0.859  2.8863 -0.4888  1.0823
 1062SOL    HW214646   3.186   2.950   0.758 -0.0111  0.5924 -1.0075
 1063SOL     OW14647   0.866   2.860   1.082 -0.5407 -0.4426 -0.1369
 1063SOL    HW114648   0.843   2.922   1.151  1.4877 -0.3939  0.5070
 1063SOL    HW214649   0.834   2.902   1.002  0.9080  0.0675 -0.4573
 1064SOL     OW14650   1.026   4.119  17.471 -0.4527 -0.3644 -0.5281
 1064SOL    HW114651   0.932   4.127  17.459 -0.3505  0.9774 -0.4419
 1064SOL    HW214652   1.038   4.024  17.477  1.5091 -0.1305 -0.5595
 1065SOL     OW14653   4.652   0.470   8.253  0.3956  0.1345 -0.2976
 1065SOL    HW114654   4.685   0.540   8.196  0.8928  2.4674  2.8887
 1065SOL    HW214655   4.720   0.465   8.319  0.6689 -1.2489 -0.6829
 1066SOL     OW14656   0.089   0.895   6.989 -0.0064  0.2374 -0.1145
 1066SOL    HW114657   0.147   0.865   6.918  2.0023 -0.9662  2.0464
 1066SOL    HW214658   0.004   0.912   6.948  0.0908  1.1491  0.0460
 1067SOL     OW14659   1.453   3.920  16.836  0.4329 -0.5550 -0.0308
 1067SOL    HW114660   1.516   3.866  16.789 -0.3699 -1.3491 -0.2045
 1067SOL    HW214661   1.500   3.953  16.913 -0.7088 -1.1899  0.9525
 1068SOL     OW14662   3.726   3.016   1.605  0.2303  0.8382 -0.0918
 1068SOL    HW114663   3.805   2.964   1.586 -0.5912 -0.6331  0.5573
 1068SOL    HW214664   3.757   3.067   1.680  0.1011 -2.8172  2.4170
 1069SOL     OW14665   0.338   3.739   3.942 -0.0202  0.4721 -0.1962
 1069SOL    HW114666   0.401   3.769   3.877  1.4051 -1.9830  0.0704
 1069SOL    HW214667   0.399   3.691   3.998  2.1882 -1.8073 -4.6186
 1070SOL     OW14668   1.932   3.807  12.913 -0.2296  0.4067 -0.2064
 1070SOL    HW114669   2.022   3.798  12.883  0.0831 -1.0784  1.1992
 1070SOL    HW214670   1.887   3.738  12.864  1.5875  0.3396 -1.7884
 1071SOL     OW14671   4.363   3.723   4.194  0.0411  0.4197  0.0848
 1071SOL    HW114672   4.376   3.803   4.245  0.4322  1.2037 -1.2614
 1071SOL    HW214673   4.369   3.754   4.104 -0.0135  2.1909  0.6933
 1072SOL     OW14674   4.608   3.282   7.569 -0.0995 -0.3396 -0.1748
 1072SOL    HW114675   4.609   3.361   7.623  0.5985  0.7272 -1.7466
 1072SOL    HW214676   4.690   3.246   7.602 -0.2064  0.6522  1.1582
 1073SOL     OW14677   2.653   3.737   3.081  0.5265 -0.1231  0.0621
 1073SOL    HW114678   2.735   3.696   3.108  1.6475  1.3130 -1.1080
 1073SOL    HW214679   2.642   3.710   2.990 -0.4373  0.6010 -0.0308
 1074SOL     OW14680   4.607   2.401   1.041  0.0417  0.3082 -0.2391
 1074SOL    HW114681   4.583   2.338   1.108 -1.5646 -1.6070 -2.5999
 1074SOL    HW214682   4.702   2.398   1.050 -0.3553 -0.7438  3.2953
 1075SOL     OW14683   2.210   4.002   4.457  0.1063  0.1908  0.2087
 1075SOL    HW114684   2.228   3.909   4.446  1.2465  0.3148  0.9238
 1075SOL    HW214685   2.277   4.044   4.403  0.5825 -0.6713  0.1371
 1076SOL     OW14686   2.115   3.561   8.018  0.0955 -0.3211  0.5286
 1076SOL    HW114687   2.032   3.539   7.975 -0.0084  0.6507  0.2220
 1076SOL    HW214688   2.088   3.581   8.108 -2.0911 -1.4731  0.1264
 1077SOL     OW14689   3.882   4.216   3.246 -0.0172  0.1192  0.4484
 1077SOL    HW114690   3.903   4.125   3.267  1.1448 -0.2490 -2.2012
 1077SOL    HW214691   3.970   4.241   3.218  0.2608 -0.2680  0.9767
 1078SOL     OW14692   1.072   2.880  12.176 -0.2823 -0.0239 -0.0778
 1078SOL    HW114693   1.125   2.952  12.209 -1.4008  0.6370  0.2691
 1078SOL    HW214694   1.139   2.812  12.173  1.5682  1.7141  2.0562
 1079SOL     OW14695   1.398   0.340   8.127 -0.5459  0.5523 -0.2353
 1079SOL    HW114696   1.428   0.339   8.218 -0.8276  2.7539 -0.1193
 1079SOL    HW214697   1.311   0.376   8.141 -0.9416 -0.1000 -1.0614
 1080SOL     OW14698   1.108   0.827   6.244  0.1083 -0.1842 -0.1785
 1080SOL    HW114699   1.016   0.799   6.246  0.8438 -2.4545  1.9667
 1080SOL    HW214700   1.083   0.912   6.209  1.2149 -0.1883 -0.9526
 1081SOL     OW14701   2.284   4.105   5.090 -0.3443  0.4402 -0.3707
 1081SOL    HW114702   2.309   4.066   5.174  1.5955  2.3644 -0.0712
 1081SOL    HW214703   2.352   4.058   5.043 -1.0676 -1.8090  0.8398
 1082SOL     OW14704   0.093   0.693   8.160 -0.5299  0.4083 -0.4062
 1082SOL    HW114705   0.180   0.667   8.130 -0.8832 -0.5454 -0.6036
 1082SOL    HW214706   0.094   0.691   8.255  0.5646 -3.1979 -0.4807
 1083SOL     OW14707   4.347   0.731  13.623  0.2667  0.1285 -0.5381
 1083SOL    HW114708   4.385   0.645  13.605 -1.8922 -0.4430 -2.2476
 1083SOL    HW214709   4.399   0.786  13.564  1.4333 -0.3566  0.0439
 1084SOL     OW14710   3.299   2.118  10.579 -0.3521  0.3380  0.1880
 1084SOL    HW114711   3.226   2.064  10.610  1.1080 -1.6493  0.1132
 1084SOL    HW214712   3.355   2.097  10.653  0.5168  1.4148 -0.1638
 1085SOL     OW14713   0.348   0.918   7.353 -0.0566  0.1695  0.3820
 1085SOL    HW114714   0.441   0.899   7.337 -1.0212 -3.6643 -0.7083
 1085SOL    HW214715   0.366   0.979   7.425  0.3292  0.3744  0.1129
 1086SOL     OW14716   0.846   4.690   2.970  0.7145  0.3851  0.0115
 1086SOL    HW114717   0.815   0.048   2.929 -4.4365 -1.8371 -0.4726
 1086SOL    HW214718   0.782   4.681   3.041 -0.3106 -2.1718 -1.2616
 1087SOL     OW14719   3.945   0.531   8.297  0.1968  0.3366  0.0562
 1087SOL    HW114720   3.907   0.601   8.350 -0.4829 -0.6931  0.9359
 1087SOL    HW214721   3.921   0.454   8.348 -1.0863  0.3353 -0.5373
 1088SOL     OW14722   4.144   0.258  14.982 -0.0724  0.7737  0.3764
 1088SOL    HW114723   4.239   0.267  14.971  0.3690 -1.5778  2.1771
 1088SOL    HW214724   4.126   0.314  15.057 -1.8303  4.4759 -2.8103
 1089SOL     OW14725   3.805   4.067   8.137  0.2212 -0.3164 -0.3686
 1089SOL    HW114726   3.770   4.057   8.225  1.6282 -0.5313  0.1747
 1089SOL    HW214727   3.769   3.994   8.086  0.4978 -0.4508 -0.3733
 1090SOL     OW14728   0.694   3.334  14.378 -0.5994 -0.0748 -0.1687
 1090SOL    HW114729   0.732   3.265  14.434 -0.9144 -0.4559 -0.4202
 1090SOL    HW214730   0.772   3.353  14.327 -0.9316  1.5785 -0.0382
 1091SOL     OW14731   1.397   4.540   6.967 -1.0134  0.3377  0.9379
 1091SOL    HW114732   1.348   4.622   6.971 -1.8577  0.0025 -3.0267
 1091SOL    HW214733   1.486   4.565   6.992 -1.7708  2.4858  1.4645
 1092SOL     OW14734   2.968   2.350   9.213  1.1063  0.0602 -0.8281
 1092SOL    HW114735   3.030   2.354   9.286 -0.4860  0.1081  0.5327
 1092SOL    HW214736   2.944   2.443   9.207  0.4214 -0.0420  0.2561
 1093SOL     OW14737   4.435   4.087   2.877 -0.4380 -0.4524 -0.1522
 1093SOL    HW114738   4.448   4.039   2.796  1.0318 -0.9322  0.3690
 1093SOL    HW214739   4.469   4.173   2.853 -0.9087 -0.1897  0.1207
 1094SOL     OW14740   0.469   0.751   6.029 -0.4738  0.0810  0.2191
 1094SOL    HW114741   0.490   0.776   5.939 -1.6714 -0.1867 -0.1355
 1094SOL    HW214742   0.552   0.715   6.060 -0.0323  0.4526 -0.5253
 1095SOL     OW14743   0.420   0.945  14.526 -0.1486  0.0551 -0.6109
 1095SOL    HW114744   0.361   0.900  14.586 -0.6043  2.0725  0.4559
 1095SOL    HW214745   0.354   0.949  14.457 -1.3871 -0.1666  0.5684
 1096SOL     OW14746   0.976   1.398   8.384  0.5477 -0.3812 -0.5768
 1096SOL    HW114747   1.017   1.437   8.461  1.8138 -1.9209 -0.4834
 1096SOL    HW214748   0.956   1.313   8.422 -0.5448  0.7628  1.3613
 1097SOL     OW14749   2.865   1.388  14.774  0.0481 -0.3357  0.0566
 1097SOL    HW114750   2.853   1.481  14.750 -0.2053 -0.5890 -0.8266
 1097SOL    HW214751   2.889   1.397  14.866 -0.5635 -0.1749  0.1977
 1098SOL     OW14752   0.606   0.847   7.284  0.2865  0.2453  0.2551
 1098SOL    HW114753   0.630   0.869   7.194 -0.4191  0.6722  0.1772
 1098SOL    HW214754   0.685   0.866   7.335  0.9648 -0.9092 -0.3602
 1099SOL     OW14755   0.291   0.907   6.201 -0.4006  0.4456 -0.5757
 1099SOL    HW114756   0.349   0.982   6.212  0.7320 -0.1449 -2.6081
 1099SOL    HW214757   0.343   0.855   6.140  0.3347 -0.2128  0.6070
 1100SOL     OW14758   1.074   4.008   3.967 -0.5632 -0.6867 -0.3930
 1100SOL    HW114759   1.136   3.959   3.912 -0.7214  0.4213 -1.5432
 1100SOL    HW214760   1.138   4.050   4.024 -0.8350 -0.9243  0.0886
 1101SOL     OW14761   0.464   1.620   5.559  0.1602  0.6943 -0.1093
 1101SOL    HW114762   0.485   1.529   5.538  1.6860  1.3119 -1.2623
 1101SOL    HW214763   0.551   1.661   5.557 -0.0074  0.9817 -1.1157
 1102SOL     OW14764   2.010   3.903   8.941  0.1538  0.1764 -0.3340
 1102SOL    HW114765   2.053   3.977   8.984  1.4808 -1.8091  1.7170
 1102SOL    HW214766   1.922   3.940   8.929  1.9227  3.8763 -1.9471
 1103SOL     OW14767   3.308   1.832  15.775 -0.4684  0.1902  0.0120
 1103SOL    HW114768   3.241   1.859  15.712  0.0103  0.3718 -0.4211
 1103SOL    HW214769   3.373   1.799  15.713  1.7600  0.4020  2.2291
 1104SOL     OW14770   1.314   2.464  13.351 -0.5555 -0.5433  0.8928
 1104SOL    HW114771   1.312   2.548  13.398  2.6088  0.4218 -0.6589
 1104SOL    HW214772   1.409   2.453  13.347 -0.4560  0.7057 -0.1499
 1105SOL     OW14773   3.037   2.655  15.249 -0.0051  0.0368  0.1499
 1105SOL    HW114774   3.067   2.647  15.340  0.7976  1.9958  0.0551
 1105SOL    HW214775   3.108   2.624  15.193  2.2642  0.5466  2.7566
 1106SOL     OW14776   2.306   0.073   2.473  0.6098 -0.3997  0.2283
 1106SOL    HW114777   2.269   0.116   2.396  3.0401  0.3180 -0.5290
 1106SOL    HW214778   2.323   0.143   2.536  1.1575 -1.2117  0.9764
 1107SOL     OW14779   3.150   4.385  13.371 -0.0250 -0.5979 -0.0455
 1107SOL    HW114780   3.168   4.363  13.279 -0.3062 -0.1584 -0.2068
 1107SOL    HW214781   3.138   4.300  13.412  2.1049 -0.8059  0.1536
 1108SOL     OW14782   0.389   1.850  17.477  0.5969 -0.2298 -0.3687
 1108SOL    HW114783   0.346   1.890  17.401 -1.0057  1.4543  1.4442
 1108SOL    HW214784   0.349   1.764  17.481 -1.5843  0.6923 -2.4164
 1109SOL     OW14785   3.443   0.771   4.053  0.1291  0.2524  0.8393
 1109SOL    HW114786   3.497   0.818   3.990 -0.4311 -0.4419 -0.1572
 1109SOL    HW214787   3.445   0.680   4.024  2.2937  1.0160 -1.3922
 1110SOL     OW14788   1.697   3.354  17.415 -0.0415 -0.1141  1.3878
 1110SOL    HW114789   1.631   3.387  17.476 -0.7266  0.9134  0.0727
 1110SOL    HW214790   1.680   3.260  17.423  0.4522 -0.0877  2.8568
 1111SOL     OW14791   0.748   4.448   3.865 -0.1401 -0.2586 -0.0016
 1111SOL    HW114792   0.672   4.410   3.820 -0.3391  0.6161 -0.3949
 1111SOL    HW214793   0.712   4.532   3.892 -0.1331 -0.1399 -0.3525
 1112SOL     OW14794   0.361   0.440   4.207 -0.5981 -0.0718 -0.4714
 1112SOL    HW114795   0.297   0.374   4.234  0.4436 -1.0597 -0.4313
 1112SOL    HW214796   0.416   0.444   4.285  0.8762 -3.4284 -1.3616
 1113SOL     OW14797   4.190   1.699   0.717 -0.4087  0.4752 -0.1920
 1113SOL    HW114798   4.151   1.650   0.645 -0.3199 -0.8487  0.6713
 1113SOL    HW214799   4.109   1.714   0.766  0.3911  0.2739  1.2018
 1114SOL     OW14800   0.740   3.940  15.944  0.3639  0.1080  0.2450
 1114SOL    HW114801   0.787   3.859  15.964  0.0211 -0.2696 -0.4685
 1114SOL    HW214802   0.654   3.912  15.976 -0.8282  1.4157 -1.8023
 1115SOL     OW14803   3.562   2.648   7.404  0.5099  0.2687 -0.2837
 1115SOL    HW114804   3.540   2.652   7.311  0.3423 -0.9620 -0.2985
 1115SOL    HW214805   3.483   2.692   7.433  1.0571 -0.1098  1.7700
 1116SOL     OW14806   2.073   3.267   2.093 -0.1101 -0.5828  0.0563
 1116SOL    HW114807   2.115   3.187   2.063 -0.0056 -0.4691 -0.1016
 1116SOL    HW214808   2.043   3.299   2.007  0.6379 -0.1911 -0.0543
 1117SOL     OW14809   0.216   2.395  17.480  0.5768  0.3678 -0.2921
 1117SOL    HW114810   0.250   2.474  17.439  1.9531  0.3810  0.8591
 1117SOL    HW214811   0.248   2.340  17.409  0.4462 -3.1204  2.3558
 1118SOL     OW14812   3.639   0.658  15.469 -0.0168  0.0963 -0.1898
 1118SOL    HW114813   3.698   0.609  15.411 -0.1441  0.9233 -1.0126
 1118SOL    HW214814   3.557   0.610  15.456  0.8014 -1.2279 -0.5413
 1119SOL     OW14815   2.593   1.667  10.788 -0.0716 -0.1578 -0.3483
 1119SOL    HW114816   2.639   1.699  10.710  0.8048 -5.0796 -1.8604
 1119SOL    HW214817   2.663   1.608  10.815 -1.7214 -1.3552  1.2656
 1120SOL     OW14818   2.922   1.920  15.499  0.3433 -0.1453 -0.1157
 1120SOL    HW114819   2.926   2.012  15.522  0.6762  0.2429 -1.6845
 1120SOL    HW214820   2.862   1.892  15.569 -2.3652  0.9662 -1.9681
 1121SOL     OW14821   1.942   1.047   6.960  0.2733  0.0724 -0.2223
 1121SOL    HW114822   1.946   1.143   6.952  2.0839 -0.1041 -1.4830
 1121SOL    HW214823   1.974   1.033   7.050 -0.1055 -0.4625 -0.1741
 1122SOL     OW14824   2.662   4.004  13.726 -0.3763 -0.8101  0.6411
 1122SOL    HW114825   2.581   4.014  13.677 -0.0911 -1.8354 -0.0387
 1122SOL    HW214826   2.711   3.953  13.660 -0.1577  3.1875 -2.3091
 1123SOL     OW14827   1.625   3.472   3.245 -0.5902 -0.0846  0.5098
 1123SOL    HW114828   1.573   3.419   3.306  0.8989  0.2654  2.0728
 1123SOL    HW214829   1.565   3.546   3.242  0.8859  1.0791  0.1687
 1124SOL     OW14830   3.894   2.428  11.377 -0.4498  0.1814 -0.6012
 1124SOL    HW114831   3.981   2.395  11.355 -0.1977 -1.2087  2.5496
 1124SOL    HW214832   3.870   2.381  11.456 -0.2578  0.1953 -0.5353
 1125SOL     OW14833   4.460   1.190   3.306 -0.3271 -0.0556 -0.7763
 1125SOL    HW114834   4.420   1.261   3.356  0.7760 -0.5923  0.8574
 1125SOL    HW214835   4.401   1.120   3.334  3.4122 -2.1111  2.0192
 1126SOL     OW14836   1.586   0.987   4.615 -0.5508 -0.2436 -0.0599
 1126SOL    HW114837   1.678   0.967   4.596  0.0794 -0.0958  2.9195
 1126SOL    HW214838   1.590   1.067   4.668 -1.8423  0.2739 -0.7555
 1127SOL     OW14839   1.244   4.321   9.081 -0.6331  0.0357 -0.9696
 1127SOL    HW114840   1.184   4.384   9.119  1.2287 -1.2911  4.1964
 1127SOL    HW214841   1.328   4.363   9.102  0.1604 -0.8408 -2.4089
 1128SOL     OW14842   4.483   0.588   9.419  0.0318 -0.3978  0.3461
 1128SOL    HW114843   4.487   0.646   9.495 -1.6176  2.8081 -2.0115
 1128SOL    HW214844   4.413   0.527   9.442 -0.8598  0.4884 -0.0154
 1129SOL     OW14845   0.379   0.864   9.184  0.3061 -0.4799 -0.0235
 1129SOL    HW114846   0.287   0.854   9.159  0.5804 -0.8559 -0.8689
 1129SOL    HW214847   0.398   0.958   9.192 -0.1972 -0.3220 -0.7264
 1130SOL     OW14848   1.796   0.562   1.985 -0.2869 -0.0300  0.0283
 1130SOL    HW114849   1.841   0.555   1.900 -0.4676  2.0933 -0.2409
 1130SOL    HW214850   1.716   0.513   1.967  0.0203 -0.0861 -1.1991
 1131SOL     OW14851   1.881   3.304  10.733  0.2698  0.2460 -0.7519
 1131SOL    HW114852   1.829   3.353  10.670 -2.0509 -0.7262  0.3848
 1131SOL    HW214853   1.825   3.226  10.725 -1.3195  1.4184 -1.0121
 1132SOL     OW14854   3.599   3.831   2.903 -0.2234 -0.2221 -0.0617
 1132SOL    HW114855   3.667   3.898   2.895  0.4883 -0.9830 -0.4054
 1132SOL    HW214856   3.568   3.831   2.813 -1.9275 -1.8539  0.5340
 1133SOL     OW14857   2.989   0.662   6.530  0.0633  0.4488  0.2519
 1133SOL    HW114858   3.020   0.574   6.548 -0.0035  0.3438 -0.1298
 1133SOL    HW214859   3.044   0.718   6.585 -1.5817 -0.4562  2.7714
 1134SOL     OW14860   3.919   3.830  14.667  0.0022 -0.0875 -0.2285
 1134SOL    HW114861   3.867   3.846  14.746 -0.6547 -1.1826 -0.4422
 1134SOL    HW214862   3.850   3.793  14.612 -1.0040  1.1823  0.1719
 1135SOL     OW14863   4.201   1.378  14.036  0.0853 -0.2860 -0.3726
 1135SOL    HW114864   4.134   1.413  13.977 -0.6588 -0.7454  0.2062
 1135SOL    HW214865   4.257   1.454  14.053 -1.3567  0.6207  0.2209
 1136SOL     OW14866   2.406   3.680   3.151  0.1114 -0.1660 -0.1651
 1136SOL    HW114867   2.487   3.731   3.153 -0.2565  0.2921  2.0383
 1136SOL    HW214868   2.445   3.595   3.133  1.5990  0.6286 -0.7099
 1137SOL     OW14869   1.020   3.849  14.279  0.4109 -0.0144 -0.1401
 1137SOL    HW114870   0.944   3.905  14.267  1.8813  2.0073  0.0406
 1137SOL    HW214871   0.996   3.795  14.204 -0.0639 -0.9993  0.7051
 1138SOL     OW14872   0.993   2.965   9.636  0.4905  0.1131 -0.2621
 1138SOL    HW114873   0.958   2.944   9.550 -2.4995 -1.1396  1.2426
 1138SOL    HW214874   0.955   2.891   9.684 -0.9668  0.8218 -0.3256
 1139SOL     OW14875   2.361   1.550   4.566 -0.3737 -0.4117 -0.0847
 1139SOL    HW114876   2.399   1.468   4.535 -1.6535 -1.1961  0.4265
 1139SOL    HW214877   2.400   1.619   4.513 -1.0838  0.4642  0.5239
 1140SOL     OW14878   1.776   1.199   0.061 -0.3880 -0.0311  0.1823
 1140SOL    HW114879   1.815   1.112   0.066 -2.1577 -0.8241  0.2504
 1140SOL    HW214880   1.739   1.206   0.150  1.0356  2.5728  0.5779
 1141SOL     OW14881   1.384   2.632  11.982  0.2192 -0.4885  0.7114
 1141SOL    HW114882   1.394   2.726  11.995  1.3619 -0.9324  2.9722
 1141SOL    HW214883   1.328   2.609  12.056  0.5386 -0.2246  1.0370
 1142SOL     OW14884   0.309   2.384  16.594  0.4461 -0.0517 -0.0473
 1142SOL    HW114885   0.386   2.441  16.595  0.9677 -0.7754  1.3676
 1142SOL    HW214886   0.269   2.393  16.508 -0.9423 -3.7076  0.2318
 1143SOL     OW14887   1.442   0.499  15.405  0.4907  0.4030 -0.5718
 1143SOL    HW114888   1.507   0.542  15.349  1.3907  0.8746  0.8476
 1143SOL    HW214889   1.377   0.568  15.419  0.5605  1.0590 -3.5092
 1144SOL     OW14890   4.092   0.496  12.592  0.0570  0.1240  0.1961
 1144SOL    HW114891   4.082   0.458  12.504 -2.1210 -0.2891  0.6232
 1144SOL    HW214892   4.017   0.555  12.589  1.2572  1.6613  0.4546
 1145SOL     OW14893   1.680   4.545   7.576  0.2440  0.2675  0.2633
 1145SOL    HW114894   1.726   4.462   7.593 -2.2741 -1.2719 -0.4292
 1145SOL    HW214895   1.724   4.604   7.637 -0.3002  1.3201 -0.3781
 1146SOL     OW14896   1.198   0.657   9.512  0.6060 -0.4821  0.2877
 1146SOL    HW114897   1.148   0.733   9.542 -1.9491 -2.4779  1.1248
 1146SOL    HW214898   1.141   0.581   9.505  0.6469 -0.3875 -1.0561
 1147SOL     OW14899   0.873   0.429   5.851 -0.4378  0.0236  0.3936
 1147SOL    HW114900   0.959   0.460   5.825 -0.9832  0.9057 -0.3809
 1147SOL    HW214901   0.819   0.485   5.794  1.5908  1.3276 -0.2262
 1148SOL     OW14902   1.781   3.441   3.019  0.3440  0.0093  0.2742
 1148SOL    HW114903   1.730   3.450   3.099  0.6094 -0.5033  0.5040
 1148SOL    HW214904   1.723   3.390   2.962  0.4926 -1.5553  1.5369
 1149SOL     OW14905   3.514   1.909   7.251  0.2780 -0.1799 -0.7135
 1149SOL    HW114906   3.466   1.877   7.175 -0.0151  0.3487 -0.7501
 1149SOL    HW214907   3.492   1.845   7.319 -0.5546 -2.2729 -2.9568
 1150SOL     OW14908   0.578   3.979   8.043 -0.8459  0.2192  0.5830
 1150SOL    HW114909   0.568   4.071   8.065 -0.1925  1.1479 -2.9989
 1150SOL    HW214910   0.494   3.961   8.000 -0.6583  1.2569 -0.2050
 1151SOL     OW14911   3.307   1.323  11.112  0.0141 -0.0122 -0.0751
 1151SOL    HW114912   3.262   1.359  11.189 -0.1004  0.6427 -0.4491
 1151SOL    HW214913   3.348   1.244  11.147 -1.3731  0.6655  3.1004
 1152SOL     OW14914   1.264   0.119   6.359  0.0958  0.0721 -0.2698
 1152SOL    HW114915   1.344   0.155   6.321 -0.9239  2.4985 -0.1268
 1152SOL    HW214916   1.214   0.198   6.381  1.9150  1.1982 -0.2494
 1153SOL     OW14917   2.640   4.081   7.442  0.3346  0.7888 -0.1520
 1153SOL    HW114918   2.699   4.038   7.380  2.4097  0.2575  2.1474
 1153SOL    HW214919   2.690   4.094   7.523  1.6412 -1.8292 -0.5378
 1154SOL     OW14920   0.483   3.511   8.930  0.1915  0.0535  0.2918
 1154SOL    HW114921   0.423   3.518   8.856 -0.0984 -0.1632  0.5067
 1154SOL    HW214922   0.476   3.416   8.938  0.7906 -0.2072 -2.2714
 1155SOL     OW14923   4.112   1.810  10.000 -0.6151  0.6434 -0.2942
 1155SOL    HW114924   4.118   1.840  10.090 -0.2571 -2.0919  0.5876
 1155SOL    HW214925   4.040   1.752  10.023  1.3388 -1.6865 -0.1260
 1156SOL     OW14926   3.586   3.210   0.517 -0.2337 -0.3020 -0.2268
 1156SOL    HW114927   3.649   3.246   0.579  0.1203 -2.4880  0.6862
 1156SOL    HW214928   3.645   3.219   0.442  0.5673 -1.3628  0.2682
 1157SOL     OW14929   1.845   2.988   8.038 -0.2184 -0.0693 -0.4366
 1157SOL    HW114930   1.905   2.998   7.965  1.7466  0.6903  1.2833
 1157SOL    HW214931   1.770   2.943   7.999 -1.0128  0.4302  0.4918
 1158SOL     OW14932   3.788   3.644   5.669  0.5033  0.6071 -0.5665
 1158SOL    HW114933   3.871   3.667   5.625 -0.3637  2.3480 -1.3024
 1158SOL    HW214934   3.749   3.729   5.687 -0.8854 -0.4785  1.4335
 1159SOL     OW14935   4.272   3.319   6.824  0.2876  0.0009  0.2917
 1159SOL    HW114936   4.231   3.372   6.892  1.4759  0.9981  0.2278
 1159SOL    HW214937   4.363   3.316   6.857  1.2490 -0.3621 -2.4302
 1160SOL     OW14938   3.670   2.184  17.093 -0.3734  0.2311 -0.2277
 1160SOL    HW114939   3.622   2.160  17.172  0.6035 -1.9477 -0.2956
 1160SOL    HW214940   3.653   2.277  17.081 -1.1260 -0.1092 -1.7921
 1161SOL     OW14941   3.067   4.361   4.117  0.5878 -0.0066  0.1808
 1161SOL    HW114942   3.118   4.281   4.099  1.7083  0.8071 -0.2722
 1161SOL    HW214943   3.016   4.364   4.036  0.9832 -1.4711 -0.1335
 1162SOL     OW14944   4.400   4.075   5.195 -0.1304 -0.0947  0.5264
 1162SOL    HW114945   4.462   4.142   5.225 -0.8894  0.5308  0.6878
 1162SOL    HW214946   4.397   4.019   5.273 -0.3315  0.5991  1.0143
 1163SOL     OW14947   2.020   4.046   5.470 -0.4581  0.2812 -0.4388
 1163SOL    HW114948   2.090   4.006   5.520 -0.4519  0.5843 -0.2078
 1163SOL    HW214949   2.072   4.112   5.424  0.9653 -0.1182  0.6316
 1164SOL     OW14950   4.011   3.130  12.505  0.1834 -0.1541 -0.1861
 1164SOL    HW114951   3.976   3.210  12.542  0.5541 -0.5890  1.1077
 1164SOL    HW214952   4.044   3.084  12.583 -1.2045 -1.3622 -0.3051
 1165SOL     OW14953   4.057   4.239   3.757  0.1768 -0.1186  0.2684
 1165SOL    HW114954   4.120   4.306   3.785  0.3453  0.3951 -1.3882
 1165SOL    HW214955   4.071   4.167   3.819 -1.0319 -0.2768  0.3666
 1166SOL     OW14956   4.399   4.382   8.887  0.5656 -0.1292  0.1928
 1166SOL    HW114957   4.377   4.463   8.840  0.5285 -0.7901 -0.9309
 1166SOL    HW214958   4.392   4.411   8.977  0.3760 -2.5841  0.9560
 1167SOL     OW14959   1.357   1.213  11.828  0.1321 -0.4533 -0.5161
 1167SOL    HW114960   1.376   1.279  11.761  1.7157  0.2027  0.5893
 1167SOL    HW214961   1.277   1.171  11.795  0.4977 -0.3711 -1.4921
 1168SOL     OW14962   0.877   4.586   6.114 -0.3164  0.0624  0.2467
 1168SOL    HW114963   0.851   4.578   6.206 -2.2979  0.5423 -0.2587
 1168SOL    HW214964   0.935   4.511   6.119  0.4493  0.6475  0.1380
 1169SOL     OW14965   1.848   0.102   6.233  0.1288  0.1668 -0.4906
 1169SOL    HW114966   1.901   0.149   6.169 -0.7422  1.2168 -0.4388
 1169SOL    HW214967   1.855   0.151   6.315 -1.8501  1.9438 -1.3816
 1170SOL     OW14968   3.337   3.169   5.167  0.2450 -0.4268 -0.2352
 1170SOL    HW114969   3.274   3.241   5.169  0.9147  0.0945  1.5817
 1170SOL    HW214970   3.373   3.173   5.079 -0.0724 -1.7483 -0.4251
 1171SOL     OW14971   2.326   2.740  15.245 -0.0697  0.0843 -0.2551
 1171SOL    HW114972   2.309   2.835  15.241  0.5224  0.2204  0.4087
 1171SOL    HW214973   2.337   2.730  15.339 -0.5386  1.8591  0.0025
 1172SOL     OW14974   4.467   2.091   9.130  0.7902  0.5466 -0.2036
 1172SOL    HW114975   4.385   2.131   9.102 -0.4755 -1.4510  0.6763
 1172SOL    HW214976   4.463   2.083   9.225 -1.9180  3.0473 -0.1387
 1173SOL     OW14977   2.979   2.467   5.286 -0.2249 -0.4245  0.0352
 1173SOL    HW114978   3.055   2.463   5.228 -0.4415  0.0384 -0.2783
 1173SOL    HW214979   2.909   2.463   5.220  0.6853 -1.1410 -0.9010
 1174SOL     OW14980   0.870   1.160   7.731  0.4210 -0.4245 -0.7083
 1174SOL    HW114981   0.922   1.155   7.811 -1.7801  1.8142  0.8834
 1174SOL    HW214982   0.836   1.249   7.731 -1.2259 -1.0626  0.7549
 1175SOL     OW14983   1.194   3.752   9.340 -0.9170  0.6329  0.9137
 1175SOL    HW114984   1.240   3.730   9.421  1.4663  0.3298 -0.5144
 1175SOL    HW214985   1.260   3.729   9.274 -1.5161 -0.2886  0.6335
 1176SOL     OW14986   2.810   2.426   5.685 -0.6502 -0.3671  0.2209
 1176SOL    HW114987   2.732   2.473   5.716  0.9625  1.8917  0.7992
 1176SOL    HW214988   2.801   2.341   5.727  0.1479 -1.2366 -1.3525
 1177SOL     OW14989   2.479   3.080   2.366 -0.2563 -0.5046  0.4175
 1177SOL    HW114990   2.395   3.124   2.377 -0.2986 -0.6094  0.5077
 1177SOL    HW214991   2.482   3.080   2.270 -2.6423  0.2587  0.3446
 1178SOL     OW14992   3.882   2.321   5.499  0.7700  0.1713 -0.2179
 1178SOL    HW114993   3.844   2.407   5.481 -2.2764 -1.1157  0.1675
 1178SOL    HW214994   3.957   2.340   5.556  0.1453  1.0579  0.3084
 1179SOL     OW14995   3.796   2.740  15.937  0.3172  0.1010 -0.1502
 1179SOL    HW114996   3.806   2.747  15.842  1.6853 -0.1090 -0.0232
 1179SOL    HW214997   3.753   2.655  15.942 -2.2793  1.2347 -3.5327
 1180SOL     OW14998   3.158   2.050  17.555  0.0851  0.1121  0.4396
 1180SOL    HW114999   3.150   1.955  17.568  1.2231 -0.1106 -0.4678
 1180SOL    HW215000   3.253   2.056  17.546  0.1178 -2.4319 -1.0141
 1181SOL     OW15001   4.180   4.165   5.068  0.3201  0.2803 -0.2739
 1181SOL    HW115002   4.155   4.242   5.119 -2.0987 -1.2738  0.9272
 1181SOL    HW215003   4.248   4.128   5.124  0.7517  0.4527 -0.6896
 1182SOL     OW15004   3.103   0.983  11.616  0.0928  0.1911 -0.2230
 1182SOL    HW115005   3.087   1.058  11.559 -0.8426  0.2133  0.0699
 1182SOL    HW215006   3.016   0.950  11.637  0.1192  0.1108 -0.2407
 1183SOL     OW15007   3.851   1.117  12.416 -0.3161  0.4496  0.1588
 1183SOL    HW115008   3.794   1.045  12.389 -2.8896  1.8567  1.8127
 1183SOL    HW215009   3.823   1.130  12.507  2.0584  1.3400  0.7418
 1184SOL     OW15010   0.913   0.255   9.322  0.2951  0.1631 -0.2050
 1184SOL    HW115011   0.865   0.287   9.245  0.5305 -0.6768 -0.7015
 1184SOL    HW215012   0.872   0.169   9.334  0.9324 -0.4723 -2.5835
 1185SOL     OW15013   0.946   0.536  12.427 -0.5002  0.3589 -0.0384
 1185SOL    HW115014   0.926   0.629  12.431  0.0841  0.4464  0.6905
 1185SOL    HW215015   1.037   0.533  12.455 -0.3833 -2.3053 -0.6634
 1186SOL     OW15016   4.504   1.361  16.619 -0.3479  0.3228  0.0243
 1186SOL    HW115017   4.466   1.415  16.688 -1.0437  0.8737 -0.7859
 1186SOL    HW215018   4.494   1.422  16.545 -0.1840  2.9508  2.1875
 1187SOL     OW15019   0.745   4.481  15.006 -0.6890 -0.1007 -0.1316
 1187SOL    HW115020   0.749   4.408  15.068 -3.5494 -0.0508  0.0852
 1187SOL    HW215021   0.811   4.536  15.049 -0.2113  1.2212 -2.5129
 1188SOL     OW15022   3.410   2.724   0.800  0.2997 -0.2834 -0.1176
 1188SOL    HW115023   3.470   2.666   0.847  0.6510  1.0085  1.0323
 1188SOL    HW215024   3.413   2.682   0.714  0.6953 -0.3044 -0.0924
 1189SOL     OW15025   0.171   2.740   7.700 -0.4807 -0.6317 -0.5023
 1189SOL    HW115026   0.238   2.709   7.761 -0.5286  0.2981  0.0247
 1189SOL    HW215027   0.095   2.681   7.702 -0.1504 -1.0764 -1.2512
 1190SOL     OW15028   3.078   3.086   4.314 -0.7392 -0.0560 -0.0789
 1190SOL    HW115029   3.059   3.000   4.351  2.0995  1.1654  4.2261
 1190SOL    HW215030   3.077   3.139   4.394  1.0230  1.2019 -0.8702
 1191SOL     OW15031   4.540   3.201   5.037  0.0696  0.2103  0.1917
 1191SOL    HW115032   4.600   3.237   5.102  0.2642 -0.7546  0.5471
 1191SOL    HW215033   4.470   3.162   5.090 -0.3848  2.9728  1.6245
 1192SOL     OW15034   3.371   1.823   2.437  0.4957 -0.1182  0.2327
 1192SOL    HW115035   3.385   1.912   2.403  1.2527  0.0733  1.0246
 1192SOL    HW215036   3.440   1.781   2.387 -1.0139 -0.3613 -1.6491
 1193SOL     OW15037   3.226   3.777  10.862  0.0706  0.0375 -0.1675
 1193SOL    HW115038   3.139   3.813  10.843  0.3792  0.5870 -0.5612
 1193SOL    HW215039   3.266   3.793  10.776 -0.3534 -0.9535 -0.5417
 1194SOL     OW15040   1.360   2.982   7.222  0.2931  0.0966  0.1701
 1194SOL    HW115041   1.312   2.912   7.265 -0.2421 -0.6449 -1.6517
 1194SOL    HW215042   1.436   2.995   7.279  0.1917 -0.8945  0.5265
 1195SOL     OW15043   1.608   2.195   5.348  0.1892 -0.3169  0.4583
 1195SOL    HW115044   1.625   2.117   5.401 -1.1137 -0.3599  0.8209
 1195SOL    HW215045   1.655   2.258   5.403  0.2693 -0.6429  0.7694
 1196SOL     OW15046   1.671   4.169  13.051 -0.3944 -0.0358  0.0570
 1196SOL    HW115047   1.653   4.171  13.145 -2.0814  0.1662 -0.2712
 1196SOL    HW215048   1.766   4.175  13.042 -0.3197  1.0084  1.5272
 1197SOL     OW15049   0.939   4.390   1.506  0.0408 -0.3105 -0.1731
 1197SOL    HW115050   0.868   4.434   1.551 -0.7859 -0.0907 -1.6838
 1197SOL    HW215051   0.895   4.324   1.451 -0.2482  0.1547 -0.4976
 1198SOL     OW15052   0.756   3.319  10.552 -0.0025  0.0720 -0.2565
 1198SOL    HW115053   0.795   3.393  10.506  0.8699  0.8343  1.6954
 1198SOL    HW215054   0.816   3.315  10.627  2.2745 -0.7356 -2.1260
 1199SOL     OW15055   3.125   2.999   5.158  0.1736 -0.4744  0.3995
 1199SOL    HW115056   3.202   3.047   5.189 -0.4361  0.6131  0.2160
 1199SOL    HW215057   3.084   3.078   5.123 -1.7009 -0.5054  2.5406
 1200SOL     OW15058   0.158   3.228   3.246  0.3280  0.3302 -0.3100
 1200SOL    HW115059   0.165   3.146   3.296 -1.3807  0.9162  0.9143
 1200SOL    HW215060   0.130   3.287   3.316  2.8349 -0.3693  1.3093
 1201SOL     OW15061   4.617   1.458   6.776  0.0703 -0.1524 -0.3369
 1201SOL    HW115062   4.547   1.406   6.815 -0.2549  2.9184  3.1431
 1201SOL    HW215063   4.683   1.454   6.844 -1.3055  1.7570  1.1229
 1202SOL     OW15064   1.940   3.590   2.004 -0.3435  0.4861 -0.3153
 1202SOL    HW115065   1.879   3.586   2.078 -1.8472 -0.5257 -1.6042
 1202SOL    HW215066   2.019   3.553   2.044 -0.4415 -0.7231 -1.2250
 1203SOL     OW15067   3.251   1.942   1.666  0.0214 -0.2983  0.1042
 1203SOL    HW115068   3.206   1.879   1.722 -0.0901  1.7647  2.2969
 1203SOL    HW215069   3.224   1.907   1.581  3.5650 -2.2996 -0.1845
 1204SOL     OW15070   2.225   2.093  12.505  0.5077  0.5199  0.0394
 1204SOL    HW115071   2.140   2.127  12.534  0.2690  0.6525 -0.8319
 1204SOL    HW215072   2.270   2.175  12.486  0.2526 -0.4684 -4.7657
 1205SOL     OW15073   1.252   1.743  12.994 -0.1694 -0.1773  0.2477
 1205SOL    HW115074   1.314   1.789  13.051 -0.6921  0.8244  0.0029
 1205SOL    HW215075   1.299   1.748  12.911 -1.2216  2.1278 -0.2157
 1206SOL     OW15076   0.002   0.045   2.559 -0.6280 -0.0497 -0.5184
 1206SOL    HW115077   0.044   0.040   2.645 -3.4062 -2.6511  0.6588
 1206SOL    HW215078   0.075   0.015   2.505  0.9704  2.5946  0.1553
 1207SOL     OW15079   3.052   3.124   3.482  0.4488  0.1062 -0.0840
 1207SOL    HW115080   3.030   3.032   3.470 -1.1197  0.6841 -1.6187
 1207SOL    HW215081   2.984   3.174   3.436  0.4629  1.0763  0.9577
 1208SOL     OW15082   2.259   2.381   8.819  0.1631  0.1840  0.2277
 1208SOL    HW115083   2.350   2.382   8.847  0.2817 -0.4448 -0.1352
 1208SOL    HW215084   2.233   2.473   8.818  3.4421  1.0829 -1.2610
 1209SOL     OW15085   0.325   1.019   6.695 -0.8463 -0.4437  0.3424
 1209SOL    HW115086   0.300   1.112   6.701 -0.7930 -0.3713 -0.5944
 1209SOL    HW215087   0.413   1.014   6.733 -0.6568  0.9483  0.1259
 1210SOL     OW15088   1.970   0.474   8.380  0.3951 -0.0074  0.1667
 1210SOL    HW115089   1.882   0.509   8.366  0.1737 -0.3060  0.8616
 1210SOL    HW215090   1.969   0.480   8.475  3.8442 -2.2341  0.3480
 1211SOL     OW15091   0.280   3.085   0.026 -0.0939 -0.5938  0.3289
 1211SOL    HW115092   0.236   3.053   0.105 -2.2731  0.4517 -0.4553
 1211SOL    HW215093   0.361   3.113   0.068 -0.3750  1.8611 -0.7965
 1212SOL     OW15094   0.147   2.246   0.120  0.5149 -0.1619 -0.4266
 1212SOL    HW115095   0.120   2.154   0.115 -1.8820  0.4565  0.8900
 1212SOL    HW215096   0.065   2.291   0.142  0.1016 -0.3506 -1.5809
 1213SOL     OW15097   3.868   0.058   4.388 -0.5065 -0.3398 -0.1380
 1213SOL    HW115098   3.851   0.124   4.455 -0.5035 -0.4326 -0.0467
 1213SOL    HW215099   3.926   0.104   4.328 -0.7962 -0.3649 -0.4393
 1214SOL     OW15100   1.080   3.557   7.831  0.5274 -0.3122  0.5839
 1214SOL    HW115101   1.163   3.597   7.804  1.3587 -1.7959  0.9252
 1214SOL    HW215102   1.048   3.590   7.915 -0.4068 -0.4937  0.2967
 1215SOL     OW15103   2.175   0.615   3.746 -0.2229  0.6017 -0.1027
 1215SOL    HW115104   2.178   0.687   3.809  1.0701  1.6407 -1.3379
 1215SOL    HW215105   2.149   0.667   3.670 -2.1566 -0.5140 -0.2002
 1216SOL     OW15106   0.322   1.185  13.793  0.1376 -0.3393 -0.3272
 1216SOL    HW115107   0.233   1.214  13.772  0.2607  1.2213  1.3004
 1216SOL    HW215108   0.362   1.166  13.708  0.0922 -1.1109 -0.1819
 1217SOL     OW15109   0.961   4.429   2.967 -0.0028 -0.9778 -0.7085
 1217SOL    HW115110   0.966   4.404   3.059  2.4474  0.6729 -0.3939
 1217SOL    HW215111   0.914   4.512   2.976  1.8043  0.0747 -0.7779
 1218SOL     OW15112   0.817   0.019   1.754 -0.8338 -0.2284  0.1056
 1218SOL    HW115113   0.871   0.093   1.781  0.6205 -1.0908 -0.4326
 1218SOL    HW215114   0.780   4.712   1.837 -1.2104 -0.9936 -0.3441
 1219SOL     OW15115   2.751   2.777   1.496  0.3724  0.0988 -0.6308
 1219SOL    HW115116   2.656   2.764   1.506  0.6579 -1.7305 -0.3751
 1219SOL    HW215117   2.751   2.797   1.402  0.0716  0.2889 -0.5944
 1220SOL     OW15118   0.504   3.827   7.273 -0.0189  0.6188 -0.5875
 1220SOL    HW115119   0.410   3.816   7.256 -0.3816 -1.6957  2.8156
 1220SOL    HW215120   0.524   3.877   7.194  0.0408  0.1776 -0.8495
 1221SOL     OW15121   4.256   2.176   3.754 -0.4722 -0.0200  0.5515
 1221SOL    HW115122   4.198   2.156   3.827 -0.4431 -0.8355  0.3584
 1221SOL    HW215123   4.192   2.218   3.697 -0.3503  0.1357  0.5299
 1222SOL     OW15124   1.510   4.331   3.334  0.3643  0.0228 -0.0277
 1222SOL    HW115125   1.573   4.274   3.379 -0.2123 -0.1274  0.5856
 1222SOL    HW215126   1.567   4.361   3.263 -1.7683  3.3600 -0.3078
 1223SOL     OW15127   0.334   0.285   6.930  0.0922  0.5349 -0.1830
 1223SOL    HW115128   0.271   0.274   7.001 -0.3730 -0.2068 -0.7084
 1223SOL    HW215129   0.394   0.213   6.952  0.7885  1.1809  0.0453
 1224SOL     OW15130   0.599   3.093  10.419 -0.0158  0.0512  0.0475
 1224SOL    HW115131   0.513   3.125  10.390  1.0314  2.5309 -0.2658
 1224SOL    HW215132   0.635   3.172  10.459  0.2162  0.2516 -0.5586
 1225SOL     OW15133   1.182   3.813  10.183 -0.4139  0.6808 -0.3475
 1225SOL    HW115134   1.213   3.743  10.125 -1.2373  0.8278 -0.9512
 1225SOL    HW215135   1.114   3.764  10.229  0.7108  2.1052  2.8795
 1226SOL     OW15136   2.964   1.154  11.430 -0.8902 -0.5585 -0.2774
 1226SOL    HW115137   2.873   1.162  11.457 -0.4758  3.5886 -0.1257
 1226SOL    HW215138   2.969   1.217  11.358  2.8894 -1.7292 -1.0740
 1227SOL     OW15139   4.370   2.347   6.368  0.4761 -0.0725 -0.1492
 1227SOL    HW115140   4.465   2.345   6.375  0.5375  0.7355 -0.7283
 1227SOL    HW215141   4.351   2.293   6.444  2.3854 -0.3666  0.1157
 1228SOL     OW15142   2.058   1.269   5.696  0.2538 -0.8125 -0.3430
 1228SOL    HW115143   2.131   1.231   5.648  0.2878 -0.8097 -0.2942
 1228SOL    HW215144   2.013   1.197   5.742  0.5559  1.1218  3.0148
 1229SOL     OW15145   3.780   2.552   6.581  0.5341 -0.0854 -0.3458
 1229SOL    HW115146   3.820   2.469   6.606  0.9249  0.6338  1.4015
 1229SOL    HW215147   3.857   2.606   6.600  0.6956 -0.7122  0.8053
 1230SOL     OW15148   4.034   3.118   1.388  0.4164 -0.1721  0.0735
 1230SOL    HW115149   4.050   3.118   1.483  1.5253 -0.6571 -0.1166
 1230SOL    HW215150   4.018   3.027   1.363 -1.0025  0.0753  0.1121
 1231SOL     OW15151   3.163   2.097   8.165  1.4668  0.0371 -0.3967
 1231SOL    HW115152   3.212   2.142   8.234  1.2703  0.0895 -0.2915
 1231SOL    HW215153   3.087   2.154   8.164  1.5097  0.1071  0.3643
 1232SOL     OW15154   0.518   3.944   2.027  0.6991 -0.5714 -0.9745
 1232SOL    HW115155   0.472   3.983   1.953 -0.8446 -0.2292  0.1627
 1232SOL    HW215156   0.541   3.865   1.978 -0.9895 -0.1276 -2.4911
 1233SOL     OW15157   2.827   2.506   8.055  0.3278  0.1720 -0.4751
 1233SOL    HW115158   2.788   2.507   7.967 -0.6169  1.2094 -0.0363
 1233SOL    HW215159   2.755   2.553   8.096 -0.6421 -0.8729 -0.9821
 1234SOL     OW15160   4.292   4.397   7.909  0.0739 -0.0949  0.1017
 1234SOL    HW115161   4.249   4.319   7.944 -0.7404  0.2165 -0.2218
 1234SOL    HW215162   4.322   4.361   7.825  0.0971  0.5923 -0.1823
 1235SOL     OW15163   2.818   3.805   5.877  0.3756  0.3427 -0.4830
 1235SOL    HW115164   2.800   3.712   5.869  1.7236 -0.1577  2.2111
 1235SOL    HW215165   2.906   3.805   5.915  0.5237 -2.4395 -0.8567
 1236SOL     OW15166   0.912   1.783   8.655 -0.8004  0.5300  0.6852
 1236SOL    HW115167   0.884   1.795   8.564  0.4441  0.8592  0.3510
 1236SOL    HW215168   0.833   1.808   8.703 -1.9225  0.6977 -1.2809
 1237SOL     OW15169   0.802   4.698   0.553 -0.3189 -0.3142  0.0679
 1237SOL    HW115170   0.802   0.070   0.565  3.2438 -0.4447  1.3137
 1237SOL    HW215171   0.740   4.679   0.483 -1.7128 -1.8352  1.7145
 1238SOL     OW15172   2.214   2.189   9.005 -0.0893  0.1134  0.3609
 1238SOL    HW115173   2.224   2.230   9.091  0.7013  1.5338 -0.4154
 1238SOL    HW215174   2.220   2.256   8.938 -0.1142 -0.9803 -0.7244
 1239SOL     OW15175   2.300   0.588  16.458 -0.1276 -0.3689 -0.3175
 1239SOL    HW115176   2.289   0.654  16.527  0.5671 -1.0912  0.4734
 1239SOL    HW215177   2.222   0.534  16.474  0.4379 -1.1080 -0.0628
 1240SOL     OW15178   0.837   4.031   7.324  0.5525 -0.5792  0.6404
 1240SOL    HW115179   0.908   4.091   7.304 -0.5415  0.2180 -0.8205
 1240SOL    HW215180   0.756   4.081   7.332  1.7535  1.5507 -0.6549
 1241SOL     OW15181   1.265   2.607   2.687  0.2562  0.2226 -0.8290
 1241SOL    HW115182   1.330   2.637   2.623  0.8142  0.0965 -0.3166
 1241SOL    HW215183   1.217   2.542   2.635 -2.0348  1.4278 -0.1965
 1242SOL     OW15184   2.300   2.952   6.667  0.3827  0.2737 -0.3265
 1242SOL    HW115185   2.321   2.868   6.627 -0.2058 -0.8979  1.8366
 1242SOL    HW215186   2.388   2.987   6.680 -0.1208  0.4604  2.5187
 1243SOL     OW15187   0.304   2.108  17.558  0.3404  0.0390 -0.1613
 1243SOL    HW115188   0.374   2.046  17.536  0.0888  0.4694 -2.1770
 1243SOL    HW215189   0.239   2.081  17.493  0.4042 -0.2492 -0.1022
 1244SOL     OW15190   2.895   0.370   4.966 -0.1892 -0.0496 -0.1015
 1244SOL    HW115191   2.941   0.310   4.907  0.8490 -1.2716  1.9556
 1244SOL    HW215192   2.857   0.303   5.022  2.4612  0.2441  2.0844
 1245SOL     OW15193   1.172   0.250   5.169  0.0411 -0.2774 -0.1049
 1245SOL    HW115194   1.100   0.295   5.125  0.4585 -1.1464 -1.6799
 1245SOL    HW215195   1.166   0.280   5.260 -1.4000  0.4710 -0.4497
 1246SOL     OW15196   0.605   4.188   4.789 -0.3239  0.2616  0.6058
 1246SOL    HW115197   0.686   4.189   4.841  0.0344 -0.4804  0.0700
 1246SOL    HW215198   0.578   4.277   4.812 -3.1002  0.1890 -2.4521
 1247SOL     OW15199   3.818   1.336   1.138  0.1318  0.0917 -0.5382
 1247SOL    HW115200   3.795   1.250   1.174  0.7821  0.9202  1.8727
 1247SOL    HW215201   3.741   1.383   1.172 -0.1049 -0.5455 -0.1917
 1248SOL     OW15202   2.220   1.305  12.604  0.3961  0.5942  0.2374
 1248SOL    HW115203   2.145   1.326  12.549  2.0388  0.8622 -1.8736
 1248SOL    HW215204   2.259   1.229  12.559 -0.8040 -0.4880  1.0108
 1249SOL     OW15205   1.628   3.864   8.502 -0.0574 -0.2011 -0.4705
 1249SOL    HW115206   1.633   3.908   8.418  1.6604 -1.6905 -1.1645
 1249SOL    HW215207   1.617   3.773   8.473  1.6120 -0.8746  0.9508
 1250SOL     OW15208   3.201   1.129   6.357  0.4942 -0.1159 -0.3797
 1250SOL    HW115209   3.106   1.127   6.346  0.3165  2.6576  0.7857
 1250SOL    HW215210   3.226   1.041   6.386 -3.4624 -1.5243 -1.2375
 1251SOL     OW15211   0.850   3.667   5.181  0.3812 -0.3562 -0.4699
 1251SOL    HW115212   0.763   3.677   5.219 -0.0125 -1.5275 -1.0406
 1251SOL    HW215213   0.849   3.578   5.146  0.4708 -1.1520  1.5653
 1252SOL     OW15214   1.675   4.413  15.725 -0.1751  0.5079 -0.1974
 1252SOL    HW115215   1.581   4.432  15.732 -0.2207  0.4654 -0.6981
 1252SOL    HW215216   1.684   4.329  15.769 -1.7706  1.0076  1.0915
 1253SOL     OW15217   2.679   2.382   3.778 -0.5852  0.3991 -0.5096
 1253SOL    HW115218   2.694   2.404   3.686  0.2591  0.8240 -0.2714
 1253SOL    HW215219   2.587   2.355   3.777 -0.8699  1.3591 -0.4096
 1254SOL     OW15220   2.084   1.308  16.189  0.0615  0.1874  0.0384
 1254SOL    HW115221   2.041   1.346  16.113  1.6272 -1.3074 -1.5813
 1254SOL    HW215222   2.075   1.213  16.198 -1.6573  0.4622  1.2628
 1255SOL     OW15223   1.831   4.078   6.216  0.0508  0.0430 -0.5337
 1255SOL    HW115224   1.788   4.144   6.161  1.6289  1.6045  0.1233
 1255SOL    HW215225   1.875   4.133   6.280 -0.3740 -0.2956  0.0415
 1256SOL     OW15226   3.542   4.625   2.572  0.3565 -0.1181  0.0502
 1256SOL    HW115227   3.576   4.654   2.657  1.7110 -1.5365 -0.0131
 1256SOL    HW215228   3.465   4.681   2.560 -0.2088 -0.3929  2.5071
 1257SOL     OW15229   0.555   4.402  16.105  0.2434 -0.2759  0.2780
 1257SOL    HW115230   0.593   4.484  16.138  0.1706 -0.6462  1.2674
 1257SOL    HW215231   0.491   4.381  16.172 -0.9110 -2.3607 -1.4702
 1258SOL     OW15232   0.201   1.568   0.064 -0.9096 -0.6259 -0.0215
 1258SOL    HW115233   0.136   1.499   0.054 -0.3110 -0.6652 -3.6951
 1258SOL    HW215234   0.268   1.524   0.116 -1.3513  0.6982  1.6626
 1259SOL     OW15235   1.076   0.316   3.820 -0.1618 -0.2435  0.2518
 1259SOL    HW115236   1.023   0.378   3.870  0.8612  0.6438  0.2246
 1259SOL    HW215237   1.150   0.369   3.791 -1.6067  2.1261  0.8624
 1260SOL     OW15238   1.728   0.960   8.021 -0.5228 -0.4154 -0.0758
 1260SOL    HW115239   1.785   1.025   8.062  0.3931 -1.2425 -0.0427
 1260SOL    HW215240   1.712   0.900   8.093  0.4612  1.2809  1.5534
 1261SOL     OW15241   2.974   1.353   1.946 -0.2633 -0.3529  0.1593
 1261SOL    HW115242   2.896   1.310   1.980 -1.9722  1.8744 -0.9049
 1261SOL    HW215243   2.954   1.446   1.959 -0.2800 -0.6397  2.1598
 1262SOL     OW15244   1.692   3.945  12.812 -0.4448 -0.2935  0.0986
 1262SOL    HW115245   1.764   3.884  12.830 -1.0995 -2.2141 -3.6452
 1262SOL    HW215246   1.685   3.982  12.899 -0.4271 -0.6428  0.2496
 1263SOL     OW15247   4.091   3.443   4.907 -0.0494  0.3087 -0.7156
 1263SOL    HW115248   4.062   3.471   4.821 -0.2679  0.7789 -0.4900
 1263SOL    HW215249   4.164   3.502   4.926  1.2232 -1.1401 -1.1625
 1264SOL     OW15250   1.238   1.346   1.334  0.2791 -0.3564  0.0886
 1264SOL    HW115251   1.218   1.431   1.373 -2.1800  0.0596 -2.1056
 1264SOL    HW215252   1.280   1.303   1.409  0.5437 -2.6149 -1.3483
 1265SOL     OW15253   1.240   3.948   0.597 -0.3062 -0.5493 -0.1998
 1265SOL    HW115254   1.174   3.881   0.581 -0.1459 -0.6551 -0.4121
 1265SOL    HW215255   1.185   4.022   0.569  0.0870  1.2036  3.7157
 1266SOL     OW15256   1.603   0.830  17.411 -0.4698  0.2595  0.1200
 1266SOL    HW115257   1.534   0.895  17.421  0.3936  0.7318  2.9236
 1266SOL    HW215258   1.674   0.886  17.378 -0.5350  0.3070  0.0613
 1267SOL     OW15259   1.165   3.663   8.954 -0.2255  0.5357  0.1189
 1267SOL    HW115260   1.255   3.669   8.922  0.2848 -0.9477  1.2243
 1267SOL    HW215261   1.125   3.733   8.903 -2.8857 -3.1390 -2.8307
 1268SOL     OW15262   4.393   3.588  14.801  0.0956  0.2269  0.4963
 1268SOL    HW115263   4.380   3.652  14.870 -1.9993  1.1442 -0.7564
 1268SOL    HW215264   4.445   3.629  14.732 -1.6684 -0.7809 -1.4635
 1269SOL     OW15265   2.314   1.739  13.551 -0.3727  0.1443  0.0021
 1269SOL    HW115266   2.277   1.827  13.556  1.6115  1.2019 -3.4364
 1269SOL    HW215267   2.243   1.684  13.586 -0.5466  0.5104  0.2181
 1270SOL     OW15268   4.501   2.569   3.815  0.9422  0.1007  0.0962
 1270SOL    HW115269   4.473   2.478   3.817 -0.6032  0.5549 -0.7966
 1270SOL    HW215270   4.410   2.597   3.806  0.7019 -1.2654 -1.7019
 1271SOL     OW15271   1.303   2.467   5.130 -0.1506 -0.2798 -0.2482
 1271SOL    HW115272   1.232   2.460   5.066 -0.3878 -0.7752  0.0637
 1271SOL    HW215273   1.255   2.524   5.190 -0.1830 -0.0866 -0.4583
 1272SOL     OW15274   0.905   4.280   4.865  0.0943 -0.3384  0.3311
 1272SOL    HW115275   0.972   4.332   4.909 -1.5231  1.7920  0.3002
 1272SOL    HW215276   0.873   4.220   4.932 -1.1083  0.0836  0.1332
 1273SOL     OW15277   4.322   0.800   9.121 -0.1673 -0.1249 -0.2069
 1273SOL    HW115278   4.305   0.843   9.204 -0.3699 -0.2273 -0.1962
 1273SOL    HW215279   4.398   0.846   9.085 -1.7595  2.3998 -0.3134
 1274SOL     OW15280   3.373   2.420   3.490 -0.3448  0.6900  0.1370
 1274SOL    HW115281   3.342   2.431   3.580 -2.2233  2.2814 -0.6922
 1274SOL    HW215282   3.297   2.369   3.462  0.3639 -0.2162 -0.1345
 1275SOL     OW15283   1.382   0.974   0.311  0.0394  0.0005 -0.7454
 1275SOL    HW115284   1.462   0.944   0.268  1.0274  0.1530  0.9949
 1275SOL    HW215285   1.306   0.952   0.256  0.2188 -0.8662 -0.6470
 1276SOL     OW15286   3.171   4.614  12.848 -1.0035  0.1351 -0.8021
 1276SOL    HW115287   3.085   4.587  12.815 -2.1736  2.6102  0.2695
 1276SOL    HW215288   3.227   4.536  12.843  2.0938  2.3567 -1.0501
 1277SOL     OW15289   1.038   4.586   0.687  0.2533  0.0378 -0.2667
 1277SOL    HW115290   0.958   4.632   0.661  0.2890  0.5000  0.4367
 1277SOL    HW215291   1.052   4.527   0.612 -1.4245 -2.3751  1.3316
 1278SOL     OW15292   1.919   0.675   7.031 -0.0793  0.1223  0.5802
 1278SOL    HW115293   1.859   0.730   7.082 -0.3974  0.0690  0.2689
 1278SOL    HW215294   2.000   0.671   7.081  0.3053  1.7534  0.1062
 1279SOL     OW15295   4.272   0.034  11.897  0.1129 -0.2287  0.5445
 1279SOL    HW115296   4.356   0.028  11.851  0.4853  0.3203  1.1596
 1279SOL    HW215297   4.204   0.016  11.832  0.7647 -0.0359 -0.2036
 1280SOL     OW15298   2.904   3.996   4.792 -0.5456 -0.1930  0.2910
 1280SOL    HW115299   2.841   3.926   4.774 -0.2954 -0.6477  1.1901
 1280SOL    HW215300   2.896   4.045   4.710  1.2222 -0.2008  0.1270
 1281SOL     OW15301   0.865   1.620   8.142 -0.0969  0.2536  0.0407
 1281SOL    HW115302   0.891   1.689   8.081  0.5639 -0.9438 -1.0417
 1281SOL    HW215303   0.816   1.563   8.083  0.3387 -0.7133  0.6154
 1282SOL     OW15304   3.657   2.678   2.058 -0.1363  0.2295  0.0621
 1282SOL    HW115305   3.618   2.596   2.028 -0.0079  0.0232  0.4562
 1282SOL    HW215306   3.684   2.656   2.148  2.6079 -1.1179 -1.0827
 1283SOL     OW15307   0.553   0.601   8.322  0.7669 -0.1333  0.0734
 1283SOL    HW115308   0.484   0.612   8.256  0.4744  0.4366  0.4711
 1283SOL    HW215309   0.528   0.675   8.378  0.0265  1.2998 -2.1426
 1284SOL     OW15310   4.091   3.135   2.783 -0.2242 -0.3810  0.5006
 1284SOL    HW115311   4.163   3.075   2.763 -0.4542 -0.4933  0.0156
 1284SOL    HW215312   4.122   3.214   2.738  2.0568 -0.4146  1.9967
 1285SOL     OW15313   4.119   4.108  12.187 -0.2628 -0.3817  0.0909
 1285SOL    HW115314   4.204   4.152  12.178 -0.5399 -0.0610 -0.9511
 1285SOL    HW215315   4.151   4.019  12.197 -0.2854 -0.1796  1.8769
 1286SOL     OW15316   3.671   3.762  15.776 -0.2739  0.0288 -0.3463
 1286SOL    HW115317   3.607   3.734  15.710  0.1917 -0.3776 -0.6265
 1286SOL    HW215318   3.629   3.756  15.862 -1.0227  0.2700 -0.6953
 1287SOL     OW15319   2.610   3.534  15.195  0.0774 -0.2644  0.0784
 1287SOL    HW115320   2.567   3.584  15.264 -1.4366 -2.6088  0.8482
 1287SOL    HW215321   2.610   3.595  15.122  0.8915 -1.1645 -0.6771
 1288SOL     OW15322   1.993   1.663   0.248  0.4619  0.2781  0.2895
 1288SOL    HW115323   1.902   1.690   0.235  0.2901  0.8783  2.7601
 1288SOL    HW215324   1.985   1.573   0.216  1.3706  0.3458 -0.1358
 1289SOL     OW15325   2.903   1.724   2.907  0.4429  0.4832  0.5385
 1289SOL    HW115326   2.983   1.719   2.958 -0.0441 -2.0364  1.0408
 1289SOL    HW215327   2.927   1.788   2.840 -1.0037 -1.2929 -1.6705
 1290SOL     OW15328   4.022   1.071   3.319 -0.5090  0.1457 -0.0957
 1290SOL    HW115329   4.012   0.977   3.301  2.4162 -0.3112  0.6877
 1290SOL    HW215330   4.094   1.072   3.382 -0.2514  0.6808 -0.3972
 1291SOL     OW15331   2.574   3.200   5.095  0.6335  0.2531  0.3157
 1291SOL    HW115332   2.562   3.117   5.141 -0.4737 -0.2493 -0.8804
 1291SOL    HW215333   2.554   3.261   5.166  0.4736 -1.0821  1.4091
 1292SOL     OW15334   0.352   4.041   8.473 -0.1875  0.0332 -0.1639
 1292SOL    HW115335   0.295   4.109   8.508  1.2078  1.2789 -0.2963
 1292SOL    HW215336   0.300   3.965   8.497 -2.8933  1.1765 -2.3413
 1293SOL     OW15337   2.902   4.607  13.968 -0.0813 -0.1387  0.4180
 1293SOL    HW115338   2.888   4.578  14.058  0.1870 -2.2445 -0.2230
 1293SOL    HW215339   2.852   4.689  13.972  2.6921  1.5984 -0.4593
 1294SOL     OW15340   2.521   3.079   7.144  0.3563  0.2420 -0.4145
 1294SOL    HW115341   2.449   3.030   7.105 -0.6512  1.2996  0.1212
 1294SOL    HW215342   2.480   3.151   7.191 -1.9274 -0.9047 -0.6755
 1295SOL     OW15343   3.630   1.603   3.398 -0.1506 -0.3467 -0.3759
 1295SOL    HW115344   3.564   1.545   3.437 -2.0811  0.9720 -1.6929
 1295SOL    HW215345   3.681   1.535   3.355 -0.9499 -0.7009 -0.7672
 1296SOL     OW15346   0.115   3.126  12.525  0.0753 -0.6232 -0.4278
 1296SOL    HW115347   0.204   3.133  12.492 -0.8313 -2.2849 -3.2130
 1296SOL    HW215348   0.062   3.152  12.450 -0.7348  1.7360  0.9849
 1297SOL     OW15349   1.936   1.106   8.956 -0.0541 -0.5855  0.0305
 1297SOL    HW115350   1.935   1.134   8.865  1.1654  0.0971  0.2256
 1297SOL    HW215351   1.867   1.040   8.962 -1.3984  0.7018 -1.4622
 1298SOL     OW15352   1.338   3.153  12.019 -0.3505  0.4279  0.3545
 1298SOL    HW115353   1.272   3.183  12.081 -0.5290  0.9380 -0.0761
 1298SOL    HW215354   1.324   3.215  11.947 -0.7669 -0.2000 -0.0967
 1299SOL     OW15355   4.552   2.288   2.802 -0.6691  0.0523 -0.1124
 1299SOL    HW115356   4.510   2.334   2.729  0.5839 -0.6423 -1.2660
 1299SOL    HW215357   4.583   2.362   2.855 -2.3289  1.3948 -0.9904
 1300SOL     OW15358   2.402   1.164   6.275 -0.5463 -0.4797  0.0405
 1300SOL    HW115359   2.347   1.113   6.215  1.9672 -2.6781 -0.3612
 1300SOL    HW215360   2.476   1.114   6.308 -0.6778 -1.7544 -1.5756
 1301SOL     OW15361   3.369   1.470  15.341  0.7863 -0.3302  0.6058
 1301SOL    HW115362   3.415   1.452  15.259 -0.3917 -0.9401  0.0892
 1301SOL    HW215363   3.420   1.413  15.400 -1.4137 -2.9279 -0.0072
 1302SOL     OW15364   3.665   0.648   6.565 -0.0462  0.6383 -0.1186
 1302SOL    HW115365   3.674   0.595   6.486 -0.2939 -0.6163  0.6992
 1302SOL    HW215366   3.576   0.682   6.559 -0.1487  0.5361  0.8109
 1303SOL     OW15367   4.098   4.322   5.967  0.5969 -0.0839 -0.0363
 1303SOL    HW115368   4.159   4.392   5.943  2.5779 -1.8499 -0.1689
 1303SOL    HW215369   4.103   4.258   5.895 -1.5138 -0.7034  0.3902
 1304SOL     OW15370   2.791   0.626  15.880 -0.3871  0.3131  0.2306
 1304SOL    HW115371   2.722   0.629  15.946 -0.6097 -1.0906  0.0691
 1304SOL    HW215372   2.756   0.566  15.814  0.8369  0.3110 -0.4164
 1305SOL     OW15373   3.009   1.117  14.592 -0.1677  0.0869 -0.2408
 1305SOL    HW115374   2.985   1.069  14.513 -0.9080  0.1512 -0.0565
 1305SOL    HW215375   2.997   1.205  14.556 -1.1864 -0.5373 -1.4582
 1306SOL     OW15376   1.794   0.920   4.966 -0.2230 -0.4832 -0.1650
 1306SOL    HW115377   1.781   0.954   5.054 -0.8427 -1.9591  0.3179
 1306SOL    HW215378   1.775   0.998   4.915 -2.1438 -0.4032  0.6845
 1307SOL     OW15379   2.774   2.327  17.496 -0.1043  0.0162 -0.5659
 1307SOL    HW115380   2.805   2.411  17.530  0.1207 -0.8478  1.3991
 1307SOL    HW215381   2.811   2.269  17.563 -0.3728  2.2695  1.5542
 1308SOL     OW15382   1.191   4.092   9.214 -0.2573  0.1675 -0.0796
 1308SOL    HW115383   1.241   4.036   9.156 -0.3463  0.4270 -0.4076
 1308SOL    HW215384   1.188   4.177   9.170 -1.2429  0.7013  1.0014
 1309SOL     OW15385   0.280   2.895   1.418  0.6577 -0.1458 -0.1917
 1309SOL    HW115386   0.245   2.824   1.365  2.4114 -0.6834 -0.6163
 1309SOL    HW215387   0.279   2.865   1.509 -0.1143 -2.1127 -0.8507
 1310SOL     OW15388   4.272   4.419  15.443 -0.3960  0.2320  0.4109
 1310SOL    HW115389   4.310   4.506  15.425 -0.9146  0.0485 -1.6500
 1310SOL    HW215390   4.210   4.412  15.370  0.4759  0.6293 -0.3860
 1311SOL     OW15391   1.495   1.679  14.337 -0.0317 -0.4205 -0.0870
 1311SOL    HW115392   1.460   1.610  14.280 -0.0962 -0.6315  0.2057
 1311SOL    HW215393   1.426   1.744  14.322  1.0182  0.9668  1.0948
 1312SOL     OW15394   1.655   2.488   7.893 -0.2396 -0.1473 -0.7651
 1312SOL    HW115395   1.714   2.462   7.964 -0.8612 -1.3363 -0.6790
 1312SOL    HW215396   1.689   2.572   7.863  0.8357  0.2164  1.5359
 1313SOL     OW15397   2.427   4.180   3.236 -0.2282  0.2389 -0.2864
 1313SOL    HW115398   2.493   4.235   3.194  0.6664  1.3295  2.5771
 1313SOL    HW215399   2.475   4.098   3.232  0.4227  0.6268 -0.3739
 1314SOL     OW15400   0.110   1.040   7.664  0.0545  0.2371 -0.5741
 1314SOL    HW115401   0.194   1.034   7.618  0.7050  0.0163  0.6597
 1314SOL    HW215402   0.057   1.088   7.600  0.1367 -0.2077 -0.9738
 1315SOL     OW15403   0.796   0.099   1.471  0.2930  0.9909 -0.3179
 1315SOL    HW115404   0.874   0.109   1.417  1.5895 -0.0997  1.3472
 1315SOL    HW215405   0.821   0.128   1.559 -1.6999 -0.6107  0.7736
 1316SOL     OW15406   2.961   1.948   2.419  0.0703  0.1559  0.0602
 1316SOL    HW115407   3.000   1.967   2.334  1.7067 -0.7124  0.6218
 1316SOL    HW215408   2.982   2.029   2.466 -3.6723  0.9479  0.3129
 1317SOL     OW15409   4.419   0.743   6.793 -0.2422  0.3398  0.3595
 1317SOL    HW115410   4.419   0.804   6.720  1.0849  1.5629  1.3910
 1317SOL    HW215411   4.512   0.737   6.812  0.0725  1.1654 -0.9233
 1318SOL     OW15412   4.241   0.034   5.824  0.1178  0.3236 -0.2284
 1318SOL    HW115413   4.199   0.120   5.820 -1.3887 -0.2962  1.8714
 1318SOL    HW215414   4.223   0.003   5.735  2.8317  0.0071 -0.6557
 1319SOL     OW15415   3.684   2.038  12.083  0.2605 -0.4310  0.0973
 1319SOL    HW115416   3.721   2.115  12.126 -0.1887 -0.7425  1.0481
 1319SOL    HW215417   3.697   2.061  11.991  0.3782  0.6135  0.3756
 1320SOL     OW15418   2.761   1.448   4.084  0.1984 -0.3042 -0.0403
 1320SOL    HW115419   2.788   1.426   3.995  0.4265  3.9235 -0.9850
 1320SOL    HW215420   2.843   1.428   4.129  0.1413  0.1961  0.2907
 1321SOL     OW15421   0.705   0.222   6.794  0.0519  0.5328 -0.2621
 1321SOL    HW115422   0.641   0.190   6.858 -0.0700  0.3522 -0.4747
 1321SOL    HW215423   0.791   0.222   6.837 -0.3629  0.5717  0.5809
 1322SOL     OW15424   3.222   3.347  16.498  0.4223  0.3092 -0.3066
 1322SOL    HW115425   3.197   3.439  16.489  1.0799  0.4685 -0.5733
 1322SOL    HW215426   3.304   3.352  16.449  0.4055 -1.5349 -0.5283
 1323SOL     OW15427   4.692   2.352   8.062 -0.1765 -0.2253  0.2228
 1323SOL    HW115428   4.649   2.380   8.143  0.4194 -1.1564  0.8671
 1323SOL    HW215429   4.617   2.341   8.005  1.2468  1.1264 -1.8913
 1324SOL     OW15430   4.370   3.896   3.956 -0.8802  0.0215 -0.3346
 1324SOL    HW115431   4.442   3.956   3.979  1.4077 -2.0660 -2.1146
 1324SOL    HW215432   4.359   3.917   3.864  1.3590  0.9992 -0.3978
 1325SOL     OW15433   1.041   1.681   9.034 -0.2617 -0.2424  0.4736
 1325SOL    HW115434   0.946   1.683   9.020 -0.2877 -1.5693  0.3747
 1325SOL    HW215435   1.052   1.719   9.121  1.1752 -1.2760  0.7436
 1326SOL     OW15436   4.600   2.174  13.645  0.0320 -0.2687  0.4924
 1326SOL    HW115437   4.677   2.208  13.599  0.5129 -0.9363  0.8039
 1326SOL    HW215438   4.633   2.168  13.735  0.1033  1.2969  0.5752
 1327SOL     OW15439   2.435   0.698   5.240  0.1421 -0.1529 -0.2356
 1327SOL    HW115440   2.521   0.706   5.281  0.1109 -0.0027 -0.1992
 1327SOL    HW215441   2.463   0.640   5.169 -1.2250 -1.5214  0.3329
 1328SOL     OW15442   3.010   0.370   6.764 -0.5049 -0.4357 -0.2226
 1328SOL    HW115443   2.971   0.335   6.845 -1.0464 -1.4022 -0.8996
 1328SOL    HW215444   3.091   0.401   6.803  0.1878  1.1799 -2.9371
 1329SOL     OW15445   4.471   0.560   8.978 -0.5663  0.0559 -0.2589
 1329SOL    HW115446   4.484   0.610   9.059 -0.9775 -1.2605  0.6262
 1329SOL    HW215447   4.497   0.639   8.931  0.5004 -0.7149 -0.9772
 1330SOL     OW15448   4.184   3.014   6.533  0.4142  0.2832 -0.4097
 1330SOL    HW115449   4.250   3.084   6.526  1.7747 -0.9334  0.2182
 1330SOL    HW215450   4.240   2.948   6.575 -0.1183 -0.2642 -0.5697
 1331SOL     OW15451   1.370   1.881   0.501  0.0259 -0.2448 -0.0503
 1331SOL    HW115452   1.359   1.935   0.579 -0.6036  4.0489 -3.0641
 1331SOL    HW215453   1.281   1.848   0.491  0.7281 -2.1265  0.0175
 1332SOL     OW15454   2.806   0.871  11.045  0.3288 -0.0234 -0.0415
 1332SOL    HW115455   2.773   0.955  11.014 -0.1096 -0.4454 -0.6949
 1332SOL    HW215456   2.737   0.806  11.032 -1.8527  1.9463  1.6099
 1333SOL     OW15457   0.145   1.420   7.526 -0.2396  0.4424  0.4817
 1333SOL    HW115458   0.088   1.410   7.602 -2.4164 -1.5617 -1.4230
 1333SOL    HW215459   0.101   1.382   7.450 -1.6517 -1.9644  2.4962
 1334SOL     OW15460   2.722   2.611   2.761 -0.0678 -0.1296 -0.2207
 1334SOL    HW115461   2.737   2.700   2.793 -1.5185 -0.3918  1.1908
 1334SOL    HW215462   2.792   2.602   2.696 -0.9216  0.6221 -1.2583
 1335SOL     OW15463   3.229   4.482  13.640 -0.6482  0.0331  0.0380
 1335SOL    HW115464   3.277   4.545  13.587  1.1851 -1.3940  0.0124
 1335SOL    HW215465   3.211   4.528  13.722 -0.0712 -1.1661  0.8480
 1336SOL     OW15466   2.270   3.211   7.602 -0.1388  0.5404 -0.3481
 1336SOL    HW115467   2.256   3.261   7.683  1.4439  2.0390 -0.9903
 1336SOL    HW215468   2.230   3.272   7.540  1.3922  0.8425 -1.0509
 1337SOL     OW15469   2.867   2.049   7.143  0.0659  0.0928 -0.0467
 1337SOL    HW115470   2.893   2.138   7.164 -1.7356  0.9710 -1.5187
 1337SOL    HW215471   2.810   2.026   7.216  0.3914  2.4850  0.9387
 1338SOL     OW15472   2.214   2.969   7.965  0.3723 -0.3435 -0.0993
 1338SOL    HW115473   2.180   2.957   8.053 -2.1612  0.6235 -0.9360
 1338SOL    HW215474   2.277   2.898   7.953  0.1622 -0.8531  1.8486
 1339SOL     OW15475   2.946   1.273   4.907 -0.2908  0.2630  0.2587
 1339SOL    HW115476   3.011   1.245   4.842 -0.3494 -1.4796  0.9543
 1339SOL    HW215477   2.934   1.360   4.871 -0.1814  1.2062  2.5402
 1340SOL     OW15478   1.052   0.141   1.331 -0.1227 -0.1497  0.0528
 1340SOL    HW115479   1.079   0.061   1.285 -1.0629  1.3129 -3.0103
 1340SOL    HW215480   1.100   0.210   1.287  2.5352 -2.0661 -0.0356
 1341SOL     OW15481   4.091   2.323   5.120 -0.2898 -0.5223  0.2762
 1341SOL    HW115482   3.997   2.310   5.138  0.2356 -1.2798  2.4568
 1341SOL    HW215483   4.116   2.230   5.121  1.5998  0.0066  0.4568
 1342SOL     OW15484   3.765   1.980   0.631  0.1689  0.2861  0.0729
 1342SOL    HW115485   3.780   1.982   0.726 -4.3759  1.0722  0.7526
 1342SOL    HW215486   3.768   1.888   0.607 -0.6308 -0.2202  1.8841
 1343SOL     OW15487   2.814   0.904   8.894 -0.2549 -0.1563 -0.4415
 1343SOL    HW115488   2.783   0.973   8.953  2.0383  1.1297 -0.7469
 1343SOL    HW215489   2.909   0.898   8.906 -0.4252 -0.6609  0.6014
 1344SOL     OW15490   2.946   2.295   7.146 -0.1409 -0.3175 -0.2353
 1344SOL    HW115491   2.951   2.296   7.050 -0.8045  1.5851 -0.2318
 1344SOL    HW215492   3.023   2.342   7.177 -0.0255 -2.3088  2.4686
 1345SOL     OW15493   2.253   2.913   7.545  0.5721 -0.7774 -0.0329
 1345SOL    HW115494   2.336   2.873   7.570  1.1804  1.0171  0.8425
 1345SOL    HW215495   2.281   3.003   7.562  3.0321 -1.0215 -2.8795
 1346SOL     OW15496   4.242   3.354   0.829  0.2446 -0.7074 -0.1082
 1346SOL    HW115497   4.230   3.436   0.877  0.8785 -1.2158  0.9129
 1346SOL    HW215498   4.222   3.392   0.744  1.3171  0.4907  0.1864
 1347SOL     OW15499   3.157   1.734   1.909  1.2687  0.3326 -0.1847
 1347SOL    HW115500   3.234   1.678   1.907  0.5049 -0.7593  1.1809
 1347SOL    HW215501   3.094   1.691   1.850 -0.0412 -0.0843  1.5159
 1348SOL     OW15502   1.630   3.729   8.205  0.2859  0.1243  0.5751
 1348SOL    HW115503   1.643   3.681   8.287 -2.0297 -0.0880  0.8223
 1348SOL    HW215504   1.546   3.773   8.211  0.5536  0.5230  1.4113
 1349SOL     OW15505   1.299   1.251   1.557 -0.2775  0.0443 -0.0958
 1349SOL    HW115506   1.243   1.181   1.590 -0.6629  0.4642  0.1510
 1349SOL    HW215507   1.357   1.263   1.632  0.8656 -0.8471 -0.8489
 1350SOL     OW15508   4.234   1.452   4.022 -0.3513 -0.3575 -0.1494
 1350SOL    HW115509   4.245   1.426   4.113 -2.5699 -0.8799 -0.0328
 1350SOL    HW215510   4.164   1.516   4.032 -1.7555 -1.6703 -1.6729
 1351SOL     OW15511   0.192   0.653  10.214  0.2865  0.0576  0.0817
 1351SOL    HW115512   0.287   0.641  10.212  0.5392  2.4536 -1.4011
 1351SOL    HW215513   0.181   0.598  10.292 -1.1981  1.5902  0.9365
 1352SOL     OW15514   3.530   1.183   6.473  0.0487 -0.7177 -0.6361
 1352SOL    HW115515   3.544   1.268   6.430  2.3362  0.0591  1.6242
 1352SOL    HW215516   3.465   1.202   6.540  1.0339  2.9512 -0.6895
 1353SOL     OW15517   1.819   0.958   4.492 -0.2809  0.3660  0.8538
 1353SOL    HW115518   1.800   0.962   4.398 -1.4383 -1.4649  1.0321
 1353SOL    HW215519   1.891   0.895   4.487 -0.8193 -0.2236  0.4916
 1354SOL     OW15520   3.788   0.665  16.364 -0.2249 -0.1584  0.0811
 1354SOL    HW115521   3.754   0.596  16.421  0.0017  0.1977  0.6373
 1354SOL    HW215522   3.707   0.684  16.317 -1.5494 -1.3135  1.9208
 1355SOL     OW15523   2.142   1.261   1.689 -0.2003  0.3606 -0.3697
 1355SOL    HW115524   2.227   1.231   1.722  0.2647 -0.5602 -2.4151
 1355SOL    HW215525   2.168   1.266   1.597  1.6929  0.3908  0.1502
 1356SOL     OW15526   3.229   4.666   7.994  0.3220  0.1679  0.5573
 1356SOL    HW115527   3.285   4.673   7.916 -1.4314  2.1612 -0.4955
 1356SOL    HW215528   3.199   0.033   7.998 -1.5902 -0.3214 -2.4088
 1357SOL     OW15529   4.323   4.380   6.560  0.1394 -0.9405 -0.0989
 1357SOL    HW115530   4.409   4.392   6.602 -0.3056  1.0632  0.2265
 1357SOL    HW215531   4.351   4.355   6.472 -2.7537 -3.5990 -0.2497
 1358SOL     OW15532   3.683   2.838   7.062  0.2590  0.3537  0.2593
 1358SOL    HW115533   3.677   2.744   7.048  1.5065  0.5644 -1.7918
 1358SOL    HW215534   3.773   2.850   7.031 -0.2417  1.7643 -0.6501
 1359SOL     OW15535   3.084   0.718   8.522 -0.2866 -0.3154  0.4839
 1359SOL    HW115536   3.029   0.782   8.567 -3.7145 -1.9781 -1.3313
 1359SOL    HW215537   3.092   0.740   8.430 -1.1649 -2.1369 -0.0339
 1360SOL     OW15538   1.725   4.159  12.620 -0.1829  0.1967  0.1419
 1360SOL    HW115539   1.725   4.091  12.688  0.1035  0.9825  0.9174
 1360SOL    HW215540   1.759   4.107  12.548 -1.4021 -0.9165  0.3677
 1361SOL     OW15541   0.143   0.737   1.676 -0.6685  0.3518 -0.1662
 1361SOL    HW115542   0.142   0.652   1.631  1.0789  0.4784 -0.4339
 1361SOL    HW215543   0.231   0.740   1.713 -0.7073  4.2703 -0.4248
 1362SOL     OW15544   0.098   0.795   2.564 -0.4850  0.2222  0.2716
 1362SOL    HW115545   0.193   0.795   2.557 -0.5001 -0.6870  0.0232
 1362SOL    HW215546   0.075   0.876   2.610 -2.2474 -0.9034  1.3901
 1363SOL     OW15547   0.017   2.921   2.485 -0.1677  0.1172 -0.1567
 1363SOL    HW115548   4.668   2.864   2.457 -3.4566  3.0711  2.3119
 1363SOL    HW215549   0.078   2.897   2.415 -0.8247 -2.4584  0.1304
 1364SOL     OW15550   4.665   3.826   4.086  0.3624  0.2159 -0.2145
 1364SOL    HW115551   0.027   3.822   4.130  0.3554 -1.0212 -0.3380
 1364SOL    HW215552   4.642   3.734   4.086 -1.9320  0.7716 -2.5488
 1365SOL     OW15553   2.520   1.475  16.974 -0.8041 -0.0238 -0.3764
 1365SOL    HW115554   2.548   1.413  16.906 -1.0307 -0.7782  0.2175
 1365SOL    HW215555   2.537   1.421  17.051 -0.6753  0.5470 -0.0081
 1366SOL     OW15556   2.921   0.250   6.963  0.3045  0.5342  0.3463
 1366SOL    HW115557   2.836   0.220   6.994  0.0381  1.4317  0.4870
 1366SOL    HW215558   2.960   0.164   6.953 -1.9475 -0.4949  0.4693
 1367SOL     OW15559   1.724   2.887   1.714  0.0263  0.2845  0.5530
 1367SOL    HW115560   1.697   2.796   1.727 -0.5917  0.1461 -1.7116
 1367SOL    HW215561   1.781   2.891   1.637  0.5170  0.6597  0.9328
 1368SOL     OW15562   4.456   4.715   3.779 -0.1268 -0.4809 -0.1767
 1368SOL    HW115563   4.446   0.070   3.833 -0.0677  0.1982 -1.1354
 1368SOL    HW215564   4.363   4.700   3.762  0.2779 -1.3661 -1.6402
 1369SOL     OW15565   3.467   3.220  10.953  0.2214 -0.1383  0.6541
 1369SOL    HW115566   3.426   3.187  10.873 -1.0710  1.1049  0.8167
 1369SOL    HW215567   3.441   3.312  10.950  0.3803 -0.1734 -1.8869
 1370SOL     OW15568   2.251   0.795   5.594  0.0796 -0.1352  0.0653
 1370SOL    HW115569   2.241   0.700   5.589  0.9612 -0.1760 -0.8961
 1370SOL    HW215570   2.346   0.802   5.597  0.0123  0.2431  1.1944
 1371SOL     OW15571   2.002   4.642   2.178  0.2280 -0.1677 -0.1616
 1371SOL    HW115572   1.942   4.569   2.193 -0.9164  0.3129 -2.4215
 1371SOL    HW215573   2.087   4.611   2.208  1.4227  1.6826 -1.6166
 1372SOL     OW15574   0.771   0.097  13.729 -0.0095 -0.0611  0.5364
 1372SOL    HW115575   0.774   0.173  13.786 -2.9725  0.6144 -0.2172
 1372SOL    HW215576   0.761   0.029  13.796  0.6845 -0.5295  0.1700
 1373SOL     OW15577   2.834   0.448   2.365  0.3294 -0.1667 -0.1375
 1373SOL    HW115578   2.819   0.354   2.356  0.0477 -0.0869 -0.5031
 1373SOL    HW215579   2.816   0.477   2.276  0.5823  0.6103  0.0662
 1374SOL     OW15580   2.104   2.616   7.215 -0.3435 -0.3865  0.0805
 1374SOL    HW115581   2.017   2.610   7.176 -0.7556  1.0942  0.7962
 1374SOL    HW215582   2.157   2.575   7.146  0.4708 -0.1004  0.5312
 1375SOL     OW15583   3.560   4.480   0.577 -0.7533  0.6188 -0.4958
 1375SOL    HW115584   3.629   4.437   0.629 -1.8408 -0.2463  0.2262
 1375SOL    HW215585   3.592   4.570   0.575  1.4721 -0.1620 -0.7247
 1376SOL     OW15586   2.929   3.008  14.265  0.4359 -0.0018  0.8614
 1376SOL    HW115587   2.929   2.937  14.329 -1.2450  0.1562  1.0393
 1376SOL    HW215588   2.838   3.035  14.268 -0.0027 -1.0279 -3.2630
 1377SOL     OW15589   0.251   2.704   4.800  1.0204 -0.5655  0.2954
 1377SOL    HW115590   0.209   2.624   4.830 -1.3677 -0.3752 -2.5520
 1377SOL    HW215591   0.232   2.691   4.707 -3.0076 -2.2739  1.3359
 1378SOL     OW15592   1.543   2.027   6.859  0.4853 -0.4226  0.7510
 1378SOL    HW115593   1.496   2.018   6.942 -1.5446  1.2818 -0.2109
 1378SOL    HW215594   1.513   1.947   6.816  0.3305  0.3766 -0.6256
 1379SOL     OW15595   4.472   0.055   4.934 -0.2285  0.2858  0.2662
 1379SOL    HW115596   4.413   0.073   5.006 -1.0069  0.1349 -0.3275
 1379SOL    HW215597   4.415   0.001   4.879  0.4469  1.2098 -1.3420
 1380SOL     OW15598   3.760   3.983  13.577 -0.0447  0.5237 -0.2280
 1380SOL    HW115599   3.753   4.054  13.641 -0.2933  1.0194 -0.8029
 1380SOL    HW215600   3.846   3.945  13.595 -0.1586  0.0096 -0.7399
 1381SOL     OW15601   3.922   4.151  11.988  0.0235 -0.2068 -0.5655
 1381SOL    HW115602   3.984   4.153  12.061 -0.8692  0.2321  0.1817
 1381SOL    HW215603   3.958   4.230  11.947 -1.7049  0.1861 -1.3338
 1382SOL     OW15604   3.316   4.620   2.790  0.2775  0.2077  0.7029
 1382SOL    HW115605   3.285   4.551   2.732  0.0140  0.6305  0.3330
 1382SOL    HW215606   3.238   4.670   2.816  0.4509  0.4327  0.7944
 1383SOL     OW15607   2.672   2.876   5.707 -0.2429 -0.0561  0.3750
 1383SOL    HW115608   2.723   2.812   5.657 -0.4428  0.8143 -0.9251
 1383SOL    HW215609   2.659   2.945   5.642  3.0435  0.4930  0.3177
 1384SOL     OW15610   1.038   2.811   2.380 -0.1753  0.3595  0.2916
 1384SOL    HW115611   0.961   2.769   2.340  0.1912 -2.2119  2.2927
 1384SOL    HW215612   1.010   2.803   2.471  0.0133  0.8150  0.3880
 1385SOL     OW15613   0.650   3.319  12.414  0.0817 -0.3158  0.0163
 1385SOL    HW115614   0.723   3.293  12.469  1.7375  2.1262 -1.0315
 1385SOL    HW215615   0.697   3.323  12.330 -0.4719  1.1740 -0.2263
 1386SOL     OW15616   2.176   4.624   4.660  0.1287  0.1716 -0.2492
 1386SOL    HW115617   2.113   4.654   4.595 -0.4606 -1.4380 -0.4290
 1386SOL    HW215618   2.126   4.551   4.697  0.8664 -0.2906 -0.1639
 1387SOL     OW15619   2.524   1.350   6.099  0.0795  0.4187 -0.0124
 1387SOL    HW115620   2.499   1.280   6.158  0.7662  0.1448 -0.0423
 1387SOL    HW215621   2.448   1.406   6.111 -1.1961 -1.4579  0.6641
 1388SOL     OW15622   4.695   1.730   8.889  0.2672 -0.6189  0.2820
 1388SOL    HW115623   4.686   1.772   8.975 -0.0665 -1.1417  0.5002
 1388SOL    HW215624   4.694   1.812   8.839  1.1083  0.0235  1.2994
 1389SOL     OW15625   3.344   2.679   2.662  0.2365  0.3874 -0.3438
 1389SOL    HW115626   3.311   2.599   2.703  0.7396  0.7825  0.8394
 1389SOL    HW215627   3.425   2.695   2.712 -0.5797  2.4146  0.3536
 1390SOL     OW15628   3.075   1.032  15.346 -0.1725 -0.7671  0.1542
 1390SOL    HW115629   2.999   1.068  15.301  0.5350  0.8898  0.2655
 1390SOL    HW215630   3.080   0.944  15.310  0.0318 -1.0603  0.9015
 1391SOL     OW15631   0.982   0.383  17.687  0.4083  0.2249  0.0344
 1391SOL    HW115632   0.931   0.413   0.068 -1.1421 -2.4088  0.0198
 1391SOL    HW215633   1.001   0.463  17.638  0.2472 -0.3333 -0.9647
 1392SOL     OW15634   1.597   1.683  13.109  0.2312 -0.0348 -0.3773
 1392SOL    HW115635   1.541   1.616  13.071 -0.4998  0.0874  0.4908
 1392SOL    HW215636   1.553   1.764  13.082 -0.1453 -0.1935 -0.2404
 1393SOL     OW15637   3.531   2.958  12.547  1.2051  0.1259  0.1918
 1393SOL    HW115638   3.612   3.004  12.566  1.4968 -0.7184  0.9612
 1393SOL    HW215639   3.575   2.883  12.507 -1.2742 -2.1090  1.6516
 1394SOL     OW15640   1.793   0.470   7.446  0.2688 -0.0835  0.0458
 1394SOL    HW115641   1.809   0.517   7.528 -0.8812  1.4075 -0.5694
 1394SOL    HW215642   1.864   0.506   7.392 -0.1616  2.0900  0.9397
 1395SOL     OW15643   2.248   0.671   9.837 -0.0962 -0.2070  0.2596
 1395SOL    HW115644   2.312   0.696   9.904 -1.1390  0.9422  0.8243
 1395SOL    HW215645   2.164   0.698   9.873 -1.1188 -2.9151 -0.0831
 1396SOL     OW15646   4.287   4.339   7.004 -0.3289  0.0545 -0.5205
 1396SOL    HW115647   4.254   4.346   7.094  0.8312  3.1130 -0.3291
 1396SOL    HW215648   4.214   4.289   6.967 -1.1341  0.2730  0.7663
 1397SOL     OW15649   0.754   1.897   2.050 -0.4955 -0.2412 -0.1066
 1397SOL    HW115650   0.686   1.859   2.106 -3.5715  2.3178 -2.0788
 1397SOL    HW215651   0.806   1.817   2.050  0.6477  0.5041 -1.2411
 1398SOL     OW15652   3.868   0.824   5.201 -0.0863  0.2371  0.4339
 1398SOL    HW115653   3.784   0.783   5.182  1.5222 -2.4761 -0.9866
 1398SOL    HW215654   3.846   0.916   5.212 -0.8606  0.1538 -0.4382
 1399SOL     OW15655   4.711   2.658   5.170 -0.4757  0.0963 -0.3040
 1399SOL    HW115656   0.078   2.627   5.161 -1.4752 -3.2721  1.1952
 1399SOL    HW215657   4.715   2.684   5.262 -0.2030 -0.3029 -0.2035
 1400SOL     OW15658   1.699   4.537   8.167 -0.1814 -0.4296 -0.3121
 1400SOL    HW115659   1.623   4.553   8.111  0.4483 -0.2451 -1.1180
 1400SOL    HW215660   1.774   4.535   8.107  0.8286  1.0054  0.9087
 1401SOL     OW15661   0.270   0.762  16.941 -0.2160  0.5253 -0.5864
 1401SOL    HW115662   0.310   0.715  17.014  0.1059 -0.1795 -1.2185
 1401SOL    HW215663   0.333   0.785  16.873 -0.0788 -0.4103 -0.7720
 1402SOL     OW15664   4.480   2.091  15.216 -0.0007 -0.1077  0.1670
 1402SOL    HW115665   4.541   2.022  15.191 -3.1250 -2.9600  0.2796
 1402SOL    HW215666   4.476   2.119  15.124  0.4360  0.5697  0.3591
 1403SOL     OW15667   0.610   3.228   2.680  0.1143  0.5192  0.4164
 1403SOL    HW115668   0.658   3.262   2.605  0.8423  1.3884  1.2663
 1403SOL    HW215669   0.542   3.169   2.648 -1.1870  1.4846  1.4331
 1404SOL     OW15670   3.010   3.034   3.012 -0.0275  0.5932  0.0272
 1404SOL    HW115671   2.929   3.035   3.063 -0.7124 -1.5451 -1.0417
 1404SOL    HW215672   3.032   2.941   3.017 -0.9820  0.2754 -1.7744
 1405SOL     OW15673   1.817   0.526  12.685  0.0289 -0.0004  0.3645
 1405SOL    HW115674   1.753   0.580  12.731 -1.3063 -0.3582 -1.1140
 1405SOL    HW215675   1.797   0.439  12.721 -0.1174 -0.2200 -0.2415
 1406SOL     OW15676   1.919   3.911  14.216 -0.0182  0.0642 -0.1009
 1406SOL    HW115677   2.009   3.915  14.249 -0.3355 -0.0343  0.7677
 1406SOL    HW215678   1.880   3.946  14.296 -0.1827  0.7038 -0.4654
 1407SOL     OW15679   1.417   0.735   0.930  0.0691  0.3127 -0.0509
 1407SOL    HW115680   1.409   0.794   1.004  0.8712 -2.4744  2.2718
 1407SOL    HW215681   1.436   0.799   0.861  1.7393 -1.2017 -0.9990
 1408SOL     OW15682   0.616   3.785   1.791 -0.7478 -0.6195 -0.1420
 1408SOL    HW115683   0.623   3.699   1.833 -3.8795 -0.0532  1.5029
 1408SOL    HW215684   0.537   3.783   1.737  0.5551 -0.0480 -2.0766
 1409SOL     OW15685   1.474   0.750   8.267  0.0208  0.2531  0.4647
 1409SOL    HW115686   1.424   0.711   8.196  0.8064 -0.3702  0.2479
 1409SOL    HW215687   1.449   0.688   8.336  0.2022  1.5509  1.7023
 1410SOL     OW15688   1.924   0.857   5.252  0.4237 -0.0555  0.3435
 1410SOL    HW115689   2.005   0.806   5.251 -0.6863 -1.7007 -3.0051
 1410SOL    HW215690   1.859   0.800   5.211 -1.6838  2.3704  0.3147
 1411SOL     OW15691   0.998   3.282   6.857 -0.2917  0.1135 -0.2154
 1411SOL    HW115692   0.940   3.265   6.783  0.3530 -1.6777 -0.3301
 1411SOL    HW215693   0.978   3.373   6.877 -1.2770 -0.2948  0.6623
 1412SOL     OW15694   3.140   4.045  13.764 -0.4123 -0.0773  0.5405
 1412SOL    HW115695   3.105   3.969  13.810  1.0413 -0.5235  0.8989
 1412SOL    HW215696   3.220   4.010  13.726 -1.1145  0.8432 -1.8091
 1413SOL     OW15697   3.890   1.239  15.025 -0.3635 -0.3466 -0.1365
 1413SOL    HW115698   3.932   1.255  15.110 -0.2150 -1.9678  0.0935
 1413SOL    HW215699   3.956   1.183  14.984  0.4521  2.0729 -2.1234
 1414SOL     OW15700   4.613   0.905   6.060 -0.3494  0.3207  0.3910
 1414SOL    HW115701   4.594   0.812   6.051  0.9086  0.0431  0.6688
 1414SOL    HW215702   4.524   0.940   6.068  0.2288  1.9577 -0.2902
 1415SOL     OW15703   1.469   2.764  10.391 -0.0613  0.1498 -0.7138
 1415SOL    HW115704   1.401   2.699  10.375 -0.2301 -0.0477  0.7423
 1415SOL    HW215705   1.532   2.716  10.446  1.6149  2.6246 -0.4807
 1416SOL     OW15706   2.071   1.580  13.407  0.6239  0.0356  0.1926
 1416SOL    HW115707   1.976   1.596  13.405  0.7302  0.4967 -0.9948
 1416SOL    HW215708   2.077   1.570  13.502 -0.4534  0.3913  0.2989
 1417SOL     OW15709   2.679   3.333   7.365 -0.3327 -0.6764 -0.2976
 1417SOL    HW115710   2.598   3.366   7.405  0.7925  0.1702  1.2719
 1417SOL    HW215711   2.716   3.277   7.433  1.4491  0.2279 -0.5288
 1418SOL     OW15712   2.468   0.629   5.689  0.0700  0.5744 -0.3796
 1418SOL    HW115713   2.477   0.537   5.715  1.4240  0.7546 -0.2518
 1418SOL    HW215714   2.442   0.658   5.776 -1.6381  1.2230 -1.0994
 1419SOL     OW15715   3.329   2.600  10.053 -0.3652 -0.8524 -0.1077
 1419SOL    HW115716   3.414   2.612  10.095 -1.0817 -1.5767  1.5650
 1419SOL    HW215717   3.353   2.565   9.967 -0.4279  1.4749 -1.0540
 1420SOL     OW15718   2.938   4.071   9.652  0.0885 -0.1115  0.2693
 1420SOL    HW115719   2.892   4.020   9.585 -1.2696 -0.6350  1.6106
 1420SOL    HW215720   2.948   4.009   9.723 -0.3071  1.0653  1.3517
 1421SOL     OW15721   0.717   2.213   8.362 -0.0479 -0.0418 -1.3049
 1421SOL    HW115722   0.772   2.141   8.395  0.7525  1.8649  1.5038
 1421SOL    HW215723   0.661   2.229   8.438  0.1214  1.8997 -1.5889
 1422SOL     OW15724   1.903   1.818   7.614 -0.2693 -0.4148 -0.6600
 1422SOL    HW115725   1.828   1.760   7.620 -1.9424  1.9245  1.0412
 1422SOL    HW215726   1.863   1.894   7.656 -0.1537 -0.6217 -0.1701
 1423SOL     OW15727   3.024   1.340  12.079  0.2688 -0.1178  0.1732
 1423SOL    HW115728   2.930   1.324  12.092  0.4797 -1.6254 -0.0868
 1423SOL    HW215729   3.053   1.280  12.148 -1.6657  1.2170  2.1338
 1424SOL     OW15730   0.908   1.916   6.206  0.1106 -0.2755 -0.7434
 1424SOL    HW115731   1.002   1.919   6.191  0.2826 -0.6394  0.2561
 1424SOL    HW215732   0.884   2.003   6.174  1.4590  0.4590  0.3007
 1425SOL     OW15733   0.432   3.200   3.202  0.0510 -0.5029  0.3846
 1425SOL    HW115734   0.436   3.182   3.296  1.0038  2.2569  0.8445
 1425SOL    HW215735   0.338   3.220   3.195  0.1194 -0.1006  0.6308
 1426SOL     OW15736   2.764   2.488   7.808  0.1370 -0.2885 -0.3421
 1426SOL    HW115737   2.767   2.536   7.725  1.1794  1.8561  0.9541
 1426SOL    HW215738   2.689   2.430   7.791  0.0054  0.6994 -3.2140
 1427SOL     OW15739   0.962   0.056  16.718  0.0181 -0.1999 -0.2346
 1427SOL    HW115740   0.948   0.135  16.667  0.9063 -0.2015 -0.4948
 1427SOL    HW215741   1.033   0.095  16.769 -0.2374  1.0709 -0.8673
 1428SOL     OW15742   2.613   3.992   3.204 -0.3819 -0.3481 -0.1765
 1428SOL    HW115743   2.633   3.908   3.162  0.4254 -0.4788  0.4904
 1428SOL    HW215744   2.697   4.019   3.240  0.0138  0.2660 -1.5669
 1429SOL     OW15745   3.187   2.459   6.553  0.0674 -0.2212  0.1452
 1429SOL    HW115746   3.145   2.439   6.469 -1.4110 -0.8793  1.0423
 1429SOL    HW215747   3.164   2.376   6.593  1.0267  0.5235  2.2446
 1430SOL     OW15748   2.108   1.052   9.559 -0.0633  0.0885  0.1584
 1430SOL    HW115749   2.080   0.962   9.577  1.5541 -0.8258 -1.9388
 1430SOL    HW215750   2.023   1.092   9.579 -0.8962 -0.3610 -2.3775
 1431SOL     OW15751   0.855   1.010   9.800 -0.0432 -0.3608 -0.3342
 1431SOL    HW115752   0.884   0.994   9.890 -0.2303 -0.9369 -0.3726
 1431SOL    HW215753   0.915   1.083   9.787 -1.7183  1.4151  1.8653
 1432SOL     OW15754   3.009   0.959   4.324 -0.9199 -0.2668  0.2899
 1432SOL    HW115755   3.073   0.905   4.278 -0.7928 -0.3721  0.5879
 1432SOL    HW215756   3.051   1.001   4.399 -0.5283  0.5606 -0.3971
 1433SOL     OW15757   0.140   3.860   4.500  0.2445 -0.1270 -0.0106
 1433SOL    HW115758   0.216   3.871   4.556 -1.0334 -2.1485  2.1338
 1433SOL    HW215759   0.090   3.941   4.509  0.5505  0.3685 -2.5676
 1434SOL     OW15760   3.271   0.890   6.159 -0.0682 -0.0716 -0.5477
 1434SOL    HW115761   3.198   0.912   6.102  0.4059  1.2203 -0.6669
 1434SOL    HW215762   3.330   0.952   6.115  0.1453  1.0946  1.3285
 1435SOL     OW15763   1.923   4.506   3.589 -0.3848 -0.7160  0.5935
 1435SOL    HW115764   1.983   4.544   3.653 -1.1552  0.1594  0.7979
 1435SOL    HW215765   1.983   4.480   3.519 -0.6896  1.4672 -0.4587
 1436SOL     OW15766   1.258   0.516   3.719 -0.1992  0.1623 -0.0627
 1436SOL    HW115767   1.182   0.564   3.684 -0.2906  0.2414  0.2457
 1436SOL    HW215768   1.306   0.476   3.647 -3.6522 -1.8473 -1.2538
 1437SOL     OW15769   2.283   3.717   6.439  0.2831 -0.2465 -0.0328
 1437SOL    HW115770   2.323   3.727   6.525  0.5036 -2.0674  0.0937
 1437SOL    HW215771   2.233   3.637   6.456 -0.1895 -0.1248 -0.8528
 1438SOL     OW15772   1.087   0.947   9.240 -0.1745  0.4249  0.0289
 1438SOL    HW115773   1.156   0.905   9.292 -1.3203 -1.3913  0.0619
 1438SOL    HW215774   1.057   1.017   9.297 -0.0536  0.9442 -0.5481
 1439SOL     OW15775   1.014   3.594   6.255  0.5302  0.3515 -0.2096
 1439SOL    HW115776   0.969   3.637   6.183 -0.7943 -0.3734  0.1759
 1439SOL    HW215777   1.013   3.659   6.325 -1.2819  0.5973 -0.4656
 1440SOL     OW15778   2.583   3.788   5.545 -0.2607  0.1515 -0.5248
 1440SOL    HW115779   2.548   3.749   5.625  2.4244  0.8067  0.9644
 1440SOL    HW215780   2.538   3.873   5.550  0.1439  0.1756  2.3072
 1441SOL     OW15781   1.676   0.240   3.448 -0.0552  0.9115 -0.5749
 1441SOL    HW115782   1.667   0.310   3.383  2.6447  0.1312 -1.8044
 1441SOL    HW215783   1.601   0.184   3.428 -1.4529  2.5813  0.0306
 1442SOL     OW15784   1.156   3.143   3.794 -0.0872 -0.0291 -0.3115
 1442SOL    HW115785   1.163   3.204   3.721  0.2931 -0.7319 -0.8598
 1442SOL    HW215786   1.088   3.193   3.838  0.4510  0.3044  0.1474
 1443SOL     OW15787   2.240   1.256   9.423 -0.5709 -0.1468  0.0366
 1443SOL    HW115788   2.213   1.338   9.465 -1.5319 -0.5576  0.2067
 1443SOL    HW215789   2.185   1.190   9.465  0.9292 -0.8094  1.0015
 1444SOL     OW15790   0.613   0.618   3.749  0.0919 -0.6155 -0.1181
 1444SOL    HW115791   0.611   0.582   3.838 -0.7676  0.4413  0.2789
 1444SOL    HW215792   0.532   0.668   3.740 -0.9934 -1.9924  1.8488
 1445SOL     OW15793   0.349   0.344   3.466 -0.4314 -0.1776 -0.1227
 1445SOL    HW115794   0.357   0.317   3.558  1.3452 -3.2384 -1.1761
 1445SOL    HW215795   0.257   0.325   3.447 -0.2101 -1.7633  0.4161
 1446SOL     OW15796   1.904   0.092  15.417 -0.0435 -0.3192  0.0339
 1446SOL    HW115797   1.933   0.075  15.327 -0.0249 -0.4659  0.0668
 1446SOL    HW215798   1.822   0.136  15.392  0.1290  0.1374  0.2838
 1447SOL     OW15799   0.327   2.331  10.896 -0.0134 -0.3129  0.0283
 1447SOL    HW115800   0.385   2.386  10.844 -0.2967  1.3726  1.5049
 1447SOL    HW215801   0.255   2.394  10.899  1.7945  1.8257 -1.0530
 1448SOL     OW15802   1.856   3.926   6.905  0.2752 -0.5063 -0.3134
 1448SOL    HW115803   1.816   3.867   6.968 -0.1643  0.0546 -0.0703
 1448SOL    HW215804   1.934   3.940   6.958  0.9370 -3.1008 -0.5881
 1449SOL     OW15805   1.666   2.131   8.154 -0.0920 -0.1667  0.4941
 1449SOL    HW115806   1.670   2.037   8.173 -0.8655  0.0425  1.6758
 1449SOL    HW215807   1.727   2.165   8.219 -0.8899  1.6339  0.2880
 1450SOL     OW15808   3.500   1.870   5.364  0.0730 -0.1764  0.1257
 1450SOL    HW115809   3.545   1.935   5.417  2.0835  0.8788 -2.8562
 1450SOL    HW215810   3.563   1.800   5.346  1.5736  1.0791  0.4808
 1451SOL     OW15811   1.826   2.236   3.647 -0.1107  0.3910 -0.2437
 1451SOL    HW115812   1.919   2.258   3.656 -0.3422  2.1133 -2.1010
 1451SOL    HW215813   1.806   2.200   3.733 -4.5103  0.5713 -1.2222
 1452SOL     OW15814   2.388   2.857   3.624 -0.0133  0.2803  0.3131
 1452SOL    HW115815   2.302   2.852   3.666 -0.0888 -1.2959 -0.0162
 1452SOL    HW215816   2.355   2.877   3.536 -1.5431  1.9281  1.2598
 1453SOL     OW15817   0.194   0.515   3.767  0.2542 -1.1122 -0.3901
 1453SOL    HW115818   0.227   0.445   3.823 -1.5329 -2.1718 -0.6360
 1453SOL    HW215819   0.273   0.567   3.753 -0.5279  0.5286  1.3255
 1454SOL     OW15820   0.525   0.452   4.428  0.1901  0.1842 -0.2073
 1454SOL    HW115821   0.509   0.378   4.487  0.3854  0.7907  0.6023
 1454SOL    HW215822   0.561   0.522   4.482 -1.3842  0.5553  0.3273
 1455SOL     OW15823   2.988   1.545  11.074 -0.2086 -0.7192  0.3372
 1455SOL    HW115824   2.969   1.566  10.982 -0.6433 -1.5280  0.2444
 1455SOL    HW215825   2.932   1.607  11.121 -0.4247 -0.7010  0.0591
 1456SOL     OW15826   4.595   0.542   3.552  0.0537  0.0281 -0.3369
 1456SOL    HW115827   4.570   0.548   3.460 -1.2553  0.1231  0.0268
 1456SOL    HW215828   4.533   0.476   3.583 -0.9227  1.3373  0.5123
 1457SOL     OW15829   3.125   0.578  17.073 -0.2867  0.3876  0.3229
 1457SOL    HW115830   3.050   0.604  17.018 -0.9854  0.2499  1.2000
 1457SOL    HW215831   3.189   0.520  17.033 -1.0670  1.6653 -2.7863
 1458SOL     OW15832   0.915   4.093   6.547 -0.2463 -0.4944 -0.2407
 1458SOL    HW115833   0.912   4.161   6.479  1.1875 -0.9530 -0.7583
 1458SOL    HW215834   0.948   4.153   6.614 -1.3339 -0.4755  0.2806
 1459SOL     OW15835   3.362   1.081   3.756  0.2868 -0.0503 -0.7555
 1459SOL    HW115836   3.443   1.132   3.757 -0.1251  0.5751  1.5062
 1459SOL    HW215837   3.293   1.143   3.782  1.7083  1.3590 -0.3658
 1460SOL     OW15838   1.039   2.686  12.965 -0.2206  0.0170 -0.2106
 1460SOL    HW115839   0.990   2.686  12.883 -0.4945 -1.7834 -0.0407
 1460SOL    HW215840   0.979   2.731  13.025 -0.0874  1.8676 -1.4390
 1461SOL     OW15841   3.270   3.981  17.653  0.3721 -0.2218  0.2205
 1461SOL    HW115842   3.213   3.949   0.029 -0.9819  0.6206 -0.5114
 1461SOL    HW215843   3.251   4.074  17.663  0.7726 -0.2101  0.8857
 1462SOL     OW15844   3.478   2.732   8.788  0.3487 -0.4523  0.1851
 1462SOL    HW115845   3.403   2.680   8.760 -1.5706  1.9300  0.9588
 1462SOL    HW215846   3.527   2.721   8.706  1.9509  0.4882  1.0160
 1463SOL     OW15847   0.993   4.147   1.667  0.1198 -0.1197 -0.2431
 1463SOL    HW115848   0.925   4.169   1.732  1.4320  0.9713  0.7571
 1463SOL    HW215849   0.962   4.206   1.599  2.0072 -1.4249 -2.2241
 1464SOL     OW15850   2.403   0.979   0.329 -0.5541 -0.2588 -0.1167
 1464SOL    HW115851   2.368   0.891   0.339 -0.1554 -0.1155  2.6160
 1464SOL    HW215852   2.346   1.026   0.390  0.5855  1.7226 -0.5498
 1465SOL     OW15853   3.090   3.357   3.749  0.6685 -0.2154  0.0035
 1465SOL    HW115854   3.040   3.439   3.753  0.6987 -0.2101  0.2557
 1465SOL    HW215855   3.131   3.365   3.663 -0.5374 -0.0184 -0.5552
 1466SOL     OW15856   1.898   2.008   8.591  0.2368 -0.0536  0.0838
 1466SOL    HW115857   1.990   2.002   8.617  0.3660 -1.1360 -0.6199
 1466SOL    HW215858   1.879   2.087   8.641  2.0889  0.1004  0.5789
 1467SOL     OW15859   3.757   3.182   6.468 -0.3064  0.4053 -0.1346
 1467SOL    HW115860   3.776   3.273   6.445  1.1661 -0.5226 -2.5304
 1467SOL    HW215861   3.672   3.199   6.508  1.5357  2.0753  3.0714
 1468SOL     OW15862   1.724   2.954   4.041  0.3197 -0.3953  0.3834
 1468SOL    HW115863   1.671   3.017   3.993  2.4683  1.4689  0.4546
 1468SOL    HW215864   1.668   2.941   4.117  1.2842  3.4128  1.7385
 1469SOL     OW15865   1.282   1.203  16.946 -0.0051  0.0800 -0.0941
 1469SOL    HW115866   1.215   1.171  16.886 -0.5527 -1.6292  1.4406
 1469SOL    HW215867   1.339   1.250  16.885 -0.7026  0.4911 -0.4360
 1470SOL     OW15868   1.060   2.623  16.541 -0.4701  0.0356  0.0510
 1470SOL    HW115869   1.063   2.665  16.455  2.7959 -1.1158 -0.3864
 1470SOL    HW215870   1.090   2.688  16.604  0.3035  1.3217 -1.6507
 1471SOL     OW15871   2.313   0.399   1.401 -0.6267  0.0501  0.1427
 1471SOL    HW115872   2.273   0.354   1.474  3.5634 -1.1041  1.7498
 1471SOL    HW215873   2.241   0.398   1.338 -0.0886 -1.2084 -0.4521
 1472SOL     OW15874   0.703   3.499   7.560 -0.0743 -0.3459 -0.3505
 1472SOL    HW115875   0.787   3.469   7.595 -0.6801 -1.7217 -0.0745
 1472SOL    HW215876   0.695   3.444   7.482  1.7307 -2.1249  0.7119
 1473SOL     OW15877   0.590   3.435   3.218 -0.5980 -0.0642 -0.1951
 1473SOL    HW115878   0.560   3.490   3.145 -0.6947 -0.5146 -0.4913
 1473SOL    HW215879   0.535   3.359   3.198  0.2992 -0.8209  0.2197
 1474SOL     OW15880   3.735   1.107  12.101  0.4800 -0.2293 -0.0542
 1474SOL    HW115881   3.720   1.016  12.077  1.0867 -0.0658 -1.0546
 1474SOL    HW215882   3.664   1.118  12.164 -0.4098  0.7813 -1.2143
 1475SOL     OW15883   1.759   0.958   4.208  0.5114  0.0395 -0.1633
 1475SOL    HW115884   1.834   0.915   4.169  0.7169 -0.3742  0.6881
 1475SOL    HW215885   1.693   0.900   4.170  1.2134 -0.4753 -0.5872
 1476SOL     OW15886   4.550   0.009   4.370  0.2503  0.4857  0.3787
 1476SOL    HW115887   4.460   0.039   4.368  0.4824  1.2141  0.7167
 1476SOL    HW215888   4.599   0.090   4.386 -0.4614  0.9611  0.1678
 1477SOL     OW15889   2.409   0.778   2.479 -0.5910  0.2383  0.6865
 1477SOL    HW115890   2.427   0.869   2.455  0.0358  0.1828  0.9513
 1477SOL    HW215891   2.485   0.733   2.443  0.5987  0.6887  2.6795
 1478SOL     OW15892   0.372   1.676  10.816 -0.2956  0.2688  0.4812
 1478SOL    HW115893   0.451   1.719  10.784 -0.0869  0.7845  1.6828
 1478SOL    HW215894   0.363   1.708  10.906  0.6493  1.4281  0.1607
 1479SOL     OW15895   4.590   2.904   2.050 -0.7261  0.0278 -0.4126
 1479SOL    HW115896   4.526   2.956   2.001  0.9770  1.0125 -1.5920
 1479SOL    HW215897   4.667   2.917   1.995  0.0693  2.3995  1.2271
 1480SOL     OW15898   1.227   0.393   6.944 -0.2427 -0.8105  0.4082
 1480SOL    HW115899   1.194   0.476   6.911  0.8592 -0.2737  0.6305
 1480SOL    HW215900   1.236   0.413   7.038 -0.1610 -0.5285  0.3416
 1481SOL     OW15901   2.679   0.944   2.736  0.0526  0.4360 -0.7312
 1481SOL    HW115902   2.756   0.925   2.789 -1.8651 -3.0944  0.7320
 1481SOL    HW215903   2.630   1.010   2.785  2.2587  0.2509  1.6788
 1482SOL     OW15904   4.698   1.431  15.128 -0.1154 -0.1802 -0.0602
 1482SOL    HW115905   4.606   1.436  15.156 -0.5259 -1.1537 -1.2071
 1482SOL    HW215906   4.715   1.525  15.132 -0.7016 -0.2110  3.1721
 1483SOL     OW15907   1.989   2.773   8.566 -0.0411  0.6061  0.3101
 1483SOL    HW115908   1.907   2.730   8.543  0.8299 -0.7123 -0.3278
 1483SOL    HW215909   2.026   2.720   8.636 -0.1535  1.4071  0.9835
 1484SOL     OW15910   2.863   1.888  11.819  0.1382 -0.0396 -0.3564
 1484SOL    HW115911   2.826   1.849  11.898 -2.2593 -0.0364 -1.4472
 1484SOL    HW215912   2.955   1.873  11.836 -0.0252 -1.1166 -0.4248
 1485SOL     OW15913   4.617   2.138   5.955  0.2069 -0.6602 -0.4693
 1485SOL    HW115914   4.527   2.113   5.937  0.3217 -0.4325 -1.3365
 1485SOL    HW215915   4.613   2.124   6.050  0.1413  1.0578 -0.2162
 1486SOL     OW15916   2.659   3.706   2.807  0.4532 -0.1769 -0.3377
 1486SOL    HW115917   2.753   3.697   2.795  1.0641 -0.3825  4.3652
 1486SOL    HW215918   2.647   3.788   2.760 -0.3376  1.2752  2.3525
 1487SOL     OW15919   1.129   3.573   5.122  0.1346  0.0341  0.0703
 1487SOL    HW115920   1.165   3.540   5.204 -1.4362  0.0103  0.7520
 1487SOL    HW215921   1.063   3.511   5.091  1.6162 -1.2573 -0.4910
 1488SOL     OW15922   2.975   2.509  13.106 -0.1851  0.7366  0.6691
 1488SOL    HW115923   2.921   2.565  13.051 -1.0065  0.6379  1.3803
 1488SOL    HW215924   2.905   2.462  13.151  0.4660  0.4475  1.3748
 1489SOL     OW15925   2.602   3.782   5.251 -0.0597  0.4344 -0.1601
 1489SOL    HW115926   2.597   3.762   5.345 -0.1950  0.6675 -0.1177
 1489SOL    HW215927   2.655   3.862   5.252 -0.5496  0.7644 -1.7538
 1490SOL     OW15928   2.178   3.089   3.678  0.0163  0.1370  0.4609
 1490SOL    HW115929   2.254   3.092   3.620 -1.5757  0.4160 -1.5853
 1490SOL    HW215930   2.112   3.052   3.620  2.1805 -1.4161 -1.0336
 1491SOL     OW15931   0.840   0.439   7.078  0.1170 -0.7778 -0.1616
 1491SOL    HW115932   0.779   0.510   7.058  3.3277  2.0363 -0.0237
 1491SOL    HW215933   0.823   0.419   7.170  0.8110 -0.5457  0.0152
 1492SOL     OW15934   3.116   1.303   2.270  0.0162  0.3092 -0.3456
 1492SOL    HW115935   3.204   1.318   2.236 -0.0750 -0.1469 -0.7749
 1492SOL    HW215936   3.095   1.219   2.229 -0.3954  0.4339 -0.3878
 1493SOL     OW15937   1.688   4.058   5.168  0.0421  0.4219  0.3616
 1493SOL    HW115938   1.630   4.069   5.243 -1.5377  0.9614 -0.9523
 1493SOL    HW215939   1.743   4.135   5.154  0.8195  0.3317  2.7814
 1494SOL     OW15940   0.532   2.852   4.268  0.0340  0.0390 -0.8779
 1494SOL    HW115941   0.474   2.927   4.267 -0.1666 -0.1358 -2.3943
 1494SOL    HW215942   0.607   2.897   4.228  0.2220 -0.3797 -1.0003
 1495SOL     OW15943   2.483   2.137   8.688  1.0056 -0.1877 -0.2574
 1495SOL    HW115944   2.500   2.067   8.751  0.1212 -0.1194  0.0529
 1495SOL    HW215945   2.493   2.213   8.745 -0.4826 -1.3901  1.5980
 1496SOL     OW15946   3.965   3.388   5.966 -0.0228 -0.0971  0.0653
 1496SOL    HW115947   3.872   3.369   5.980 -0.7602  3.7126  0.4600
 1496SOL    HW215948   3.966   3.480   5.938  3.3387 -0.2057 -0.1353
 1497SOL     OW15949   2.695   2.424   6.055  0.1488 -0.0621  0.1066
 1497SOL    HW115950   2.669   2.500   6.107  2.6011  0.6154  0.3454
 1497SOL    HW215951   2.658   2.450   5.970 -0.4579  2.0005  1.0020
 1498SOL     OW15952   2.128   2.229   2.526  0.2102 -0.4971 -0.6461
 1498SOL    HW115953   2.084   2.302   2.482  0.4636 -0.1395 -0.3100
 1498SOL    HW215954   2.074   2.156   2.496 -1.6250  0.3118  0.6880
 1499SOL     OW15955   2.934   3.110   3.788  0.2287  0.4137 -0.0054
 1499SOL    HW115956   2.910   3.158   3.867  0.1254 -1.6087  1.1689
 1499SOL    HW215957   2.991   3.177   3.750  0.8584 -0.4856 -0.6353
 1500SOL     OW15958   0.906   1.452   7.371  0.1774 -0.2953  0.2449
 1500SOL    HW115959   0.939   1.529   7.417  1.0639 -0.7250  0.3476
 1500SOL    HW215960   0.968   1.392   7.414 -0.8528 -2.1417 -0.8611
 1501SOL     OW15961   3.112   2.911   4.873 -0.4055  0.0422  0.5196
 1501SOL    HW115962   3.050   2.969   4.828  0.2445  0.6373  0.3968
 1501SOL    HW215963   3.093   2.932   4.965  0.3818 -0.8543  0.8908
 1502SOL     OW15964   2.767   4.264   4.059 -0.1637  0.3081 -0.4145
 1502SOL    HW115965   2.806   4.178   4.069 -1.9703 -0.3063  1.3881
 1502SOL    HW215966   2.783   4.309   4.143  0.7416  1.2993 -1.1126
 1503SOL     OW15967   4.047   2.028   6.496  0.1311  0.0072  0.2577
 1503SOL    HW115968   4.045   1.964   6.424 -1.4264 -2.2848  2.3585
 1503SOL    HW215969   4.067   2.112   6.454  2.4542 -1.5083 -1.6810
 1504SOL     OW15970   3.761   3.651   4.239  0.2203 -0.2189  0.2066
 1504SOL    HW115971   3.795   3.564   4.217 -0.8535 -0.8508  1.0802
 1504SOL    HW215972   3.843   3.696   4.261 -0.0266  0.9752 -1.3336
 1505SOL     OW15973   3.253   1.778   4.343  0.0107 -0.1599  0.3144
 1505SOL    HW115974   3.265   1.850   4.405 -0.2576 -0.5493  0.8225
 1505SOL    HW215975   3.158   1.783   4.327  0.2732  1.6124 -0.6843
 1506SOL     OW15976   1.138   2.280   2.280  0.5114 -0.3645 -0.1331
 1506SOL    HW115977   1.096   2.205   2.239 -0.4731  1.0637 -1.6783
 1506SOL    HW215978   1.193   2.239   2.348 -1.7829 -3.6752 -0.2688
 1507SOL     OW15979   3.044   1.369   8.870  0.6832 -0.3743 -0.2276
 1507SOL    HW115980   2.951   1.370   8.893  0.5207  2.4318 -1.0587
 1507SOL    HW215981   3.043   1.301   8.802 -3.8526 -0.4140 -0.1087
 1508SOL     OW15982   2.862   1.447   3.326 -0.7176  0.1991  0.2208
 1508SOL    HW115983   2.771   1.425   3.306 -0.9637  1.6680 -0.2853
 1508SOL    HW215984   2.908   1.363   3.325 -0.3745  0.3807  0.7529
 1509SOL     OW15985   1.030   2.701   8.452 -0.3249 -0.3625  0.3624
 1509SOL    HW115986   1.076   2.699   8.537 -2.2969 -1.5485  1.3975
 1509SOL    HW215987   0.987   2.617   8.440  1.5617 -1.3742  0.6602
 1510SOL     OW15988   2.357   4.576   1.731 -0.1368  0.1839 -0.2110
 1510SOL    HW115989   2.385   4.634   1.802 -0.8453 -0.3606  0.5221
 1510SOL    HW215990   2.393   4.492   1.760  1.9944  0.5554 -1.7649
 1511SOL     OW15991   4.453   1.833   0.777  0.1149  0.3473 -0.0080
 1511SOL    HW115992   4.365   1.802   0.756 -0.5904  1.6327  1.0986
 1511SOL    HW215993   4.505   1.762   0.815 -0.4039 -0.2064 -0.3324
 1512SOL     OW15994   0.546   2.652   9.334 -0.1998  0.3769  0.5466
 1512SOL    HW115995   0.532   2.569   9.287  2.2382  1.0854 -1.4309
 1512SOL    HW215996   0.540   2.718   9.265  0.1691  1.7782  1.8675
 1513SOL     OW15997   2.004   3.946   8.145  0.1459  0.6910  0.1121
 1513SOL    HW115998   1.958   3.910   8.221  0.9739  2.0415  1.2494
 1513SOL    HW215999   2.084   3.896   8.161  0.8518  1.8533  0.2086
 1514SOL     OW16000   1.812   2.638   3.109 -0.3659 -0.0869  0.3304
 1514SOL    HW116001   1.899   2.652   3.073  0.8973 -3.1206  2.1127
 1514SOL    HW216002   1.824   2.566   3.172 -0.0138 -1.1915 -1.0143
 1515SOL     OW16003   4.076   3.699   7.140  0.3184  0.0642  0.0683
 1515SOL    HW116004   4.055   3.689   7.233  1.9986  2.2301  0.6796
 1515SOL    HW216005   4.033   3.781   7.116 -0.6048 -0.6067 -0.5544
 1516SOL     OW16006   0.243   4.256  10.548 -0.1908  0.3153 -0.1775
 1516SOL    HW116007   0.309   4.275  10.614 -0.6577  0.2778  0.3056
 1516SOL    HW216008   0.295   4.226  10.473 -0.1984  2.4991 -1.0482
 1517SOL     OW16009   0.032   1.943  17.627 -0.0274  0.0283 -0.0170
 1517SOL    HW116010   0.030   1.887  17.550 -2.4863  1.6288 -1.1382
 1517SOL    HW216011   4.663   1.969  17.621 -0.3980 -1.1554  0.6102
 1518SOL     OW16012   2.547   4.631   1.390  0.0109 -0.2385  0.3369
 1518SOL    HW116013   2.550   4.535   1.393 -2.6434 -0.3468 -0.9358
 1518SOL    HW216014   2.453   4.644   1.379  0.4464  1.2702 -1.5607
 1519SOL     OW16015   2.300   2.537   8.020 -0.5985  0.3622 -0.2268
 1519SOL    HW116016   2.288   2.524   7.926 -3.7399 -0.3576  0.2513
 1519SOL    HW216017   2.230   2.602   8.031 -1.9013 -1.2632  1.2176
 1520SOL     OW16018   0.078   0.988  13.424 -0.3949 -0.1481  0.4593
 1520SOL    HW116019   0.088   1.072  13.469 -1.7277  1.2197 -1.8276
 1520SOL    HW216020   0.163   0.943  13.426 -0.5814 -0.5249 -0.2388
 1521SOL     OW16021   3.630   1.691  10.016 -0.5377  0.3052 -0.5351
 1521SOL    HW116022   3.695   1.756  10.041  1.4045 -1.6780 -0.4633
 1521SOL    HW216023   3.556   1.724  10.066 -0.5905  0.5268 -0.7545
 1522SOL     OW16024   4.351   1.674   2.532 -0.2948 -0.1009 -0.7397
 1522SOL    HW116025   4.265   1.716   2.531 -0.3368 -0.1777 -0.4172
 1522SOL    HW216026   4.365   1.697   2.624  0.6855  3.8095 -1.8724
 1523SOL     OW16027   0.919   2.578   3.575  0.4066  0.1335  0.5513
 1523SOL    HW116028   0.954   2.541   3.656  0.1334 -2.4518 -0.5304
 1523SOL    HW216029   0.870   2.647   3.620  0.9599  1.0815 -0.2973
 1524SOL     OW16030   0.012   2.941  14.074  0.3211 -0.6826 -0.7447
 1524SOL    HW116031   0.095   2.935  14.026 -0.2321 -2.2088 -1.5188
 1524SOL    HW216032   0.048   2.965  14.160 -0.3143  0.9141 -0.9324
 1525SOL     OW16033   2.399   1.836  10.051  0.1191 -0.1273  0.1788
 1525SOL    HW116034   2.430   1.755  10.093 -0.1612  1.0937  2.7585
 1525SOL    HW216035   2.459   1.888  10.104  1.2786 -1.0264 -0.2599
 1526SOL     OW16036   2.241   3.712   5.615  0.0598  0.2907  0.3573
 1526SOL    HW116037   2.196   3.722   5.700 -1.2719  2.6193 -0.6373
 1526SOL    HW216038   2.328   3.697   5.651  0.8578  3.9506 -0.0845
 1527SOL     OW16039   0.996   3.683  13.167  0.3302  0.0516  0.2310
 1527SOL    HW116040   0.959   3.729  13.092  0.4460  0.6960  0.5717
 1527SOL    HW216041   0.954   3.733  13.237 -1.3298  0.6591 -1.2133
 1528SOL     OW16042   1.967   0.850   9.262  0.1983  0.1074 -0.1391
 1528SOL    HW116043   2.057   0.877   9.281  0.6259 -1.4391 -0.0277
 1528SOL    HW216044   1.984   0.791   9.189  0.2387  0.0376 -0.0728
 1529SOL     OW16045   4.471   0.655  12.954  0.3110 -0.3698  0.7533
 1529SOL    HW116046   4.532   0.680  12.884  0.4203  2.2610  1.8046
 1529SOL    HW216047   4.409   0.605  12.901  1.6827  0.8653 -2.0133
 1530SOL     OW16048   3.786   3.360  17.197 -0.3329  0.3684 -0.4915
 1530SOL    HW116049   3.752   3.368  17.108  0.4450 -0.3067 -0.8500
 1530SOL    HW216050   3.855   3.295  17.183 -1.2987 -0.1076 -2.9328
 1531SOL     OW16051   0.914   1.425   2.910  0.6416  0.3360 -0.4048
 1531SOL    HW116052   0.856   1.488   2.867  2.8256  2.4955 -0.1384
 1531SOL    HW216053   0.869   1.345   2.882  0.1387  0.7666 -0.8209
 1532SOL     OW16054   1.377   0.881  11.683  0.2916  0.1000  0.1240
 1532SOL    HW116055   1.317   0.953  11.703 -1.3590 -0.9670 -0.9383
 1532SOL    HW216056   1.425   0.873  11.765  0.0090 -0.2673  0.2540
 1533SOL     OW16057   1.553   0.356  15.581  0.1367 -0.1272  0.1385
 1533SOL    HW116058   1.511   0.410  15.513  0.0948 -0.4264 -0.0746
 1533SOL    HW216059   1.488   0.376  15.649  0.8614  0.2321  0.7249
 1534SOL     OW16060   1.729   3.798   5.114 -0.3515  0.1243 -0.4849
 1534SOL    HW116061   1.785   3.817   5.189  1.3428  3.9854 -2.7590
 1534SOL    HW216062   1.685   3.882   5.104 -1.4741 -0.2143  1.5224
 1535SOL     OW16063   2.398   4.128   8.543 -0.3953 -0.1241 -0.6206
 1535SOL    HW116064   2.370   4.206   8.591  2.0668  2.2053 -2.9659
 1535SOL    HW216065   2.341   4.066   8.588  0.0968 -0.8813 -1.0241
 1536SOL     OW16066   4.376   4.202   7.366  0.0035  0.0928  0.0800
 1536SOL    HW116067   4.338   4.128   7.414  1.2660  0.6507  1.9211
 1536SOL    HW216068   4.293   4.247   7.349  0.1340  0.3133  0.0335
 1537SOL     OW16069   2.320   2.795   5.695  0.0026 -0.3778 -0.8544
 1537SOL    HW116070   2.325   2.796   5.599  0.8648 -3.2515 -0.8375
 1537SOL    HW216071   2.276   2.879   5.702 -0.8293 -0.9773  1.2755
 1538SOL     OW16072   2.345   3.528   5.975 -0.5184 -0.0816  0.1912
 1538SOL    HW116073   2.267   3.492   5.934  0.8905 -0.2109 -2.3688
 1538SOL    HW216074   2.343   3.490   6.063  1.3679  1.1884  0.7934
 1539SOL     OW16075   0.119   0.220   3.346  0.0093 -0.3207 -0.2163
 1539SOL    HW116076   0.085   0.288   3.287  0.8602  0.9032  0.6946
 1539SOL    HW216077   0.043   0.162   3.347 -1.4400  1.5842  0.9461
 1540SOL     OW16078   1.909   4.370   7.766 -0.2352  0.5222 -0.8771
 1540SOL    HW116079   1.848   4.316   7.817  0.6086  1.2636  0.9053
 1540SOL    HW216080   1.860   4.452   7.753 -0.1115  0.4918 -1.5254
 1541SOL     OW16081   4.613   0.564   7.315  0.1592  0.0134  0.4448
 1541SOL    HW116082   4.659   0.576   7.397  1.5389  1.3885 -0.5321
 1541SOL    HW216083   4.608   0.658   7.298  1.5356  0.4117  2.3164
 1542SOL     OW16084   0.676   4.602  13.211  0.4352  0.1805  0.6999
 1542SOL    HW116085   0.612   4.657  13.255  1.1235  0.8288  0.8929
 1542SOL    HW216086   0.748   4.604  13.274  1.4310  0.0143 -0.4337
 1543SOL     OW16087   4.208   0.343   4.508 -0.3357 -0.5194  0.4764
 1543SOL    HW116088   4.252   0.337   4.423  2.2793 -0.5511  1.8542
 1543SOL    HW216089   4.259   0.283   4.562 -1.6058 -2.3486 -0.3568
 1544SOL     OW16090   3.863   1.564   3.893 -0.2470 -0.5003 -0.5544
 1544SOL    HW116091   3.833   1.651   3.917 -1.7150 -0.6019 -2.0251
 1544SOL    HW216092   3.782   1.537   3.851 -2.6256  1.3664  2.8749
 1545SOL     OW16093   3.971   0.890   6.845  0.1500  0.5707 -0.2050
 1545SOL    HW116094   4.037   0.954   6.871  0.7752 -0.5296  0.9469
 1545SOL    HW216095   3.906   0.946   6.804  1.3605  2.3175  0.2840
 1546SOL     OW16096   2.047   1.435  17.348 -0.1162  0.0116 -0.1739
 1546SOL    HW116097   2.132   1.398  17.371 -1.7703 -1.6003  3.3631
 1546SOL    HW216098   1.988   1.372  17.389 -0.9412  0.8376 -0.1051
 1547SOL     OW16099   3.468   0.888   8.421  0.6024  0.0489 -0.3362
 1547SOL    HW116100   3.553   0.900   8.463  0.7301 -0.8320 -0.3396
 1547SOL    HW216101   3.456   0.796   8.444  0.9904  0.8383  2.9220
 1548SOL     OW16102   1.095   1.793   0.199 -0.4436  0.2681  0.2670
 1548SOL    HW116103   1.041   1.785   0.121  2.5904 -1.8722 -1.6169
 1548SOL    HW216104   1.029   1.770   0.265 -0.0435 -0.8160  0.2884
 1549SOL     OW16105   2.038   2.889   8.200 -0.4086 -0.0156 -0.1380
 1549SOL    HW116106   1.969   2.920   8.142 -1.2047  1.1442  1.4304
 1549SOL    HW216107   1.980   2.847   8.263  1.7579 -1.1535  1.1124
 1550SOL     OW16108   4.076   0.783   4.409  0.5216  0.2066  0.4580
 1550SOL    HW116109   4.018   0.807   4.481 -1.3389 -1.6860 -0.3901
 1550SOL    HW216110   3.997   0.767   4.358  0.9070  0.4906 -0.2222
 1551SOL     OW16111   4.219   3.249  16.787  0.3842  0.2790 -0.6129
 1551SOL    HW116112   4.176   3.331  16.811 -0.3979 -0.6058  0.9751
 1551SOL    HW216113   4.304   3.276  16.820 -0.6154  2.0706  0.4998
 1552SOL     OW16114   4.059   3.765   7.859 -0.1059 -0.4325  0.1279
 1552SOL    HW116115   4.048   3.763   7.954  1.6574 -0.5386  0.3464
 1552SOL    HW216116   4.044   3.857   7.838 -1.8523 -0.2301  2.2280
 1553SOL     OW16117   1.107   4.241   9.541 -0.3467  0.3333 -0.1140
 1553SOL    HW116118   1.175   4.306   9.559 -1.3104  0.9134  1.3664
 1553SOL    HW216119   1.042   4.266   9.606 -0.7369  0.0837 -0.4123
 1554SOL     OW16120   4.260   2.763   7.252 -0.3518 -0.4609  0.7248
 1554SOL    HW116121   4.336   2.706   7.263  0.8416  0.8070 -0.9876
 1554SOL    HW216122   4.191   2.713   7.207 -0.4630  0.0598  0.3194
 1555SOL     OW16123   1.335   0.942   7.952  0.3513 -0.4526  0.2128
 1555SOL    HW116124   1.414   0.908   7.911 -1.2831 -3.5081 -0.4475
 1555SOL    HW216125   1.313   0.865   8.005  1.8389  1.5288  3.6706
 1556SOL     OW16126   2.098   2.673   6.676 -0.3407  0.7112  0.4198
 1556SOL    HW116127   2.007   2.677   6.705  0.0362 -1.1572  1.8466
 1556SOL    HW216128   2.105   2.607   6.608  0.9635  0.6640  0.5884
 1557SOL     OW16129   1.924   2.290   1.912 -0.2259 -0.1882  0.0884
 1557SOL    HW116130   1.849   2.349   1.908  0.2492  0.2733 -2.2072
 1557SOL    HW216131   1.990   2.321   1.851  1.1021  0.8229  2.0461
 1558SOL     OW16132   2.727   3.960  10.282 -0.2990  0.3839 -0.3048
 1558SOL    HW116133   2.659   3.924  10.339  1.1363 -1.3008  0.3224
 1558SOL    HW216134   2.696   4.050  10.269 -2.1504 -0.3808 -1.2648
 1559SOL     OW16135   4.307   1.335   6.589 -0.3141  0.3685 -0.2513
 1559SOL    HW116136   4.267   1.251   6.564 -0.2250  0.0369  0.7327
 1559SOL    HW216137   4.367   1.350   6.516  0.0929 -2.0716 -0.4413
 1560SOL     OW16138   1.512   4.060   0.095 -0.2524  0.1517 -0.0951
 1560SOL    HW116139   1.427   4.094   0.123  0.3287  1.8617 -0.3919
 1560SOL    HW216140   1.550   4.147   0.081 -2.4425  1.0295 -0.6682
 1561SOL     OW16141   0.104   4.300   5.667  0.2741 -0.1628  0.0382
 1561SOL    HW116142   0.014   4.308   5.698  0.8971 -1.2085  2.0841
 1561SOL    HW216143   0.088   4.228   5.607  0.7275  1.1856 -1.7292
 1562SOL     OW16144   0.576   0.214   5.788 -0.3258 -0.0352 -0.4295
 1562SOL    HW116145   0.589   0.232   5.881  2.2066 -2.4892 -0.2840
 1562SOL    HW216146   0.611   0.295   5.752  0.8170 -0.6823 -0.7775
 1563SOL     OW16147   0.764   1.134   4.806  0.3901 -0.5735  0.5661
 1563SOL    HW116148   0.770   1.095   4.893 -2.3096  1.8126  1.8338
 1563SOL    HW216149   0.669   1.149   4.806  0.2790 -1.3141 -1.3133
 1564SOL     OW16150   3.231   0.726   7.008 -0.3201  0.5930 -0.1973
 1564SOL    HW116151   3.227   0.817   7.038 -3.4159  0.7668 -1.0875
 1564SOL    HW216152   3.266   0.679   7.083 -1.4570  0.4764  0.2524
 1565SOL     OW16153   2.111   4.583  15.447 -0.0237 -0.1817  0.4032
 1565SOL    HW116154   2.042   4.527  15.481 -1.5273  0.6315 -1.2686
 1565SOL    HW216155   2.070   4.669  15.439  0.5931  0.0187 -0.7350
 1566SOL     OW16156   2.644   2.644   1.959  0.4954 -0.1277  0.0687
 1566SOL    HW116157   2.677   2.722   1.915  2.3747 -0.4550  0.9074
 1566SOL    HW216158   2.638   2.581   1.887  1.1611 -0.0389 -0.0601
 1567SOL     OW16159   0.865   0.751   5.979 -0.0283 -0.1589  0.5123
 1567SOL    HW116160   0.960   0.757   5.981  0.1778 -2.2425 -2.3793
 1567SOL    HW216161   0.838   0.758   5.887  1.6675  5.0879  0.4325
 1568SOL     OW16162   4.194   3.639  12.629 -0.4316  0.6250  0.5294
 1568SOL    HW116163   4.101   3.633  12.609 -0.3016 -1.1365  0.4964
 1568SOL    HW216164   4.199   3.689  12.711  1.1778 -0.6602  1.2226
 1569SOL     OW16165   4.081   2.048   8.935 -0.5676  0.2408  0.2034
 1569SOL    HW116166   4.165   2.095   8.932 -0.1852 -0.5001 -0.8665
 1569SOL    HW216167   4.065   2.032   8.842  0.8928  0.3559 -0.0812
 1570SOL     OW16168   1.188   3.388   5.677  0.0488 -0.0379  0.0500
 1570SOL    HW116169   1.150   3.363   5.592 -0.9584 -0.3825  0.5962
 1570SOL    HW216170   1.282   3.374   5.665 -0.0302  0.5715 -1.3704
 1571SOL     OW16171   4.120   1.379   8.995  0.9235 -0.2192  0.2607
 1571SOL    HW116172   4.108   1.361   9.089 -1.7340 -2.5536 -0.5123
 1571SOL    HW216173   4.084   1.467   8.991  0.1237 -0.4263  2.8133
 1572SOL     OW16174   1.135   1.318   6.094  0.8115  0.1341  0.6214
 1572SOL    HW116175   1.209   1.376   6.075 -2.7980  2.9536 -4.5073
 1572SOL    HW216176   1.115   1.282   6.008  1.4532  0.4611  0.3340
 1573SOL     OW16177   2.553   0.290  10.107  0.8004  0.1818 -0.4149
 1573SOL    HW116178   2.533   0.278  10.199  0.2850 -1.2661 -0.7156
 1573SOL    HW216179   2.486   0.247  10.053  0.7778 -1.7833  1.1970
 1574SOL     OW16180   2.527   0.383  16.497 -0.0710 -0.0977 -0.0076
 1574SOL    HW116181   2.532   0.439  16.574  0.1138  2.2639 -1.7502
 1574SOL    HW216182   2.545   0.444  16.425 -0.3442 -1.1621 -0.9781
 1575SOL     OW16183   4.153   3.881  13.482 -0.1796 -0.3189  0.3101
 1575SOL    HW116184   4.140   3.955  13.542 -2.8550 -0.0252 -0.6379
 1575SOL    HW216185   4.218   3.920  13.424 -0.7961 -2.0126 -1.5106
 1576SOL     OW16186   4.244   0.533   8.294 -0.7494 -0.1615  0.1317
 1576SOL    HW116187   4.155   0.507   8.268 -0.6595 -1.1502  0.7783
 1576SOL    HW216188   4.241   0.500   8.384  0.1970  1.6615  0.8148
 1577SOL     OW16189   1.555   0.677   6.622  0.2048 -0.1443 -0.3276
 1577SOL    HW116190   1.578   0.590   6.588 -2.2694 -0.7617 -0.3912
 1577SOL    HW216191   1.606   0.731   6.561  1.1605  1.2029  1.6926
 1578SOL     OW16192   2.482   4.316   6.386  0.6921  0.8861  0.2809
 1578SOL    HW116193   2.471   4.377   6.459  0.2315  0.8972  0.2001
 1578SOL    HW216194   2.430   4.241   6.415  0.9943 -0.1040 -1.7212
 1579SOL     OW16195   0.823   1.012  10.973 -0.4691  0.0183  0.2914
 1579SOL    HW116196   0.900   1.031  10.920 -1.5117  0.1461 -1.1672
 1579SOL    HW216197   0.775   0.947  10.922  0.1107 -0.1289 -0.0615
 1580SOL     OW16198   0.320   1.637   4.435  0.4710 -0.1462 -0.3877
 1580SOL    HW116199   0.397   1.687   4.408 -0.1692  1.0906  0.0506
 1580SOL    HW216200   0.343   1.551   4.400  0.7348  0.1486 -0.9399
 1581SOL     OW16201   0.097   1.664   6.293 -0.2834 -0.1520 -0.1824
 1581SOL    HW116202   0.159   1.656   6.221  1.0535 -2.2767  1.2137
 1581SOL    HW216203   0.024   1.701   6.244 -0.8970 -4.4202 -2.3939
 1582SOL     OW16204   0.099   1.058  14.141 -0.0136 -0.8734  0.5011
 1582SOL    HW116205   0.024   1.117  14.141  0.1348 -0.6774 -0.0859
 1582SOL    HW216206   0.067   0.989  14.083  0.4478 -1.0047  0.3958
 1583SOL     OW16207   2.541   0.911   3.788  0.2817 -0.1826 -0.0624
 1583SOL    HW116208   2.582   0.997   3.779  1.3756 -0.4432  2.3956
 1583SOL    HW216209   2.462   0.935   3.836  0.7732 -2.4542  1.9095
 1584SOL     OW16210   3.596   0.714   9.191  0.5837  0.7139  0.2125
 1584SOL    HW116211   3.672   0.713   9.248 -0.4781 -0.4274  1.6295
 1584SOL    HW216212   3.580   0.807   9.180 -1.0490  0.4756  0.5626
 1585SOL     OW16213   3.211   1.188   1.908  0.1418  0.3546  0.2467
 1585SOL    HW116214   3.223   1.266   1.853  0.0711 -0.0329 -0.3188
 1585SOL    HW216215   3.124   1.218   1.935 -0.2787  1.8909 -2.7804
 1586SOL     OW16216   0.161   0.471  10.419 -0.0005 -0.2715 -0.3123
 1586SOL    HW116217   0.159   0.385  10.377  3.1291 -0.4662 -0.0720
 1586SOL    HW216218   0.087   0.472  10.479  0.0269 -0.0385 -0.2837
 1587SOL     OW16219   4.199   1.769  16.633  0.0247 -0.0625 -0.4083
 1587SOL    HW116220   4.119   1.779  16.582 -0.5234  0.5647  0.5956
 1587SOL    HW216221   4.193   1.678  16.662  2.3813 -0.6310 -1.6362
 1588SOL     OW16222   2.084   3.069  15.989  0.2604 -0.6218 -0.0267
 1588SOL    HW116223   2.075   3.071  16.084  1.1783 -3.0123  0.1161
 1588SOL    HW216224   2.071   2.977  15.964 -1.1389 -0.4661  0.1677
 1589SOL     OW16225   3.091   4.194   2.229  0.0465 -0.2537  0.1974
 1589SOL    HW116226   3.102   4.259   2.160 -1.9347  0.8505  0.9526
 1589SOL    HW216227   3.075   4.116   2.175  3.8541 -0.4486 -0.6735
 1590SOL     OW16228   0.390   0.362   6.267  0.2102 -0.2018  0.2496
 1590SOL    HW116229   0.385   0.402   6.180 -1.3611  0.7553  0.7959
 1590SOL    HW216230   0.405   0.444   6.314 -2.4105 -0.1521  0.9961
 1591SOL     OW16231   4.439   0.354   4.948  1.0080  0.0917  0.4849
 1591SOL    HW116232   4.380   0.279   4.937  1.2286 -0.0393  0.1928
 1591SOL    HW216233   4.473   0.362   4.859  0.1323  0.4940  0.1837
 1592SOL     OW16234   4.167   3.840  11.601 -0.4396 -0.7797  0.6902
 1592SOL    HW116235   4.246   3.835  11.548 -0.3470 -0.9681  0.8491
 1592SOL    HW216236   4.159   3.748  11.626 -0.0457 -0.8840  0.4279
 1593SOL     OW16237   3.626   1.763   3.188 -0.2611 -0.2749 -0.0507
 1593SOL    HW116238   3.532   1.780   3.188 -0.0816  0.7445 -1.4485
 1593SOL    HW216239   3.626   1.713   3.270  0.1699 -1.7384 -0.9350
 1594SOL     OW16240   4.045   2.586   7.215  0.1250 -0.7935 -0.4829
 1594SOL    HW116241   4.038   2.574   7.121  1.1994 -0.5989 -0.5942
 1594SOL    HW216242   3.973   2.534   7.250  0.0237 -0.0164  0.4788
 1595SOL     OW16243   3.855   2.047   2.863  0.7954 -0.1302  0.6405
 1595SOL    HW116244   3.903   2.109   2.918  2.0807 -1.9494  1.5776
 1595SOL    HW216245   3.828   1.985   2.931  1.6076 -2.3907 -1.0794
 1596SOL     OW16246   1.664   4.240   6.060  0.4115 -0.0324 -0.0680
 1596SOL    HW116247   1.616   4.245   5.977 -0.3427 -1.8141  0.2518
 1596SOL    HW216248   1.589   4.242   6.119  0.7409  1.8000  0.2994
 1597SOL     OW16249   1.460   1.395  16.507  0.3631  0.3967  0.2797
 1597SOL    HW116250   1.544   1.350  16.513  1.2422  1.9030 -0.6497
 1597SOL    HW216251   1.483   1.485  16.482 -1.8670  0.9228  0.0210
 1598SOL     OW16252   1.630   1.316   2.065  0.4070 -1.1044  0.2206
 1598SOL    HW116253   1.626   1.396   2.012 -3.6797 -1.5334 -0.0909
 1598SOL    HW216254   1.709   1.275   2.030  1.4802  0.5325  0.7128
 1599SOL     OW16255   3.322   1.258   6.136  0.1567 -0.0408  0.1501
 1599SOL    HW116256   3.284   1.203   6.205 -0.4589 -0.1154 -0.2475
 1599SOL    HW216257   3.297   1.347   6.158 -1.0290  0.1653 -2.0964
 1600SOL     OW16258   4.376   0.068   3.014 -0.4897  0.7077  0.5919
 1600SOL    HW116259   4.388   4.706   2.971 -3.5389  0.7356 -0.3106
 1600SOL    HW216260   4.290   0.095   2.980 -1.0838  0.8677  2.2383
 1601SOL     OW16261   3.165   2.491   7.095 -0.5446 -0.5636  0.4110
 1601SOL    HW116262   3.250   2.500   7.138 -0.0208 -0.1027 -0.7208
 1601SOL    HW216263   3.152   2.580   7.062  1.3221  0.0951  1.4672
 1602SOL     OW16264   2.563   2.170  14.854 -0.4172 -0.3189  0.7292
 1602SOL    HW116265   2.552   2.146  14.946 -0.9252  0.8343  0.9726
 1602SOL    HW216266   2.620   2.247  14.862  0.1905 -0.7288  0.2849
 1603SOL     OW16267   4.012   4.479   2.726  0.1136 -0.0793 -0.2085
 1603SOL    HW116268   4.068   4.405   2.746 -2.2680 -0.9415  3.2061
 1603SOL    HW216269   3.933   4.450   2.771  0.9209 -0.3809  1.0071
 1604SOL     OW16270   2.338   1.734   7.175  0.0965 -0.3244 -0.4754
 1604SOL    HW116271   2.249   1.708   7.153 -0.3152  1.8802 -1.3862
 1604SOL    HW216272   2.370   1.648   7.204  2.1577  1.2081  1.8050
 1605SOL     OW16273   2.905   4.549   9.804  0.3836  0.0325  0.1224
 1605SOL    HW116274   2.952   4.554   9.888  2.1266 -0.3656 -0.8208
 1605SOL    HW216275   2.929   4.457   9.792 -1.6735 -0.4755 -0.0061
 1606SOL     OW16276   3.577   3.000   3.337 -0.0979 -0.2875 -0.0567
 1606SOL    HW116277   3.523   2.991   3.258 -0.6641  1.8893  0.0810
 1606SOL    HW216278   3.509   3.003   3.405 -0.7023 -2.4770 -0.5460
 1607SOL     OW16279   4.536   3.666  11.556  0.0264  0.1155  0.1691
 1607SOL    HW116280   4.529   3.639  11.648 -1.6125 -1.1697 -0.3450
 1607SOL    HW216281   4.454   3.711  11.537  0.5370  0.7585 -0.5043
 1608SOL     OW16282   1.027   2.189   6.499 -0.4158  0.2645 -0.0577
 1608SOL    HW116283   1.102   2.238   6.466  1.1036 -1.4998  0.8082
 1608SOL    HW216284   1.067   2.107   6.527  0.9920  1.1181  0.4327
 1609SOL     OW16285   2.749   1.687  13.419 -0.1986 -1.1413  0.3307
 1609SOL    HW116286   2.672   1.632  13.407 -0.9163  0.3872 -2.0477
 1609SOL    HW216287   2.819   1.627  13.390  0.0139 -1.5048  1.6081
 1610SOL     OW16288   1.227   1.313  15.028 -0.3041 -0.1470  0.7418
 1610SOL    HW116289   1.182   1.354  14.955 -1.1266 -0.3924  1.1096
 1610SOL    HW216290   1.300   1.375  15.027 -0.6910  0.2856 -0.8257
 1611SOL     OW16291   3.963   3.119  13.734 -0.0850 -0.2661 -0.1640
 1611SOL    HW116292   4.052   3.153  13.742 -1.3944  3.0671  0.2379
 1611SOL    HW216293   3.923   3.200  13.702 -0.1163  0.7678  2.4947
 1612SOL     OW16294   2.325   3.455   7.392 -0.0869 -0.0218 -0.0377
 1612SOL    HW116295   2.280   3.510   7.327  1.2282 -0.2902 -1.1828
 1612SOL    HW216296   2.393   3.514   7.423 -0.8988  0.5260  0.7035
 1613SOL     OW16297   1.340   0.094  16.981 -0.3777  0.4011  0.0816
 1613SOL    HW116298   1.296   0.131  17.058  0.1048 -1.0460  1.0355
 1613SOL    HW216299   1.339   4.722  16.988  2.8507  0.3468 -0.3146
 1614SOL     OW16300   4.643   3.720   8.187 -0.0232 -0.3742  0.1360
 1614SOL    HW116301   4.721   3.756   8.145 -1.9792  0.7096 -2.5502
 1614SOL    HW216302   4.583   3.746   8.117 -0.9790 -0.0336  1.0844
 1615SOL     OW16303   3.797   3.941  12.139  0.4533 -0.2065  0.1524
 1615SOL    HW116304   3.867   3.876  12.127 -0.0397 -0.5379 -0.9131
 1615SOL    HW216305   3.826   4.009  12.078 -0.1450 -1.6131 -1.7281
 1616SOL     OW16306   3.996   2.437  13.420  0.0733 -0.2806  0.2766
 1616SOL    HW116307   4.000   2.490  13.500 -0.7649  1.2531 -0.7110
 1616SOL    HW216308   3.924   2.472  13.369  0.0344 -1.2215 -0.3090
 1617SOL     OW16309   3.153   3.222   1.024  0.1807 -0.6228  0.1775
 1617SOL    HW116310   3.206   3.302   1.021 -2.3342  1.0260 -0.3078
 1617SOL    HW216311   3.214   3.164   1.070  0.0034 -0.1307  1.0384
 1618SOL     OW16312   2.770   4.031   5.501  0.3591  0.8276  0.3786
 1618SOL    HW116313   2.836   3.980   5.548 -0.9115  1.2788  2.6404
 1618SOL    HW216314   2.731   4.079   5.574  0.4931  2.1083 -0.3898
 1619SOL     OW16315   1.440   2.015  14.307 -0.5638  0.2456  0.6367
 1619SOL    HW116316   1.357   2.006  14.261  0.9284 -2.4697 -1.5090
 1619SOL    HW216317   1.423   2.035  14.399  0.9855  2.4769  0.4395
 1620SOL     OW16318   1.561   0.153   8.705  0.0424 -0.4004  0.0710
 1620SOL    HW116319   1.587   0.064   8.680 -0.3721 -0.6286  0.4380
 1620SOL    HW216320   1.532   0.196   8.625  0.7630  0.3833  0.2331
 1621SOL     OW16321   0.028   1.516  17.183  0.0790  0.3120  0.1321
 1621SOL    HW116322   4.659   1.540  17.173 -0.1588 -0.9250 -0.7337
 1621SOL    HW216323   0.032   1.447  17.117  0.9516  0.5384 -0.0500
 1622SOL     OW16324   2.731   2.871   7.243  0.1343  0.1331 -0.3340
 1622SOL    HW116325   2.665   2.940   7.236 -0.1343  0.0211  1.0300
 1622SOL    HW216326   2.809   2.918   7.273  0.0535  0.5115 -0.7264
 1623SOL     OW16327   0.206   0.006   9.952  0.2866 -0.5293  0.7874
 1623SOL    HW116328   0.281   4.669   9.956  0.2990 -0.5546  0.1868
 1623SOL    HW216329   0.234   0.073  10.015  1.5984 -0.1390 -0.2011
 1624SOL     OW16330   3.507   1.976  14.712 -0.0280 -0.5936 -0.1265
 1624SOL    HW116331   3.568   1.927  14.658 -0.8509 -0.7282 -0.9251
 1624SOL    HW216332   3.439   1.909  14.722 -0.9468  0.3714  0.1210
 1625SOL     OW16333   3.568   3.909   8.114  0.2162  0.0254 -0.0495
 1625SOL    HW116334   3.645   3.853   8.128  0.1681 -0.3344 -1.1882
 1625SOL    HW216335   3.553   3.899   8.020 -0.3460 -0.2673  0.0741
 1626SOL     OW16336   3.029   3.608   8.175  0.1582  0.1622  0.5611
 1626SOL    HW116337   2.986   3.661   8.244  1.5477  0.4164  1.2243
 1626SOL    HW216338   3.052   3.538   8.236  1.2552  0.7909  0.8759
 1627SOL     OW16339   4.544   1.665   6.195 -0.4939 -0.3709  0.1678
 1627SOL    HW116340   4.541   1.576   6.161  0.4907 -0.3657  0.0781
 1627SOL    HW216341   4.457   1.702   6.179  0.9342  1.6632 -2.7836
 1628SOL     OW16342   1.148   0.891   2.788 -0.0146  0.2028  0.5816
 1628SOL    HW116343   1.184   0.974   2.758  0.4648 -0.2847 -0.1848
 1628SOL    HW216344   1.172   0.835   2.714  1.8605 -0.1230  1.4387
 1629SOL     OW16345   1.254   0.501   0.954  0.2457 -0.0623  0.1097
 1629SOL    HW116346   1.277   0.408   0.946 -0.1395 -0.3295  2.0394
 1629SOL    HW216347   1.343   0.536   0.951 -0.2761  1.0403 -2.1931
 1630SOL     OW16348   4.044   2.229   3.946 -0.7825  0.2332 -0.0264
 1630SOL    HW116349   3.996   2.293   4.000 -0.3740 -0.2569  0.9207
 1630SOL    HW216350   3.997   2.146   3.943  0.4612 -0.4988  1.2751
 1631SOL     OW16351   2.264   4.530   3.279  0.0590 -0.2479 -0.5623
 1631SOL    HW116352   2.285   4.608   3.228  2.1178 -0.7645 -0.4904
 1631SOL    HW216353   2.285   4.455   3.223  2.7590  0.7039 -0.8094
 1632SOL     OW16354   4.653   4.055   4.843 -0.0386  0.2075  0.2894
 1632SOL    HW116355   0.001   4.028   4.901 -0.7163  1.5437  1.7280
 1632SOL    HW216356   4.577   4.030   4.894 -0.1632  0.2585  0.1299
 1633SOL     OW16357   3.661   2.445   6.349  0.0919 -0.3086  0.0070
 1633SOL    HW116358   3.592   2.417   6.409 -1.1331  1.6618 -0.5162
 1633SOL    HW216359   3.706   2.504   6.409  0.5425 -0.5844 -0.0559
 1634SOL     OW16360   1.755   3.312  15.074  0.0927  0.3797  0.4447
 1634SOL    HW116361   1.724   3.263  15.150 -1.1610  0.6216  0.0900
 1634SOL    HW216362   1.713   3.264  15.003 -0.5524 -0.4111  1.3561
 1635SOL     OW16363   0.826   0.569   4.545  0.0433 -0.5126  0.0044
 1635SOL    HW116364   0.873   0.575   4.462  0.2356 -0.4116  0.1206
 1635SOL    HW216365   0.789   0.657   4.541  0.2624 -0.4493 -0.6019
 1636SOL     OW16366   1.500   4.621  12.531  0.2539  0.5178  0.2868
 1636SOL    HW116367   1.540   4.601  12.615 -0.0723  0.1042  0.3423
 1636SOL    HW216368   1.457   4.705  12.549  0.1880  0.4513  0.4329
 1637SOL     OW16369   0.542   2.661  17.437  0.0092  0.4748 -0.6553
 1637SOL    HW116370   0.460   2.613  17.423  1.1475 -0.4444 -4.0809
 1637SOL    HW216371   0.534   2.681  17.530  1.5925 -3.6314  0.3793
 1638SOL     OW16372   3.713   1.699   9.153  0.3817 -0.2808 -0.6142
 1638SOL    HW116373   3.766   1.768   9.113 -1.5321  1.2878 -0.3983
 1638SOL    HW216374   3.641   1.745   9.195  1.2704 -0.2807  0.8777
 1639SOL     OW16375   1.266   4.548   5.923  0.0090 -0.3888 -0.4473
 1639SOL    HW116376   1.358   4.524   5.937  0.7265  1.8839 -1.2405
 1639SOL    HW216377   1.223   4.466   5.947  0.2882 -0.8549 -1.5733
 1640SOL     OW16378   2.698   0.095   1.725 -0.3553  0.2077  0.1291
 1640SOL    HW116379   2.763   0.030   1.700 -1.0521 -0.6556  0.5750
 1640SOL    HW216380   2.641   0.095   1.648  1.6119 -0.2375 -1.3238
 1641SOL     OW16381   1.428   2.864  10.143  0.0487  0.3615 -0.1098
 1641SOL    HW116382   1.520   2.877  10.119  0.3924  1.1071  1.5660
 1641SOL    HW216383   1.431   2.830  10.232  0.5389 -2.8969 -1.3772
 1642SOL     OW16384   4.521   3.424   1.438  0.5280 -0.3577  1.0234
 1642SOL    HW116385   4.479   3.485   1.377 -0.0150  0.0275  1.7988
 1642SOL    HW216386   4.467   3.346   1.422  1.1083 -0.2951 -1.2414
 1643SOL     OW16387   1.771   2.884   2.388 -0.5083  0.0268 -0.0280
 1643SOL    HW116388   1.776   2.968   2.435  0.8566  1.7176 -3.1986
 1643SOL    HW216389   1.843   2.885   2.325  0.8751 -0.1259  1.5434
 1644SOL     OW16390   0.492   3.753   9.057 -0.1392 -0.0394  0.1239
 1644SOL    HW116391   0.496   3.672   9.005  0.0408 -0.3907  0.6866
 1644SOL    HW216392   0.452   3.708   9.131  0.2706 -0.9484 -0.2018
 1645SOL     OW16393   2.818   3.024   6.587 -0.1854  0.1993  0.2314
 1645SOL    HW116394   2.854   3.096   6.639  0.1395  0.5453 -0.4641
 1645SOL    HW216395   2.850   3.053   6.501 -0.3776 -1.8072 -0.5257
 1646SOL     OW16396   0.139   0.096   7.812 -0.1716  0.1292  0.0721
 1646SOL    HW116397   0.234   0.091   7.820  0.1120  1.2503 -2.5598
 1646SOL    HW216398   0.128   0.022   7.751  1.1660  1.2611 -1.5484
 1647SOL     OW16399   4.011   2.150   1.038 -0.2052 -0.3548 -0.4026
 1647SOL    HW116400   4.099   2.118   1.015 -0.0776 -0.3733  0.1197
 1647SOL    HW216401   3.992   2.227   0.984  0.2737  1.4176  1.9648
 1648SOL     OW16402   2.936   0.240   6.557 -0.3668  0.0284  0.7329
 1648SOL    HW116403   2.951   0.302   6.485 -0.9396  0.4393  0.9703
 1648SOL    HW216404   2.962   0.291   6.634 -1.8143  1.6065  0.1756
 1649SOL     OW16405   2.655   3.573   8.691 -0.6784 -0.3950 -0.1470
 1649SOL    HW116406   2.587   3.577   8.758 -1.1755 -1.2820 -0.6010
 1649SOL    HW216407   2.713   3.508   8.730  0.3130  0.3102 -0.4236
 1650SOL     OW16408   2.398   2.026   1.780 -0.4451  0.2677  0.5841
 1650SOL    HW116409   2.448   2.019   1.698 -0.7329 -1.3284  0.5439
 1650SOL    HW216410   2.436   2.103   1.823 -2.1142  0.8509  1.0432
 1651SOL     OW16411   3.988   2.761   5.308 -0.1568  0.2372 -0.5461
 1651SOL    HW116412   3.989   2.691   5.244  0.3413  0.5565 -0.8878
 1651SOL    HW216413   4.006   2.837   5.253 -1.3244  0.6547 -0.3622
 1652SOL     OW16414   1.080   4.309   3.748  0.2986  0.3135  0.0379
 1652SOL    HW116415   1.077   4.287   3.841  0.3072 -1.7572 -0.4427
 1652SOL    HW216416   1.078   4.404   3.755 -0.3501  0.3428 -0.6114
 1653SOL     OW16417   2.963   2.024   5.404  0.3190 -0.6336  0.1541
 1653SOL    HW116418   3.041   1.982   5.368 -1.1384 -2.5178 -0.8027
 1653SOL    HW216419   2.914   1.945   5.426 -1.5709  0.9808  1.7579
 1654SOL     OW16420   1.693   1.323   9.865  0.0353  0.4290 -0.4451
 1654SOL    HW116421   1.680   1.397   9.925 -1.3878 -1.1708  1.2221
 1654SOL    HW216422   1.760   1.272   9.910 -0.2369  0.7211  0.2962
 1655SOL     OW16423   1.444   4.602   1.779 -0.8503  0.0030  0.2769
 1655SOL    HW116424   1.420   4.542   1.850  2.9157  0.3106  1.8391
 1655SOL    HW216425   1.376   4.669   1.787  0.4006  1.3337 -0.3531
 1656SOL     OW16426   2.038   4.416   2.456  0.0429 -0.2414  0.0462
 1656SOL    HW116427   2.092   4.337   2.453  0.4394 -0.0300  2.0137
 1656SOL    HW216428   2.086   4.481   2.507 -0.0456  0.7323 -1.1039
 1657SOL     OW16429   2.084   4.450   1.957  0.5192 -0.7258  0.4014
 1657SOL    HW116430   2.089   4.363   1.996 -3.1121 -0.9361  0.3492
 1657SOL    HW216431   2.126   4.504   2.024  1.2908  0.3762 -0.9534
 1658SOL     OW16432   0.904   1.349   4.937  0.1244  0.3968 -0.1771
 1658SOL    HW116433   0.856   1.266   4.926  1.3828 -0.8266  3.6505
 1658SOL    HW216434   0.875   1.385   4.853  0.2165 -1.8021 -1.1615
 1659SOL     OW16435   4.659   3.997   2.448  0.0045 -0.2631 -0.6699
 1659SOL    HW116436   4.685   4.070   2.391  0.3167  0.2607  0.1419
 1659SOL    HW216437   4.696   3.923   2.399  2.1914  1.0351 -0.9834
 1660SOL     OW16438   2.642   1.757  14.949  0.4353 -0.3238 -0.0908
 1660SOL    HW116439   2.729   1.758  14.989 -1.0120 -1.1502  3.0821
 1660SOL    HW216440   2.650   1.839  14.899 -0.1971 -0.6032 -0.6471
 1661SOL     OW16441   3.453   3.239   2.717  0.1855  0.3123  0.0604
 1661SOL    HW116442   3.471   3.279   2.632  0.2310 -1.9018 -0.9741
 1661SOL    HW216443   3.520   3.171   2.729  0.8281  1.1973  1.5588
 1662SOL     OW16444   0.473   0.559  13.323 -0.2110 -0.3564 -0.4176
 1662SOL    HW116445   0.510   0.520  13.244 -0.2107 -1.2644  0.0324
 1662SOL    HW216446   0.531   0.506  13.379 -0.9674  0.4824  1.1656
 1663SOL     OW16447   4.069   2.141   3.019 -0.2723  0.4557 -0.2810
 1663SOL    HW116448   4.106   2.110   3.102 -0.6901 -1.7439 -0.9218
 1663SOL    HW216449   4.115   2.222   2.997 -2.5665  2.0475  0.8719
 1664SOL     OW16450   2.743   0.359   6.245 -0.2237 -0.0364 -0.3508
 1664SOL    HW116451   2.702   0.319   6.322  1.5293 -0.7652  0.2113
 1664SOL    HW216452   2.673   0.355   6.181 -0.9994  0.6604  0.4528
 1665SOL     OW16453   2.459   0.499   9.684 -1.1178 -0.0356  0.0539
 1665SOL    HW116454   2.517   0.567   9.720  0.8971 -1.1323 -1.1074
 1665SOL    HW216455   2.391   0.552   9.643  0.6903  2.6253  0.4814
 1666SOL     OW16456   4.012   3.304   5.129 -0.0228 -0.2555  0.3188
 1666SOL    HW116457   4.107   3.298   5.122  0.0619  1.7336 -0.1523
 1666SOL    HW216458   4.005   3.345   5.042  1.3219  1.9030  1.2415
 1667SOL     OW16459   0.620   3.829   6.314  0.0311 -0.2122  0.0049
 1667SOL    HW116460   0.621   3.825   6.218 -0.0960 -1.7752  0.0774
 1667SOL    HW216461   0.591   3.742   6.341 -1.8448  1.1038  2.2252
 1668SOL     OW16462   0.320   1.738   2.170 -0.1948  0.1951  0.0853
 1668SOL    HW116463   0.382   1.744   2.243  1.7294  0.5548 -1.5854
 1668SOL    HW216464   0.240   1.719   2.219  0.3603 -1.3787  0.3782
 1669SOL     OW16465   1.814   4.124   4.244  0.0301  0.0447  0.1436
 1669SOL    HW116466   1.895   4.129   4.195  2.1431  1.9820  3.8174
 1669SOL    HW216467   1.842   4.127   4.336  2.7011 -1.0621 -0.6749
 1670SOL     OW16468   4.237   0.205   4.775  0.4264 -0.3640 -0.1655
 1670SOL    HW116469   4.221   0.111   4.772 -0.1721 -0.2159 -1.4163
 1670SOL    HW216470   4.162   0.238   4.823  0.5941 -1.9533  1.2091
 1671SOL     OW16471   3.898   3.834   4.006 -0.5953 -0.2525 -0.1683
 1671SOL    HW116472   3.929   3.848   4.095  1.9991 -0.3083 -1.0374
 1671SOL    HW216473   3.905   3.739   4.003  0.1577 -0.2201  0.6333
 1672SOL     OW16474   2.698   4.520   3.588 -0.4449  0.4841  0.4228
 1672SOL    HW116475   2.659   4.569   3.660 -1.6110  0.2810 -0.0692
 1672SOL    HW216476   2.718   4.586   3.522 -1.6733 -0.3197 -0.7515
 1673SOL     OW16477   1.458   0.927  14.615 -0.6119 -0.5581 -0.3241
 1673SOL    HW116478   1.391   0.988  14.584 -0.1657 -0.1173 -0.4284
 1673SOL    HW216479   1.401   0.862  14.655  0.5997 -3.2674 -3.0192
 1674SOL     OW16480   2.109   2.792   8.918  0.1832  0.1827 -0.4170
 1674SOL    HW116481   2.041   2.738   8.878  2.5240 -1.9564 -1.5665
 1674SOL    HW216482   2.138   2.845   8.843 -2.0125 -0.3436 -1.6245
 1675SOL     OW16483   3.541   0.930  15.410 -0.7396 -0.1105 -0.0040
 1675SOL    HW116484   3.571   0.840  15.423  0.6602  0.3006 -0.4568
 1675SOL    HW216485   3.628   0.965  15.428 -1.1312  1.7681 -1.7987
 1676SOL     OW16486   3.726   4.408   7.639  0.3973  0.6798  0.1365
 1676SOL    HW116487   3.800   4.387   7.582  1.0326  0.3980  1.0605
 1676SOL    HW216488   3.661   4.341   7.618  1.9463  0.0182 -2.5394
 1677SOL     OW16489   1.837   3.647   1.267 -0.2994  0.0661 -0.2118
 1677SOL    HW116490   1.828   3.742   1.261  0.8632  0.1285 -1.0196
 1677SOL    HW216491   1.918   3.627   1.219 -1.0853 -3.1049 -0.2615
 1678SOL     OW16492   0.605   3.305  15.955  0.2675  0.6569  0.4225
 1678SOL    HW116493   0.598   3.215  15.986 -2.0909  0.4958 -0.5866
 1678SOL    HW216494   0.580   3.359  16.030 -0.1536  1.6361 -0.4307
 1679SOL     OW16495   4.335   3.630   3.819  0.3305 -0.1692  0.2565
 1679SOL    HW116496   4.316   3.618   3.726  0.1118  3.4053 -0.1886
 1679SOL    HW216497   4.321   3.724   3.828 -0.1773 -0.1145 -1.0852
 1680SOL     OW16498   3.166   3.336  13.441  0.1785 -1.1483  0.2855
 1680SOL    HW116499   3.103   3.264  13.437  0.5339 -1.3893 -1.1459
 1680SOL    HW216500   3.248   3.299  13.408 -0.7051 -3.6421  0.8453
 1681SOL     OW16501   1.258   3.286   6.758  0.1985  0.5828 -0.3027
 1681SOL    HW116502   1.263   3.283   6.663 -1.3043  0.4483 -0.3794
 1681SOL    HW216503   1.166   3.281   6.785  0.2685 -1.4766 -0.4961
 1682SOL     OW16504   0.199   3.947   9.144 -0.8207  0.2796  0.4398
 1682SOL    HW116505   0.158   3.861   9.147 -0.9291  0.2907 -0.7576
 1682SOL    HW216506   0.229   3.957   9.234  0.0343  1.9848 -0.0241
 1683SOL     OW16507   1.153   1.650  10.652 -0.5690  0.1202  0.7935
 1683SOL    HW116508   1.226   1.711  10.637  1.5076 -3.4159 -3.3134
 1683SOL    HW216509   1.147   1.592  10.577  2.1995 -0.3115  0.9021
 1684SOL     OW16510   2.247   3.226  10.383  0.1684  0.0905  0.2407
 1684SOL    HW116511   2.176   3.170  10.351 -0.2967  0.4091  0.7196
 1684SOL    HW216512   2.192   3.293  10.421 -0.3511 -1.1312  1.6424
 1685SOL     OW16513   2.937   3.880   5.642  0.0991  0.3040  0.1565
 1685SOL    HW116514   3.018   3.921   5.672  0.1848  0.5998 -0.4618
 1685SOL    HW216515   2.887   3.874   5.723  0.6876  0.5830  0.5331
 1686SOL     OW16516   3.016   1.784  12.477  0.1474  0.2318 -0.4381
 1686SOL    HW116517   3.036   1.850  12.544 -0.6751  0.1256 -0.0863
 1686SOL    HW216518   3.101   1.770  12.436  0.4850 -1.2752  0.7891
 1687SOL     OW16519   4.248   2.113   7.718  0.3626 -0.2183  0.0844
 1687SOL    HW116520   4.339   2.084   7.705  0.4924  0.4168 -0.4250
 1687SOL    HW216521   4.234   2.174   7.646 -0.5397 -1.3426 -0.6894
 1688SOL     OW16522   4.196   0.673   8.901 -0.8946 -0.1045  0.0765
 1688SOL    HW116523   4.254   0.701   8.972 -0.6764 -0.6296  0.1071
 1688SOL    HW216524   4.148   0.755   8.894 -1.8686 -0.4184  2.9773
 1689SOL     OW16525   2.446   1.925   6.700 -0.4407 -0.0501 -0.3191
 1689SOL    HW116526   2.392   1.961   6.631  0.7096  1.5934 -0.3633
 1689SOL    HW216527   2.531   1.919   6.656 -0.3044  2.1030 -0.3258
 1690SOL     OW16528   4.196   4.599  12.108  0.0905  0.1249  0.1769
 1690SOL    HW116529   4.240   4.641  12.034  0.5186 -1.7954 -0.6500
 1690SOL    HW216530   4.210   4.667  12.174 -1.1119 -0.0661  0.6366
 1691SOL     OW16531   1.287   0.284   1.293  0.0119  0.2161  0.2822
 1691SOL    HW116532   1.358   0.224   1.316  1.9779  1.9684 -1.2344
 1691SOL    HW216533   1.316   0.363   1.337 -1.0083  0.4388  0.5508
 1692SOL     OW16534   1.391   0.649   9.717  0.6568  0.6278  0.4049
 1692SOL    HW116535   1.391   0.554   9.703 -1.4334  0.8446 -1.1347
 1692SOL    HW216536   1.330   0.675   9.647 -1.2817 -1.3141  1.3769
 1693SOL     OW16537   3.549   1.316  17.192 -0.5259 -0.3359 -0.8303
 1693SOL    HW116538   3.578   1.295  17.103  2.2838 -0.9214  0.2296
 1693SOL    HW216539   3.514   1.229  17.213  1.0397 -0.0620  2.8540
 1694SOL     OW16540   3.464   3.533   3.129  0.0379  0.1977 -0.2036
 1694SOL    HW116541   3.446   3.440   3.134  0.5655  0.2367  2.4730
 1694SOL    HW216542   3.465   3.542   3.034  0.1814 -0.3321 -0.2527
 1695SOL     OW16543   0.982   4.095   4.664  0.1379 -0.5623 -0.1696
 1695SOL    HW116544   1.052   4.075   4.726 -2.0345 -0.0548  2.4441
 1695SOL    HW216545   0.933   4.157   4.717  0.7506 -0.9355  0.8225
 1696SOL     OW16546   0.431   2.499   2.698  0.7694  0.0539  0.1230
 1696SOL    HW116547   0.475   2.437   2.756  2.8206 -0.3194 -1.8081
 1696SOL    HW216548   0.362   2.542   2.749 -1.0220 -0.9403 -1.4479
 1697SOL     OW16549   2.013   2.558   8.723 -0.1968 -0.6342 -0.3040
 1697SOL    HW116550   2.069   2.513   8.659 -0.8049  0.3743 -1.5440
 1697SOL    HW216551   1.968   2.486   8.767 -4.7054  1.4322 -1.6231
 1698SOL     OW16552   1.149   3.688   3.513  0.0268  0.0751 -0.3242
 1698SOL    HW116553   1.132   3.709   3.421 -0.4329 -0.1226 -0.2848
 1698SOL    HW216554   1.243   3.699   3.531 -0.1749  1.8666 -0.3049
 1699SOL     OW16555   3.457   3.043   7.003  0.4035  0.6196  0.0269
 1699SOL    HW116556   3.458   3.065   6.910 -0.6595 -1.0998 -0.3918
 1699SOL    HW216557   3.523   2.974   7.013 -0.5771 -0.3027  0.1010
 1700SOL     OW16558   0.590   1.091   5.490  0.3165 -0.1013  0.4735
 1700SOL    HW116559   0.581   1.120   5.399 -0.4312 -0.1079  0.5428
 1700SOL    HW216560   0.633   1.007   5.476  1.8051  1.0520 -1.8020
 1701SOL     OW16561   4.393   0.252  15.278 -0.0756  0.0331 -0.2017
 1701SOL    HW116562   4.397   0.313  15.205 -0.5015  1.5503  1.0381
 1701SOL    HW216563   4.470   0.272  15.331 -0.3407 -3.6413  1.5890
 1702SOL     OW16564   4.133   1.366  15.593 -0.4699 -0.8739 -0.1582
 1702SOL    HW116565   4.209   1.308  15.596  0.2877  0.0563 -1.7916
 1702SOL    HW216566   4.130   1.348  15.499  2.1072  0.1565 -0.4207
 1703SOL     OW16567   3.664   2.215  11.068  0.1310 -0.1178 -0.0611
 1703SOL    HW116568   3.648   2.294  11.120  0.4091 -0.3413  0.3606
 1703SOL    HW216569   3.758   2.203  11.078  0.3565  2.4595  0.7698
 1704SOL     OW16570   0.578   0.667  16.579 -0.4012 -0.0922 -0.6323
 1704SOL    HW116571   0.504   0.645  16.636 -2.5613  2.1736 -2.5760
 1704SOL    HW216572   0.544   0.628  16.499 -0.2352  2.4442 -1.9351
 1705SOL     OW16573   1.909   0.615   7.684 -0.2472 -0.0127 -0.0560
 1705SOL    HW116574   1.985   0.673   7.678  0.7855 -1.0155  3.1584
 1705SOL    HW216575   1.921   0.569   7.767  1.7334 -0.6773 -0.7194
 1706SOL     OW16576   3.865   2.685  11.475  0.0655  0.4242 -0.2545
 1706SOL    HW116577   3.920   2.620  11.432 -2.3919 -0.7424 -1.5990
 1706SOL    HW216578   3.785   2.688  11.423  0.6466 -2.6778 -1.2876
 1707SOL     OW16579   2.521   1.810   6.398 -0.2524 -0.2872 -0.1232
 1707SOL    HW116580   2.481   1.892   6.425  1.0812 -0.6160  2.8205
 1707SOL    HW216581   2.604   1.846   6.367 -0.9638 -0.5755 -2.3679
 1708SOL     OW16582   1.685   0.201   2.207  0.1838  0.4518  0.0522
 1708SOL    HW116583   1.638   0.196   2.124  1.2661  1.8064 -0.6308
 1708SOL    HW216584   1.637   0.273   2.247  1.7634  2.6376 -2.0235
 1709SOL     OW16585   2.053   3.238   6.307 -0.3384 -0.3856  0.1838
 1709SOL    HW116586   2.070   3.286   6.388 -0.6080  2.4924 -1.4481
 1709SOL    HW216587   2.053   3.308   6.241  0.8518  0.4956  1.1130
 1710SOL     OW16588   1.379   1.358   6.550 -0.0463  0.0220 -0.3709
 1710SOL    HW116589   1.378   1.265   6.528 -2.4357 -0.9053  3.5759
 1710SOL    HW216590   1.417   1.393   6.470 -0.3969  2.0904  0.3662
 1711SOL     OW16591   4.180   1.089  10.177 -0.6052 -0.2921  0.2328
 1711SOL    HW116592   4.119   1.109  10.248  0.7255 -2.1955  1.9057
 1711SOL    HW216593   4.259   1.120  10.220 -0.2988  1.1324 -1.3746
 1712SOL     OW16594   3.833   4.155   2.310  0.4644  0.3383  0.1181
 1712SOL    HW116595   3.852   4.192   2.397 -1.1355 -0.3275  0.7368
 1712SOL    HW216596   3.835   4.236   2.258 -0.7146  0.2359 -0.0810
 1713SOL     OW16597   1.780   0.144   8.491 -0.8966  0.2316  0.2232
 1713SOL    HW116598   1.830   0.198   8.552  0.5740  0.4674 -1.2085
 1713SOL    HW216599   1.761   0.063   8.539 -1.5482  0.2193 -0.0656
 1714SOL     OW16600   3.821   3.133   1.819  0.8254 -0.6990  0.3459
 1714SOL    HW116601   3.905   3.161   1.854  1.1935 -1.3427 -0.0267
 1714SOL    HW216602   3.785   3.085   1.894  0.4916 -0.8210  0.1068
 1715SOL     OW16603   1.216   1.409   7.006 -0.3353  1.1893 -0.1112
 1715SOL    HW116604   1.160   1.332   7.006  2.2263 -0.6778  4.8130
 1715SOL    HW216605   1.231   1.432   7.098 -0.8136 -1.2616  0.5577
 1716SOL     OW16606   4.274   3.136   3.206  0.0888 -0.7829 -0.1807
 1716SOL    HW116607   4.236   3.076   3.142 -1.1402 -0.2694  0.0690
 1716SOL    HW216608   4.365   3.127   3.178  0.1943 -0.7370  0.1415
 1717SOL     OW16609   1.790   0.867   8.966 -0.1983  0.2678  0.2627
 1717SOL    HW116610   1.814   0.786   9.009 -2.1223 -0.6738 -0.4519
 1717SOL    HW216611   1.715   0.897   9.016 -1.3674 -2.7038  0.2523
 1718SOL     OW16612   0.925   2.535   4.232  0.1013 -0.2665  0.4043
 1718SOL    HW116613   0.987   2.540   4.305  1.5464 -1.3844 -0.7291
 1718SOL    HW216614   0.983   2.584   4.173  0.1781  1.2946  1.7665
 1719SOL     OW16615   3.227   2.800   5.414  0.3103  0.0910 -0.5822
 1719SOL    HW116616   3.250   2.892   5.413 -0.5839  0.2881 -2.9481
 1719SOL    HW216617   3.295   2.764   5.471 -0.1500  2.6628  1.5776
 1720SOL     OW16618   1.708   4.445   1.941  0.2307 -0.2118  0.3759
 1720SOL    HW116619   1.780   4.384   1.959  1.1347  0.2669 -1.6347
 1720SOL    HW216620   1.662   4.377   1.892 -1.1221 -0.3226  1.7998
 1721SOL     OW16621   4.580   2.213  11.710  0.1291 -0.3174  0.2045
 1721SOL    HW116622   4.570   2.158  11.788  0.6996 -0.0055  0.5075
 1721SOL    HW216623   4.676   2.211  11.710  0.1345  0.1156 -1.4077
 1722SOL     OW16624   1.749   1.503   3.941  0.8474  0.3602 -0.0358
 1722SOL    HW116625   1.785   1.539   4.022  0.9742  0.5643 -0.1844
 1722SOL    HW216626   1.795   1.559   3.879 -0.1450 -0.6779 -1.6931
 1723SOL     OW16627   0.194   3.359   3.956 -0.2744 -0.8616  0.5476
 1723SOL    HW116628   0.206   3.428   3.891 -0.9944 -0.6284  0.6528
 1723SOL    HW216629   0.157   3.286   3.907 -1.2359 -0.4267  0.6234
 1724SOL     OW16630   3.023   3.419   4.389  0.1434  0.4675  0.0463
 1724SOL    HW116631   2.989   3.381   4.470  0.4920  1.4360  0.6545
 1724SOL    HW216632   3.115   3.431   4.413 -0.0752 -0.4480  1.3568
 1725SOL     OW16633   1.253   4.465   3.371 -0.0807  0.1982  0.4037
 1725SOL    HW116634   1.320   4.398   3.364 -0.2048  0.0959  0.1746
 1725SOL    HW216635   1.192   4.438   3.302 -0.3624  1.7661  0.0403
 1726SOL     OW16636   4.577   4.468   5.781 -0.7299 -0.2553 -0.3243
 1726SOL    HW116637   4.547   4.544   5.733  2.7984  1.4256  0.1348
 1726SOL    HW216638   4.502   4.409   5.787 -0.5560 -0.4685 -0.2413
 1727SOL     OW16639   2.823   0.853   2.499  0.5719  0.2983  0.2452
 1727SOL    HW116640   2.764   0.885   2.568 -0.0783 -4.0744  1.6940
 1727SOL    HW216641   2.756   0.834   2.434 -0.9175  0.7402  1.6331
 1728SOL     OW16642   3.442   4.710   2.221 -0.1583 -0.5101  0.7704
 1728SOL    HW116643   3.356   4.673   2.243 -0.6962  0.0037 -0.4199
 1728SOL    HW216644   3.461   0.047   2.293 -0.5040 -1.6091  1.7781
 1729SOL     OW16645   2.946   3.206   4.053  0.4437  0.0633 -0.1665
 1729SOL    HW116646   2.981   3.145   4.118  2.3346 -1.7465 -2.8509
 1729SOL    HW216647   2.861   3.235   4.086 -0.8763 -2.4119 -1.3947
 1730SOL     OW16648   1.674   4.331   5.392 -0.3169  0.1028  0.3674
 1730SOL    HW116649   1.748   4.294   5.440 -0.8512  0.6829  1.6415
 1730SOL    HW216650   1.622   4.251   5.402 -1.0749  0.3256 -1.8286
 1731SOL     OW16651   4.498   3.925   6.792 -0.5202 -0.1373  0.2104
 1731SOL    HW116652   4.579   3.974   6.775 -0.5284 -0.5043 -0.9474
 1731SOL    HW216653   4.478   3.959   6.879 -1.1125 -1.6674  0.6710
 1732SOL     OW16654   2.569   0.930   4.883 -0.3007  0.0566 -0.3631
 1732SOL    HW116655   2.630   0.870   4.839  0.4929 -1.6725  3.1232
 1732SOL    HW216656   2.491   0.881   4.859 -0.1992 -1.0731  1.6626
 1733SOL     OW16657   3.404   3.892   5.379  0.2251  0.0571  0.0191
 1733SOL    HW116658   3.392   3.903   5.284  2.3448 -0.1341 -0.2661
 1733SOL    HW216659   3.388   3.982   5.406 -0.2839 -0.3871  1.2002
 1734SOL     OW16660   0.434   2.206   2.514 -0.1270  0.2205  0.9209
 1734SOL    HW116661   0.368   2.274   2.495 -0.0763 -0.4039 -1.3851
 1734SOL    HW216662   0.409   2.138   2.453  1.2518 -0.0947  0.7262
 1735SOL     OW16663   3.379   3.243  17.215  0.4635  0.6168  0.3031
 1735SOL    HW116664   3.316   3.262  17.146 -0.3676  3.0850  1.7427
 1735SOL    HW216665   3.344   3.164  17.257  2.0811 -1.0216 -1.3861
 1736SOL     OW16666   3.676   2.233  13.098 -0.2392  0.1716 -0.5194
 1736SOL    HW116667   3.736   2.299  13.065  1.4564 -0.5303  1.1783
 1736SOL    HW216668   3.715   2.222  13.184  0.7704 -0.0256 -1.0109
 1737SOL     OW16669   4.171   0.678   6.882 -0.6333 -0.2051  0.5987
 1737SOL    HW116670   4.128   0.753   6.840 -0.1439 -0.1031  0.2745
 1737SOL    HW216671   4.264   0.699   6.869 -0.4337 -0.8537  0.9910
 1738SOL     OW16672   3.668   1.819   6.161  0.3184 -0.6776 -0.0462
 1738SOL    HW116673   3.686   1.913   6.159  0.0716 -0.6855 -2.8530
 1738SOL    HW216674   3.612   1.811   6.084 -2.1811  3.8169  1.2980
 1739SOL     OW16675   1.234   4.262   2.035  0.1146  0.8465  0.0561
 1739SOL    HW116676   1.294   4.206   1.985  1.4307 -1.4655  4.2626
 1739SOL    HW216677   1.166   4.202   2.065 -0.9006  0.4654 -2.9194
 1740SOL     OW16678   3.512   3.339   4.749  0.5120  0.4973 -0.0994
 1740SOL    HW116679   3.473   3.318   4.834 -0.7079 -0.1103 -0.8041
 1740SOL    HW216680   3.584   3.277   4.738  1.0970  0.7495  2.2179
 1741SOL     OW16681   3.663   3.930  15.285 -0.0941 -0.2334 -0.1701
 1741SOL    HW116682   3.739   3.884  15.321  1.5491  0.7432 -2.3500
 1741SOL    HW216683   3.691   4.021  15.277 -0.2057 -0.0427  1.6554
 1742SOL     OW16684   3.575   0.528   3.651 -0.3010  0.9468  0.1184
 1742SOL    HW116685   3.627   0.607   3.636  2.2958 -1.0172 -1.0392
 1742SOL    HW216686   3.507   0.552   3.587 -1.1863  0.2118  0.7809
 1743SOL     OW16687   2.418   2.336   3.727  0.3285 -0.0334 -0.4450
 1743SOL    HW116688   2.413   2.241   3.721  1.3464 -0.1785  0.9568
 1743SOL    HW216689   2.341   2.363   3.678  0.3837  0.0687 -0.4759
 1744SOL     OW16690   4.614   3.771  15.649 -0.0473  0.6028  0.0808
 1744SOL    HW116691   4.571   3.720  15.580  0.2210 -1.6162  1.5483
 1744SOL    HW216692   4.677   3.704  15.676 -1.6508 -0.3712  1.3875
 1745SOL     OW16693   0.323   4.124   5.665  0.0269  0.0333  0.1285
 1745SOL    HW116694   0.272   4.203   5.647 -1.2090 -0.2793  2.2038
 1745SOL    HW216695   0.330   4.115   5.760 -0.5959  2.9052  0.4483
 1746SOL     OW16696   2.253   3.901   0.912  0.2332 -0.5492 -0.0761
 1746SOL    HW116697   2.286   3.990   0.924  0.1828 -0.8553  2.3402
 1746SOL    HW216698   2.325   3.845   0.942 -0.0328 -1.2892 -0.8138
 1747SOL     OW16699   2.493   1.485  12.013 -0.1691  0.0816 -0.0820
 1747SOL    HW116700   2.554   1.559  12.023  0.4939 -0.4092 -0.5351
 1747SOL    HW216701   2.411   1.535  12.002  0.5235  1.7525  2.1564
 1748SOL     OW16702   1.543   4.031   1.256  0.9188  0.8314  0.6523
 1748SOL    HW116703   1.522   3.990   1.172 -1.3464  3.5190 -0.0766
 1748SOL    HW216704   1.557   3.963   1.323  1.8362 -1.2617 -1.6663
 1749SOL     OW16705   1.214   0.616   6.490  0.3816  0.1140 -0.1120
 1749SOL    HW116706   1.260   0.693   6.523 -0.6795  1.1379 -1.0432
 1749SOL    HW216707   1.216   0.632   6.396 -0.1162 -0.6117 -0.2522
 1750SOL     OW16708   1.979   4.084  16.215  0.3686  0.5056  0.0443
 1750SOL    HW116709   1.890   4.067  16.184  0.5997 -2.1871  0.9093
 1750SOL    HW216710   2.032   4.089  16.135 -1.7956 -1.4458 -1.4983
 1751SOL     OW16711   2.123   1.081   3.643 -0.3170 -0.7406  0.3888
 1751SOL    HW116712   2.194   1.081   3.578 -1.5032 -2.7457 -0.9124
 1751SOL    HW216713   2.040   1.102   3.600  0.7925  0.0581 -1.3385
 1752SOL     OW16714   4.465   3.021   4.393 -0.2385 -0.5800  0.0922
 1752SOL    HW116715   4.416   3.102   4.408 -0.4660 -0.2801 -2.2014
 1752SOL    HW216716   4.400   2.970   4.344  1.0629 -3.3527  1.2492
 1753SOL     OW16717   4.496   2.248   1.257  0.3333  0.7700 -0.3862
 1753SOL    HW116718   4.491   2.152   1.259 -2.7120  0.9723  0.6542
 1753SOL    HW216719   4.516   2.250   1.351 -0.2942  1.1442 -0.2621
 1754SOL     OW16720   3.924   0.341   7.158  0.0933 -0.7307 -0.1142
 1754SOL    HW116721   3.931   0.432   7.187 -2.5266 -0.2280 -1.0442
 1754SOL    HW216722   4.012   0.311   7.181 -0.8007 -2.4893  0.9894
 1755SOL     OW16723   0.656   2.273   4.929  0.1410 -0.1032 -0.0334
 1755SOL    HW116724   0.651   2.177   4.929  4.6537 -0.3069 -0.1321
 1755SOL    HW216725   0.598   2.299   5.001  0.8794 -1.9350  1.2157
 1756SOL     OW16726   0.177   1.953   5.740 -0.3855  0.2883  0.5053
 1756SOL    HW116727   0.163   1.932   5.647 -0.2393 -1.3372  0.8437
 1756SOL    HW216728   0.087   1.954   5.771 -1.0191  2.8670 -1.4741
 1757SOL     OW16729   4.444   1.829  15.930 -0.5540 -0.0532  0.0836
 1757SOL    HW116730   4.351   1.809  15.915 -1.2836  1.7490  2.0965
 1757SOL    HW216731   4.464   1.738  15.947 -1.1836 -0.0307  0.9561
 1758SOL     OW16732   0.522   0.377   9.219  0.1944  0.2383  0.2829
 1758SOL    HW116733   0.601   0.389   9.273  1.4983  0.1700 -1.6107
 1758SOL    HW216734   0.529   0.282   9.207 -0.0798 -0.0426  2.4149
 1759SOL     OW16735   2.035   3.213   0.993  0.5073  0.1939  0.3917
 1759SOL    HW116736   1.999   3.273   1.058  0.7610 -2.1160  2.6259
 1759SOL    HW216737   1.966   3.226   0.927  0.3496  0.9980  0.7156
 1760SOL     OW16738   3.977   2.810   0.182  0.0356  0.2669 -0.5264
 1760SOL    HW116739   4.014   2.763   0.257 -2.5002  0.2459  0.7018
 1760SOL    HW216740   3.960   2.744   0.114  1.7229 -0.6043 -0.1034
 1761SOL     OW16741   3.714   4.340  16.186  0.9770  0.1257 -0.0045
 1761SOL    HW116742   3.681   4.426  16.214  1.5843  0.0095  1.0645
 1761SOL    HW216743   3.700   4.334  16.092 -1.3199  1.3742  0.2595
 1762SOL     OW16744   2.647   3.598   4.036 -0.0826  0.3288 -0.4431
 1762SOL    HW116745   2.736   3.620   4.063 -0.3259 -1.5198  1.8562
 1762SOL    HW216746   2.597   3.586   4.117 -0.2649  0.5856 -0.5151
 1763SOL     OW16747   3.868   2.601   5.872  1.1921 -0.2181  0.2500
 1763SOL    HW116748   3.920   2.679   5.850  1.1335  0.7025  3.3616
 1763SOL    HW216749   3.807   2.603   5.798  0.7477  0.1018  0.6232
 1764SOL     OW16750   2.640   0.908   7.765  0.1363  0.7518 -0.5456
 1764SOL    HW116751   2.603   0.931   7.850  1.4202  0.2553  0.1555
 1764SOL    HW216752   2.717   0.861   7.797 -0.3812 -1.0259 -1.8944
 1765SOL     OW16753   3.560   3.938   4.176 -0.1167  0.3415  0.0961
 1765SOL    HW116754   3.625   3.873   4.203 -0.6789 -0.3778 -0.2784
 1765SOL    HW216755   3.503   3.886   4.120  0.3108  0.5122 -0.4957
 1766SOL     OW16756   4.415   1.185   0.941 -0.6998 -0.6017  0.4601
 1766SOL    HW116757   4.472   1.116   0.975 -0.9563 -0.6312  0.8230
 1766SOL    HW216758   4.350   1.137   0.888  0.2801 -0.5556 -0.7906
 1767SOL     OW16759   3.629   1.480   4.995 -0.3990  0.5984  0.1896
 1767SOL    HW116760   3.645   1.554   4.937  0.5802  2.2782  2.5823
 1767SOL    HW216761   3.684   1.503   5.071  2.6704  1.1413 -2.2068
 1768SOL     OW16762   1.361   4.615   0.351  0.3077  0.0646  0.0918
 1768SOL    HW116763   1.363   4.520   0.355 -0.1056  0.1292  1.9721
 1768SOL    HW216764   1.439   4.627   0.297  0.7312  1.9645  1.1117
 1769SOL     OW16765   3.562   2.202   3.747  0.1573 -0.6922  0.0799
 1769SOL    HW116766   3.530   2.113   3.730 -0.9793 -0.0872 -0.9127
 1769SOL    HW216767   3.642   2.210   3.695  1.2753  1.8536  2.2019
 1770SOL     OW16768   4.629   2.913   7.470  0.7036 -0.1359 -0.4818
 1770SOL    HW116769   4.552   2.867   7.503  0.0091  2.5440  1.6248
 1770SOL    HW216770   4.634   2.994   7.521 -2.3677 -1.1198  1.3613
 1771SOL     OW16771   0.690   1.439   4.647  0.6104  0.0340  0.3412
 1771SOL    HW116772   0.685   1.365   4.587  0.7508  0.1082  0.2388
 1771SOL    HW216773   0.611   1.425   4.700  0.2272  2.2596  0.3887
 1772SOL     OW16774   1.800   1.805   7.950 -0.4662  0.2619 -0.2435
 1772SOL    HW116775   1.894   1.817   7.965 -1.0127  2.5774  1.3442
 1772SOL    HW216776   1.784   1.718   7.915  1.6288 -0.1423 -0.1838
 1773SOL     OW16777   3.799   2.109   3.483 -0.1313  0.3492  0.6413
 1773SOL    HW116778   3.779   2.071   3.398  0.9740  0.8181  0.1768
 1773SOL    HW216779   3.742   2.185   3.474 -0.9603 -0.3265  0.1320
 1774SOL     OW16780   3.974   2.652  13.910 -0.4624 -0.2999  0.1375
 1774SOL    HW116781   4.004   2.652  14.001  1.3153 -3.9992 -0.4769
 1774SOL    HW216782   3.919   2.731  13.904  2.1375  1.5929  1.2123
 1775SOL     OW16783   0.985   1.408  15.612 -0.6650 -0.5555  0.2480
 1775SOL    HW116784   0.917   1.342  15.627 -0.9674  0.3585  3.0591
 1775SOL    HW216785   0.948   1.465  15.680  1.7603  1.4305 -0.1037
 1776SOL     OW16786   3.445   1.172   7.098  0.0507  0.3906 -0.4280
 1776SOL    HW116787   3.423   1.175   7.191 -1.6362  0.2240 -0.8173
 1776SOL    HW216788   3.533   1.210   7.090  0.5142  0.0247  2.9301
 1777SOL     OW16789   3.852   3.901  15.492  0.3695 -0.2078  0.4696
 1777SOL    HW116790   3.936   3.896  15.539  1.9576  0.0711 -2.3166
 1777SOL    HW216791   3.791   3.939  15.555 -2.3044 -4.5109  0.4584
 1778SOL     OW16792   0.842   0.965   4.372 -0.1798  0.1547 -0.3070
 1778SOL    HW116793   0.826   1.023   4.297  0.9966  0.7808 -0.0765
 1778SOL    HW216794   0.930   0.992   4.398 -0.4080 -1.2599  1.9304
 1779SOL     OW16795   2.062   4.083   6.593 -0.0104 -0.3871  0.6432
 1779SOL    HW116796   2.051   4.122   6.680  0.6690  0.3598  0.3918
 1779SOL    HW216797   1.984   4.029   6.609 -0.5217  0.0230 -0.4780
 1780SOL     OW16798   3.547   4.300  17.559  0.2115  0.0771  0.0123
 1780SOL    HW116799   3.513   4.380  17.599  1.1046 -0.0019  0.9454
 1780SOL    HW216800   3.558   4.241  17.634 -1.5774 -0.8489 -0.4423
 1781SOL     OW16801   4.549   1.450   7.187  0.6092  0.2026 -0.3955
 1781SOL    HW116802   4.627   1.423   7.235 -1.4822 -1.5770  1.9718
 1781SOL    HW216803   4.489   1.439   7.261  0.8727 -1.9538 -0.5147
 1782SOL     OW16804   4.183   3.147   2.148  0.1850  0.3037  0.2801
 1782SOL    HW116805   4.226   3.174   2.066  0.1454 -0.0199  0.1514
 1782SOL    HW216806   4.185   3.053   2.129 -0.7935  0.2814  0.2700
 1783SOL     OW16807   3.814   1.759  10.252  0.5209 -0.0185  0.5588
 1783SOL    HW116808   3.827   1.698  10.180  0.7407 -0.5372  1.0347
 1783SOL    HW216809   3.778   1.697  10.316  2.4436 -0.5563  1.1332
 1784SOL     OW16810   1.100   1.657   2.226  0.1118  0.2674  0.6109
 1784SOL    HW116811   1.137   1.741   2.252  1.3703  0.1245 -0.6960
 1784SOL    HW216812   1.167   1.601   2.264  0.6493 -0.4244 -1.3456
 1785SOL     OW16813   3.786   0.402   5.067  0.1966 -0.2489  0.4020
 1785SOL    HW116814   3.773   0.493   5.094  2.0703  0.7728 -2.1584
 1785SOL    HW216815   3.701   0.375   5.033 -0.0333  1.9502 -0.7894
 1786SOL     OW16816   0.933   1.844   4.265 -0.0284  0.1132 -0.4865
 1786SOL    HW116817   0.909   1.766   4.214  3.8420 -0.9772 -0.6653
 1786SOL    HW216818   0.854   1.897   4.262  0.0062  0.1926 -0.0270
 1787SOL     OW16819   2.156   0.148   3.200 -0.0156 -0.2839  0.1580
 1787SOL    HW116820   2.161   0.066   3.150 -0.0722 -1.1944  1.6124
 1787SOL    HW216821   2.101   0.198   3.141  0.3929  1.4256  1.2453
 1788SOL     OW16822   1.259   0.565   8.690 -0.3399 -0.8513 -0.4535
 1788SOL    HW116823   1.181   0.524   8.726 -0.0848  0.7600  1.8974
 1788SOL    HW216824   1.320   0.580   8.762  0.8478 -0.1356 -1.6060
 1789SOL     OW16825   0.237   3.896   8.796  0.1824  0.0022  0.2230
 1789SOL    HW116826   0.185   3.937   8.865 -0.8516 -1.9234  0.5589
 1789SOL    HW216827   0.321   3.900   8.842  2.0854 -2.0445 -3.0714
 1790SOL     OW16828   4.608   3.340   2.913  0.1752 -0.4578 -0.1011
 1790SOL    HW116829   4.545   3.294   2.857 -2.1593  1.7168  0.7749
 1790SOL    HW216830   4.667   3.363   2.841  0.2041 -0.9312 -0.2340
 1791SOL     OW16831   2.923   3.455   5.111 -0.1388 -0.3474 -0.1382
 1791SOL    HW116832   2.898   3.448   5.203 -1.6762  2.6453 -0.3254
 1791SOL    HW216833   2.996   3.516   5.117 -1.4959  1.2677  0.0401
 1792SOL     OW16834   0.505   0.047   2.666 -0.2469 -0.0486  0.0443
 1792SOL    HW116835   0.457   4.693   2.637  0.8249 -0.6130 -0.2489
 1792SOL    HW216836   0.474   0.123   2.616 -1.7057 -0.7210 -0.0640
 1793SOL     OW16837   1.145   4.145   7.563 -0.2008  0.2121  0.4618
 1793SOL    HW116838   1.063   4.118   7.603 -1.8070 -0.8237 -3.5637
 1793SOL    HW216839   1.140   4.096   7.481  1.2993 -1.8648  1.6152
 1794SOL     OW16840   1.779   2.679   7.505 -0.1539  0.0196  0.4526
 1794SOL    HW116841   1.709   2.734   7.539 -0.3075  1.6051 -2.4270
 1794SOL    HW216842   1.774   2.597   7.553  1.4405 -0.0924  0.4244
 1795SOL     OW16843   4.633   2.083   6.233  0.1439 -0.0378  0.1177
 1795SOL    HW116844   4.638   2.153   6.298  0.8160 -0.8830  0.9839
 1795SOL    HW216845   0.001   2.073   6.207 -0.4563 -2.2748 -1.1648
 1796SOL     OW16846   1.918   0.400  12.044 -0.4445 -0.0746 -0.6948
 1796SOL    HW116847   1.881   0.488  12.034  2.1884  0.9891 -1.0248
 1796SOL    HW216848   1.980   0.388  11.972  0.1196  0.4156 -0.2952
 1797SOL     OW16849   0.341   1.507  14.870  0.0871  0.3639  0.3540
 1797SOL    HW116850   0.270   1.542  14.817 -0.0363  0.5741  0.6572
 1797SOL    HW216851   0.403   1.579  14.876  1.9016 -1.1077 -0.6874
 1798SOL     OW16852   3.545   0.650  12.419 -0.5423  0.7631  0.3490
 1798SOL    HW116853   3.493   0.634  12.340  1.3879 -1.9687 -0.3575
 1798SOL    HW216854   3.611   0.582  12.406 -0.2665  1.0249  0.3691
 1799SOL     OW16855   4.027   1.181  10.455 -0.2962 -0.5755  0.3131
 1799SOL    HW116856   4.036   1.113  10.522 -0.4118 -0.2584  0.6498
 1799SOL    HW216857   4.076   1.257  10.486 -1.0494 -0.2703  0.7514
 1800SOL     OW16858   3.027   1.352   5.957  0.5888 -0.0740 -0.0771
 1800SOL    HW116859   2.966   1.355   5.883  0.9681 -0.9459 -0.4282
 1800SOL    HW216860   3.087   1.415   5.918  1.2752 -1.1621 -0.7869
 1801SOL     OW16861   1.220   0.079   5.768  0.5027  0.6073  0.1021
 1801SOL    HW116862   1.130   0.105   5.752  0.6606  0.7065 -0.6117
 1801SOL    HW216863   1.217   4.721   5.820  0.0179  0.5900  0.0411
 1802SOL     OW16864   3.743   3.624  17.269 -0.4384  0.1189  0.1386
 1802SOL    HW116865   3.773   3.535  17.250  2.6184  1.4931 -1.5157
 1802SOL    HW216866   3.767   3.633  17.362 -0.1742  0.2599  0.0568
 1803SOL     OW16867   4.384   2.238  11.510  0.1255 -0.3148 -0.4259
 1803SOL    HW116868   4.423   2.316  11.471  0.5770  0.2567  1.1303
 1803SOL    HW216869   4.424   2.251  11.597  1.8234 -1.0060 -1.1015
 1804SOL     OW16870   3.928   3.075   5.878  0.2220  0.1058 -0.1430
 1804SOL    HW116871   3.949   3.144   5.816  2.8568 -0.1702  0.4525
 1804SOL    HW216872   4.003   3.057   5.935  0.2513  1.3699  0.2215
 1805SOL     OW16873   0.784   4.157   4.281 -0.7610  0.2231  0.1760
 1805SOL    HW116874   0.783   4.188   4.191  0.5311  1.2028  0.5042
 1805SOL    HW216875   0.836   4.078   4.274  0.8754  1.2857  0.3587
 1806SOL     OW16876   4.484   3.343  10.375 -0.5574 -0.1392  0.2865
 1806SOL    HW116877   4.493   3.314  10.284 -1.8409 -1.1429  0.4805
 1806SOL    HW216878   4.539   3.280  10.422 -0.0947 -1.5398 -2.0858
 1807SOL     OW16879   3.985   3.529   7.399 -0.0863  0.1281 -0.0867
 1807SOL    HW116880   3.902   3.577   7.411 -0.8031 -0.8033 -1.3954
 1807SOL    HW216881   3.969   3.442   7.435  2.5438  0.3661  1.7112
 1808SOL     OW16882   3.782   3.178   5.009  0.0945 -0.8174  0.1545
 1808SOL    HW116883   3.791   3.088   5.039 -1.6693 -0.4359  1.8193
 1808SOL    HW216884   3.834   3.227   5.072  1.1123  2.0556 -2.9221
 1809SOL     OW16885   3.542   3.736   7.815  0.1800  0.1008  0.0793
 1809SOL    HW116886   3.604   3.663   7.815  0.5113  0.4008  1.5751
 1809SOL    HW216887   3.599   3.807   7.786  1.0247 -1.0619 -1.1133
 1810SOL     OW16888   0.436   4.522   3.185  0.1550 -0.2718 -0.1013
 1810SOL    HW116889   0.371   4.580   3.224  0.8156 -1.0192  2.1629
 1810SOL    HW216890   0.414   4.449   3.244  0.9368 -1.7543 -1.6433
 1811SOL     OW16891   3.409   3.255   3.170  0.4338 -0.2293 -0.2331
 1811SOL    HW116892   3.477   3.192   3.147  0.0153 -0.7780  0.0516
 1811SOL    HW216893   3.335   3.228   3.116  0.1440 -0.9446  0.5291
 1812SOL     OW16894   0.544   3.995   3.570 -0.1154 -0.7494 -0.5044
 1812SOL    HW116895   0.637   4.020   3.565 -0.0928 -0.2999  2.0914
 1812SOL    HW216896   0.497   4.078   3.560 -0.3031 -0.5513  1.9981
 1813SOL     OW16897   3.984   1.254   8.798 -0.1335 -0.0704  0.2950
 1813SOL    HW116898   4.027   1.305   8.868 -0.9244 -0.2375  0.8991
 1813SOL    HW216899   4.062   1.207   8.768 -0.9149 -1.2139  0.0574
 1814SOL     OW16900   0.614   3.813   5.443 -0.0537 -0.4046 -0.0732
 1814SOL    HW116901   0.584   3.748   5.379  1.1437  0.0875 -1.1524
 1814SOL    HW216902   0.540   3.870   5.463  1.3624  1.3698  0.0535
 1815SOL     OW16903   1.459   0.314   5.094 -0.2445 -0.6672  0.7995
 1815SOL    HW116904   1.373   0.273   5.099 -0.5515  0.2357  3.0931
 1815SOL    HW216905   1.439   0.408   5.084 -0.9853 -0.6428  2.4320
 1816SOL     OW16906   4.408   0.430  10.653  0.0162 -0.6504 -0.0882
 1816SOL    HW116907   4.344   0.462  10.716 -1.5083 -1.5646 -1.1581
 1816SOL    HW216908   4.347   0.402  10.584 -2.7837  1.4015  1.5754
 1817SOL     OW16909   1.374   0.693   1.801 -0.4704  0.0188  0.1916
 1817SOL    HW116910   1.371   0.731   1.713  1.7752  0.5619  0.3372
 1817SOL    HW216911   1.287   0.652   1.800 -0.3205 -0.3002  0.0285
 1818SOL     OW16912   0.550   1.948   6.302 -0.2449 -0.2348  0.1526
 1818SOL    HW116913   0.605   2.024   6.321 -0.1285  0.7407 -4.0148
 1818SOL    HW216914   0.470   1.986   6.265  0.6386  1.3046 -0.1902
 1819SOL     OW16915   1.643   2.339  17.017 -0.2382 -0.1829 -0.2735
 1819SOL    HW116916   1.550   2.332  17.040 -0.2601  0.5530 -0.1084
 1819SOL    HW216917   1.654   2.250  16.985  0.8703 -0.4294  0.8094
 1820SOL     OW16918   3.182   2.467   5.117 -0.2004 -0.5616 -0.1052
 1820SOL    HW116919   3.193   2.460   5.022 -1.4574  1.8437 -0.4508
 1820SOL    HW216920   3.211   2.559   5.121  0.7453 -0.8162 -1.0874
 1821SOL     OW16921   3.777   1.939  11.743  0.4193  0.0833 -0.2211
 1821SOL    HW116922   3.696   1.949  11.794  1.2933 -0.2518  1.2490
 1821SOL    HW216923   3.805   2.027  11.719  0.3284 -0.4492 -2.2912
 1822SOL     OW16924   2.727   1.726   8.786 -0.1200 -0.1460 -0.1963
 1822SOL    HW116925   2.710   1.813   8.752 -2.2122  0.1604  1.6958
 1822SOL    HW216926   2.706   1.683   8.703 -4.8197  1.2651  0.2550
 1823SOL     OW16927   2.442   2.065   6.149 -0.0083  0.0376  0.5937
 1823SOL    HW116928   2.397   2.146   6.174 -1.1368  0.2586 -2.1089
 1823SOL    HW216929   2.534   2.094   6.149 -0.4250  1.3464  1.4782
 1824SOL     OW16930   3.461   3.159   5.919 -0.7109 -0.5841 -0.3394
 1824SOL    HW116931   3.453   3.072   5.958 -1.0278 -1.3330 -2.0628
 1824SOL    HW216932   3.388   3.161   5.857 -0.6076  0.8309 -0.4217
 1825SOL     OW16933   1.431   0.762  11.265 -0.1078 -0.5682 -0.6546
 1825SOL    HW116934   1.352   0.746  11.316 -1.7798  4.9602 -1.5642
 1825SOL    HW216935   1.487   0.687  11.289  1.0101  0.3430 -0.4188
 1826SOL     OW16936   4.658   0.644   5.133 -0.1054 -0.1575 -0.3542
 1826SOL    HW116937   4.659   0.738   5.117  0.9813 -0.2172 -0.5864
 1826SOL    HW216938   4.718   0.608   5.068 -1.0331  3.6334 -3.3183
 1827SOL     OW16939   0.881   2.214   1.219  0.2636  0.2822  0.4658
 1827SOL    HW116940   0.976   2.212   1.208  0.4283  1.1042  1.6557
 1827SOL    HW216941   0.851   2.297   1.182  1.8804  1.0124  0.8195
 1828SOL     OW16942   2.834   2.565  17.656  0.1793 -0.1446  0.1847
 1828SOL    HW116943   2.789   2.511   0.027  0.7013 -0.9625 -0.1217
 1828SOL    HW216944   2.776   2.639  17.642  0.1984  0.0771  1.2883
 1829SOL     OW16945   0.234   3.063  11.704  0.0641  0.0991  0.1619
 1829SOL    HW116946   0.218   3.038  11.795  0.6981 -0.7983  0.0229
 1829SOL    HW216947   0.318   3.108  11.713  0.9692 -1.4328 -0.6698
 1830SOL     OW16948   0.108   3.711   9.160  0.1990 -0.5020 -0.5850
 1830SOL    HW116949   0.030   3.712   9.216  0.7468  3.1089  0.1238
 1830SOL    HW216950   0.178   3.681   9.218  0.0433  1.0468  0.3946
 1831SOL     OW16951   0.797   2.106   6.015 -0.0951 -0.0919 -0.2481
 1831SOL    HW116952   0.843   2.133   5.936  0.2602 -2.1715 -0.7638
 1831SOL    HW216953   0.749   2.032   5.976  0.4839 -1.1160  1.0137
 1832SOL     OW16954   3.943   2.851   1.662 -0.1904 -0.2068  0.4209
 1832SOL    HW116955   3.901   2.823   1.743  0.3631  1.9406  1.4578
 1832SOL    HW216956   4.002   2.777   1.647  0.9092  0.6804  0.3759
 1833SOL     OW16957   4.225   3.790   5.942 -0.0569 -0.0825  0.5591
 1833SOL    HW116958   4.269   3.854   5.998  0.4769  0.8219 -0.8969
 1833SOL    HW216959   4.262   3.713   5.986  0.5766 -0.2929 -0.3409
 1834SOL     OW16960   0.820   0.098   6.361  0.0457  0.2658  0.2230
 1834SOL    HW116961   0.799   0.166   6.297 -1.2979 -0.1702  0.1925
 1834SOL    HW216962   0.898   0.062   6.320  0.5218 -0.6370  1.8997
 1835SOL     OW16963   0.230   3.154  17.465  0.0805 -0.5751 -0.1063
 1835SOL    HW116964   0.136   3.138  17.464  0.2852 -1.7489 -1.1706
 1835SOL    HW216965   0.244   3.118  17.552 -3.5642 -1.9305 -0.1012
 1836SOL     OW16966   0.727   0.527  17.318  0.1775 -0.5345 -0.0240
 1836SOL    HW116967   0.767   0.510  17.232 -1.2811 -0.2378 -0.7566
 1836SOL    HW216968   0.768   0.611  17.341 -0.4174  0.3238 -2.0874
 1837SOL     OW16969   3.036   2.145   2.588  0.1389  0.6225  0.2945
 1837SOL    HW116970   3.128   2.123   2.605  0.4852  2.2941  0.5680
 1837SOL    HW216971   3.049   2.231   2.549 -1.7719  0.2755 -1.1383
 1838SOL     OW16972   0.932   2.389   4.602  0.8160  0.0693  0.0230
 1838SOL    HW116973   0.861   2.326   4.613 -0.0950  1.1814  0.4778
 1838SOL    HW216974   0.888   2.462   4.558  0.3733  0.5401  1.2560
 1839SOL     OW16975   3.679   2.434  13.396 -0.4460  0.1320  0.1003
 1839SOL    HW116976   3.627   2.469  13.323  2.8402 -0.2304 -2.4199
 1839SOL    HW216977   3.687   2.343  13.369 -1.4927 -0.2113  0.9321
 1840SOL     OW16978   4.075   2.708  15.083  0.4697  0.5650  0.1883
 1840SOL    HW116979   4.038   2.750  15.006  0.5533  0.7093  0.2275
 1840SOL    HW216980   3.997   2.701  15.137  1.0623 -0.2613  0.9466
 1841SOL     OW16981   0.830   3.007   2.878  0.3198  0.0157  0.3311
 1841SOL    HW116982   0.778   3.063   2.936 -2.0706  0.1951 -1.9965
 1841SOL    HW216983   0.920   3.039   2.886 -0.2559  1.3352  1.6082
 1842SOL     OW16984   3.367   2.024   1.157  0.2860  0.5719 -0.4581
 1842SOL    HW116985   3.347   1.962   1.087  2.2042  1.8142 -2.0907
 1842SOL    HW216986   3.305   2.088   1.123 -1.3353 -0.5345  0.3444
 1843SOL     OW16987   4.171   4.025   4.201  0.0160  0.2305 -0.0552
 1843SOL    HW116988   4.253   3.984   4.171  1.5479  1.6112  2.2049
 1843SOL    HW216989   4.206   4.045   4.288  0.2905  1.3695 -0.4187
 1844SOL     OW16990   2.463   1.712  13.311 -0.2646 -0.2245  0.1643
 1844SOL    HW116991   2.408   1.742  13.384 -0.3889 -1.4276  0.5582
 1844SOL    HW216992   2.497   1.626  13.335  0.5309  0.1974  0.5488
 1845SOL     OW16993   4.673   3.646  10.872 -0.6687 -0.2513  0.0760
 1845SOL    HW116994   4.684   3.571  10.814 -1.4764  0.0942 -0.5300
 1845SOL    HW216995   4.630   3.611  10.950  0.4986 -0.6537  0.5473
 1846SOL     OW16996   1.939   4.220  17.565  0.0180 -0.2733 -0.2071
 1846SOL    HW116997   2.024   4.219  17.520  0.5888  2.8424  0.8321
 1846SOL    HW216998   1.956   4.174  17.647 -0.2883 -0.2709 -0.1432
 1847SOL     OW16999   4.024   2.245   3.567  0.1162  0.3863 -0.0702
 1847SOL    HW117000   4.088   2.227   3.498  0.3653 -0.2660  0.3327
 1847SOL    HW217001   3.962   2.176   3.544  0.5115  0.8809 -2.5783
 1848SOL     OW17002   4.145   0.671   7.325 -0.4428 -0.4527 -0.5282
 1848SOL    HW117003   4.206   0.637   7.259 -1.8967 -1.4381 -1.3404
 1848SOL    HW217004   4.171   0.624   7.405 -0.4989 -2.0890 -1.4712
 1849SOL     OW17005   1.021   1.333   6.634  0.1003  0.3359  0.5100
 1849SOL    HW117006   1.014   1.349   6.540 -0.8016  0.2428  0.5540
 1849SOL    HW217007   1.095   1.272   6.638  0.6994  0.9809 -0.8743
 1850SOL     OW17008   2.300   4.354   8.675  0.9505  0.4899  0.4907
 1850SOL    HW117009   2.351   4.430   8.702  1.4033 -0.1617  1.4644
 1850SOL    HW217010   2.209   4.379   8.660  1.4970 -0.1686 -3.7171
 1851SOL     OW17011   3.031   4.514   5.754 -0.1843  0.2851  0.2131
 1851SOL    HW117012   3.003   4.423   5.754  1.0175 -0.0635 -1.2522
 1851SOL    HW217013   2.966   4.552   5.815  1.2087  0.5228  1.5484
 1852SOL     OW17014   1.412   3.006   0.350  0.0370 -0.1107  0.0982
 1852SOL    HW117015   1.449   3.094   0.338  1.9199 -0.5208  2.9123
 1852SOL    HW217016   1.321   3.029   0.368  0.2350 -1.0302  2.2239
 1853SOL     OW17017   1.051   2.755   0.855 -0.5913 -0.0678  0.4812
 1853SOL    HW117018   1.025   2.843   0.827  1.2579  0.2481 -0.1999
 1853SOL    HW217019   1.130   2.746   0.802 -1.0068  0.3891 -0.2217
 1854SOL     OW17020   4.452   0.797  14.237 -0.7561 -0.6575 -0.0361
 1854SOL    HW117021   4.450   0.892  14.223 -0.2020 -0.6811 -0.2831
 1854SOL    HW217022   4.370   0.764  14.200 -2.2648  3.0462  0.0023
 1855SOL     OW17023   2.761   3.099   1.213 -0.0864  0.2129 -0.3198
 1855SOL    HW117024   2.844   3.067   1.249 -1.0018 -0.4615  1.2001
 1855SOL    HW217025   2.703   3.068   1.282  0.1788 -2.2364 -1.1929
 1856SOL     OW17026   0.123   0.269  11.469 -0.0938 -0.2571  0.0586
 1856SOL    HW117027   0.150   0.354  11.435  0.1069 -1.0275 -1.7039
 1856SOL    HW217028   0.210   0.230  11.474 -0.5138 -1.2307 -0.1944
 1857SOL     OW17029   1.237   0.015   1.149 -0.3426 -0.6731 -0.8825
 1857SOL    HW117030   1.256   0.068   1.072  0.6115  1.7368  1.0095
 1857SOL    HW217031   1.317   0.031   1.199 -1.0513 -0.6301  0.2564
 1858SOL     OW17032   1.250   3.717   5.481  0.3594  0.4110  0.0747
 1858SOL    HW117033   1.276   3.638   5.435 -0.3491  0.3630 -0.2400
 1858SOL    HW217034   1.310   3.699   5.553 -1.8412 -0.9559  1.5701
 1859SOL     OW17035   3.072   4.443   3.616  0.2927 -0.4652 -0.5192
 1859SOL    HW117036   3.089   4.537   3.615 -0.7388 -0.2517  1.4008
 1859SOL    HW217037   3.146   4.400   3.573  1.8458  0.9521  0.7380
 1860SOL     OW17038   1.781   2.483  12.024  0.7047  0.7869 -0.3508
 1860SOL    HW117039   1.823   2.421  12.083 -1.1977 -0.6099 -0.4661
 1860SOL    HW217040   1.754   2.551  12.085  1.8844  1.0239 -0.0882
 1861SOL     OW17041   1.262   3.616  10.023 -0.6918  0.1383  0.1666
 1861SOL    HW117042   1.296   3.545  10.076  2.1220  0.5134 -1.1272
 1861SOL    HW217043   1.322   3.613   9.949 -0.9319 -1.1318  0.0283
 1862SOL     OW17044   2.972   1.661  14.130 -0.0539  0.2686  0.0955
 1862SOL    HW117045   2.969   1.753  14.155 -1.6411 -0.5879  3.1775
 1862SOL    HW217046   2.883   1.630  14.146  0.1009  1.1809  2.8321
 1863SOL     OW17047   2.289   3.973   5.784 -0.0163  0.0314 -0.3296
 1863SOL    HW117048   2.223   3.915   5.822 -1.4805  1.9761  0.0742
 1863SOL    HW217049   2.363   3.946   5.839 -0.2965  1.0331  0.5383
 1864SOL     OW17050   3.545   3.747  15.467 -0.1540 -0.3894 -0.1275
 1864SOL    HW117051   3.588   3.668  15.434  2.0399  0.9485 -0.4741
 1864SOL    HW217052   3.560   3.803  15.391  3.2580  1.0848  1.6218
 1865SOL     OW17053   3.376   4.582   4.452  0.1254  0.2526 -0.3289
 1865SOL    HW117054   3.470   4.593   4.460  0.1961 -1.0961  0.7932
 1865SOL    HW217055   3.365   4.504   4.398  3.4275  1.0394 -2.0907
 1866SOL     OW17056   0.983   1.057   2.905  0.0672 -0.6634 -0.0448
 1866SOL    HW117057   1.044   0.986   2.887 -0.0190 -0.4095 -1.3725
 1866SOL    HW217058   1.034   1.120   2.956  0.1054 -1.0124  0.3430
 1867SOL     OW17059   2.102   3.818   7.431  0.1990  0.8900 -1.0315
 1867SOL    HW117060   2.078   3.907   7.455  2.1677  0.5631  2.1952
 1867SOL    HW217061   2.194   3.841   7.421  0.3031  0.8233 -0.2573
 1868SOL     OW17062   0.668   2.668  16.131  0.0459  0.3000  0.1011
 1868SOL    HW117063   0.671   2.758  16.099  0.5817 -0.1282 -1.0697
 1868SOL    HW217064   0.690   2.632  16.045  1.7619  1.0456  0.2337
 1869SOL     OW17065   2.590   0.510  15.725  0.2185 -0.2330 -0.3644
 1869SOL    HW117066   2.504   0.543  15.697 -0.9473 -0.4978  2.8870
 1869SOL    HW217067   2.592   0.431  15.671  1.5696 -0.3239 -0.1784
 1870SOL     OW17068   3.027   1.475   7.761 -0.1736 -0.7204 -0.5187
 1870SOL    HW117069   2.955   1.412   7.753 -0.6670 -0.5899  2.9714
 1870SOL    HW217070   2.998   1.546   7.704 -1.1671 -1.2606 -0.6834
 1871SOL     OW17071   2.518   3.296   8.487  0.0959  0.2673 -0.0280
 1871SOL    HW117072   2.529   3.327   8.398 -2.5084  0.0477 -0.4115
 1871SOL    HW217073   2.498   3.374   8.539  0.3048  0.0095  0.4426
 1872SOL     OW17074   3.744   3.457   6.394 -0.1597  0.1279 -0.4888
 1872SOL    HW117075   3.679   3.524   6.414  0.8682  1.1395 -0.5134
 1872SOL    HW217076   3.803   3.502   6.334  0.2873 -0.2232 -0.3133
 1873SOL     OW17077   1.227   1.391  15.520  0.3480  0.2301  0.3703
 1873SOL    HW117078   1.245   1.357  15.432  0.2044  0.3058  0.3112
 1873SOL    HW217079   1.131   1.393  15.522  0.2459 -1.6128 -2.0671
 1874SOL     OW17080   3.717   3.436   7.015  1.0960 -0.0189  0.4508
 1874SOL    HW117081   3.650   3.373   7.043  0.6173 -0.2940 -1.2757
 1874SOL    HW217082   3.701   3.422   6.922  1.2503 -1.1502  0.5989
 1875SOL     OW17083   2.994   1.671   6.813  0.0416  0.0858 -0.3976
 1875SOL    HW117084   2.951   1.585   6.811 -1.1241  0.6468  0.3643
 1875SOL    HW217085   2.936   1.711   6.877  1.1477  0.7101  0.2022
 1876SOL     OW17086   1.477   0.041   3.642 -0.5437 -0.4225  0.7345
 1876SOL    HW117087   1.391   0.083   3.641 -1.2074 -1.7547  2.5090
 1876SOL    HW217088   1.453   4.679   3.605  0.3803  0.3702 -1.7015
 1877SOL     OW17089   0.470   1.378   3.762  0.4114  0.2792  0.7915
 1877SOL    HW117090   0.478   1.473   3.763  2.8934  0.0846 -0.1773
 1877SOL    HW217091   0.463   1.353   3.669  0.0689 -2.3066  1.5234
 1878SOL     OW17092   0.741   2.070  10.458 -0.2667  0.1689 -0.1949
 1878SOL    HW117093   0.748   2.159  10.423 -1.5899  0.4091  0.1452
 1878SOL    HW217094   0.813   2.025  10.414  0.4321 -0.8210  1.9660
 1879SOL     OW17095   3.059   3.303   8.162 -0.2508  0.3401  0.2432
 1879SOL    HW117096   3.116   3.348   8.099  3.1409 -1.4961  2.0058
 1879SOL    HW217097   3.117   3.253   8.220 -0.6727 -1.1871 -0.6774
 1880SOL     OW17098   3.195   2.397   5.983 -0.0973  0.6952 -0.5697
 1880SOL    HW117099   3.121   2.444   6.021 -1.4964 -0.1752 -2.2218
 1880SOL    HW217100   3.211   2.445   5.902 -0.7313  0.6123 -0.7440
 1881SOL     OW17101   1.291   4.306   6.106 -0.1508  0.4834  0.1626
 1881SOL    HW117102   1.288   4.353   6.189 -0.6730 -0.0320  0.4286
 1881SOL    HW217103   1.327   4.220   6.128  0.0558  0.1004 -1.6685
 1882SOL     OW17104   3.714   2.272   7.436  0.2717 -0.1113  0.3542
 1882SOL    HW117105   3.702   2.179   7.456 -1.2018 -0.5305 -2.5378
 1882SOL    HW217106   3.756   2.289   7.520 -0.5713  0.5954  0.6358
 1883SOL     OW17107   4.099   4.266  16.446 -0.1809 -0.2876  0.0933
 1883SOL    HW117108   4.140   4.203  16.387  2.6812  0.8445  0.9138
 1883SOL    HW217109   4.094   4.345  16.392  0.2851 -1.7560 -2.1115
 1884SOL     OW17110   0.362   3.484   7.367  0.1778  0.1243 -0.0121
 1884SOL    HW117111   0.391   3.518   7.282  2.0409  1.0517  1.0023
 1884SOL    HW217112   0.295   3.420   7.343  1.1394 -1.2690  1.0235
 1885SOL     OW17113   3.828   3.495   8.074  0.3869 -0.2414 -0.1215
 1885SOL    HW117114   3.812   3.400   8.079 -0.3944 -0.1165 -0.2496
 1885SOL    HW217115   3.886   3.497   7.998 -0.7308 -0.9004 -0.9942
 1886SOL     OW17116   2.712   0.025   9.849  0.4471  0.0197 -0.6450
 1886SOL    HW117117   2.730   4.697   9.928  0.9820  1.2212  0.0074
 1886SOL    HW217118   2.785   4.722   9.793  0.9984 -0.7224  0.4037
 1887SOL     OW17119   2.563   2.560   4.214  0.2989  0.0623  0.4932
 1887SOL    HW117120   2.591   2.494   4.278 -1.0675  0.1064  1.1237
 1887SOL    HW217121   2.625   2.533   4.145  0.5859  0.1511  0.7150
 1888SOL     OW17122   1.993   4.460   7.510 -0.0536 -0.1790  0.3791
 1888SOL    HW117123   2.050   4.536   7.518 -1.3730  1.0178 -1.7330
 1888SOL    HW217124   1.998   4.410   7.592 -0.6048 -1.0637 -0.1234
 1889SOL     OW17125   4.671   4.616   3.636  0.4575 -0.6465 -0.0292
 1889SOL    HW117126   4.678   4.647   3.546  0.6032  2.4118  1.0562
 1889SOL    HW217127   4.587   4.655   3.663  0.7904 -0.0585  0.1500
 1890SOL     OW17128   4.050   1.430  10.558 -0.1768  0.0124  0.0196
 1890SOL    HW117129   4.040   1.444  10.652  3.1193 -0.7573  0.4647
 1890SOL    HW217130   4.110   1.500  10.534  1.0859 -1.1599 -0.1984
 1891SOL     OW17131   4.247   1.058   6.572 -0.3647  0.4995 -0.2830
 1891SOL    HW117132   4.179   1.001   6.535 -0.4976  0.6652 -0.2946
 1891SOL    HW217133   4.323   1.006   6.547  1.2540  2.1473  1.3002
 1892SOL     OW17134   3.781   3.123   0.931  0.4451 -0.1045 -1.1925
 1892SOL    HW117135   3.710   3.060   0.920  0.7788 -0.8472  0.9554
 1892SOL    HW217136   3.811   3.106   1.020 -0.8748  2.7988 -0.1847
 1893SOL     OW17137   4.377   3.477   8.603  0.4482 -0.0601  0.2794
 1893SOL    HW117138   4.387   3.420   8.680  1.8540 -2.0351 -1.3520
 1893SOL    HW217139   4.443   3.546   8.607 -2.6492  2.7786  2.1272
 1894SOL     OW17140   1.575   2.570   6.591 -0.3426  0.6623  0.1600
 1894SOL    HW117141   1.514   2.579   6.663  1.2555 -0.4352  1.6612
 1894SOL    HW217142   1.519   2.591   6.516  0.2680  0.5010 -0.3396
 1895SOL     OW17143   1.825   3.336   1.148  0.2079 -0.5910  0.1430
 1895SOL    HW117144   1.861   3.346   1.236  0.0781 -0.3597  0.1702
 1895SOL    HW217145   1.752   3.276   1.162 -0.8924  0.8281  0.5307
 1896SOL     OW17146   0.622   2.164  12.470 -0.0432 -0.0208 -0.2933
 1896SOL    HW117147   0.552   2.228  12.485 -1.2288 -1.7161  1.3962
 1896SOL    HW217148   0.592   2.086  12.517 -0.8121 -0.8191 -2.1247
 1897SOL     OW17149   1.251   4.138   1.435 -0.1607 -0.4134  0.8201
 1897SOL    HW117150   1.183   4.090   1.388  0.5616 -0.0107 -0.6252
 1897SOL    HW217151   1.295   4.187   1.366  0.2858 -0.4794  1.0573
 1898SOL     OW17152   0.012   1.232  16.578  0.3865  0.0475  0.3160
 1898SOL    HW117153   4.651   1.274  16.600 -0.1003 -1.2076  0.8466
 1898SOL    HW217154   4.702   1.151  16.540 -0.9197  2.4322 -3.6499
 1899SOL     OW17155   1.398   2.098   1.157 -0.1662 -0.6576  0.5142
 1899SOL    HW117156   1.420   2.158   1.086 -0.8475  1.2878  1.9574
 1899SOL    HW217157   1.434   2.143   1.234  1.0624 -1.7592  0.5876
 1900SOL     OW17158   0.433   2.776  17.690 -0.3870  0.2667  0.0062
 1900SOL    HW117159   0.421   2.821   0.080 -0.7334 -0.7575  0.5144
 1900SOL    HW217160   0.361   2.806  17.635  0.8678  0.8774 -1.2921
 1901SOL     OW17161   2.506   1.925   4.174 -0.1593 -0.4951  0.2285
 1901SOL    HW117162   2.544   1.901   4.089  0.2224 -0.6603  0.4476
 1901SOL    HW217163   2.485   2.018   4.163  2.4201  0.2925  2.0447
 1902SOL     OW17164   1.630   1.752  12.775 -0.2450 -0.1455 -0.5691
 1902SOL    HW117165   1.616   1.820  12.709  3.5285 -0.2017 -1.4086
 1902SOL    HW217166   1.596   1.807  12.846  0.8234  0.7574 -0.7650
 1903SOL     OW17167   3.105   1.080   6.016 -0.0055 -0.4345 -0.4099
 1903SOL    HW117168   3.062   1.022   5.952 -1.7876 -0.2638  0.6269
 1903SOL    HW217169   3.080   1.168   5.988 -1.7844 -0.8217 -0.0465
 1904SOL     OW17170   2.951   1.724   7.655 -0.8756  0.3058  0.0602
 1904SOL    HW117171   2.884   1.754   7.594 -1.6417 -1.5187 -0.0105
 1904SOL    HW217172   2.967   1.804   7.704 -0.2653  0.0138  0.3337
 1905SOL     OW17173   0.901   4.611   2.590  0.5377  0.3195  0.5897
 1905SOL    HW117174   0.973   4.669   2.613  0.6005  0.7213 -0.6416
 1905SOL    HW217175   0.914   4.549   2.662  0.3129  0.0782  0.4258
 1906SOL     OW17176   1.022   0.980   3.391  0.2397 -0.6211 -0.1235
 1906SOL    HW117177   1.017   0.996   3.486 -0.3728 -0.7947 -0.1225
 1906SOL    HW217178   0.957   1.040   3.354 -0.7637 -0.4625  1.8381
 1907SOL     OW17179   0.007   0.944   8.120  0.3458 -0.2309  0.0961
 1907SOL    HW117180   0.053   0.860   8.125 -2.3946 -1.8222 -1.6182
 1907SOL    HW217181   4.645   0.922   8.082 -0.0108  1.3542 -0.0156
 1908SOL     OW17182   3.472   1.493  14.625 -0.1515  0.4196  0.0579
 1908SOL    HW117183   3.563   1.471  14.605 -0.4125  1.5735 -2.4227
 1908SOL    HW217184   3.428   1.448  14.553  0.4048  1.4692 -0.9320
 1909SOL     OW17185   2.589   1.552   7.049 -0.2272  0.6686 -0.3439
 1909SOL    HW117186   2.600   1.484   6.983 -0.1179  1.7407 -1.4350
 1909SOL    HW217187   2.609   1.630   6.997  1.0950 -0.7980 -2.0131
 1910SOL     OW17188   4.141   0.681   2.427 -0.1046  0.1829  0.4484
 1910SOL    HW117189   4.068   0.640   2.381  0.0946  0.2696  0.0636
 1910SOL    HW217190   4.218   0.653   2.377  0.0158 -0.3523  0.9249
 1911SOL     OW17191   1.391   0.972   3.125 -0.4950 -0.2675  0.8241
 1911SOL    HW117192   1.397   0.988   3.219 -1.2347  1.6666  0.5434
 1911SOL    HW217193   1.479   0.937   3.112 -0.3269  0.3527  0.3047
 1912SOL     OW17194   1.347   3.675  17.521  0.2522  0.1401  0.8039
 1912SOL    HW117195   1.415   3.711  17.578  1.2882 -0.9920  0.2990
 1912SOL    HW217196   1.325   3.605  17.582  0.6409  1.2019  2.1459
 1913SOL     OW17197   2.123   0.430   1.216 -0.1036 -0.0392 -0.4012
 1913SOL    HW117198   2.076   0.398   1.138  1.6605 -1.6543 -0.8050
 1913SOL    HW217199   2.055   0.480   1.261 -0.4207  1.2003 -2.2289
 1914SOL     OW17200   4.483   4.638   4.643 -0.2144  0.0076 -0.1621
 1914SOL    HW117201   4.451   4.655   4.554  0.8978 -3.7007 -1.2426
 1914SOL    HW217202   4.564   4.589   4.627 -0.3171 -0.4304  0.6914
 1915SOL     OW17203   2.045   2.282   3.915 -0.0356  0.2375  0.4547
 1915SOL    HW117204   2.028   2.356   3.857  1.0964 -0.5994 -0.9470
 1915SOL    HW217205   2.137   2.289   3.937  0.3196 -0.7834 -0.6908
 1916SOL     OW17206   4.187   1.836   6.358  0.2639  0.5525  0.2296
 1916SOL    HW117207   4.201   1.785   6.278 -2.1097  0.8754 -0.3829
 1916SOL    HW217208   4.270   1.884   6.360  0.7922 -0.4225  1.4687
 1917SOL     OW17209   3.769   1.260   8.367 -0.6198  0.0638  0.2661
 1917SOL    HW117210   3.816   1.187   8.407  0.3618  0.1258 -0.7947
 1917SOL    HW217211   3.679   1.228   8.375 -0.0016 -0.9464  3.2607
 1918SOL     OW17212   1.534   4.379   8.941 -0.2154 -0.3738 -0.5871
 1918SOL    HW117213   1.564   4.443   9.006 -2.1455 -1.3361  1.2282
 1918SOL    HW217214   1.508   4.307   8.997 -1.8222  0.9505  0.3692
 1919SOL     OW17215   0.806   3.132  14.515  0.5641 -0.3190 -0.3164
 1919SOL    HW117216   0.847   3.060  14.562 -0.0000  0.2675  1.0699
 1919SOL    HW217217   0.830   3.207  14.570 -2.4771 -0.5307  1.2697
 1920SOL     OW17218   1.302   3.230   6.469  0.0869 -0.1449 -0.0256
 1920SOL    HW117219   1.255   3.288   6.410 -3.2691 -1.5068  1.2933
 1920SOL    HW217220   1.282   3.145   6.429 -0.6083  0.8574 -1.7956
 1921SOL     OW17221   2.725   2.268   4.782 -0.4612  0.1805  0.5850
 1921SOL    HW117222   2.700   2.212   4.855 -0.2019  0.6576  1.0483
 1921SOL    HW217223   2.672   2.347   4.794  1.8279  1.5158  1.9104
 1922SOL     OW17224   0.756   2.630   7.456  0.4603  0.3909  0.0994
 1922SOL    HW117225   0.800   2.699   7.506 -0.3431  0.0204  1.3075
 1922SOL    HW217226   0.664   2.649   7.475  0.1705 -1.3680  0.4297
 1923SOL     OW17227   3.885   1.124   2.600  0.4710 -0.2436  0.1908
 1923SOL    HW117228   3.953   1.143   2.535 -1.4426  0.5921 -1.5598
 1923SOL    HW217229   3.929   1.047   2.638 -0.5517 -0.9028  0.0267
 1924SOL     OW17230   3.967   3.647   5.929 -0.0367  0.0458  0.1715
 1924SOL    HW117231   4.038   3.709   5.912 -0.2920  0.6003  1.1158
 1924SOL    HW217232   3.890   3.701   5.910  1.5058  1.3778 -2.3158
 1925SOL     OW17233   1.891   4.670  11.933  0.3564 -0.2580  0.0306
 1925SOL    HW117234   1.918   0.036  11.913 -0.7449 -0.0797 -0.6697
 1925SOL    HW217235   1.841   4.649  11.854 -0.5584 -0.2144  0.5923
 1926SOL     OW17236   4.072   0.934  16.649  0.0176  0.4524 -0.1424
 1926SOL    HW117237   4.062   1.001  16.717 -0.5419 -0.4612  0.6872
 1926SOL    HW217238   3.990   0.943  16.601  1.4047 -1.6777 -2.8929
 1927SOL     OW17239   4.368   0.224   5.609  0.0080  0.6027  0.1581
 1927SOL    HW117240   4.421   0.270   5.675 -0.9071 -1.4836  2.3568
 1927SOL    HW217241   4.275   0.234   5.625 -0.3873 -1.4552 -0.8127
 1928SOL     OW17242   4.001   2.935   2.938 -0.3867 -0.0597 -0.5617
 1928SOL    HW117243   3.992   2.967   3.028 -0.5536  1.6607 -1.1905
 1928SOL    HW217244   4.010   3.019   2.894 -0.7112  0.4818  0.4071
 1929SOL     OW17245   3.384   3.373  16.766  0.2989 -0.4571 -0.9720
 1929SOL    HW117246   3.302   3.363  16.816  0.4157 -1.1970 -0.9359
 1929SOL    HW217247   3.449   3.396  16.833  1.6303  1.8800 -3.0942
 1930SOL     OW17248   0.225   1.538   3.597 -0.6240 -0.1751 -0.3267
 1930SOL    HW117249   0.206   1.602   3.528  1.3058  1.9278  1.0786
 1930SOL    HW217250   0.290   1.491   3.544 -0.0185 -1.9489  2.0083
 1931SOL     OW17251   0.992   1.531   3.391 -0.0859  0.0407 -0.6681
 1931SOL    HW117252   1.024   1.583   3.317  2.8763 -1.2434 -0.3145
 1931SOL    HW217253   0.970   1.444   3.357 -0.2181  0.0190 -0.5225
 1932SOL     OW17254   2.443   2.707  11.886 -0.6141 -0.0570  0.7343
 1932SOL    HW117255   2.376   2.759  11.841 -1.2594 -0.5543  1.1310
 1932SOL    HW217256   2.423   2.622  11.847 -1.3806  0.4406  0.0405
 1933SOL     OW17257   3.665   3.080   2.355  0.3533  0.0733  0.1907
 1933SOL    HW117258   3.582   3.125   2.341 -0.3373 -0.5774  2.1939
 1933SOL    HW217259   3.642   3.013   2.419 -0.1442  0.5573  0.5149
 1934SOL     OW17260   3.986   1.591  10.085 -0.2425 -0.3015  0.8427
 1934SOL    HW117261   3.994   1.557   9.996  0.4420 -2.6259  1.7993
 1934SOL    HW217262   4.015   1.517  10.138 -0.2598 -1.3670 -0.6342
 1935SOL     OW17263   0.721   1.260  12.988 -0.1961 -0.2651  0.1296
 1935SOL    HW117264   0.781   1.325  12.951  1.2649 -1.0229  1.1658
 1935SOL    HW217265   0.662   1.308  13.047  1.0150 -2.1725  2.9015
 1936SOL     OW17266   0.488   1.644   5.178  0.4513 -0.2290  0.5218
 1936SOL    HW117267   0.543   1.612   5.249  1.0597  0.9895  0.5890
 1936SOL    HW217268   0.408   1.681   5.217  0.4292  0.7805 -0.4677
 1937SOL     OW17269   0.014   1.149   3.272 -0.0861 -0.0492 -0.6289
 1937SOL    HW117270   0.030   1.222   3.333  1.8515 -0.7523 -0.2845
 1937SOL    HW217271   4.643   1.144   3.291 -0.2097  1.1779 -0.9091
 1938SOL     OW17272   2.311   0.179   7.772 -0.4031  0.1714  0.1534
 1938SOL    HW117273   2.350   0.133   7.846  0.5367 -0.5939 -0.8066
 1938SOL    HW217274   2.229   0.130   7.771 -0.3682  0.1197 -0.3178
 1939SOL     OW17275   1.133   0.810   3.153  0.3987  0.1734  1.0234
 1939SOL    HW117276   1.072   0.847   3.216  0.6874 -1.4601  2.2820
 1939SOL    HW217277   1.210   0.866   3.156  0.8060 -0.3592  0.6055
 1940SOL     OW17278   2.747   1.231   3.047  0.2605 -0.3075  0.3481
 1940SOL    HW117279   2.679   1.299   3.054 -1.0756 -1.4683 -1.2595
 1940SOL    HW217280   2.760   1.236   2.952 -0.2705  3.1829  0.4597
 1941SOL     OW17281   2.874   1.542  12.594  0.1420  0.1962  0.3749
 1941SOL    HW117282   2.898   1.634  12.585  0.9520  0.1726  2.2485
 1941SOL    HW217283   2.960   1.505  12.575  0.2194  1.8101 -2.3493
 1942SOL     OW17284   2.726   4.316   6.870 -0.1081 -0.3326 -0.1892
 1942SOL    HW117285   2.701   4.276   6.953 -1.7234 -0.7238 -0.8560
 1942SOL    HW217286   2.668   4.393   6.873 -0.9872 -0.9311 -1.8748
 1943SOL     OW17287   2.734   4.061  13.977  0.6478 -0.2442 -0.0043
 1943SOL    HW117288   2.714   4.040  13.886  1.6770 -0.5006 -0.1660
 1943SOL    HW217289   2.787   4.141  13.977  0.5215 -0.1648 -1.4583
 1944SOL     OW17290   1.541   4.171   9.124  0.0747  0.0471 -0.7356
 1944SOL    HW117291   1.505   4.132   9.203  0.6315 -0.1080 -0.5598
 1944SOL    HW217292   1.532   4.104   9.056 -2.3801  0.4851 -0.8391
 1945SOL     OW17293   0.877   4.219   1.033  0.1370  0.2489 -0.8586
 1945SOL    HW117294   0.791   4.179   1.026 -0.5259  1.4486  0.3750
 1945SOL    HW217295   0.858   4.307   1.002 -1.7537  0.4233  0.8253
 1946SOL     OW17296   3.764   4.043   2.905  0.3089 -0.2184  0.5551
 1946SOL    HW117297   3.729   4.114   2.958  2.6020  3.1931 -2.4829
 1946SOL    HW217298   3.828   4.001   2.961  1.2748 -1.5329 -1.5458
 1947SOL     OW17299   1.795   1.754   3.632  0.3092 -0.2953 -0.0900
 1947SOL    HW117300   1.709   1.795   3.639  2.0437  2.6964  3.5041
 1947SOL    HW217301   1.858   1.824   3.614  0.0518  0.2882  1.2856
 1948SOL     OW17302   3.827   1.826   1.868 -0.8227 -0.1569  0.2043
 1948SOL    HW117303   3.738   1.794   1.851 -0.1999 -0.6874 -2.1407
 1948SOL    HW217304   3.885   1.751   1.876 -2.8353 -1.7823 -0.3097
 1949SOL     OW17305   1.797   1.765   6.948 -0.2874  0.3665  0.3214
 1949SOL    HW117306   1.787   1.750   7.042 -0.0790 -0.0241  0.2779
 1949SOL    HW217307   1.744   1.694   6.912 -2.3908  1.3477  1.4746
 1950SOL     OW17308   2.425   2.082  13.617 -0.6741 -0.4996  0.8296
 1950SOL    HW117309   2.346   2.049  13.574 -3.0228  0.1311  4.6656
 1950SOL    HW217310   2.480   2.010  13.588 -0.9624  0.7783 -2.8972
 1951SOL     OW17311   4.381   2.008   2.469 -0.0385  0.3002 -0.3906
 1951SOL    HW117312   4.302   2.042   2.511 -1.4946 -2.4189 -0.9277
 1951SOL    HW217313   4.438   2.011   2.546 -0.9405 -0.4749  0.3217
 1952SOL     OW17314   2.763   4.051   7.173  0.5913  0.3261  0.1680
 1952SOL    HW117315   2.724   4.138   7.160 -0.1803 -0.2735 -1.5228
 1952SOL    HW217316   2.691   3.991   7.155  0.5012 -0.4074  2.9005
 1953SOL     OW17317   3.786   0.850  11.816  0.5343 -0.4939  0.1545
 1953SOL    HW117318   3.795   0.881  11.906 -1.3575 -1.2300  0.6114
 1953SOL    HW217319   3.841   0.903  11.759  0.1404 -0.3412 -0.0850
 1954SOL     OW17320   4.392   1.833   8.519 -0.7523  0.1570  0.3684
 1954SOL    HW117321   4.452   1.901   8.486 -0.0174 -0.6358  0.0607
 1954SOL    HW217322   4.362   1.797   8.436  2.6700 -0.4021 -0.6387
 1955SOL     OW17323   4.363   1.018   6.067  0.1966  0.2066  0.1355
 1955SOL    HW117324   4.380   1.038   5.975 -0.5259 -1.1583 -0.3080
 1955SOL    HW217325   4.271   1.044   6.074 -0.7105 -2.1590 -2.7926
 1956SOL     OW17326   2.379   2.162   9.776  0.0310  0.0741  0.0726
 1956SOL    HW117327   2.442   2.228   9.806  0.5949  0.4501 -1.9322
 1956SOL    HW217328   2.327   2.147   9.855 -1.4366  2.2186 -0.4807
 1957SOL     OW17329   3.064   2.135   3.270  0.0311  0.6511 -0.0500
 1957SOL    HW117330   3.078   2.070   3.201 -1.6803 -0.0805  0.2899
 1957SOL    HW217331   3.103   2.211   3.227 -2.6047  0.9594 -1.9351
 1958SOL     OW17332   0.270   2.215   4.845  0.0492  0.4247  0.8146
 1958SOL    HW117333   0.348   2.184   4.799 -0.4363  0.1783  0.1525
 1958SOL    HW217334   0.204   2.191   4.779 -0.4285 -1.5725  2.0128
 1959SOL     OW17335   4.024   4.387  11.703  0.5188  0.2864  0.3306
 1959SOL    HW117336   4.097   4.440  11.670 -0.0476 -1.4328 -3.7392
 1959SOL    HW217337   4.022   4.406  11.796  2.4589 -0.3890  0.5281
 1960SOL     OW17338   2.896   1.470  13.288  0.2561 -0.3324 -0.1387
 1960SOL    HW117339   2.892   1.420  13.207  1.5439 -0.3776 -0.1657
 1960SOL    HW217340   2.910   1.397  13.348 -1.0689  0.0967  0.6944
 1961SOL     OW17341   3.276   3.197   3.899  0.0898 -0.1954  0.1671
 1961SOL    HW117342   3.344   3.165   3.839  0.8246  1.8823 -0.1181
 1961SOL    HW217343   3.223   3.259   3.849 -0.0012  1.4733  2.3271
 1962SOL     OW17344   2.197   1.552   0.658 -0.1063  0.0972  0.4565
 1962SOL    HW117345   2.269   1.609   0.632  0.2763 -0.9218 -0.7323
 1962SOL    HW217346   2.122   1.597   0.619  1.9681  2.4635 -0.7550
 1963SOL     OW17347   0.956   3.057   2.560  0.1444  0.5733  0.4135
 1963SOL    HW117348   0.933   2.976   2.607 -1.5543  1.8599  1.8047
 1963SOL    HW217349   0.891   3.064   2.490 -0.7767  0.6434  1.2769
 1964SOL     OW17350   3.521   0.110  10.044 -0.3243  0.2089 -0.2303
 1964SOL    HW117351   3.586   0.057   9.998  0.0968  1.0344 -0.5715
 1964SOL    HW217352   3.577   0.168  10.095  2.5118 -1.7125 -1.1642
 1965SOL     OW17353   2.104   2.807   5.997 -0.2237 -0.1833 -0.2396
 1965SOL    HW117354   2.080   2.858   6.075  1.4016 -3.4155  2.4031
 1965SOL    HW217355   2.023   2.779   5.954 -0.2817  0.3213 -0.4594
 1966SOL     OW17356   1.427   3.536  11.903 -0.0556  0.0086  0.5181
 1966SOL    HW117357   1.506   3.532  11.849 -0.3361 -1.5268  0.2223
 1966SOL    HW217358   1.421   3.631  11.894  0.8699 -0.1730 -1.9788
 1967SOL     OW17359   0.935   4.311   3.499  0.5210  0.4556  0.4954
 1967SOL    HW117360   1.009   4.340   3.553  1.1813  1.4983 -0.9914
 1967SOL    HW217361   0.887   4.393   3.484  0.6703  0.7381  1.5202
 1968SOL     OW17362   2.015   4.267  12.531 -0.0523 -0.2677 -0.0180
 1968SOL    HW117363   1.933   4.235  12.492  1.3915 -2.1455 -1.5489
 1968SOL    HW217364   2.043   4.336  12.471  0.3147  0.7684  1.3426
 1969SOL     OW17365   2.922   0.334  13.284 -0.3437  0.2533 -0.3933
 1969SOL    HW117366   2.878   0.390  13.220  1.8067  1.4340 -0.8488
 1969SOL    HW217367   3.009   0.328  13.243 -0.0675  1.8781 -0.0641
 1970SOL     OW17368   0.322   3.918   9.396 -0.3075  0.3728  0.2384
 1970SOL    HW117369   0.405   3.889   9.357  1.0641  0.8961  2.7399
 1970SOL    HW217370   0.305   3.861   9.470  0.0937 -0.2126 -0.1242
 1971SOL     OW17371   2.604   4.198  10.344 -0.4665 -0.2315 -0.0617
 1971SOL    HW117372   2.523   4.180  10.392 -0.9998 -1.0426 -1.2595
 1971SOL    HW217373   2.640   4.271  10.394  1.3294 -1.2014  0.0475
 1972SOL     OW17374   4.488   3.279   0.863 -0.4663  0.1500 -0.3717
 1972SOL    HW117375   4.402   3.282   0.821 -0.0305 -2.3654 -1.4287
 1972SOL    HW217376   4.507   3.373   0.868  2.5859 -0.4062 -1.5610
 1973SOL     OW17377   1.050   3.944  16.684 -0.1497  0.5209  0.4462
 1973SOL    HW117378   1.141   3.961  16.658 -0.2196  1.5566  0.8689
 1973SOL    HW217379   1.063   3.942  16.779 -1.8482 -0.0182  0.6647
 1974SOL     OW17380   3.808   1.469   3.236 -0.1778 -0.3289  0.2951
 1974SOL    HW117381   3.862   1.400   3.273 -0.7218 -0.9139 -0.0049
 1974SOL    HW217382   3.867   1.502   3.169 -0.8952 -1.0152 -0.6686
 1975SOL     OW17383   0.811   3.378   8.260  0.2556 -0.4315  0.2441
 1975SOL    HW117384   0.906   3.368   8.269  0.1290 -1.4250  0.5437
 1975SOL    HW217385   0.809   3.470   8.285  1.9758 -0.6269  1.1586
 1976SOL     OW17386   3.984   1.785   4.680 -0.1913  0.0776 -0.0612
 1976SOL    HW117387   3.968   1.876   4.707  1.4521  0.5811 -0.8033
 1976SOL    HW217388   3.900   1.760   4.641 -1.8477  2.4623  1.9633
 1977SOL     OW17389   3.316   2.713   6.122  0.2672  0.4670 -0.0362
 1977SOL    HW117390   3.354   2.796   6.092  1.6669 -0.8798 -2.0478
 1977SOL    HW217391   3.345   2.657   6.050 -0.8584  1.4074 -1.2321
 1978SOL     OW17392   0.478   1.407   2.408 -0.2284  0.5154 -0.4829
 1978SOL    HW117393   0.417   1.480   2.401  1.1575  1.6709 -0.5543
 1978SOL    HW217394   0.482   1.374   2.318 -0.6147 -1.5376  0.2508
 1979SOL     OW17395   0.051   1.713   3.098 -0.0224 -0.5597 -0.5941
 1979SOL    HW117396   4.703   1.697   3.036 -1.2193 -0.1804  0.6878
 1979SOL    HW217397   0.073   1.806   3.094  1.4814 -0.8466  0.8006
 1980SOL     OW17398   2.778   1.089   3.502 -0.4491  0.3676  0.2988
 1980SOL    HW117399   2.818   1.109   3.417 -0.5451 -1.6371 -0.2257
 1980SOL    HW217400   2.687   1.116   3.488 -0.0669  1.0709 -0.8521
 1981SOL     OW17401   0.218   3.819   8.532 -0.0510 -0.0885 -0.3461
 1981SOL    HW117402   0.221   3.851   8.622  1.2211  0.9336 -0.7554
 1981SOL    HW217403   0.196   3.728   8.551 -1.2428  0.5751  1.4109
 1982SOL     OW17404   1.325   0.436  13.520  0.1551 -0.0865  0.0100
 1982SOL    HW117405   1.389   0.507  13.511 -0.2989  0.2289 -0.7592
 1982SOL    HW217406   1.357   0.395  13.600  2.7019 -0.5643 -1.2267
 1983SOL     OW17407   2.726   2.468   9.066  0.1536 -0.0870  0.0116
 1983SOL    HW117408   2.754   2.530   8.998 -0.4923  1.1621  0.8726
 1983SOL    HW217409   2.798   2.479   9.128  0.8369 -3.1168 -0.2825
 1984SOL     OW17410   0.440   1.986  11.578 -0.6813  0.2211 -0.2536
 1984SOL    HW117411   0.464   2.062  11.525  2.0791  0.1905  0.9594
 1984SOL    HW217412   0.526   1.948  11.598 -1.0327  0.3186  1.4642
 1985SOL     OW17413   1.932   3.880   1.911  0.4339 -0.2510  0.1031
 1985SOL    HW117414   1.928   3.786   1.930 -2.3626 -0.1787 -0.0775
 1985SOL    HW217415   1.943   3.886   1.816  0.0154  2.2763  0.1951
 1986SOL     OW17416   0.469   0.238   4.573 -0.1296  0.1617 -0.6463
 1986SOL    HW117417   0.542   0.200   4.621 -1.0765 -1.4742 -0.5123
 1986SOL    HW217418   0.432   0.163   4.526 -1.9069  1.6184 -1.5424
 1987SOL     OW17419   3.783   1.531   0.640  0.5478 -0.2646 -0.7243
 1987SOL    HW117420   3.791   1.441   0.671  1.8811  0.8967  2.2456
 1987SOL    HW217421   3.796   1.566   0.728  1.2628 -0.7808 -0.6208
 1988SOL     OW17422   0.137   3.879   1.494  0.3886 -0.5170 -0.2329
 1988SOL    HW117423   0.143   3.845   1.583 -0.9336  0.4367  0.2167
 1988SOL    HW217424   0.137   3.797   1.444 -1.6261 -0.5612 -0.1588
 1989SOL     OW17425   0.638   1.670   7.903 -0.7324  0.0712 -0.0382
 1989SOL    HW117426   0.661   1.763   7.906 -1.4114  0.2099  0.8221
 1989SOL    HW217427   0.678   1.646   7.819  0.3477  2.0779 -0.0929
 1990SOL     OW17428   0.828   3.891   4.551 -0.5937  0.0317  0.0720
 1990SOL    HW117429   0.844   3.985   4.557 -0.0927 -0.0515  0.0975
 1990SOL    HW217430   0.912   3.863   4.514 -0.2063 -0.9186  1.6472
 1991SOL     OW17431   3.706   2.170   8.803  0.4090  0.2569 -0.2135
 1991SOL    HW117432   3.758   2.157   8.725  0.7707  0.9927 -0.0956
 1991SOL    HW217433   3.671   2.084   8.825  0.7082  0.5046  1.2230
 1992SOL     OW17434   1.276   1.744   5.369  0.3922 -0.1599 -0.3094
 1992SOL    HW117435   1.268   1.831   5.329 -0.4013  0.2896  0.8281
 1992SOL    HW217436   1.340   1.697   5.316  0.5237 -1.0747  0.6605
 1993SOL     OW17437   2.207   2.124   5.627  0.8841  0.5488 -0.3309
 1993SOL    HW117438   2.232   2.050   5.572 -0.2506 -0.2124  0.1716
 1993SOL    HW217439   2.157   2.081   5.697  0.6828 -0.6251 -1.1962
 1994SOL     OW17440   3.253   4.011   7.922 -0.0276 -0.4089  0.4659
 1994SOL    HW117441   3.266   3.922   7.889  1.2334  1.2124 -3.3844
 1994SOL    HW217442   3.195   3.972   7.987 -1.1874  0.7748  0.1460
 1995SOL     OW17443   1.770   2.868   4.660  0.1041 -0.4263  0.1749
 1995SOL    HW117444   1.734   2.787   4.697  0.7687 -0.3344  1.0125
 1995SOL    HW217445   1.846   2.836   4.611 -0.6795 -2.2631  0.1302
 1996SOL     OW17446   0.595   2.814   7.274 -0.4364 -0.3562  0.0627
 1996SOL    HW117447   0.597   2.740   7.213  1.4209  0.6462 -1.1182
 1996SOL    HW217448   0.643   2.888   7.236 -0.6926  0.1134  0.6567
 1997SOL     OW17449   0.450   3.615   3.062  0.7699  0.5044 -0.0313
 1997SOL    HW117450   0.470   3.684   3.125  1.7260  1.1284 -1.0455
 1997SOL    HW217451   0.355   3.608   3.075  0.4555  2.3846 -1.3780
 1998SOL     OW17452   4.322   2.654  11.807 -0.3225 -0.3512  0.1260
 1998SOL    HW117453   4.370   2.588  11.757  0.5438  0.3400  0.0351
 1998SOL    HW217454   4.273   2.700  11.739  0.6630  0.1100 -0.2736
 1999SOL     OW17455   4.673   3.247   7.837 -0.5908 -0.1609  0.6706
 1999SOL    HW117456   4.670   3.276   7.928 -1.2535  0.5073  0.4286
 1999SOL    HW217457   4.670   3.152   7.850  2.4680 -0.0955  1.7071
 2000SOL     OW17458   4.717   0.359  16.256  0.2078 -0.4530  0.3324
 2000SOL    HW117459   0.003   0.409  16.337  1.9944 -2.2034  1.2433
 2000SOL    HW217460   4.713   0.272  16.297 -2.2956 -0.1385  0.7537
 2001SOL     OW17461   4.080   4.382  11.980  0.0978 -0.3679 -0.5341
 2001SOL    HW117462   4.172   4.359  11.964 -0.3646 -0.9571 -2.3485
 2001SOL    HW217463   4.095   4.465  12.027  1.4155 -0.0974 -1.4304
 2002SOL     OW17464   2.386   0.533   6.862  0.0865  0.0510  0.1267
 2002SOL    HW117465   2.443   0.557   6.935 -1.6323  1.6115  0.9599
 2002SOL    HW217466   2.329   0.464   6.895 -0.8971 -0.8116 -3.3803
 2003SOL     OW17467   0.086   0.373   6.813 -0.0981 -0.1731  0.2560
 2003SOL    HW117468   0.172   0.348   6.849  0.0003  0.6285  0.5958
 2003SOL    HW217469   0.052   0.424   6.887 -1.2303 -2.2219  1.1515
 2004SOL     OW17470   1.035   0.927   6.550  0.4317 -0.2728  0.2618
 2004SOL    HW117471   1.048   0.894   6.461  0.7082  0.3059  0.0900
 2004SOL    HW217472   1.115   0.898   6.593 -0.6744  1.1402  3.2939
 2005SOL     OW17473   3.305   0.101  12.698 -0.0059  0.4065  0.2827
 2005SOL    HW117474   3.394   0.102  12.732  0.8032 -0.3833 -1.7598
 2005SOL    HW217475   3.273   0.037  12.761 -2.6629 -0.2285 -1.7194
 2006SOL     OW17476   3.742   0.124   5.908 -0.3065 -0.2463 -0.4121
 2006SOL    HW117477   3.779   0.210   5.885 -2.1186  0.5605 -0.2608
 2006SOL    HW217478   3.660   0.159   5.943 -0.1696  0.5194 -0.8435
 2007SOL     OW17479   3.019   3.962   7.088 -0.5381 -0.0254 -0.6741
 2007SOL    HW117480   2.927   3.989   7.089 -1.2421 -2.3212 -1.9403
 2007SOL    HW217481   3.008   3.872   7.119 -0.0502 -0.1227 -0.7770
 2008SOL     OW17482   4.420   3.399  16.954 -0.2756  0.1798  0.1286
 2008SOL    HW117483   4.509   3.432  16.941  0.1779 -0.7131  0.9002
 2008SOL    HW217484   4.435   3.330  17.019  1.9312  0.4751 -0.0493
 2009SOL     OW17485   2.086   3.072   4.028 -0.2754 -0.8239  0.0145
 2009SOL    HW117486   2.031   3.033   3.959 -1.2573  0.7498 -0.0965
 2009SOL    HW217487   2.047   3.032   4.107  0.9694 -1.1435  0.4607
 2010SOL     OW17488   4.161   4.647   6.227  0.2201 -0.5611  0.1025
 2010SOL    HW117489   4.209   4.576   6.184 -1.9626 -0.8169 -1.8672
 2010SOL    HW217490   4.112   4.683   6.154  1.4524 -0.2320 -0.5614
 2011SOL     OW17491   1.422   3.123   6.199  0.3150  0.4878 -1.0223
 2011SOL    HW117492   1.427   3.212   6.164  0.8205  1.3786  1.2578
 2011SOL    HW217493   1.495   3.128   6.261 -1.5910 -2.5834  1.4635
 2012SOL     OW17494   3.241   1.392  17.173 -0.6551 -0.5153  0.0329
 2012SOL    HW117495   3.316   1.384  17.115  0.9071 -1.4562  2.1834
 2012SOL    HW217496   3.292   1.406  17.254  0.8933  2.7698 -1.5038
 2013SOL     OW17497   2.937   2.756   5.353  0.3170  0.3608 -0.0334
 2013SOL    HW117498   3.023   2.761   5.395  1.2899  1.3551 -2.1533
 2013SOL    HW217499   2.937   2.684   5.290  1.1998  1.6289 -1.5021
 2014SOL     OW17500   0.638   0.611  17.588  0.1462  0.3555 -0.5271
 2014SOL    HW117501   0.633   0.657  17.504 -1.5860 -2.1844 -1.8150
 2014SOL    HW217502   0.553   0.630  17.629 -0.8324 -0.3728 -2.2280
 2015SOL     OW17503   0.501   1.517   4.084 -0.2789  0.5261 -0.4150
 2015SOL    HW117504   0.526   1.500   4.175 -0.0443  3.0085 -0.0007
 2015SOL    HW217505   0.475   1.429   4.056  1.0305 -0.6787  2.1248
 2016SOL     OW17506   3.655   1.399   8.802 -0.3189 -0.3128 -0.1211
 2016SOL    HW117507   3.664   1.383   8.897 -1.1375 -0.3572 -0.0555
 2016SOL    HW217508   3.623   1.312   8.780 -0.3760 -0.4765  0.5995
 2017SOL     OW17509   2.366   0.079   8.068  0.1559 -0.3315 -0.3898
 2017SOL    HW117510   2.336   0.013   8.130  1.2683 -1.6933 -1.2915
 2017SOL    HW217511   2.408   0.141   8.127  0.1155  3.1722 -4.0084
 2018SOL     OW17512   3.862   3.050  16.543  0.1846 -0.1017  0.0523
 2018SOL    HW117513   3.794   3.080  16.482  2.7512  1.0446 -2.2739
 2018SOL    HW217514   3.912   2.997  16.480  0.3679  0.0838  0.0399
 2019SOL     OW17515   0.611   1.717   2.649 -0.0992  0.1293 -0.5335
 2019SOL    HW117516   0.556   1.779   2.697  0.8001 -0.2214  0.9439
 2019SOL    HW217517   0.677   1.782   2.626  1.2342 -0.7184  0.9423
 2020SOL     OW17518   4.617   0.015   3.385 -0.4037 -0.5278  0.1421
 2020SOL    HW117519   4.541   0.071   3.368 -0.6089 -0.9490 -0.3222
 2020SOL    HW217520   4.635   4.721   3.292 -1.3816  0.6475 -0.2587
 2021SOL     OW17521   4.249   4.650   4.798  0.5369  0.6658 -0.1625
 2021SOL    HW117522   4.182   4.591   4.765  1.8186 -0.0180 -1.5198
 2021SOL    HW217523   4.323   4.632   4.740  0.2808 -1.0384  0.0549
 2022SOL     OW17524   4.101   0.560   7.604  0.2877 -0.3036 -0.0085
 2022SOL    HW117525   4.088   0.483   7.659 -1.2073 -0.2492 -0.2963
 2022SOL    HW217526   4.009   0.583   7.593 -0.1562 -2.1259  0.0049
 2023SOL     OW17527   3.136   4.093   5.510  0.3369 -0.1764  0.0943
 2023SOL    HW117528   3.078   4.084   5.434 -2.0500  3.5299  1.4831
 2023SOL    HW217529   3.218   4.091   5.461 -0.8184  0.0744 -1.8622
 2024SOL     OW17530   1.214   4.094   8.799  0.8135 -0.2256  0.4081
 2024SOL    HW117531   1.304   4.102   8.829  1.1867 -1.2616 -0.4359
 2024SOL    HW217532   1.186   4.185   8.807 -0.4733 -0.4567 -1.3884
 2025SOL     OW17533   0.467   2.351   1.256  0.2290  0.4829  0.7095
 2025SOL    HW117534   0.445   2.353   1.163  1.9345  0.4753  0.2987
 2025SOL    HW217535   0.522   2.429   1.266 -0.9207  1.2014  1.3321
 2026SOL     OW17536   2.272   2.703   4.917  0.1832 -0.0059 -0.4931
 2026SOL    HW117537   2.246   2.779   4.865  0.1743 -0.6268 -1.4115
 2026SOL    HW217538   2.232   2.635   4.862 -1.2888 -2.0224  3.0877
 2027SOL     OW17539   2.935   0.933   5.850 -0.3060  0.5152  0.0959
 2027SOL    HW117540   2.974   0.848   5.828 -0.9226  0.1443  0.4312
 2027SOL    HW217541   2.846   0.904   5.872 -0.4455  0.7415 -0.1723
 2028SOL     OW17542   0.644   3.318   4.215  0.1855 -0.1987 -0.2286
 2028SOL    HW117543   0.642   3.224   4.201 -0.7369 -0.3358  0.7830
 2028SOL    HW217544   0.717   3.345   4.160 -0.1245  1.2287  0.0484
 2029SOL     OW17545   4.359   0.631  15.457 -0.7230  0.4951 -0.5210
 2029SOL    HW117546   4.368   0.537  15.439 -0.8680  0.6281 -1.2830
 2029SOL    HW217547   4.317   0.623  15.543  0.4946  0.8964  0.1142
 2030SOL     OW17548   2.621   0.175   3.230  0.3407  0.0679  0.0577
 2030SOL    HW117549   2.647   0.242   3.293 -0.1730 -0.1816  0.5315
 2030SOL    HW217550   2.653   0.215   3.149 -1.0590  2.1499  0.5348
 2031SOL     OW17551   3.936   2.817   2.126  0.0439 -0.6906 -0.0296
 2031SOL    HW117552   3.956   2.785   2.037  2.9814  0.4206  0.2321
 2031SOL    HW217553   3.940   2.735   2.175 -0.9553 -0.1755  0.9072
 2032SOL     OW17554   3.664   0.493   6.334 -0.0457  0.1300 -0.2877
 2032SOL    HW117555   3.638   0.484   6.243 -0.5441  1.9807 -0.3255
 2032SOL    HW217556   3.605   0.430   6.375  1.3223  0.4218  2.1584
 2033SOL     OW17557   1.881   3.628  12.740  0.1432  0.8739 -0.0232
 2033SOL    HW117558   1.916   3.540  12.724  0.3817  0.5038  2.5902
 2033SOL    HW217559   1.825   3.628  12.662  1.2500  0.8453 -0.8207
 2034SOL     OW17560   1.430   3.949   6.458 -0.0326  0.1321  0.3281
 2034SOL    HW117561   1.359   3.934   6.520 -0.4057 -0.2324 -0.1875
 2034SOL    HW217562   1.506   3.953   6.516 -0.1797 -0.9166  0.5937
 2035SOL     OW17563   3.651   0.232  11.879  1.0649  0.3586 -0.4632
 2035SOL    HW117564   3.667   0.280  11.960  0.9065 -1.1037  0.4285
 2035SOL    HW217565   3.718   0.164  11.887 -0.3790 -0.9597  0.3902
 2036SOL     OW17566   1.462   4.087   0.523  0.2344 -0.4902 -0.9168
 2036SOL    HW117567   1.489   4.106   0.612  0.7396 -3.1243 -0.5004
 2036SOL    HW217568   1.380   4.045   0.549  0.5139  0.1588  0.9553
 2037SOL     OW17569   3.589   3.454  15.410 -0.0708  0.2504 -0.3365
 2037SOL    HW117570   3.673   3.409  15.417  0.4029  0.8266 -2.5044
 2037SOL    HW217571   3.530   3.380  15.423  0.3207  0.3491  2.0778
 2038SOL     OW17572   1.757   2.679   3.987 -0.2703 -0.0144  0.5209
 2038SOL    HW117573   1.848   2.655   3.971 -0.4866 -1.1906  1.1014
 2038SOL    HW217574   1.760   2.768   4.022  0.0281  0.3828 -0.5105
 2039SOL     OW17575   2.952   0.032  10.922  0.2390  0.3408  0.0333
 2039SOL    HW117576   3.010   0.059  10.851 -1.3312  1.9343 -0.6343
 2039SOL    HW217577   2.874   0.072  10.883  0.9977  0.4468 -1.3571
 2040SOL     OW17578   2.309   4.351   9.047  0.0353 -0.8890 -0.8604
 2040SOL    HW117579   2.314   4.334   9.141 -1.7261 -0.4254 -0.6842
 2040SOL    HW217580   2.297   4.446   9.038  1.0273 -0.5425  1.6077
 2041SOL     OW17581   3.077   0.352  10.222  0.0073  0.3040  0.1482
 2041SOL    HW117582   3.161   0.388  10.195  0.8124  0.2461  2.5848
 2041SOL    HW217583   3.039   0.414  10.284 -1.3459  0.8445 -1.2256
 2042SOL     OW17584   1.746   3.952   2.842 -0.4210  0.1403 -0.0578
 2042SOL    HW117585   1.732   4.002   2.922 -1.8815 -0.8517  0.3034
 2042SOL    HW217586   1.780   3.868   2.874  1.0365  1.0559  0.7525
 2043SOL     OW17587   2.954   1.924  10.941 -0.6450 -0.4214 -0.9055
 2043SOL    HW117588   3.028   1.985  10.938 -0.3482 -0.7251  0.3969
 2043SOL    HW217589   2.986   1.862  10.875  0.0310 -2.6153  1.4879
 2044SOL     OW17590   4.471   1.133   5.040 -0.2807 -0.4713 -0.4944
 2044SOL    HW117591   4.441   1.122   4.949  0.7037 -1.5280 -0.7004
 2044SOL    HW217592   4.443   1.222   5.060  2.3704  0.7647 -2.2444
 2045SOL     OW17593   3.006   4.349  12.254  0.2414 -0.7179 -0.1426
 2045SOL    HW117594   2.992   4.443  12.255 -1.4136 -0.9837  1.9258
 2045SOL    HW217595   2.920   4.326  12.220 -0.2987  1.4333 -0.1621
 2046SOL     OW17596   0.625   2.916   1.597  0.0317  0.7244 -0.6920
 2046SOL    HW117597   0.706   2.909   1.547 -0.3031 -0.5938 -1.0842
 2046SOL    HW217598   0.641   2.873   1.681 -0.7897  2.0871  0.1676
 2047SOL     OW17599   1.453   4.350   4.001 -0.4490  0.1814 -0.4796
 2047SOL    HW117600   1.535   4.351   4.050 -0.8187 -0.8627  0.1593
 2047SOL    HW217601   1.419   4.425   4.050 -0.8306 -0.0464 -0.3991
 2048SOL     OW17602   0.739   1.324  15.743  0.0018 -0.0369 -0.2641
 2048SOL    HW117603   0.719   1.415  15.766 -0.6058  0.0480 -1.1070
 2048SOL    HW217604   0.760   1.289  15.829 -0.8935  0.9718  0.3637
 2049SOL     OW17605   4.042   2.559   3.081  0.2314  0.3307 -0.1867
 2049SOL    HW117606   4.100   2.503   3.131  0.9649  1.7507  0.5550
 2049SOL    HW217607   4.072   2.530   2.995  0.2650 -0.3729  0.0664
 2050SOL     OW17608   2.201   1.317   7.416  0.0550 -0.6193  0.1309
 2050SOL    HW117609   2.260   1.298   7.343  0.6851  0.8773  0.2579
 2050SOL    HW217610   2.145   1.384   7.377  0.2260 -0.6382 -0.1464
 2051SOL     OW17611   3.071   4.469  17.075  0.6612  0.2078  0.6225
 2051SOL    HW117612   3.035   4.483  16.988  1.4127 -2.1120 -0.0561
 2051SOL    HW217613   3.025   4.520  17.141  0.2279  0.6267  0.0007
 2052SOL     OW17614   3.844   2.852   3.624 -0.4565 -0.1692 -0.3979
 2052SOL    HW117615   3.780   2.806   3.678 -1.3206  1.8690  0.3296
 2052SOL    HW217616   3.920   2.833   3.678 -0.3572  0.2446 -0.3943
 2053SOL     OW17617   4.527   1.943  11.637 -0.1107 -0.7158  0.2887
 2053SOL    HW117618   4.508   1.854  11.664  1.3966 -1.0469  0.2437
 2053SOL    HW217619   4.586   1.971  11.707  0.3586  0.8793 -0.7311
 2054SOL     OW17620   2.174   1.881   5.787 -0.3101 -0.0398 -0.0077
 2054SOL    HW117621   2.227   1.803   5.805 -1.1160 -0.6313 -0.1757
 2054SOL    HW217622   2.121   1.901   5.864 -2.5499 -0.7371 -1.3676
 2055SOL     OW17623   0.299   3.813   4.737 -0.0694  0.0586 -0.3929
 2055SOL    HW117624   0.325   3.729   4.699 -1.0250 -0.4454  0.0596
 2055SOL    HW217625   0.380   3.863   4.736 -0.5534  0.8361 -1.3730
 2056SOL     OW17626   4.203   2.720   1.954 -0.0146  0.3092  0.4386
 2056SOL    HW117627   4.117   2.693   1.921 -0.2277 -0.6227  1.7701
 2056SOL    HW217628   4.252   2.638   1.955 -0.6849 -0.1385 -2.5496
 2057SOL     OW17629   3.100   1.809  16.763  0.3688 -0.4836 -0.5420
 2057SOL    HW117630   3.178   1.769  16.800 -0.4632  0.1001  1.8501
 2057SOL    HW217631   3.033   1.768  16.819  1.8368 -0.4593  1.2176
 2058SOL     OW17632   3.366   4.090  14.357 -0.3255  0.6018 -0.6868
 2058SOL    HW117633   3.432   4.020  14.357 -0.1107  0.7973 -2.8622
 2058SOL    HW217634   3.292   4.036  14.329 -1.6563  0.5406  3.0175
 2059SOL     OW17635   0.234   1.829  15.959 -0.3893  0.3111  0.5505
 2059SOL    HW117636   0.143   1.857  15.949 -0.0440  1.1304 -0.3422
 2059SOL    HW217637   0.241   1.841  16.053 -1.4461 -1.9656  0.9118
 2060SOL     OW17638   4.629   0.463  12.013 -0.0225  0.1297 -0.2661
 2060SOL    HW117639   4.575   0.506  12.079  1.6903  2.0067 -0.0852
 2060SOL    HW217640   4.580   0.381  12.012 -0.2105  0.2471 -0.5782
 2061SOL     OW17641   2.330   4.566   3.976  0.3379 -0.1532  0.2288
 2061SOL    HW117642   2.332   4.588   4.069 -1.6624 -1.5430  0.6225
 2061SOL    HW217643   2.405   4.609   3.935  1.0248 -1.7364 -0.1923
 2062SOL     OW17644   1.496   0.392   9.929  0.0324  0.0476 -0.1940
 2062SOL    HW117645   1.589   0.376   9.911  0.0278 -0.4568  0.2150
 2062SOL    HW217646   1.469   0.370   9.841 -1.7224  2.3684 -0.2411
 2063SOL     OW17647   0.536   1.795   1.610 -0.4981 -0.3501  0.1916
 2063SOL    HW117648   0.540   1.837   1.524 -1.2038 -0.6998 -0.0162
 2063SOL    HW217649   0.595   1.852   1.659  1.1330 -1.1109 -0.9099
 2064SOL     OW17650   1.913   3.234   6.972 -0.0439 -0.3102 -0.0672
 2064SOL    HW117651   2.008   3.240   6.983  0.0065 -3.4006  1.2946
 2064SOL    HW217652   1.892   3.142   6.958  3.0249 -0.9230 -0.6706
 2065SOL     OW17653   1.721   1.032   1.998 -0.1894 -0.4471  0.1354
 2065SOL    HW117654   1.660   1.022   1.926 -0.9937 -1.3156  0.9439
 2065SOL    HW217655   1.700   0.949   2.040  1.3192 -0.5573  0.6736
 2066SOL     OW17656   3.505   2.904   0.506 -0.0854  0.8861 -0.2775
 2066SOL    HW117657   3.573   2.882   0.442 -0.0569  1.0994 -0.3209
 2066SOL    HW217658   3.466   2.817   0.501 -0.5506  0.9604  2.1086
 2067SOL     OW17659   0.604   2.091   6.576  0.2156  0.0830  0.7067
 2067SOL    HW117660   0.603   2.181   6.610 -0.0771  0.1905  0.4205
 2067SOL    HW217661   0.512   2.093   6.550  0.5248  1.0401 -0.3158
 2068SOL     OW17662   0.705   3.392   2.886 -0.4954  0.0524 -0.7327
 2068SOL    HW117663   0.647   3.331   2.840  1.0275 -1.3662 -0.7443
 2068SOL    HW217664   0.769   3.425   2.824  1.4289 -1.9793  0.1858
 2069SOL     OW17665   3.649   2.034   7.517  0.1824 -0.4881 -0.2710
 2069SOL    HW117666   3.582   2.043   7.585  0.3172 -0.6695 -0.1128
 2069SOL    HW217667   3.608   1.959   7.473  0.2445  1.4745 -3.6540
 2070SOL     OW17668   3.114   3.493  15.405 -0.2330  0.0245 -0.5418
 2070SOL    HW117669   3.026   3.458  15.414  0.1860 -1.6011 -2.7351
 2070SOL    HW217670   3.101   3.577  15.362 -0.4725  0.1099 -0.3026
 2071SOL     OW17671   2.143   1.191  17.636 -0.8566 -0.0806 -0.6131
 2071SOL    HW117672   2.137   1.126   0.012 -1.2393  0.4949 -0.1095
 2071SOL    HW217673   2.237   1.203  17.624 -0.7596 -0.0792  0.1607
 2072SOL     OW17674   4.126   0.290   6.174 -0.0014 -0.5105 -0.3828
 2072SOL    HW117675   4.069   0.341   6.233  0.5780 -1.4819  1.0121
 2072SOL    HW217676   4.109   0.197   6.184  3.0016 -0.8068  2.0861
 2073SOL     OW17677   2.962   3.735  10.527  0.3871 -0.1732  0.3274
 2073SOL    HW117678   3.005   3.738  10.612  1.9537 -3.0026 -0.3740
 2073SOL    HW217679   2.954   3.641  10.510  0.5573 -0.2663  0.7638
 2074SOL     OW17680   1.684   1.379   8.301 -0.0289  0.5477  0.3290
 2074SOL    HW117681   1.729   1.367   8.384  0.3618 -0.8676 -0.0887
 2074SOL    HW217682   1.637   1.296   8.296  0.7788  0.1067  0.1305
 2075SOL     OW17683   2.856   1.314   7.561  0.5337  0.3563 -0.1657
 2075SOL    HW117684   2.786   1.308   7.495 -0.9267  2.6934  1.1850
 2075SOL    HW217685   2.839   1.237   7.615  0.5423  1.4569  1.4149
 2076SOL     OW17686   1.978   0.030   2.598 -0.7307 -0.3190 -0.5111
 2076SOL    HW117687   2.058   4.703   2.585  0.3602  1.3026 -0.0489
 2076SOL    HW217688   1.949   0.031   2.507 -1.9736 -0.4653 -0.1141
 2077SOL     OW17689   2.635   2.483   1.747  0.6780  0.0033 -0.3076
 2077SOL    HW117690   2.573   2.498   1.676 -0.9878 -0.6875  1.0009
 2077SOL    HW217691   2.605   2.393   1.765 -0.2793  0.1043 -1.4052
 2078SOL     OW17692   4.664   0.204  13.879  0.0729 -0.3220  0.2026
 2078SOL    HW117693   4.716   0.131  13.913 -1.5683 -1.2415  0.7520
 2078SOL    HW217694   4.659   0.195  13.784 -0.0849 -2.6281  0.4225
 2079SOL     OW17695   4.613   2.059   0.659 -0.4505  0.1740  0.3014
 2079SOL    HW117696   4.566   1.988   0.704 -2.6646  0.3596 -1.7144
 2079SOL    HW217697   4.660   2.107   0.727  1.0132 -1.9517  0.7774
 2080SOL     OW17698   0.370   3.649   5.433 -0.0467 -0.3411  0.0433
 2080SOL    HW117699   0.279   3.648   5.404  0.0552  1.6175 -0.3765
 2080SOL    HW217700   0.363   3.736   5.471  2.0849  0.5155 -1.4665
 2081SOL     OW17701   1.135   2.203   3.004 -0.0464 -0.0601 -0.2911
 2081SOL    HW117702   1.122   2.297   2.995 -1.7963 -0.2332  0.4080
 2081SOL    HW217703   1.156   2.198   3.097  0.4031 -2.9120 -0.5466
 2082SOL     OW17704   3.969   2.765   4.309  0.0553 -0.0152 -0.3733
 2082SOL    HW117705   4.014   2.690   4.272 -0.1628 -0.6557  0.6529
 2082SOL    HW217706   4.044   2.812   4.345 -0.9638  1.6536 -0.3878
 2083SOL     OW17707   0.763   3.820   4.807 -0.0635 -0.5390 -0.1150
 2083SOL    HW117708   0.771   3.842   4.714 -2.5032  0.7731 -0.0188
 2083SOL    HW217709   0.803   3.733   4.807 -1.5756 -1.2258 -1.3287
 2084SOL     OW17710   1.016   4.263  12.015  0.0794 -0.0683  0.3760
 2084SOL    HW117711   0.932   4.238  11.978  0.3118 -1.6099  0.8793
 2084SOL    HW217712   1.003   4.353  12.045  0.7600 -0.4500  1.8475
 2085SOL     OW17713   2.243   1.582   3.695  0.3546 -1.1005  0.7925
 2085SOL    HW117714   2.150   1.583   3.718 -0.0571 -0.3266 -0.9134
 2085SOL    HW217715   2.276   1.614   3.779  0.1620  1.5183 -0.1290
 2086SOL     OW17716   0.164   1.360   8.179  0.1145  0.2814  0.1296
 2086SOL    HW117717   0.115   1.422   8.125 -0.9159 -0.1655  0.5455
 2086SOL    HW217718   0.166   1.409   8.260 -0.4117  0.0439  0.2880
 2087SOL     OW17719   3.893   0.389   4.755 -0.0403 -0.0847  0.2272
 2087SOL    HW117720   3.846   0.319   4.711 -1.8504 -0.1123  2.2716
 2087SOL    HW217721   3.925   0.342   4.832 -2.5753 -1.9568  0.1163
 2088SOL     OW17722   4.667   3.520   0.654 -0.6001 -0.4899 -0.7005
 2088SOL    HW117723   4.703   3.586   0.713 -2.4995 -0.3814  0.3126
 2088SOL    HW217724   4.642   3.565   0.573  1.1260  1.1235 -0.3229
 2089SOL     OW17725   2.778   1.499   5.041  0.3125  0.3665  0.0503
 2089SOL    HW117726   2.863   1.485   5.083  1.1295  0.2941 -1.6243
 2089SOL    HW217727   2.796   1.575   4.985  0.9060 -0.1985 -0.5297
 2090SOL     OW17728   1.943   0.877   3.237  0.3819  0.7340 -0.0554
 2090SOL    HW117729   1.938   0.902   3.330  1.2496 -0.3973  0.3003
 2090SOL    HW217730   2.012   0.935   3.204  1.5694 -0.8717 -0.4060
 2091SOL     OW17731   0.200   2.427   4.400  0.4262 -0.2551  0.2979
 2091SOL    HW117732   0.270   2.414   4.463  0.3240  1.0518  0.6869
 2091SOL    HW217733   0.247   2.440   4.318  1.6050 -0.1479  0.9865
 2092SOL     OW17734   1.915   2.245  16.699  0.3446  0.4466 -0.0716
 2092SOL    HW117735   1.958   2.299  16.766  2.2677 -1.1718 -0.0041
 2092SOL    HW217736   1.860   2.186  16.750 -0.1939  1.1400  0.1633
 2093SOL     OW17737   3.558   0.494   2.705  0.0296 -0.2824  0.3359
 2093SOL    HW117738   3.645   0.506   2.666 -1.6465 -0.3833 -3.4159
 2093SOL    HW217739   3.510   0.561   2.657  3.9957 -0.0552 -3.3393
 2094SOL     OW17740   3.672   1.150   1.539  0.4410 -0.7769  0.2779
 2094SOL    HW117741   3.713   1.222   1.490  3.1877 -2.2267  0.4880
 2094SOL    HW217742   3.597   1.141   1.480  0.5747  0.7604 -0.1466
 2095SOL     OW17743   1.755   3.105   1.873 -0.2470  0.0642  0.9153
 2095SOL    HW117744   1.705   3.061   1.804 -3.8032  2.2398  2.0758
 2095SOL    HW217745   1.843   3.104   1.837 -1.7211  2.1198 -2.7340
 2096SOL     OW17746   0.549   4.261   6.674 -0.3828 -0.4171 -0.4913
 2096SOL    HW117747   0.475   4.301   6.719  0.9597 -0.2683  1.5598
 2096SOL    HW217748   0.597   4.343   6.662 -0.9898  0.1220  0.7325
 2097SOL     OW17749   4.540   1.350   5.286 -0.5015  0.1927  0.8360
 2097SOL    HW117750   4.622   1.310   5.316 -0.2061  0.5730  0.5231
 2097SOL    HW217751   4.569   1.386   5.202  0.5815 -0.8062  0.7764
 2098SOL     OW17752   2.235   4.576  13.531 -0.1810 -0.3370  0.5533
 2098SOL    HW117753   2.152   4.611  13.498  0.2810  0.3595  0.1283
 2098SOL    HW217754   2.275   4.535  13.454  0.1885 -0.8649  1.0305
 2099SOL     OW17755   0.369   0.589  10.547  0.4290 -0.2603 -0.2282
 2099SOL    HW117756   0.292   0.552  10.504 -0.7108  1.4455  0.3394
 2099SOL    HW217757   0.380   0.523  10.615  0.1108 -1.0472 -0.9362
 2100SOL     OW17758   1.418   0.353   5.836  0.2127  0.1426 -0.1993
 2100SOL    HW117759   1.365   0.282   5.800 -0.9894  0.3259  1.2616
 2100SOL    HW217760   1.497   0.300   5.848  1.4796  1.6464 -1.6646
 2101SOL     OW17761   0.269   4.311   5.156  0.5072 -0.2144 -0.0144
 2101SOL    HW117762   0.223   4.377   5.207  1.2678  0.9405 -0.8024
 2101SOL    HW217763   0.226   4.333   5.073  0.1154 -0.7652  0.0424
 2102SOL     OW17764   2.322   4.128   6.497 -0.2734  0.0638 -0.2566
 2102SOL    HW117765   2.229   4.104   6.505  0.3703 -1.9746  0.9703
 2102SOL    HW217766   2.339   4.085   6.413 -2.8579  2.2006 -1.9078
 2103SOL     OW17767   2.116   0.636   1.721 -0.6336  0.8529  0.0155
 2103SOL    HW117768   2.192   0.682   1.684  0.0180  1.4246  2.0446
 2103SOL    HW217769   2.036   0.643   1.668 -0.4002  0.1734 -0.4286
 2104SOL     OW17770   3.399   2.185   3.979  0.3021 -0.0179  0.0285
 2104SOL    HW117771   3.468   2.224   3.926  1.6226 -0.5508  1.3567
 2104SOL    HW217772   3.325   2.235   3.945  0.5626  1.0586  1.0393
 2105SOL     OW17773   4.345   3.836  11.395  0.0211 -0.4303 -0.1703
 2105SOL    HW117774   4.399   3.912  11.378  0.9898 -0.4539  2.8256
 2105SOL    HW217775   4.302   3.817  11.311  1.5579 -4.1173 -0.1330
 2106SOL     OW17776   2.043   1.294   0.358  1.2647  0.0036 -0.5817
 2106SOL    HW117777   1.985   1.307   0.284 -0.6850 -1.7335  0.6282
 2106SOL    HW217778   1.983   1.318   0.428  1.1818  0.6322 -0.8689
 2107SOL     OW17779   3.939   1.174   5.724 -0.8504  0.2845 -0.4942
 2107SOL    HW117780   3.847   1.162   5.699 -1.1693  1.0352  0.2733
 2107SOL    HW217781   3.988   1.111   5.673  0.8095  0.1853  1.2359
 2108SOL     OW17782   1.112   4.651  13.681 -0.3832  0.0298  0.3738
 2108SOL    HW117783   1.095   4.557  13.678 -0.7353  0.0723  1.1323
 2108SOL    HW217784   1.024   4.689  13.690 -0.3203 -0.2119  1.8707
 2109SOL     OW17785   3.285   3.363  13.103  0.0022  0.2405  0.6585
 2109SOL    HW117786   3.206   3.406  13.136 -1.1341 -0.4063 -1.1665
 2109SOL    HW217787   3.244   3.277  13.094 -2.3623  1.1853  2.3673
 2110SOL     OW17788   0.160   4.102  13.760 -0.2178 -1.0629 -0.6366
 2110SOL    HW117789   0.140   4.106  13.854  2.0954 -0.2352 -0.1923
 2110SOL    HW217790   0.170   4.007  13.751  0.3335 -1.0518 -0.1186
 2111SOL     OW17791   1.448   1.091   7.206 -0.2385 -0.1640  0.4286
 2111SOL    HW117792   1.436   1.145   7.128 -1.1596  0.2579  0.8690
 2111SOL    HW217793   1.399   1.144   7.269 -1.0061  1.9390 -1.9585
 2112SOL     OW17794   1.345   0.335   2.746 -0.0642 -0.2877  0.4670
 2112SOL    HW117795   1.437   0.362   2.745  0.0859 -0.7524  1.5764
 2112SOL    HW217796   1.346   0.297   2.659  1.4688 -1.7037  1.1097
 2113SOL     OW17797   1.809   4.609  15.990 -0.5165 -0.0548  0.0375
 2113SOL    HW117798   1.890   4.609  15.940  0.2719 -2.1703  1.3002
 2113SOL    HW217799   1.790   4.516  15.976  2.3865 -0.3525 -1.9739
 2114SOL     OW17800   3.846   4.179  12.298 -0.6647 -0.5430  0.0159
 2114SOL    HW117801   3.937   4.155  12.277 -0.1641 -0.0709  1.6011
 2114SOL    HW217802   3.814   4.208  12.213  1.1349  1.8150  0.1408
 2115SOL     OW17803   2.459   4.290   4.213 -0.3663 -0.4381  0.3315
 2115SOL    HW117804   2.520   4.328   4.149  1.6632 -2.4184  1.0835
 2115SOL    HW217805   2.429   4.366   4.262 -0.2598  0.9587 -1.7663
 2116SOL     OW17806   3.847   0.700  10.988  0.2355  0.2369 -0.0805
 2116SOL    HW117807   3.936   0.703  10.952 -0.2502 -1.5668 -1.4185
 2116SOL    HW217808   3.843   0.608  11.012  2.5531 -0.4883 -2.5258
 2117SOL     OW17809   2.991   1.910   2.737 -0.4958 -0.2300 -0.2272
 2117SOL    HW117810   3.029   1.993   2.765 -2.5330  0.5763  0.1089
 2117SOL    HW217811   3.011   1.892   2.645  1.8654 -0.1575  0.2747
 2118SOL     OW17812   2.378   4.079   4.714  0.2209  0.4818 -0.5323
 2118SOL    HW117813   2.321   4.040   4.648  2.8815 -1.0176 -1.9280
 2118SOL    HW217814   2.426   4.007   4.755  0.5361  2.2906  2.2662
 2119SOL     OW17815   3.064   3.257   4.994 -0.6054  0.2964  0.0895
 2119SOL    HW117816   2.992   3.294   5.045 -2.0244 -1.0717 -0.9079
 2119SOL    HW217817   3.123   3.332   4.998 -1.1936  0.8433 -1.3371
 2120SOL     OW17818   3.811   2.277   5.243  0.2005  0.1468  0.2050
 2120SOL    HW117819   3.843   2.274   5.333 -2.4659 -1.9302  1.0830
 2120SOL    HW217820   3.742   2.344   5.242  1.9222  1.9132  0.5349
 2121SOL     OW17821   4.179   3.019   7.171  0.1846 -0.5686  0.1330
 2121SOL    HW117822   4.209   2.933   7.200 -1.0784 -1.6569 -1.7646
 2121SOL    HW217823   4.118   3.055   7.235  1.1584 -1.2311  1.4257
 2122SOL     OW17824   4.235   4.424   3.890 -0.6712 -0.2114  0.6903
 2122SOL    HW117825   4.325   4.400   3.869  0.1672  2.6008  1.0800
 2122SOL    HW217826   4.252   4.476   3.969 -0.5019 -0.0440  0.5438
 2123SOL     OW17827   3.090   4.227  15.896  0.4063  0.5752 -0.4024
 2123SOL    HW117828   3.126   4.139  15.891  1.0496  0.8813 -1.1306
 2123SOL    HW217829   3.009   4.218  15.846  1.3886  2.2703 -2.3397
 2124SOL     OW17830   4.197   1.957   2.853  0.0697 -0.0838  0.5206
 2124SOL    HW117831   4.130   2.020   2.879  0.7952  0.5738  0.8045
 2124SOL    HW217832   4.151   1.908   2.786 -1.1717 -0.0171  1.3262
 2125SOL     OW17833   2.303   3.135   5.625 -0.6113 -0.5695  0.4150
 2125SOL    HW117834   2.263   3.208   5.577 -0.8877 -0.0951  1.3651
 2125SOL    HW217835   2.230   3.106   5.679  0.3700 -1.4248  1.2659
 2126SOL     OW17836   0.088   1.304  16.995  0.3515 -0.2786 -0.4431
 2126SOL    HW117837   0.054   1.369  16.934  1.6379  0.7416 -0.0551
 2126SOL    HW217838   0.068   1.221  16.951  1.4339  0.2965 -1.9861
 2127SOL     OW17839   1.888   0.548   4.656 -0.0012  0.4053 -0.1472
 2127SOL    HW117840   1.891   0.617   4.723  0.7796  1.6672 -1.4948
 2127SOL    HW217841   1.972   0.505   4.670  0.8171  1.8448 -0.6593
 2128SOL     OW17842   2.657   2.415   1.428  0.3471 -0.6657  0.1640
 2128SOL    HW117843   2.664   2.483   1.361  3.7936  0.2052  1.3906
 2128SOL    HW217844   2.569   2.434   1.459  1.2507  1.6009  1.3615
 2129SOL     OW17845   2.746   0.557   7.117 -0.1723  1.2067  0.1762
 2129SOL    HW117846   2.808   0.548   7.189 -1.0647 -0.3626  0.7518
 2129SOL    HW217847   2.811   0.564   7.047 -1.7566 -0.2327 -1.4489
 2130SOL     OW17848   1.632   1.490  12.710  0.8220 -0.4493  0.4139
 2130SOL    HW117849   1.620   1.581  12.736 -0.6041 -0.2475 -0.9025
 2130SOL    HW217850   1.593   1.493  12.623  2.2094  0.8892 -0.1354
 2131SOL     OW17851   0.323   0.102  16.601  0.1577  0.7050  0.0987
 2131SOL    HW117852   0.298   0.178  16.549 -2.6088  0.9933  1.8371
 2131SOL    HW217853   0.243   0.084  16.650  0.7055 -2.2469 -0.1021
 2132SOL     OW17854   4.375   2.341   0.888  0.1595 -0.3266  0.4703
 2132SOL    HW117855   4.347   2.260   0.930  1.2000 -0.7086  0.4177
 2132SOL    HW217856   4.460   2.363   0.926  0.9938  0.1311 -1.6277
 2133SOL     OW17857   0.417   0.955   8.123  0.7642  0.0863  0.5931
 2133SOL    HW117858   0.352   1.010   8.167 -2.3553 -1.9413 -1.4753
 2133SOL    HW217859   0.437   0.889   8.189 -0.6118 -0.0272  0.9045
 2134SOL     OW17860   4.082   2.631   1.624 -0.6507 -0.1223 -0.0494
 2134SOL    HW117861   4.020   2.586   1.566 -3.8600  1.5031  2.0936
 2134SOL    HW217862   4.159   2.575   1.618 -1.5155 -1.3821  0.6433
 2135SOL     OW17863   3.188   3.163  11.785  0.0239  0.1739  0.3993
 2135SOL    HW117864   3.198   3.143  11.878  2.3600  1.3668  0.4046
 2135SOL    HW217865   3.117   3.227  11.787  0.6401  0.9559 -2.0507
 2136SOL     OW17866   2.189   4.545   6.941 -0.4251 -0.4976 -0.0124
 2136SOL    HW117867   2.106   4.584   6.966 -0.2272 -0.4647  0.5968
 2136SOL    HW217868   2.216   4.608   6.874  2.3378  0.4324  1.9661
 2137SOL     OW17869   2.517   4.605   0.894  0.0691  0.3032 -0.1691
 2137SOL    HW117870   2.461   4.672   0.932 -0.1150  1.8665 -3.1945
 2137SOL    HW217871   2.592   4.654   0.861  0.4137  0.4187  0.7881
 2138SOL     OW17872   3.853   4.309  15.633  0.7319 -0.3838  0.4386
 2138SOL    HW117873   3.863   4.325  15.539 -2.9926 -0.0462  0.0893
 2138SOL    HW217874   3.779   4.250  15.644 -1.7059  2.2273 -1.9994
 2139SOL     OW17875   0.320   2.516   0.047 -0.5461  0.4482 -0.1697
 2139SOL    HW117876   0.276   2.504   0.131 -0.0709 -0.0642  0.0053
 2139SOL    HW217877   0.372   2.590   0.078  2.0719 -1.9542  1.1774
 2140SOL     OW17878   3.565   1.418   4.663 -0.5247  0.1946 -0.0059
 2140SOL    HW117879   3.507   1.353   4.623  0.3460 -0.8642  0.4441
 2140SOL    HW217880   3.558   1.399   4.757  3.8968 -1.9247 -0.1071
 2141SOL     OW17881   0.712   3.610   7.180  0.4556  0.2991  0.1826
 2141SOL    HW117882   0.780   3.668   7.145 -0.0138  1.9096  1.9244
 2141SOL    HW217883   0.636   3.668   7.183 -0.8172 -1.4885  2.3100
 2142SOL     OW17884   3.183   1.775   8.313  0.2961  1.1856 -0.3340
 2142SOL    HW117885   3.232   1.855   8.329  1.1130  0.8127 -0.9398
 2142SOL    HW217886   3.107   1.816   8.354 -0.1641 -0.0602  0.0722
 2143SOL     OW17887   1.989   1.832   4.925 -0.5735 -0.1918  0.1530
 2143SOL    HW117888   2.043   1.908   4.901  0.5072 -1.1224 -0.3731
 2143SOL    HW217889   2.054   1.773   4.962 -0.6585  0.9988  2.2027
 2144SOL     OW17890   3.537   2.353   5.806 -0.4596 -0.1761  0.3326
 2144SOL    HW117891   3.480   2.283   5.773  1.7381 -0.9692 -1.8429
 2144SOL    HW217892   3.613   2.298   5.827 -0.4220 -0.4908 -0.6327
 2145SOL     OW17893   3.879   3.875   3.084 -0.0625 -0.5303 -0.1782
 2145SOL    HW117894   3.880   3.887   3.179 -0.6574 -2.4741  0.0628
 2145SOL    HW217895   3.818   3.801   3.077 -1.0542  0.3608 -1.0022
 2146SOL     OW17896   4.525   2.119   1.802  0.0816 -0.0694  0.0791
 2146SOL    HW117897   4.459   2.087   1.863 -1.2868 -1.0116 -1.8721
 2146SOL    HW217898   4.582   2.042   1.805 -0.7450 -0.7177 -0.6472
 2147SOL     OW17899   1.024   4.546  15.083  0.1133 -0.2470  0.0046
 2147SOL    HW117900   0.973   4.572  15.159  0.7378  0.9555  0.0123
 2147SOL    HW217901   1.115   4.537  15.112 -0.1008 -0.7231  0.5268
 2148SOL     OW17902   4.641   3.651  12.460  0.5070  0.5377 -0.8650
 2148SOL    HW117903   4.580   3.708  12.506  0.0704  0.9479 -1.9375
 2148SOL    HW217904   4.621   3.667  12.367  0.1858 -0.6622 -1.0056
 2149SOL     OW17905   4.683   0.299   5.074  0.4570 -0.2913 -0.3622
 2149SOL    HW117906   4.647   0.258   4.995 -1.7897  0.4054  0.3119
 2149SOL    HW217907   4.600   0.338   5.102  0.7034 -2.9537  4.0972
 2150SOL     OW17908   2.741   3.942   1.518 -0.1388 -0.3700  0.4078
 2150SOL    HW117909   2.804   4.012   1.502 -1.0728 -0.0023 -1.6342
 2150SOL    HW217910   2.668   4.003   1.527  2.1293  2.2648  0.9187
 2151SOL     OW17911   2.017   2.274   9.311 -0.2828 -0.2440  0.2338
 2151SOL    HW117912   1.936   2.316   9.281  0.6217  1.1548 -0.2171
 2151SOL    HW217913   2.091   2.333   9.298 -0.2676 -0.0718  1.0893
 2152SOL     OW17914   2.045   4.023   9.517  0.0115 -0.1432  0.3642
 2152SOL    HW117915   2.131   4.047   9.550  0.2161 -0.0869 -0.2111
 2152SOL    HW217916   1.996   4.102   9.544  1.4418  0.4820  1.1413
 2153SOL     OW17917   1.379   1.584   6.716  0.1784  0.3851  0.0032
 2153SOL    HW117918   1.285   1.568   6.723  0.2550  0.4215  1.0913
 2153SOL    HW217919   1.397   1.508   6.661  1.1317  0.4718  0.1818
 2154SOL     OW17920   1.308   1.384   3.856  0.4775  0.6450 -0.0314
 2154SOL    HW117921   1.290   1.446   3.786  1.6569  1.3290  0.2787
 2154SOL    HW217922   1.329   1.449   3.922  0.1274  2.0019 -1.2663
 2155SOL     OW17923   3.868   0.698   8.775  0.0161 -0.3162  0.6570
 2155SOL    HW117924   3.825   0.720   8.857 -0.8588  0.4912 -0.0183
 2155SOL    HW217925   3.926   0.774   8.768  2.4245 -2.0157  2.1469
 2156SOL     OW17926   1.674   4.133   7.664 -0.3205  0.2109 -0.0213
 2156SOL    HW117927   1.683   4.187   7.743 -0.1834  2.5193 -1.6248
 2156SOL    HW217928   1.713   4.187   7.595  0.2691 -0.5175 -0.2546
 2157SOL     OW17929   1.771   2.423   7.633  0.6399  0.3746 -0.3374
 2157SOL    HW117930   1.864   2.403   7.639  0.7282  0.8879 -0.0380
 2157SOL    HW217931   1.729   2.374   7.703  1.4225 -0.5761 -0.5339
 2158SOL     OW17932   1.655   1.149   2.931 -0.6955  0.1576  0.2453
 2158SOL    HW117933   1.662   1.066   2.979 -0.0917  0.8774  1.3928
 2158SOL    HW217934   1.605   1.206   2.989 -0.0586 -0.7483  1.6912
 2159SOL     OW17935   0.811   4.422  14.731 -0.0253 -0.1547  0.5194
 2159SOL    HW117936   0.898   4.389  14.751  0.9172  2.3955  0.6295
 2159SOL    HW217937   0.782   4.453  14.816 -0.2386 -1.1142  0.7948
 2160SOL     OW17938   0.633   0.456  13.490  0.2222  0.3918 -0.3853
 2160SOL    HW117939   0.672   0.470  13.577 -0.8141  0.2989  0.0944
 2160SOL    HW217940   0.698   0.398  13.451 -0.6623 -1.9205  1.5641
 2161SOL     OW17941   1.093   2.600   5.800  0.3526  0.0616  0.5479
 2161SOL    HW117942   1.061   2.634   5.717 -1.4253 -1.6065  0.5358
 2161SOL    HW217943   1.093   2.680   5.853 -1.5026  0.1554  0.3938
 2162SOL     OW17944   0.661   1.065  14.527  0.0646 -0.1495 -0.2162
 2162SOL    HW117945   0.645   1.152  14.564 -0.5651 -0.5516  0.4626
 2162SOL    HW217946   0.582   1.014  14.545  1.5828 -1.7010  2.0147
 2163SOL     OW17947   1.974   4.245   3.432 -0.0898  0.0514  0.8986
 2163SOL    HW117948   2.008   4.174   3.377  3.7224  2.7452 -0.1625
 2163SOL    HW217949   2.055   4.279   3.468  1.4656 -0.7468 -1.8643
 2164SOL     OW17950   2.934   3.754  11.995 -0.1495  0.6473  0.5092
 2164SOL    HW117951   2.852   3.723  11.956 -0.1175 -0.5097  1.3726
 2164SOL    HW217952   2.911   3.846  12.009  1.5528  1.1206  0.1392
 2165SOL     OW17953   0.880   2.154  11.774  0.0807 -0.1172 -0.3115
 2165SOL    HW117954   0.962   2.193  11.742 -0.5953 -0.8211 -2.9463
 2165SOL    HW217955   0.818   2.191  11.711 -1.1385 -0.3899  0.7388
 2166SOL     OW17956   3.354   2.061   6.619 -0.3745  0.1738 -0.5643
 2166SOL    HW117957   3.412   2.108   6.679 -1.7912  0.5968  0.4842
 2166SOL    HW217958   3.411   2.036   6.546 -0.5727 -2.2016  0.0860
 2167SOL     OW17959   0.744   4.154  11.473 -0.7367  0.0843  0.2934
 2167SOL    HW117960   0.839   4.159  11.463 -0.6992 -0.7758  0.1768
 2167SOL    HW217961   0.714   4.191  11.390 -0.4542  1.2403  0.7092
 2168SOL     OW17962   1.693   1.388   9.193 -0.5825  0.4249  0.1033
 2168SOL    HW117963   1.673   1.377   9.101  1.4115  0.1060 -0.2949
 2168SOL    HW217964   1.769   1.331   9.206 -1.4523  0.1024  3.9949
 2169SOL     OW17965   0.254   3.515   9.901 -0.3262 -0.2174 -0.0409
 2169SOL    HW117966   0.170   3.533   9.943  0.7469  1.1322  1.5817
 2169SOL    HW217967   0.297   3.593   9.937 -2.8322  0.6430  1.0639
 2170SOL     OW17968   2.894   0.908  15.875 -0.6133  0.0031  0.1522
 2170SOL    HW117969   2.837   0.831  15.877 -1.9999  1.0010 -1.7164
 2170SOL    HW217970   2.916   0.902  15.782 -0.5935 -2.0475  0.2766
 2171SOL     OW17971   2.484   3.888   6.354 -0.1341 -0.8249  0.0131
 2171SOL    HW117972   2.398   3.853   6.378 -0.6438 -0.3912 -1.1778
 2171SOL    HW217973   2.543   3.824   6.394 -0.9881 -1.8818 -0.4159
 2172SOL     OW17974   4.020   3.797  12.052  0.2997 -0.0509  0.3481
 2172SOL    HW117975   4.002   3.731  11.985 -1.1580  0.9865 -0.2898
 2172SOL    HW217976   4.063   3.860  11.994  0.0619 -1.2390 -1.1402
 2173SOL     OW17977   0.183   0.781  16.507  0.3797  0.0774 -0.1607
 2173SOL    HW117978   0.162   0.699  16.553  0.5476  0.3448  0.3900
 2173SOL    HW217979   0.269   0.797  16.545 -0.1969  0.2985  1.0681
 2174SOL     OW17980   0.532   4.236   5.457  0.1311  0.9073 -0.4980
 2174SOL    HW117981   0.441   4.246   5.427 -0.6598 -0.3283  1.5038
 2174SOL    HW217982   0.557   4.320   5.494  0.3719  0.6837 -0.1579
 2175SOL     OW17983   4.226   0.416   2.479  0.1772  0.4862  0.1573
 2175SOL    HW117984   4.168   0.488   2.503 -1.1095 -0.2940 -0.5886
 2175SOL    HW217985   4.317   0.445   2.478  0.6712 -1.0860 -0.2384
 2176SOL     OW17986   0.838   2.903  15.009 -0.2314  0.1077 -0.3112
 2176SOL    HW117987   0.822   2.814  14.977  1.2853  0.6457 -2.5365
 2176SOL    HW217988   0.828   2.947  14.925  1.1890  1.2552  0.1194
 2177SOL     OW17989   1.033   1.631  15.368 -0.1915  0.6468 -0.2326
 2177SOL    HW117990   1.057   1.692  15.298 -0.1130  1.4516  0.4935
 2177SOL    HW217991   1.114   1.580  15.360 -0.6878 -0.4846  1.9817
 2178SOL     OW17992   0.537   3.054   0.439 -0.0732 -0.4402 -0.1657
 2178SOL    HW117993   0.558   3.146   0.424 -0.7953 -0.4106 -0.9593
 2178SOL    HW217994   0.454   3.079   0.480  1.5091  1.1157  2.0768
 2179SOL     OW17995   4.297   1.738   2.129 -0.2481  0.1559  0.8841
 2179SOL    HW117996   4.287   1.740   2.034  2.0227  0.0729  0.6350
 2179SOL    HW217997   4.294   1.643   2.137 -2.6836  0.1145 -0.7154
 2180SOL     OW17998   3.751   4.704  15.964 -0.1059  0.3949 -0.0943
 2180SOL    HW117999   3.846   4.693  15.950 -0.2543 -0.9433 -0.0703
 2180SOL    HW218000   3.720   4.643  15.897  2.9115  0.0417 -1.1788
 2181SOL     OW18001   2.196   1.086  15.179  0.6454  0.1177  0.7645
 2181SOL    HW118002   2.291   1.080  15.188  0.5390  0.9802  2.3747
 2181SOL    HW218003   2.194   1.141  15.100  1.5473  0.5557  1.0442
 2182SOL     OW18004   3.965   1.805   5.378 -0.2219  0.1685 -0.0506
 2182SOL    HW118005   3.944   1.721   5.419  0.3726  1.3739  2.7182
 2182SOL    HW218006   3.955   1.860   5.456 -1.1252  0.2676 -0.2406
 2183SOL     OW18007   3.491   1.407   7.745 -0.0159  0.0564  0.5961
 2183SOL    HW118008   3.531   1.374   7.826  0.2362  2.0315  1.2912
 2183SOL    HW218009   3.499   1.502   7.750 -0.3192  0.1487 -0.7483
 2184SOL     OW18010   1.016   4.331   7.887  0.6668 -0.2292 -0.8176
 2184SOL    HW118011   0.964   4.309   7.965 -1.4005 -2.2335 -2.7632
 2184SOL    HW218012   1.107   4.317   7.913 -0.3219 -1.1697  2.1475
 2185SOL     OW18013   0.346   4.337  12.037  0.2436  0.2083 -0.2549
 2185SOL    HW118014   0.314   4.263  12.090  1.3640  0.7584  1.1824
 2185SOL    HW218015   0.281   4.335  11.967  2.1431 -2.0073 -1.9760
 2186SOL     OW18016   3.686   4.439  11.332  0.0945  0.0472  0.1408
 2186SOL    HW118017   3.753   4.459  11.397  0.2423  1.7622 -0.5302
 2186SOL    HW218018   3.626   4.512  11.347  2.3945  2.5672 -2.7487
 2187SOL     OW18019   1.100   1.973  13.115 -0.6616 -0.5821 -0.1425
 2187SOL    HW118020   1.153   1.969  13.036  0.2571  0.4901  0.4312
 2187SOL    HW218021   1.157   1.980  13.192  0.3827 -1.4802 -0.8375
 2188SOL     OW18022   1.935   4.106   4.471 -0.3259 -0.1532  0.0213
 2188SOL    HW118023   2.030   4.104   4.470 -0.3329 -0.0580 -0.8367
 2188SOL    HW218024   1.908   4.088   4.561  0.9891 -1.9014  0.0518
 2189SOL     OW18025   2.844   1.711  12.281  0.2327  0.5696 -0.3862
 2189SOL    HW118026   2.844   1.767  12.204 -1.5948  1.0919 -0.0203
 2189SOL    HW218027   2.905   1.753  12.342  0.3056  1.7542 -1.2696
 2190SOL     OW18028   2.022   4.504   8.655 -0.3951 -0.0468 -0.5331
 2190SOL    HW118029   1.959   4.517   8.726 -1.3222  0.7282 -1.4849
 2190SOL    HW218030   2.050   4.594   8.636  3.1408 -1.0653 -0.0969
 2191SOL     OW18031   0.022   0.559   1.389  0.2085 -0.4200 -0.7529
 2191SOL    HW118032   4.683   0.596   1.452  0.0890  1.1558 -1.8025
 2191SOL    HW218033   4.711   0.472   1.366 -2.7992  0.8322 -1.0083
 2192SOL     OW18034   1.916   1.785   5.596  0.5750  0.3150  0.0939
 2192SOL    HW118035   1.997   1.735   5.610 -0.0571 -0.2957  1.5891
 2192SOL    HW218036   1.922   1.870   5.640  2.2055  0.5701 -0.6079
 2193SOL     OW18037   4.285   0.808   5.589 -0.0490  0.3316 -0.1350
 2193SOL    HW118038   4.295   0.765   5.674 -0.2906  2.2346  0.8413
 2193SOL    HW218039   4.375   0.802   5.556 -0.4303  1.4936 -1.3652
 2194SOL     OW18040   3.515   2.772   8.269 -0.3539 -0.5547  0.4410
 2194SOL    HW118041   3.587   2.795   8.210 -0.4575 -1.9951 -0.2475
 2194SOL    HW218042   3.536   2.681   8.288 -0.4280 -0.7243 -0.2866
 2195SOL     OW18043   3.000   0.170   4.074  0.6907  0.3645  0.2336
 2195SOL    HW118044   3.004   0.219   3.992 -1.7828 -0.0652 -0.1629
 2195SOL    HW218045   2.947   0.236   4.120  0.7120  0.0384  0.7295
 2196SOL     OW18046   0.558   0.902   8.762 -0.5266  0.0177 -0.5550
 2196SOL    HW118047   0.643   0.943   8.780 -0.6537  0.7902 -1.7083
 2196SOL    HW218048   0.581   0.829   8.704 -1.6786 -2.0357  1.5640
 2197SOL     OW18049   3.844   0.968  12.775  0.2103 -0.5964 -0.1397
 2197SOL    HW118050   3.781   0.896  12.776 -1.9934  1.3265  0.1690
 2197SOL    HW218051   3.794   1.035  12.729  3.3414  0.7053 -1.6755
 2198SOL     OW18052   4.005   4.609   7.627 -0.3280  0.1525  0.4221
 2198SOL    HW118053   4.018   4.686   7.572 -0.5787  0.4060  0.7161
 2198SOL    HW218054   3.915   4.620   7.659  0.2897  0.4446  2.0524
 2199SOL     OW18055   0.148   2.331   6.221  0.6803 -0.1173 -0.0854
 2199SOL    HW118056   0.157   2.256   6.161  0.2301 -0.8565  0.7634
 2199SOL    HW218057   0.239   2.349   6.245  0.1733  0.3696  1.4634
 2200SOL     OW18058   1.301   1.421   2.275 -0.1794  0.6085  0.6647
 2200SOL    HW118059   1.352   1.483   2.223 -0.0854 -1.2820 -1.5036
 2200SOL    HW218060   1.317   1.447   2.366 -2.0113 -1.3720  1.5471
 2201SOL     OW18061   1.262   3.990  10.470  0.0520  0.2849  0.4790
 2201SOL    HW118062   1.321   3.957  10.537 -1.3960 -1.0947  1.0963
 2201SOL    HW218063   1.267   3.929  10.396  2.2011  0.2700  0.6560
 2202SOL     OW18064   4.634   2.373   1.834 -0.1751 -0.0031 -0.1434
 2202SOL    HW118065   4.721   2.346   1.806 -1.1680  0.0595 -3.2349
 2202SOL    HW218066   4.590   2.290   1.819 -0.5866 -0.2210  2.2923
 2203SOL     OW18067   2.561   2.583   3.428 -0.5246  0.5833  0.3100
 2203SOL    HW118068   2.651   2.615   3.435 -0.6662  1.1533 -0.4598
 2203SOL    HW218069   2.575   2.488   3.430  2.1427  0.9922  1.0511
 2204SOL     OW18070   1.576   3.101  16.794  0.2554  0.0824 -0.4405
 2204SOL    HW118071   1.560   3.191  16.767  1.2576  0.5860  0.6074
 2204SOL    HW218072   1.663   3.093  16.753  0.2390 -0.7422 -0.3059
 2205SOL     OW18073   3.325   3.601   2.681 -0.0858  0.2614  0.1188
 2205SOL    HW118074   3.279   3.571   2.602 -1.3189 -2.3564  1.8207
 2205SOL    HW218075   3.284   3.687   2.691  2.6606  1.9331 -3.0555
 2206SOL     OW18076   1.991   1.518   5.764 -0.2470 -0.2654 -0.0685
 2206SOL    HW118077   2.034   1.434   5.747 -0.1339 -0.8474  3.0227
 2206SOL    HW218078   2.067   1.573   5.783 -0.7157 -0.2326  1.7099
 2207SOL     OW18079   0.243   2.841  12.136  0.5340  0.5116 -0.8161
 2207SOL    HW118080   0.287   2.759  12.116  0.3296  1.1364 -3.8266
 2207SOL    HW218081   0.163   2.802  12.173  1.4065  0.7590  1.3515
 2208SOL     OW18082   0.591   4.437  12.437  0.0616  0.2148  0.0898
 2208SOL    HW118083   0.505   4.413  12.404  1.0409 -1.1101 -1.4981
 2208SOL    HW218084   0.572   4.429  12.531 -2.5523 -1.7816 -0.6211
 2209SOL     OW18085   1.840   4.329  16.032 -0.2886 -0.2784 -0.1362
 2209SOL    HW118086   1.770   4.326  16.097  0.1409  0.1588  0.3454
 2209SOL    HW218087   1.799   4.273  15.966 -0.0162 -1.7660  0.9602
 2210SOL     OW18088   2.991   1.047   2.248  0.0627  0.9562  0.8320
 2210SOL    HW118089   3.027   0.965   2.216 -0.5162  0.9951  0.0882
 2210SOL    HW218090   2.909   1.016   2.285 -0.5024 -0.5400 -1.6958
 2211SOL     OW18091   3.527   2.147   6.832  0.7181  0.1504  0.5026
 2211SOL    HW118092   3.539   2.097   6.913  1.6359  2.2728  1.6940
 2211SOL    HW218093   3.477   2.222   6.864  0.3695 -0.7059  1.9780
 2212SOL     OW18094   4.360   0.787  10.522  0.3935 -0.5489  0.3928
 2212SOL    HW118095   4.333   0.874  10.495 -1.6019 -1.4231 -0.4717
 2212SOL    HW218096   4.324   0.733  10.451 -2.3688  0.9272  0.6716
 2213SOL     OW18097   4.201   0.482   6.016  0.3105  0.0408  0.4298
 2213SOL    HW118098   4.136   0.548   6.042  1.2532  0.4996  1.6292
 2213SOL    HW218099   4.187   0.417   6.085 -0.0951  0.3120  0.5995
 2214SOL     OW18100   4.191   2.239  10.776  0.0675  0.6735 -0.1949
 2214SOL    HW118101   4.225   2.292  10.848  2.9436  0.2369 -1.2473
 2214SOL    HW218102   4.231   2.154  10.792 -2.2907 -0.5936 -0.9849
 2215SOL     OW18103   0.485   0.988   4.454 -0.0867  0.0256  0.1870
 2215SOL    HW118104   0.492   1.005   4.361  0.1501 -1.5035 -0.0818
 2215SOL    HW218105   0.390   0.995   4.462 -0.1052  0.3789 -0.3881
 2216SOL     OW18106   3.444   3.422   1.958 -0.1858  0.5654  0.0224
 2216SOL    HW118107   3.430   3.335   1.995  1.1563  0.0114 -0.7584
 2216SOL    HW218108   3.437   3.487   2.028 -0.6351  1.1414 -0.5486
 2217SOL     OW18109   4.662   2.854  11.160  0.5037 -0.9514  0.4056
 2217SOL    HW118110   4.682   2.948  11.151 -3.6509 -0.3633 -2.3605
 2217SOL    HW218111   0.009   2.829  11.221  0.1845 -1.2089  0.6644
 2218SOL     OW18112   0.401   2.372   6.323  0.3302  0.2225 -0.1538
 2218SOL    HW118113   0.373   2.441   6.383  0.6985  1.7197 -1.7129
 2218SOL    HW218114   0.470   2.424   6.282  1.7849 -0.8595  0.9285
 2219SOL     OW18115   3.306   0.288   4.884  0.1453 -0.4224 -0.3041
 2219SOL    HW118116   3.211   0.280   4.880  0.1662 -1.6904  1.4831
 2219SOL    HW218117   3.326   0.288   4.791  2.5662 -0.6492  0.2144
 2220SOL     OW18118   2.612   2.884   2.858 -0.1958 -0.0486 -0.0303
 2220SOL    HW118119   2.696   2.928   2.849 -0.0792  0.1667  2.0754
 2220SOL    HW218120   2.607   2.869   2.953 -0.4023  0.7019  0.0828
 2221SOL     OW18121   3.026   3.385   6.033 -0.0830  0.2062  0.3309
 2221SOL    HW118122   3.042   3.332   5.956  0.4809  0.4259  0.2925
 2221SOL    HW218123   3.114   3.379   6.072  0.5690  0.2655 -1.1304
 2222SOL     OW18124   0.335   1.575   5.787  0.5061 -0.4438 -0.5841
 2222SOL    HW118125   0.397   1.633   5.831 -2.1719  1.1971  0.9878
 2222SOL    HW218126   0.357   1.593   5.696  0.0491  1.4149 -0.3167
 2223SOL     OW18127   1.808   3.727   7.743 -0.3977  0.2407  0.3679
 2223SOL    HW118128   1.800   3.767   7.830 -0.3185 -2.2735  1.5501
 2223SOL    HW218129   1.720   3.690   7.739 -0.5156  0.5256  0.3870
 2224SOL     OW18130   1.923   2.186   5.955  0.3081 -0.2080 -0.2626
 2224SOL    HW118131   1.861   2.200   6.027 -1.4264  2.4642 -2.2519
 2224SOL    HW218132   2.004   2.168   6.002  0.0436 -1.2495 -0.1987
 2225SOL     OW18133   2.923   2.595   1.057 -0.2869 -0.0511 -0.6308
 2225SOL    HW118134   2.947   2.686   1.070  1.0961 -0.5542  0.3486
 2225SOL    HW218135   2.981   2.579   0.983  0.0524 -0.0373 -0.3707
 2226SOL     OW18136   0.897   3.905  12.714 -0.8571 -0.9084 -0.1680
 2226SOL    HW118137   0.806   3.902  12.686 -0.9581 -0.5622  0.1360
 2226SOL    HW218138   0.936   3.820  12.691  0.8656  0.2960 -1.6967
 2227SOL     OW18139   1.615   4.618  10.279  0.2958  0.6764 -0.2959
 2227SOL    HW118140   1.674   4.544  10.265  1.2010  0.8706  2.5344
 2227SOL    HW218141   1.526   4.584  10.273  0.0566  1.5314 -1.6190
 2228SOL     OW18142   0.850   2.149   5.274  0.1078 -0.7999 -0.1209
 2228SOL    HW118143   0.866   2.120   5.185  2.1278  0.2364 -0.1084
 2228SOL    HW218144   0.755   2.162   5.279  0.3455  0.8082  0.3100
 2229SOL     OW18145   4.418   1.353  13.141 -0.4145 -0.1860  0.2233
 2229SOL    HW118146   4.422   1.367  13.046 -1.1986 -1.7343 -0.0399
 2229SOL    HW218147   4.323   1.367  13.148 -0.8263 -1.9178 -1.8546
 2230SOL     OW18148   2.433   2.062   5.793 -0.3605 -0.3909  0.2032
 2230SOL    HW118149   2.381   2.023   5.863 -2.4629 -2.7852 -2.6827
 2230SOL    HW218150   2.373   2.132   5.767 -2.4644 -1.8754  1.1176
 2231SOL     OW18151   1.904   4.145  14.825 -0.9162 -0.6629  0.0068
 2231SOL    HW118152   1.979   4.140  14.765  0.3260 -2.3885  1.6831
 2231SOL    HW218153   1.941   4.087  14.892 -0.5477 -0.8353 -0.3442
 2232SOL     OW18154   1.905   0.554   4.379 -0.6443  0.2123 -0.2815
 2232SOL    HW118155   1.879   0.531   4.468 -2.5581  1.4946 -0.5185
 2232SOL    HW218156   2.000   0.553   4.392 -0.5065 -3.0774 -1.3272
 2233SOL     OW18157   4.443   1.974   9.579  0.1391  0.6417 -0.1796
 2233SOL    HW118158   4.387   2.022   9.518  0.0481  0.4948 -0.2116
 2233SOL    HW218159   4.486   2.052   9.613  0.7681  0.8951 -1.5706
 2234SOL     OW18160   3.909   3.896   7.035 -0.1100 -0.0238  0.7386
 2234SOL    HW118161   3.930   3.957   6.965  1.5042  0.1451  1.3715
 2234SOL    HW218162   3.828   3.857   7.001 -0.4351  1.4164 -0.1358
 2235SOL     OW18163   2.644   4.600   1.138  0.2549 -0.2384  0.0057
 2235SOL    HW118164   2.590   4.645   1.203 -0.7139 -2.4961  0.7944
 2235SOL    HW218165   2.647   4.672   1.076 -2.3353 -0.7673 -0.7425
 2236SOL     OW18166   1.352   1.455   4.473  0.0218 -0.0058  1.0677
 2236SOL    HW118167   1.325   1.502   4.552  0.2838  3.6346 -0.9940
 2236SOL    HW218168   1.355   1.363   4.499 -0.8925 -0.0561  0.9819
 2237SOL     OW18169   0.976   4.029   5.742  0.7052  0.1652 -0.7558
 2237SOL    HW118170   0.904   4.069   5.694  0.4614 -1.2754 -1.5842
 2237SOL    HW218171   0.986   3.950   5.689 -2.2739 -0.6890 -0.0323
 2238SOL     OW18172   3.964   2.872  16.346  0.5459 -0.2578 -0.0552
 2238SOL    HW118173   4.008   2.821  16.414 -0.9368  0.0317  1.1299
 2238SOL    HW218174   3.960   2.809  16.275 -0.0968  0.2221 -0.4491
 2239SOL     OW18175   3.855   0.109   5.573 -0.1044 -0.0378 -0.4365
 2239SOL    HW118176   3.797   0.155   5.634  1.7036  0.9022  0.5427
 2239SOL    HW218177   3.810   0.084   5.492 -0.7401  0.6736 -0.3036
 2240SOL     OW18178   1.042   3.255   0.885 -0.0899  0.3258 -0.2392
 2240SOL    HW118179   1.079   3.308   0.955 -1.4776  0.1999  0.5795
 2240SOL    HW218180   1.080   3.305   0.812 -0.4092  2.0155  0.7738
 2241SOL     OW18181   2.443   3.093   2.102 -0.3736  0.3063  0.5662
 2241SOL    HW118182   2.517   3.041   2.071 -1.0042 -1.0502  1.2941
 2241SOL    HW218183   2.364   3.054   2.064 -0.0518 -0.6752  0.9039
 2242SOL     OW18184   4.521   1.092  10.580 -0.2436  0.5059  0.1927
 2242SOL    HW118185   4.565   1.171  10.611 -0.8620  0.3082  1.5500
 2242SOL    HW218186   4.430   1.110  10.604 -0.2134  0.9184  0.0075
 2243SOL     OW18187   0.803   3.555  10.409 -0.2180 -0.0759  0.4515
 2243SOL    HW118188   0.726   3.605  10.436  0.2454  0.1681  1.3438
 2243SOL    HW218189   0.769   3.511  10.331  1.9299 -1.9893  0.6028
 2244SOL     OW18190   3.350   1.145   2.756  0.6856  0.8156 -0.3654
 2244SOL    HW118191   3.295   1.160   2.679  0.3111  2.5330  0.2394
 2244SOL    HW218192   3.382   1.057   2.736 -0.8708  0.5112 -1.5022
 2245SOL     OW18193   1.515   1.539   3.796  0.3577  0.4707 -0.8217
 2245SOL    HW118194   1.602   1.538   3.836 -0.0627 -0.9977  0.0515
 2245SOL    HW218195   1.479   1.593   3.865  0.2201 -0.9887  0.2549
 2246SOL     OW18196   4.172   3.145   9.406  0.3500  0.5560 -0.2382
 2246SOL    HW118197   4.154   3.146   9.312 -1.9365 -0.8999  0.1872
 2246SOL    HW218198   4.165   3.238   9.429 -0.1608  0.3312  0.5163
 2247SOL     OW18199   1.459   2.587   8.846 -0.5474 -0.4497 -0.5639
 2247SOL    HW118200   1.493   2.516   8.901  2.4144  0.5973 -1.0224
 2247SOL    HW218201   1.460   2.562   8.754  3.6071 -0.0319 -0.6124
 2248SOL     OW18202   3.867   1.148   7.396  0.0462  0.5787  0.1062
 2248SOL    HW118203   3.900   1.072   7.444  0.0921 -0.0536 -0.9191
 2248SOL    HW218204   3.797   1.093   7.361  0.6375  0.3021 -0.6657
 2249SOL     OW18205   3.108   1.890   2.123  0.4969  0.1192  0.4465
 2249SOL    HW118206   3.122   1.841   2.042  0.5066  0.6818  0.1132
 2249SOL    HW218207   3.118   1.818   2.185  2.4848  0.5741  0.6427
 2250SOL     OW18208   1.422   1.484  14.187 -0.2645  0.3785 -0.3866
 2250SOL    HW118209   1.395   1.411  14.243  0.4618  0.5230  0.1565
 2250SOL    HW218210   1.348   1.492  14.127 -0.7458  0.6486  0.2382
 2251SOL     OW18211   1.251   3.681   2.414 -0.5424  0.3934  0.3393
 2251SOL    HW118212   1.182   3.615   2.425 -0.5446  0.0849 -1.5753
 2251SOL    HW218213   1.235   3.726   2.331  0.0780  0.1393  0.0836
 2252SOL     OW18214   0.048   1.036   4.861  0.6245 -0.2078 -0.3192
 2252SOL    HW118215   0.140   1.026   4.835  1.3715  2.8040  1.1632
 2252SOL    HW218216   0.006   0.974   4.801 -0.9943  2.6596 -2.1647
 2253SOL     OW18217   0.531   3.121   5.717 -0.2298  0.3268  0.5048
 2253SOL    HW118218   0.462   3.139   5.782 -0.0965  0.0240  0.7290
 2253SOL    HW218219   0.581   3.053   5.761  0.7795  3.0583  3.6628
 2254SOL     OW18220   1.692   1.951   5.491 -0.1150  0.2540  0.2842
 2254SOL    HW118221   1.662   1.862   5.471 -1.6954  0.6923  0.6928
 2254SOL    HW218222   1.722   1.939   5.582 -4.3388 -0.2657  1.5889
 2255SOL     OW18223   4.671   3.690  17.420 -0.1680 -0.2914 -0.2355
 2255SOL    HW118224   4.709   3.638  17.349 -1.6672  0.7727 -1.8182
 2255SOL    HW218225   4.634   3.762  17.369 -0.1253  0.1126  0.3117
 2256SOL     OW18226   0.691   2.099   3.142 -0.6912 -0.0028  0.4442
 2256SOL    HW118227   0.628   2.068   3.207  2.2421 -2.4628  2.1095
 2256SOL    HW218228   0.699   2.023   3.083 -2.7286 -0.5753  0.8795
 2257SOL     OW18229   3.902   3.444   1.304  0.2704  0.0411  0.3077
 2257SOL    HW118230   3.810   3.420   1.313  0.4764 -0.7369  0.3845
 2257SOL    HW218231   3.909   3.484   1.390 -0.7092  0.6517  0.1024
 2258SOL     OW18232   1.345   0.818   2.615  0.8156  0.6043  0.5008
 2258SOL    HW118233   1.400   0.842   2.690 -0.0770  1.6285  0.8225
 2258SOL    HW218234   1.383   0.866   2.541 -0.7379  1.3726  0.2246
 2259SOL     OW18235   1.352   2.125  10.343 -0.1583 -0.2394 -0.1370
 2259SOL    HW118236   1.352   2.218  10.365  1.6152 -0.6675  1.6488
 2259SOL    HW218237   1.267   2.103  10.381 -0.8588  1.7725 -0.5238
 2260SOL     OW18238   1.197   2.222   4.187 -0.5402  0.7916  0.9177
 2260SOL    HW118239   1.179   2.153   4.123  3.3187 -0.8165  1.5491
 2260SOL    HW218240   1.183   2.296   4.129 -1.2013 -1.3397 -1.6595
 2261SOL     OW18241   0.030   0.232   7.542 -0.1598 -0.4242 -0.1964
 2261SOL    HW118242   4.718   0.160   7.490 -0.6383 -1.0085  0.9262
 2261SOL    HW218243   0.124   0.229   7.521 -0.0622 -1.1447  0.3427
 2262SOL     OW18244   2.917   3.348   6.390 -0.3997 -0.2872  0.3643
 2262SOL    HW118245   2.847   3.379   6.447 -2.8632 -1.5163 -2.0133
 2262SOL    HW218246   2.892   3.260   6.360  0.8024 -0.0084 -1.4397
 2263SOL     OW18247   3.849   2.953   8.401  0.7170 -0.0643  0.4470
 2263SOL    HW118248   3.811   2.948   8.313  1.8849  1.4154 -0.1312
 2263SOL    HW218249   3.877   3.044   8.403  0.1253  0.1304 -0.0307
 2264SOL     OW18250   0.967   1.271   3.629 -0.4371  0.8448  0.3137
 2264SOL    HW118251   1.029   1.318   3.686 -1.6676  1.5909  1.0449
 2264SOL    HW218252   0.901   1.339   3.615  1.2464  2.2636 -0.7286
 2265SOL     OW18253   0.226   1.882   0.374  0.4200  0.6115 -0.3760
 2265SOL    HW118254   0.208   1.874   0.280 -1.0425 -1.0296  0.0497
 2265SOL    HW218255   0.274   1.800   0.384 -1.4335 -0.3205  0.9821
 2266SOL     OW18256   1.741   3.781  14.697 -0.2313 -0.0904  0.2181
 2266SOL    HW118257   1.818   3.728  14.716  0.2822  0.8534  0.7848
 2266SOL    HW218258   1.694   3.765  14.779 -2.2520 -1.2882 -1.1526
 2267SOL     OW18259   2.576   1.865   4.853  0.1591 -0.0098 -0.2227
 2267SOL    HW118260   2.582   1.881   4.758 -1.8593  0.2717 -0.2916
 2267SOL    HW218261   2.507   1.798   4.848  0.8538 -0.6715 -1.0147
 2268SOL     OW18262   2.650   1.200   8.264  0.0131 -0.4901  0.2887
 2268SOL    HW118263   2.635   1.132   8.331 -0.5704 -1.4419 -0.8024
 2268SOL    HW218264   2.592   1.269   8.296 -2.1120 -1.1057 -2.3018
 2269SOL     OW18265   4.498   1.066   4.219 -0.7777 -0.0377  0.2048
 2269SOL    HW118266   4.459   1.080   4.305 -1.0430  3.1081 -0.4283
 2269SOL    HW218267   4.418   1.077   4.168 -1.6149 -0.4064  1.4461
 2270SOL     OW18268   4.391   4.587  10.756 -0.1533  0.2232  0.2075
 2270SOL    HW118269   4.411   4.651  10.824 -1.3380 -0.4948  1.2376
 2270SOL    HW218270   4.415   4.503  10.794 -0.0564 -0.4783 -1.3826
 2271SOL     OW18271   2.546   3.474   8.279 -0.0055  0.1183  0.4784
 2271SOL    HW118272   2.573   3.550   8.331 -1.0990  0.0507  1.1261
 2271SOL    HW218273   2.622   3.471   8.220 -0.0287  0.5840  0.4192
 2272SOL     OW18274   4.420   4.461   5.154  0.1740  0.0127  0.3617
 2272SOL    HW118275   4.418   4.517   5.077  0.3639 -1.3274 -0.6166
 2272SOL    HW218276   4.327   4.445   5.167  0.5551 -2.6330 -0.0995
 2273SOL     OW18277   2.924   0.287   2.621 -0.1883  0.3331  0.3293
 2273SOL    HW118278   2.928   0.373   2.580 -1.2650 -0.3698 -1.2347
 2273SOL    HW218279   2.841   0.244   2.599  1.1561 -0.5491 -2.9905
 2274SOL     OW18280   1.045   2.967  15.185  0.4058  0.2586 -0.1550
 2274SOL    HW118281   0.961   2.960  15.138  0.8277  0.0794 -0.8737
 2274SOL    HW218282   1.100   3.019  15.127  0.1770  0.3626 -0.2795
 2275SOL     OW18283   1.553   0.820   9.837  0.2277  0.1883  0.1132
 2275SOL    HW118284   1.502   0.747   9.803 -0.6293 -0.4047  2.6643
 2275SOL    HW218285   1.519   0.895   9.789  0.0305  0.7106  1.0852
 2276SOL     OW18286   1.693   4.647   4.373  0.2940 -0.2140 -0.1995
 2276SOL    HW118287   1.600   4.665   4.363 -0.4304 -2.8883  1.8138
 2276SOL    HW218288   1.711   4.624   4.282 -1.2586  1.0732 -0.8355
 2277SOL     OW18289   1.479   4.573  14.728 -0.2516 -0.5238  0.4887
 2277SOL    HW118290   1.442   4.488  14.753 -1.3867 -0.1587  0.0647
 2277SOL    HW218291   1.409   4.612  14.676 -0.2007 -0.2658  0.6155
 2278SOL     OW18292   0.097   3.702   6.408  0.0547  0.4948 -0.5772
 2278SOL    HW118293   0.064   3.743   6.488  0.8724  0.9807 -0.4857
 2278SOL    HW218294   0.030   3.712   6.341 -2.8018 -3.3074  1.7282
 2279SOL     OW18295   3.336   1.219   6.675 -0.3873 -0.0830  0.0770
 2279SOL    HW118296   3.313   1.161   6.747 -0.9396 -0.6041 -0.5231
 2279SOL    HW218297   3.363   1.294   6.728 -2.2281  0.2561  0.5178
 2280SOL     OW18298   3.211   2.730   5.128  0.0529 -0.7654 -0.0623
 2280SOL    HW118299   3.253   2.730   5.214 -1.4434 -1.0491  0.6823
 2280SOL    HW218300   3.149   2.802   5.141  0.7885  0.1476 -1.6336
 2281SOL     OW18301   2.584   0.454   6.632 -0.0880 -0.3662  0.7533
 2281SOL    HW118302   2.652   0.519   6.649  0.8317 -0.9865 -0.5544
 2281SOL    HW218303   2.529   0.458   6.710 -0.0516  2.5778  0.6309
 2282SOL     OW18304   4.605   0.479  13.264  0.2171 -0.0202 -0.3988
 2282SOL    HW118305   4.662   0.407  13.237  0.4202 -1.0495  2.7467
 2282SOL    HW218306   4.579   0.453  13.353  1.7562  0.6857  0.2563
 2283SOL     OW18307   0.796   0.998   8.391 -0.5774  0.6053  0.2255
 2283SOL    HW118308   0.722   1.034   8.440 -0.3203  1.2446  0.1487
 2283SOL    HW218309   0.813   0.918   8.441  0.9035  1.3355  0.9004
 2284SOL     OW18310   4.678   3.890  14.792 -0.1833 -0.1961 -0.8258
 2284SOL    HW118311   4.610   3.832  14.826  0.2957  0.6862  1.5770
 2284SOL    HW218312   4.639   3.977  14.789  0.9901  0.3765  0.7829
 2285SOL     OW18313   1.765   4.711   1.976 -0.0605 -0.1214 -0.4012
 2285SOL    HW118314   1.736   4.624   1.945 -0.4278  0.7998 -2.6884
 2285SOL    HW218315   1.781   4.680   2.065 -0.1567  0.3678 -0.2163
 2286SOL     OW18316   4.297   1.530   8.525  0.0253 -0.0030  0.0372
 2286SOL    HW118317   4.377   1.583   8.526 -0.4452  0.7227 -0.3147
 2286SOL    HW218318   4.231   1.599   8.537  0.2501 -0.0864  1.7774
 2287SOL     OW18319   3.338   3.720   3.706 -0.1380  0.2410  0.1989
 2287SOL    HW118320   3.429   3.698   3.685  0.0037  1.3610 -0.3616
 2287SOL    HW218321   3.318   3.686   3.793  2.5544 -0.3757  0.5627
 2288SOL     OW18322   1.681   2.081   2.739  0.4648  0.1020  0.4014
 2288SOL    HW118323   1.691   2.167   2.699  1.7829 -0.0060  0.4725
 2288SOL    HW218324   1.645   2.017   2.677  1.0270  0.4557 -0.2937
 2289SOL     OW18325   2.545   3.042  10.723  0.1517  0.1785  0.0932
 2289SOL    HW118326   2.471   3.078  10.674 -1.3075 -1.8187  0.8140
 2289SOL    HW218327   2.495   3.046  10.805  3.1635 -1.2005  1.9944
 2290SOL     OW18328   3.183   4.641  14.158  0.3202  0.0519  0.2670
 2290SOL    HW118329   3.254   4.706  14.156  0.2043  0.2134  1.2408
 2290SOL    HW218330   3.117   4.696  14.200 -1.6793 -1.1934 -1.2921
 2291SOL     OW18331   3.946   3.487   3.967 -0.1175 -0.7200 -0.1399
 2291SOL    HW118332   3.927   3.438   4.047  0.7526  0.3418  0.7190
 2291SOL    HW218333   4.033   3.520   3.989 -0.3912 -0.7404  0.9801
 2292SOL     OW18334   2.939   1.653   0.270  0.6020 -0.0051 -0.3474
 2292SOL    HW118335   2.853   1.629   0.305  0.2645  1.7512  0.0138
 2292SOL    HW218336   2.950   1.737   0.314  0.1637  0.2647 -0.7593
 2293SOL     OW18337   3.088   1.341   5.513  0.0418  0.0923 -0.0139
 2293SOL    HW118338   3.175   1.337   5.553 -0.3339 -1.0596  0.6624
 2293SOL    HW218339   3.039   1.387   5.581  1.4854 -0.9878  1.7405
 2294SOL     OW18340   1.386   4.054   5.686 -0.3129  0.1994  0.0921
 2294SOL    HW118341   1.324   4.011   5.626  0.2192 -0.8303  0.2740
 2294SOL    HW218342   1.346   4.032   5.770 -1.6772  2.1818 -0.0446
 2295SOL     OW18343   0.189   4.300   4.624 -0.8100 -0.1944  0.3685
 2295SOL    HW118344   0.215   4.303   4.532 -1.6924 -0.7668  0.1027
 2295SOL    HW218345   0.245   4.226   4.648  0.3299  0.2151 -1.0154
 2296SOL     OW18346   1.320   0.722   4.206 -0.5364  0.0963  0.1276
 2296SOL    HW118347   1.330   0.650   4.144  1.0457  0.1886  0.2785
 2296SOL    HW218348   1.395   0.700   4.260  0.1416  2.0753 -0.0352
 2297SOL     OW18349   4.280   1.090   4.366 -0.0438  0.0868  0.2118
 2297SOL    HW118350   4.264   1.003   4.328 -0.7794 -0.1507  1.0743
 2297SOL    HW218351   4.218   1.097   4.438 -1.9348 -0.5099 -1.3422
 2298SOL     OW18352   4.517   2.789   2.400  0.2020 -0.2758 -0.0033
 2298SOL    HW118353   4.471   2.706   2.387 -1.5758  0.6175  0.5521
 2298SOL    HW218354   4.475   2.847   2.336  0.9903 -0.1106 -0.3730
 2299SOL     OW18355   4.113   4.007   9.958 -0.0541  0.2784 -0.1388
 2299SOL    HW118356   4.169   4.064  10.011  1.2870 -1.3200  0.1695
 2299SOL    HW218357   4.053   4.067   9.913 -2.0126 -0.2821  1.7337
 2300SOL     OW18358   2.652   4.152   5.273  0.3816 -0.0591  0.2566
 2300SOL    HW118359   2.720   4.115   5.330  0.2580  0.1252  0.5236
 2300SOL    HW218360   2.685   4.128   5.186 -2.5842 -1.1394 -0.5879
 2301SOL     OW18361   2.740   1.283   9.988 -0.2038  0.0808 -0.7251
 2301SOL    HW118362   2.684   1.238   9.925  0.2836 -1.7735  0.1591
 2301SOL    HW218363   2.825   1.245   9.967  0.4711  0.0536  1.9785
 2302SOL     OW18364   1.513   0.367   4.054 -0.0248 -0.0121 -0.0676
 2302SOL    HW118365   1.589   0.419   4.025  0.0502 -1.6174 -2.7125
 2302SOL    HW218366   1.449   0.420   4.007 -1.0492  0.4703  1.8987
 2303SOL     OW18367   0.859   1.979   1.407 -0.0721 -0.0377  0.0814
 2303SOL    HW118368   0.779   1.940   1.373 -0.6477 -0.4654  1.9227
 2303SOL    HW218369   0.874   2.049   1.344  1.6581  0.1164  0.6379
 2304SOL     OW18370   2.795   2.524  16.171 -0.3896  0.3118  0.3475
 2304SOL    HW118371   2.772   2.540  16.263 -2.3692  2.3694 -0.5192
 2304SOL    HW218372   2.852   2.447  16.168  0.6002  1.0505  0.0045
 2305SOL     OW18373   2.579   1.979   1.589  0.1101 -0.2694  0.4016
 2305SOL    HW118374   2.596   1.934   1.506 -0.1170  0.7095 -0.1791
 2305SOL    HW218375   2.657   2.034   1.590 -0.8904  1.1708 -0.9059
 2306SOL     OW18376   3.020   3.461   8.935  0.1222  0.0068 -0.3966
 2306SOL    HW118377   3.089   3.438   8.997 -0.2862  2.2711  0.8670
 2306SOL    HW218378   2.990   3.547   8.965 -1.4604 -1.0767  1.0974
 2307SOL     OW18379   3.668   4.537  15.770  0.5996 -0.2145 -0.1270
 2307SOL    HW118380   3.633   4.532  15.681 -1.7933  2.9226  0.6406
 2307SOL    HW218381   3.757   4.509  15.746  0.8008  0.2795  0.0442
 2308SOL     OW18382   1.636   3.520   8.002 -0.6059 -0.1241 -0.0199
 2308SOL    HW118383   1.618   3.583   8.072 -0.9047  0.0246 -0.2310
 2308SOL    HW218384   1.612   3.565   7.921 -1.5495  1.0486  0.9057
 2309SOL     OW18385   0.807   1.473   3.619 -0.6892 -0.0947  0.1373
 2309SOL    HW118386   0.810   1.509   3.708  2.1376  0.2344 -0.0713
 2309SOL    HW218387   0.744   1.527   3.571 -2.4363 -0.5221  1.9997
 2310SOL     OW18388   2.674   1.261  14.608  0.2335 -0.7253 -0.1078
 2310SOL    HW118389   2.688   1.252  14.514  1.1012 -2.2354  0.1665
 2310SOL    HW218390   2.724   1.339  14.633 -0.7268  0.1094 -0.7323
 2311SOL     OW18391   0.909   1.496   3.901 -0.3771  0.5080  0.2689
 2311SOL    HW118392   0.946   1.408   3.898  1.9361  1.5218 -1.0824
 2311SOL    HW218393   0.976   1.549   3.859  1.0544 -0.9202  0.7238
 2312SOL     OW18394   1.692   0.566   5.988  0.1622 -0.6083  0.2592
 2312SOL    HW118395   1.635   0.635   6.022 -2.6425 -2.7669  0.0120
 2312SOL    HW218396   1.756   0.625   5.949 -1.5643  0.9009 -0.3015
 2313SOL     OW18397   2.297   1.065   3.442  0.0556  0.1934 -0.4780
 2313SOL    HW118398   2.234   1.039   3.375 -1.0835  0.6601  0.4318
 2313SOL    HW218399   2.335   0.980   3.463 -0.2602  0.3512  0.7271
 2314SOL     OW18400   0.953   1.043  12.745 -0.3654 -0.1738  0.1917
 2314SOL    HW118401   0.958   1.111  12.677 -1.7988  0.7907  1.0617
 2314SOL    HW218402   0.858   1.031  12.744 -0.1482 -1.9587  1.1749
 2315SOL     OW18403   4.589   3.767   2.891  0.0736 -0.1161  0.7411
 2315SOL    HW118404   4.521   3.724   2.839  1.3208  0.0525 -1.0485
 2315SOL    HW218405   4.671   3.739   2.852  0.2937 -0.2903  1.3374
 2316SOL     OW18406   3.048   3.689   5.936  0.1532  0.6353 -0.3464
 2316SOL    HW118407   3.067   3.602   5.971  1.9230  0.0348 -2.8241
 2316SOL    HW218408   3.132   3.736   5.945 -0.7414  1.8127  2.0188
 2317SOL     OW18409   3.637   4.368  11.855 -0.2977  0.1115  0.8177
 2317SOL    HW118410   3.544   4.391  11.861 -0.3283 -0.6312  3.0303
 2317SOL    HW218411   3.676   4.429  11.917 -0.5471  1.1633 -0.0683
 2318SOL     OW18412   0.858   2.647  15.181 -0.1737  0.1177  0.1258
 2318SOL    HW118413   0.831   2.661  15.090  0.8127  0.5557 -0.1017
 2318SOL    HW218414   0.910   2.727  15.194 -1.8401  1.0993  0.7539
 2319SOL     OW18415   0.717   3.322   4.856  0.0605 -0.1676 -0.9067
 2319SOL    HW118416   0.687   3.232   4.869 -3.9784  1.5828  1.7285
 2319SOL    HW218417   0.760   3.319   4.770  1.2319 -0.7758 -0.3057
 2320SOL     OW18418   1.786   1.588  17.250 -0.3649 -0.0757  0.0821
 2320SOL    HW118419   1.759   1.646  17.321  2.1175 -0.2021  1.1091
 2320SOL    HW218420   1.875   1.571  17.280 -0.3878  0.7579  0.6151
 2321SOL     OW18421   4.236   4.006   6.580  0.0326 -0.2697  0.1314
 2321SOL    HW118422   4.282   4.016   6.497 -0.6764 -3.2686 -0.6226
 2321SOL    HW218423   4.171   4.076   6.576  0.0692 -0.2728 -0.4360
 2322SOL     OW18424   0.706   3.211   6.027  0.0386 -0.1367  0.3154
 2322SOL    HW118425   0.711   3.254   6.113  1.7192  1.7966 -0.7515
 2322SOL    HW218426   0.632   3.252   5.982 -0.9025 -0.8298  1.2165
 2323SOL     OW18427   0.761   3.725   5.649 -0.2602 -0.4465 -0.5309
 2323SOL    HW118428   0.700   3.742   5.577  0.9248  1.1986 -1.1478
 2323SOL    HW218429   0.840   3.748   5.600 -0.1086  2.0562  0.9335
 2324SOL     OW18430   0.830   1.492   5.160 -0.1019  0.8598  0.1046
 2324SOL    HW118431   0.859   1.462   5.074 -0.3719  1.0234 -0.0442
 2324SOL    HW218432   0.743   1.454   5.154  0.4718 -0.2140 -1.2377
 2325SOL     OW18433   3.090   2.951   9.039 -0.0787  0.5664 -0.1243
 2325SOL    HW118434   3.037   2.879   9.074 -1.8930  1.4203 -1.0898
 2325SOL    HW218435   3.176   2.910   9.028 -0.2199  1.3552 -4.2112
 2326SOL     OW18436   3.278   3.401   4.507 -0.2971 -0.0749  0.3089
 2326SOL    HW118437   3.313   3.315   4.527 -0.2500 -0.0514  0.3277
 2326SOL    HW218438   3.360   3.443   4.482 -0.6624 -1.2823 -2.9107
 2327SOL     OW18439   0.539   0.293   8.313 -0.2576  0.2286 -0.0471
 2327SOL    HW118440   0.490   0.374   8.300  1.6521  1.2030 -1.2316
 2327SOL    HW218441   0.631   0.321   8.308 -0.2711  0.2797 -0.0097
 2328SOL     OW18442   2.814   4.418  11.307 -0.3736  0.0992  0.2310
 2328SOL    HW118443   2.867   4.453  11.236 -0.2465 -0.9521 -0.1762
 2328SOL    HW218444   2.802   4.492  11.367  0.4664  0.8285 -0.5015
 2329SOL     OW18445   3.237   2.246   1.060 -0.3495 -0.8892  0.1150
 2329SOL    HW118446   3.226   2.329   1.014 -1.9180  0.5281  2.9808
 2329SOL    HW218447   3.210   2.272   1.149  2.3106 -0.0491  0.6712
 2330SOL     OW18448   0.602   0.479   0.289 -0.4845 -0.4746  0.2696
 2330SOL    HW118449   0.567   0.532   0.361 -0.2141 -0.8324  0.6704
 2330SOL    HW218450   0.559   0.396   0.311 -0.6539  0.1928  2.4573
 2331SOL     OW18451   1.182   2.110  14.131  0.7111  0.1825  0.1258
 2331SOL    HW118452   1.091   2.119  14.105  0.7716  1.5081  0.3715
 2331SOL    HW218453   1.181   2.017  14.112  0.6053 -0.0238  1.1128
 2332SOL     OW18454   0.811   2.314   2.885  0.5325  0.1813  0.1355
 2332SOL    HW118455   0.875   2.300   2.955  0.1404  1.0771  0.6705
 2332SOL    HW218456   0.764   2.231   2.888 -2.3973  1.8252  0.4263
 2333SOL     OW18457   3.597   1.928   0.259  0.1439  0.1659  0.2727
 2333SOL    HW118458   3.682   1.909   0.220 -0.7196  0.0275 -1.5319
 2333SOL    HW218459   3.577   1.836   0.278  0.7612  0.3572  1.8504
 2334SOL     OW18460   0.249   4.689   3.313  0.0019  0.3943 -0.8340
 2334SOL    HW118461   0.199   0.008   3.383 -1.6490 -0.3927 -1.5532
 2334SOL    HW218462   0.301   0.038   3.277  1.3471 -1.1716 -2.0629
 2335SOL     OW18463   3.201   2.247   0.137 -0.4332 -0.4984 -0.3177
 2335SOL    HW118464   3.113   2.209   0.146 -2.1202  3.2002 -0.9976
 2335SOL    HW218465   3.259   2.171   0.147  0.8025  0.4575 -0.2865
 2336SOL     OW18466   4.309   2.978   2.670 -0.2392  0.4647 -0.2507
 2336SOL    HW118467   4.359   2.897   2.670 -1.0491 -0.0414 -0.6180
 2336SOL    HW218468   4.278   2.979   2.580 -2.0533 -0.4418  0.3537
 2337SOL     OW18469   3.457   1.652  17.189  0.0355 -0.0012  0.4528
 2337SOL    HW118470   3.465   1.719  17.121  0.5281 -1.2461 -0.7078
 2337SOL    HW218471   3.486   1.580  17.133 -2.5689  0.9368 -2.1129
 2338SOL     OW18472   0.077   3.310   5.086 -0.0817 -0.0373  0.1931
 2338SOL    HW118473   0.145   3.286   5.023  1.6174  0.4242  1.8626
 2338SOL    HW218474   0.133   3.301   5.163  0.6773 -2.5290 -0.6216
 2339SOL     OW18475   1.007   1.837   1.043 -0.6834  0.1429  0.0899
 2339SOL    HW118476   0.966   1.914   1.003 -0.8687 -0.1522 -0.2815
 2339SOL    HW218477   1.100   1.860   1.045 -0.3419 -1.0955 -1.5319
 2340SOL     OW18478   2.216   4.382   3.505  0.5216 -0.1588 -0.5002
 2340SOL    HW118479   2.292   4.380   3.563  0.3156  1.2563 -0.1864
 2340SOL    HW218480   2.233   4.455   3.445  3.3456 -1.1180 -0.8417
 2341SOL     OW18481   3.058   4.142   3.546 -0.0066 -0.0231 -0.0763
 2341SOL    HW118482   3.001   4.065   3.549  0.7776 -0.5987 -0.1755
 2341SOL    HW218483   3.101   4.139   3.632 -0.3923 -0.0370  0.1185
 2342SOL     OW18484   4.716   2.141   6.957  0.0494 -0.8164 -0.6334
 2342SOL    HW118485   4.693   2.084   7.030  2.6888 -1.0872  0.0018
 2342SOL    HW218486   4.712   2.073   6.889  0.1255  0.7313 -2.1849
 2343SOL     OW18487   2.140   2.960   0.983  0.1448 -0.0450  0.2602
 2343SOL    HW118488   2.091   3.043   0.980  0.9903  0.3993 -1.1006
 2343SOL    HW218489   2.208   2.964   0.915  0.8633 -1.2915  0.9061
 2344SOL     OW18490   1.354   1.500   5.690  0.4072  0.2128  0.4361
 2344SOL    HW118491   1.260   1.483   5.683  1.0631 -3.3336  0.2234
 2344SOL    HW218492   1.384   1.430   5.631 -1.2406 -0.3402  0.2308
 2345SOL     OW18493   1.618   0.666   5.618 -0.3563  0.0232  0.3892
 2345SOL    HW118494   1.621   0.751   5.660 -1.1396  1.3245 -2.1951
 2345SOL    HW218495   1.699   0.668   5.568  0.0348  1.3543  1.0929
 2346SOL     OW18496   3.545   4.603  14.264 -0.5339  0.6698  0.2179
 2346SOL    HW118497   3.504   4.640  14.185 -1.2469  0.3025  0.4150
 2346SOL    HW218498   3.516   4.512  14.270  1.0457  0.2990  2.0642
 2347SOL     OW18499   0.071   3.213   4.364  0.1882 -0.3412  0.4287
 2347SOL    HW118500   0.062   3.272   4.439  3.9248  0.0779  0.5501
 2347SOL    HW218501   0.134   3.256   4.306  2.0380  0.6469  3.1680
 2348SOL     OW18502   3.922   2.213  11.125 -0.0324 -0.2036 -0.3800
 2348SOL    HW118503   3.922   2.158  11.203  0.7749  0.2562 -0.0599
 2348SOL    HW218504   4.001   2.265  11.138 -1.9783  2.5496  0.2041
 2349SOL     OW18505   0.129   2.235  11.662 -0.0125 -0.0120  0.2112
 2349SOL    HW118506   0.166   2.273  11.583  0.4720 -0.3872  0.2573
 2349SOL    HW218507   0.123   2.314  11.717 -1.2888 -1.5172  2.2704
 2350SOL     OW18508   2.314   2.022  17.266 -0.6516 -0.1735  0.0754
 2350SOL    HW118509   2.375   1.996  17.336 -0.2007  0.1677 -0.1947
 2350SOL    HW218510   2.236   1.989  17.310 -0.7458  1.6349  1.2751
 2351SOL     OW18511   4.621   0.110   2.830  0.2159  0.4286  0.3042
 2351SOL    HW118512   4.552   0.163   2.872  0.2298  0.2938  0.4991
 2351SOL    HW218513   4.689   0.177   2.823 -0.6446  1.6111  2.9115
 2352SOL     OW18514   2.698   1.634   7.538 -0.1058  0.4922 -0.4890
 2352SOL    HW118515   2.705   1.621   7.633 -0.1943  1.0899 -0.3947
 2352SOL    HW218516   2.613   1.593   7.527 -0.9647  2.5514 -1.6113
 2353SOL     OW18517   4.264   2.787   8.255 -0.1069  0.5381 -0.3413
 2353SOL    HW118518   4.358   2.803   8.242  0.1132  0.1423  0.8046
 2353SOL    HW218519   4.272   2.778   8.350  0.3632 -1.3385 -0.5743
 2354SOL     OW18520   1.180   0.917   3.615  0.7394  0.0780  0.1166
 2354SOL    HW118521   1.234   0.965   3.677 -0.2351  0.1076  0.9558
 2354SOL    HW218522   1.233   0.917   3.536  0.8414  0.0033  0.1841
 2355SOL     OW18523   4.687   2.095  11.152 -0.3966 -0.1322 -0.0035
 2355SOL    HW118524   0.004   2.011  11.128  0.1486 -0.1781  1.0470
 2355SOL    HW218525   4.668   2.090  11.246  0.5419  1.3350  0.2756
 2356SOL     OW18526   3.167   0.075   4.263  0.4392  0.3790 -0.0874
 2356SOL    HW118527   3.088   0.093   4.212 -0.9673 -1.2418  1.5142
 2356SOL    HW218528   3.217   0.018   4.205 -0.1888  1.3580 -1.6001
 2357SOL     OW18529   1.232   3.453   0.766  0.4700  0.0646 -0.5309
 2357SOL    HW118530   1.210   3.545   0.782 -0.1982 -0.0696 -0.6739
 2357SOL    HW218531   1.300   3.460   0.699  2.6964 -1.7238  1.5374
 2358SOL     OW18532   3.587   2.047   9.584  0.3731  0.2630  0.5010
 2358SOL    HW118533   3.567   2.024   9.493  0.4443  2.3530 -0.0587
 2358SOL    HW218534   3.547   1.978   9.637  1.0128  1.5531  2.6570
 2359SOL     OW18535   1.442   4.262  14.676 -0.0917 -0.2586 -0.0339
 2359SOL    HW118536   1.527   4.219  14.685  0.8882  1.9006  1.2120
 2359SOL    HW218537   1.456   4.296  14.588 -0.0439  1.2163  0.5343
 2360SOL     OW18538   2.826   3.176   5.662  0.1834  0.0108 -0.7275
 2360SOL    HW118539   2.741   3.159   5.703  1.2760  1.9551  2.3267
 2360SOL    HW218540   2.806   3.159   5.570  2.4491  0.4815 -1.3158
 2361SOL     OW18541   2.206   1.501   4.821  0.2772  0.2813 -0.0815
 2361SOL    HW118542   2.199   1.410   4.849 -1.8955 -0.1360 -2.0730
 2361SOL    HW218543   2.250   1.497   4.737 -0.5289 -1.7623 -0.3932
 2362SOL     OW18544   4.074   3.342  14.854  0.5395 -0.2459  0.1517
 2362SOL    HW118545   4.159   3.298  14.855  1.6969  1.9983  1.1859
 2362SOL    HW218546   4.084   3.428  14.813  1.0883 -0.3486  0.0613
 2363SOL     OW18547   2.839   4.004  12.465  0.3136 -0.0178 -0.3550
 2363SOL    HW118548   2.917   4.037  12.508 -0.0404 -1.3004  1.2420
 2363SOL    HW218549   2.772   4.068  12.490  0.1695 -0.9828  1.7319
 2364SOL     OW18550   1.630   1.660   1.987  0.0011  0.5220  0.4505
 2364SOL    HW118551   1.625   1.583   1.931  1.4431  1.0562 -0.4093
 2364SOL    HW218552   1.725   1.662   1.995 -0.0246  0.2737  0.7868
 2365SOL     OW18553   3.417   1.646   2.048  0.0926 -0.3936 -0.2124
 2365SOL    HW118554   3.360   1.625   2.123  1.7079 -2.1553  0.5248
 2365SOL    HW218555   3.489   1.586   2.063  0.5475  0.2004 -0.0018
 2366SOL     OW18556   1.739   3.584  13.187 -0.3847 -0.1761  0.0197
 2366SOL    HW118557   1.715   3.584  13.094 -0.4411  0.9663  0.0348
 2366SOL    HW218558   1.730   3.493  13.215 -1.7500 -0.0880 -0.1528
 2367SOL     OW18559   0.647   4.292   8.022 -0.5188  0.4634 -0.2026
 2367SOL    HW118560   0.659   4.280   8.116 -1.9310 -1.0014 -0.2186
 2367SOL    HW218561   0.616   4.382   8.021  1.1647  1.0538 -0.2803
 2368SOL     OW18562   1.054   0.570   8.010  0.2524  0.3152 -0.1195
 2368SOL    HW118563   1.034   0.497   7.951 -1.0098  0.7783 -0.2684
 2368SOL    HW218564   0.970   0.615   8.005  0.0391 -0.1068 -0.3681
 2369SOL     OW18565   2.756   1.671   3.114  0.4874 -0.1841 -0.6438
 2369SOL    HW118566   2.790   1.700   3.029 -1.0346 -0.9061 -1.4968
 2369SOL    HW218567   2.824   1.698   3.175 -0.7858  2.0815 -0.2331
 2370SOL     OW18568   2.383   3.872   7.405  0.2362  0.2157 -0.1812
 2370SOL    HW118569   2.420   3.846   7.489 -0.1244 -0.7920 -0.3279
 2370SOL    HW218570   2.458   3.847   7.350  1.1338  0.4166  0.9597
 2371SOL     OW18571   2.485   2.550   9.196 -0.0795  0.0348  0.0661
 2371SOL    HW118572   2.501   2.644   9.203  0.4541  0.0763 -1.6934
 2371SOL    HW218573   2.570   2.513   9.172 -1.9263 -2.5454 -2.3991
 2372SOL     OW18574   1.756   1.955  13.927  0.3045 -0.1519  0.1652
 2372SOL    HW118575   1.828   1.925  13.984  0.9951 -0.6261 -0.9543
 2372SOL    HW218576   1.713   2.021  13.981  2.1258  0.7866  0.4831
 2373SOL     OW18577   1.388   3.220   2.727  1.1260 -0.2337 -0.2337
 2373SOL    HW118578   1.343   3.174   2.656 -1.1777  0.1281  0.9751
 2373SOL    HW218579   1.393   3.308   2.689  2.1961 -0.8022 -1.3848
 2374SOL     OW18580   4.399   1.761  10.327 -0.1170  0.0184 -0.0820
 2374SOL    HW118581   4.440   1.840  10.364  2.2963 -1.2824  0.0753
 2374SOL    HW218582   4.458   1.761  10.251 -0.9216 -0.7483 -0.7061
 2375SOL     OW18583   1.284   4.013   9.537  0.2122  0.2732 -0.1466
 2375SOL    HW118584   1.266   4.012   9.443  1.3969 -3.4847 -0.3459
 2375SOL    HW218585   1.212   4.072   9.559 -0.9588 -1.8302  1.6901
 2376SOL     OW18586   0.190   1.295   3.871 -0.3724 -0.1206 -0.4118
 2376SOL    HW118587   0.239   1.224   3.829 -0.9474  0.3144 -1.8152
 2376SOL    HW218588   0.204   1.358   3.801  1.0450  0.3715  0.3152
 2377SOL     OW18589   2.572   3.028   8.967 -0.0546 -0.3639 -0.6066
 2377SOL    HW118590   2.654   3.078   8.965  0.0545 -0.5432 -0.5885
 2377SOL    HW218591   2.550   3.033   8.874 -3.1412 -4.4561 -0.0720
 2378SOL     OW18592   1.745   4.260   4.733  0.0694 -0.2159  0.2509
 2378SOL    HW118593   1.732   4.348   4.697  0.8120  0.1803  0.9413
 2378SOL    HW218594   1.698   4.260   4.816 -1.5065  0.6115 -0.6521
 2379SOL     OW18595   0.269   1.804   6.492  0.2248  0.6311  0.0270
 2379SOL    HW118596   0.219   1.787   6.412 -0.4787  0.7126  0.4402
 2379SOL    HW218597   0.297   1.895   6.488 -0.0403  0.8887  3.6186
 2380SOL     OW18598   1.198   0.173   6.690  0.6028  0.8429 -0.0666
 2380SOL    HW118599   1.191   0.245   6.627  0.1986  1.4447  0.6617
 2380SOL    HW218600   1.122   0.117   6.677  2.4461 -1.6903  0.1314
 2381SOL     OW18601   2.658   3.754  10.096  0.0861  0.5927  0.3706
 2381SOL    HW118602   2.677   3.796  10.180  0.8971 -1.7813  1.3574
 2381SOL    HW218603   2.634   3.666  10.124  1.1739  0.0598 -0.3324
 2382SOL     OW18604   0.768   1.066   3.537  0.2943 -0.5718 -0.1051
 2382SOL    HW118605   0.823   1.137   3.571 -1.1695  0.6214 -0.2509
 2382SOL    HW218606   0.769   1.093   3.446 -0.3500 -1.6327 -0.4252
 2383SOL     OW18607   2.830   0.188   2.326  0.0679  0.4808 -0.1537
 2383SOL    HW118608   2.801   0.100   2.303 -1.4150  0.3740  2.1020
 2383SOL    HW218609   2.915   0.175   2.369  0.1331  0.5371 -0.2640
 2384SOL     OW18610   3.234   0.410   4.088  0.5493  0.2945 -0.0946
 2384SOL    HW118611   3.158   0.455   4.124  2.2324  3.4098 -0.4107
 2384SOL    HW218612   3.211   0.413   3.995  0.2313 -1.0971 -0.0584
 2385SOL     OW18613   0.597   3.719   2.438  0.3342  0.4748  0.0492
 2385SOL    HW118614   0.562   3.644   2.486 -0.2912  0.7004 -0.0512
 2385SOL    HW218615   0.535   3.788   2.461 -1.7482 -0.6824 -2.0258
 2386SOL     OW18616   2.999   4.058   1.866 -0.6135 -0.4222  0.0161
 2386SOL    HW118617   3.010   4.009   1.784  0.3074 -1.2591  0.6364
 2386SOL    HW218618   3.040   4.006   1.935 -0.0228  1.3669  1.0154
 2387SOL     OW18619   0.043   1.176   2.504 -0.4144  0.0481  0.5561
 2387SOL    HW118620   0.018   1.139   2.420 -3.1376  1.0498  0.9126
 2387SOL    HW218621   4.720   1.116   2.564 -0.0994 -1.7529 -1.0108
 2388SOL     OW18622   2.288   0.580   3.418 -0.3580 -0.1221  0.4322
 2388SOL    HW118623   2.204   0.616   3.390  0.0489 -0.1053 -0.7639
 2388SOL    HW218624   2.339   0.659   3.438 -0.4989  0.2366 -0.6418
 2389SOL     OW18625   0.408   4.058   4.940 -0.5554  0.1332  0.4300
 2389SOL    HW118626   0.472   4.107   4.887 -0.4659 -0.8667 -0.3962
 2389SOL    HW218627   0.460   3.977   4.944 -0.7787 -0.1092 -1.3265
 2390SOL     OW18628   4.708   0.602  10.062 -0.4134  0.3792 -0.0453
 2390SOL    HW118629   0.034   0.577   9.983 -0.4212 -0.6805  0.2889
 2390SOL    HW218630   0.053   0.629  10.123  0.8934  0.1779 -1.4269
 2391SOL     OW18631   0.641   0.057   3.678  0.0628 -0.1059  0.1947
 2391SOL    HW118632   0.659   0.076   3.585 -0.0533  2.2980  0.6657
 2391SOL    HW218633   0.709   0.113   3.717 -1.2380  1.3411  0.3940
 2392SOL     OW18634   2.550   1.735  16.935 -0.2340  0.2747  0.0145
 2392SOL    HW118635   2.536   1.642  16.956 -1.0252  0.2096 -0.7874
 2392SOL    HW218636   2.616   1.760  16.999 -1.9677  3.5208  0.5047
 2393SOL     OW18637   4.290   0.887  15.444  0.1455  0.2413  0.0273
 2393SOL    HW118638   4.321   0.800  15.470 -0.2724  0.0633 -0.0663
 2393SOL    HW218639   4.258   0.928  15.524 -0.0728 -0.0882  0.1109
 2394SOL     OW18640   4.591   3.874  17.252  0.7859  0.2707  0.4035
 2394SOL    HW118641   4.622   3.927  17.179 -0.0316 -1.6222 -1.3020
 2394SOL    HW218642   4.517   3.832  17.208 -0.0042 -0.0184  2.0100
 2395SOL     OW18643   3.290   1.051   4.377 -0.7236 -0.2614 -0.5580
 2395SOL    HW118644   3.272   1.081   4.287  1.0476 -1.9062 -1.4643
 2395SOL    HW218645   3.369   0.998   4.363 -0.7719  0.0951 -2.2665
 2396SOL     OW18646   2.600   0.276   4.285  0.1502  0.1985 -0.5580
 2396SOL    HW118647   2.689   0.278   4.318 -0.1060  0.0718  0.1339
 2396SOL    HW218648   2.584   0.183   4.267  1.2779 -0.0409 -0.2941
 2397SOL     OW18649   0.346   1.911   5.943  0.1817 -0.9046 -0.3375
 2397SOL    HW118650   0.421   1.863   5.908  1.1805 -0.3972  1.0966
 2397SOL    HW218651   0.295   1.926   5.863 -2.0845 -0.4553  1.1795
 2398SOL     OW18652   1.837   0.873  13.800 -0.2870 -0.4925  0.1033
 2398SOL    HW118653   1.748   0.852  13.831  0.6715  2.0805  4.7263
 2398SOL    HW218654   1.890   0.851  13.877  0.5271 -1.5523 -0.7770
 2399SOL     OW18655   3.069   1.742   5.816 -0.2635 -0.6462 -0.2696
 2399SOL    HW118656   3.146   1.768   5.865 -1.0503  0.1176  0.5699
 2399SOL    HW218657   3.105   1.722   5.729 -0.2853 -0.3697 -0.3414
 2400SOL     OW18658   3.521   4.567  12.115  0.1956  0.0581  0.0027
 2400SOL    HW118659   3.586   4.625  12.154 -1.6258  2.0457  0.0540
 2400SOL    HW218660   3.501   4.624  12.040  0.9751  2.3783  1.5579
 2401SOL     OW18661   4.672   0.839  13.245 -0.3569 -0.1589 -0.0013
 2401SOL    HW118662   0.003   0.886  13.309 -0.8100 -0.9366  0.9493
 2401SOL    HW218663   4.634   0.908  13.190 -0.1306  0.1637  0.2462
 2402SOL     OW18664   2.558   3.459   2.350 -0.1955  0.0861  0.2661
 2402SOL    HW118665   2.543   3.441   2.443  1.6831  0.2436  0.6108
 2402SOL    HW218666   2.531   3.548   2.331 -1.2174 -0.0309  1.1742
 2403SOL     OW18667   0.920   1.265   4.561 -0.2221 -0.3799  0.3161
 2403SOL    HW118668   1.006   1.222   4.555  0.1309  0.3700 -0.0986
 2403SOL    HW218669   0.870   1.235   4.636  2.6708 -1.5177  1.8031
 2404SOL     OW18670   0.368   1.802  12.416  0.2890  0.0569  0.2485
 2404SOL    HW118671   0.369   1.836  12.327 -0.3681 -0.9117 -0.1194
 2404SOL    HW218672   0.411   1.717  12.412  1.1722  0.6273 -2.2908
 2405SOL     OW18673   0.480   2.693   7.498 -0.2329  0.1948  0.0306
 2405SOL    HW118674   0.449   2.745   7.425  0.2963 -1.0804 -1.1029
 2405SOL    HW218675   0.400   2.683   7.549  0.9997  0.5326  2.0580
 2406SOL     OW18676   2.864   0.891   0.472 -0.2949  0.1051 -0.8572
 2406SOL    HW118677   2.915   0.851   0.401  0.3191  1.0929 -0.9677
 2406SOL    HW218678   2.795   0.825   0.474  0.3120 -0.4051  3.1544
 2407SOL     OW18679   0.749   1.965   2.662  0.0504  0.3310  0.3101
 2407SOL    HW118680   0.692   2.042   2.653 -0.8430 -0.2158  1.3107
 2407SOL    HW218681   0.827   1.991   2.614 -0.0160 -0.5249 -0.2482
 2408SOL     OW18682   3.039   0.181   5.225  0.0802  0.3663 -0.5852
 2408SOL    HW118683   3.088   0.099   5.212 -1.4530 -0.1630 -3.0088
 2408SOL    HW218684   2.964   0.156   5.172  1.0480 -0.0592 -1.7735
 2409SOL     OW18685   3.631   3.330  12.738  0.2880  0.6051 -0.7527
 2409SOL    HW118686   3.590   3.363  12.818 -0.8552 -0.8644 -0.7285
 2409SOL    HW218687   3.616   3.398  12.673 -1.0560  0.3822 -0.6810
 2410SOL     OW18688   3.700   2.295   0.760  0.3442  0.0844 -0.5187
 2410SOL    HW118689   3.644   2.256   0.827 -0.9475  0.2631 -1.4837
 2410SOL    HW218690   3.690   2.228   0.692  1.0603 -1.3396  0.7955
 2411SOL     OW18691   1.759   3.003  15.115  0.4052 -0.4676  0.1729
 2411SOL    HW118692   1.812   2.974  15.041 -0.5831  1.1189 -1.1741
 2411SOL    HW218693   1.699   2.930  15.127  0.8976 -1.0517 -0.9169
 2412SOL     OW18694   0.724   0.121   9.907 -0.0684 -0.6862  0.0519
 2412SOL    HW118695   0.780   0.045   9.893  0.8247 -0.4467  2.1545
 2412SOL    HW218696   0.684   0.082   9.985  1.3589  1.5741  1.9697
 2413SOL     OW18697   1.444   1.870  10.371  0.7572 -0.0152  0.0472
 2413SOL    HW118698   1.508   1.865  10.300 -0.4087 -0.2156 -0.9881
 2413SOL    HW218699   1.420   1.962  10.358 -1.5255 -0.3904  1.6301
 2414SOL     OW18700   1.925   0.605   2.993  0.2048 -0.0958  0.1848
 2414SOL    HW118701   1.980   0.643   2.925  1.4235 -0.0430  1.1944
 2414SOL    HW218702   1.839   0.622   2.955 -0.9805 -1.0915  2.4051
 2415SOL     OW18703   4.052   2.554   5.494  0.3270  0.7226 -0.3126
 2415SOL    HW118704   4.103   2.531   5.417 -0.0142 -0.4408 -0.1959
 2415SOL    HW218705   4.005   2.635   5.473  0.1091  0.9817  1.1352
 2416SOL     OW18706   0.858   1.447  14.032  0.3056 -0.3228 -0.1851
 2416SOL    HW118707   0.824   1.490  14.111 -0.8938  2.0202 -1.9878
 2416SOL    HW218708   0.950   1.468  14.043 -0.2155  1.6880  0.3414
 2417SOL     OW18709   1.577   3.723  14.385 -0.0757  0.0492 -0.3915
 2417SOL    HW118710   1.612   3.811  14.369  1.0527 -0.1289  1.1190
 2417SOL    HW218711   1.488   3.752  14.408 -0.1962  0.9968 -1.9784
 2418SOL     OW18712   3.947   3.606  16.118 -0.1749  0.6440  0.0887
 2418SOL    HW118713   3.932   3.598  16.212  1.5477 -1.8713  0.1454
 2418SOL    HW218714   3.951   3.701  16.125 -3.0045  0.7891 -0.4732
 2419SOL     OW18715   3.756   4.375   7.238 -0.0963 -0.4412  0.9117
 2419SOL    HW118716   3.798   4.354   7.321  2.3909  1.2823  0.1008
 2419SOL    HW218717   3.822   4.434   7.201  0.5861 -1.1466  1.0021
 2420SOL     OW18718   0.677   3.072   4.937  0.1190 -0.0928 -0.0433
 2420SOL    HW118719   0.602   3.049   4.991  0.7885 -2.9830 -0.3380
 2420SOL    HW218720   0.704   2.988   4.899  0.7374  0.2750 -0.4060
 2421SOL     OW18721   3.164   1.104   7.705 -0.0775 -0.6374 -0.5465
 2421SOL    HW118722   3.193   1.195   7.714  1.4521 -1.1185 -0.4921
 2421SOL    HW218723   3.218   1.055   7.768  3.4769  0.6751 -2.6105
 2422SOL     OW18724   3.154   4.666  13.864 -0.5242  0.0877 -0.4065
 2422SOL    HW118725   3.123   4.606  13.933 -0.3643  1.9356  1.2694
 2422SOL    HW218726   3.073   4.715  13.851 -2.0027 -1.6051  2.1796
 2423SOL     OW18727   3.947   0.849   4.939 -0.0099 -0.1870 -0.0818
 2423SOL    HW118728   3.966   0.756   4.930  1.3001 -0.0289  1.0602
 2423SOL    HW218729   3.920   0.852   5.031 -1.0572 -0.1404 -0.3936
 2424SOL     OW18730   3.270   2.991   7.218  0.3541  0.1136 -0.7483
 2424SOL    HW118731   3.320   3.013   7.140  0.4424 -2.4054 -1.4047
 2424SOL    HW218732   3.250   3.079   7.250 -0.5393 -0.0636 -0.8207
 2425SOL     OW18733   1.042   2.063   4.000 -0.3725  0.3289  0.0703
 2425SOL    HW118734   0.950   2.042   3.985  0.1223 -0.0703 -2.5826
 2425SOL    HW218735   1.081   2.046   3.914 -0.6210 -0.0148  0.0252
 2426SOL     OW18736   1.251   3.488  16.345  0.0816  0.2412  0.1636
 2426SOL    HW118737   1.166   3.446  16.361  0.3404 -0.0615  0.7208
 2426SOL    HW218738   1.245   3.555  16.414  1.5402 -0.6283  1.1355
 2427SOL     OW18739   1.353   0.732   6.257 -0.4823 -0.1028  0.5012
 2427SOL    HW118740   1.355   0.680   6.177 -1.9122 -0.5221  0.7232
 2427SOL    HW218741   1.262   0.762   6.260  0.4204  2.7473 -0.7496
 2428SOL     OW18742   3.343   4.133   6.604  0.0572  0.1873  0.5150
 2428SOL    HW118743   3.432   4.150   6.572  1.3254 -0.7572  3.6134
 2428SOL    HW218744   3.355   4.088   6.688 -3.0410  1.3143  1.5412
 2429SOL     OW18745   1.737   2.330   4.966 -1.0396  0.0837 -0.0790
 2429SOL    HW118746   1.707   2.246   5.001  0.0709 -0.3543 -0.1946
 2429SOL    HW218747   1.704   2.325   4.876 -0.0854 -1.1671 -0.3490
 2430SOL     OW18748   1.533   2.896   6.448  0.0622  0.6126 -0.1810
 2430SOL    HW118749   1.497   2.918   6.534  0.0854 -1.0429  0.2457
 2430SOL    HW218750   1.456   2.867   6.400 -0.3366  1.5441 -0.1103
 2431SOL     OW18751   1.814   3.618  16.914  0.3658  0.1732 -0.2463
 2431SOL    HW118752   1.840   3.710  16.907  1.9810 -0.4651 -2.6875
 2431SOL    HW218753   1.749   3.615  16.984  1.7341  0.6903  1.0450
 2432SOL     OW18754   3.856   4.192   7.833 -0.2878 -0.0355 -0.5024
 2432SOL    HW118755   3.779   4.242   7.860 -1.1310 -1.8922  0.5523
 2432SOL    HW218756   3.917   4.266   7.834  1.2205 -1.2922 -0.5779
 2433SOL     OW18757   2.074   1.045   7.220 -0.0251 -0.1166 -0.7449
 2433SOL    HW118758   2.003   1.024   7.281 -1.8200 -1.5968 -3.3715
 2433SOL    HW218759   2.069   1.141   7.216  1.5298  0.0495  1.4495
 2434SOL     OW18760   0.728   3.968   5.994  0.0922 -0.0968  0.0969
 2434SOL    HW118761   0.697   4.052   5.959  0.5770 -0.0060 -0.1135
 2434SOL    HW218762   0.819   3.985   6.016 -0.4402  3.4441 -0.4295
 2435SOL     OW18763   3.752   1.634   7.229 -0.1539  0.0539  0.2719
 2435SOL    HW118764   3.786   1.574   7.296 -0.3148 -1.0535 -0.6326
 2435SOL    HW218765   3.673   1.663   7.274 -0.3288  1.1256 -0.7277
 2436SOL     OW18766   0.691   3.728   8.726 -0.0619 -0.3289 -0.0536
 2436SOL    HW118767   0.603   3.692   8.721 -0.8751  1.7146 -0.4703
 2436SOL    HW218768   0.713   3.719   8.819  1.7804  0.0299 -0.4434
 2437SOL     OW18769   1.581   2.537   3.823  0.3962 -0.2718 -0.8422
 2437SOL    HW118770   1.653   2.527   3.760  0.1694  1.4887 -1.3876
 2437SOL    HW218771   1.620   2.606   3.875 -0.0885 -0.5004 -0.1815
 2438SOL     OW18772   2.994   1.684   3.271  1.2097 -0.1250  0.2678
 2438SOL    HW118773   2.943   1.614   3.313  3.9968 -2.0602  0.4169
 2438SOL    HW218774   3.047   1.621   3.221  1.9185  1.4637 -0.9831
 2439SOL     OW18775   4.026   1.139  16.816  0.0621 -0.0477  0.5487
 2439SOL    HW118776   4.027   1.081  16.893 -1.0718 -0.9754 -0.1242
 2439SOL    HW218777   4.058   1.223  16.848 -0.2638 -0.7900  2.7871
 2440SOL     OW18778   0.656   1.365   9.040 -0.1396 -0.5384  0.5560
 2440SOL    HW118779   0.562   1.380   9.027  0.8668  3.1607 -2.4275
 2440SOL    HW218780   0.658   1.276   9.004  3.3800 -0.2542  0.0870
 2441SOL     OW18781   1.539   0.834   3.632 -0.2375  0.1286 -0.2193
 2441SOL    HW118782   1.558   0.926   3.650 -0.2272  0.2274 -0.7451
 2441SOL    HW218783   1.540   0.789   3.717  0.3827 -1.0371 -0.8535
 2442SOL     OW18784   2.441   3.529   1.907 -0.8323  0.3042  0.3573
 2442SOL    HW118785   2.438   3.495   1.818 -0.7627  0.7692  0.1775
 2442SOL    HW218786   2.361   3.489   1.941 -0.6366 -0.6102 -0.2419
 2443SOL     OW18787   2.818   1.924  17.645 -0.1283  0.4048 -0.4409
 2443SOL    HW118788   2.857   1.841  17.669 -1.7511 -0.4754 -0.8137
 2443SOL    HW218789   2.762   1.900  17.571 -2.0692 -1.0674  1.4783
 2444SOL     OW18790   0.291   1.711  15.497  0.2951 -0.5856  0.1877
 2444SOL    HW118791   0.368   1.660  15.474  1.6855  2.0426 -0.9216
 2444SOL    HW218792   0.240   1.657  15.557  1.1907 -1.4791  0.1271
 2445SOL     OW18793   3.278   3.804  11.921  0.3015 -0.0594 -0.0249
 2445SOL    HW118794   3.278   3.773  11.830 -0.4313 -2.2087  0.7116
 2445SOL    HW218795   3.371   3.820  11.936  0.4699 -2.4178  1.4729
 2446SOL     OW18796   3.438   0.768   6.544  0.2817 -0.5250  0.4203
 2446SOL    HW118797   3.373   0.728   6.486  0.7326 -0.3420 -0.2092
 2446SOL    HW218798   3.477   0.826   6.479 -1.7371 -0.3672 -0.6447
 2447SOL     OW18799   1.612   1.584  13.545  0.4268  0.4123  0.3915
 2447SOL    HW118800   1.532   1.612  13.590  0.9733  0.4237  1.3609
 2447SOL    HW218801   1.641   1.507  13.594 -0.6578 -1.3468 -1.7177
 2448SOL     OW18802   2.404   3.920  15.168  0.2712  0.4771  0.5466
 2448SOL    HW118803   2.364   3.854  15.225 -0.2132  1.8096  1.7716
 2448SOL    HW218804   2.333   3.984  15.171 -1.8040 -1.8762  1.8269
 2449SOL     OW18805   0.808   2.952   0.766  0.0843 -0.8319 -0.2490
 2449SOL    HW118806   0.730   2.963   0.821  1.0668 -2.0355  1.3477
 2449SOL    HW218807   0.791   2.871   0.719  0.8443 -0.7724 -0.6311
 2450SOL     OW18808   1.421   1.925   4.525  0.1000  0.4186 -0.1267
 2450SOL    HW118809   1.414   1.920   4.430 -3.2676 -0.2253  0.1299
 2450SOL    HW218810   1.336   1.884   4.543 -0.0821  0.5573 -0.6504
 2451SOL     OW18811   0.440   3.096  16.122  0.7001 -1.4511  0.0957
 2451SOL    HW118812   0.380   3.044  16.068 -0.8653  1.2580 -0.7791
 2451SOL    HW218813   0.376   3.165  16.140  0.7943 -1.2125 -0.4698
 2452SOL     OW18814   1.431   4.342   7.160  0.0057  0.4274  0.6410
 2452SOL    HW118815   1.342   4.329   7.192 -0.3386 -0.4351 -0.6608
 2452SOL    HW218816   1.418   4.394   7.081 -2.9318  0.9505  1.4804
 2453SOL     OW18817   1.584   2.318   6.369 -0.7197  0.1574 -0.0647
 2453SOL    HW118818   1.519   2.387   6.380 -0.0114  1.0593 -1.5083
 2453SOL    HW218819   1.634   2.322   6.451 -1.0463  0.6234  0.1082
 2454SOL     OW18820   3.997   4.551   4.446 -0.2773 -0.3889 -0.3265
 2454SOL    HW118821   3.962   4.637   4.423  0.6965  0.2114  0.4363
 2454SOL    HW218822   4.023   4.527   4.357  2.0332 -0.0351  0.2516
 2455SOL     OW18823   3.213   1.655  17.362  0.2109  0.8358 -0.0979
 2455SOL    HW118824   3.151   1.661  17.289 -2.5776 -0.8880  2.1133
 2455SOL    HW218825   3.291   1.640  17.310  1.6256  1.6684  1.7775
 2456SOL     OW18826   2.741   2.625   6.477  0.1189  0.7537 -0.1796
 2456SOL    HW118827   2.679   2.691   6.446 -0.8531  0.2070  0.6110
 2456SOL    HW218828   2.824   2.670   6.494  1.2374 -0.7499 -1.6885
 2457SOL     OW18829   2.666   0.674   3.818 -0.0489  0.2594 -0.2009
 2457SOL    HW118830   2.619   0.756   3.807 -1.2666 -0.4327 -0.1785
 2457SOL    HW218831   2.672   0.638   3.730 -0.4480  1.0693 -0.5616
 2458SOL     OW18832   3.974   2.698  17.598 -0.1568  0.0501 -0.1234
 2458SOL    HW118833   3.908   2.743  17.545  1.1861  0.9170 -1.0639
 2458SOL    HW218834   3.919   2.629  17.636  0.4756 -0.3940 -0.0267
 2459SOL     OW18835   2.759   3.413   2.588  0.0939 -0.0997 -0.1484
 2459SOL    HW118836   2.696   3.353   2.549 -1.1036  0.2722  1.1949
 2459SOL    HW218837   2.698   3.448   2.653 -0.6427  1.3815 -1.6414
 2460SOL     OW18838   0.580   0.569  14.088  0.1183  0.4330 -0.0646
 2460SOL    HW118839   0.518   0.510  14.130  0.5492  0.1388  0.1569
 2460SOL    HW218840   0.522   0.645  14.077  0.2672  0.3377 -1.5397
 2461SOL     OW18841   0.025   3.249   6.853  0.0289 -0.1300  0.1042
 2461SOL    HW118842   0.097   3.299   6.815  0.5386 -1.8286 -1.1410
 2461SOL    HW218843   0.056   3.234   6.942 -0.3574  1.2647  0.4818
 2462SOL     OW18844   4.181   2.839  14.775 -0.3127  0.0260  0.1706
 2462SOL    HW118845   4.208   2.785  14.701  0.4889 -2.2532  2.1117
 2462SOL    HW218846   4.092   2.807  14.790  0.1875 -2.0159 -1.2169
 2463SOL     OW18847   3.040   4.631   4.841 -0.3170 -0.1101  0.1010
 2463SOL    HW118848   3.049   4.547   4.796 -1.5605  0.2949 -0.8965
 2463SOL    HW218849   2.946   4.649   4.838 -0.0788  0.8121 -1.7858
 2464SOL     OW18850   1.700   3.856   2.361  0.0911 -0.1169  0.0591
 2464SOL    HW118851   1.650   3.888   2.286 -0.9570  0.9219  1.1983
 2464SOL    HW218852   1.762   3.793   2.324 -0.0759 -0.0739 -0.2926
 2465SOL     OW18853   2.187   2.755   6.354 -0.7603  0.0124 -0.6923
 2465SOL    HW118854   2.227   2.727   6.272  1.3321  0.1594  0.2815
 2465SOL    HW218855   2.139   2.673   6.368 -1.0866  0.1752 -0.8699
 2466SOL     OW18856   1.583   2.128   5.939 -0.3268  0.2731 -0.0047
 2466SOL    HW118857   1.547   2.052   5.983 -2.1183  0.9002 -0.3981
 2466SOL    HW218858   1.620   2.170   6.016  0.3208  0.9477 -0.6775
 2467SOL     OW18859   0.260   2.076   4.373 -0.1623 -0.4916 -0.6628
 2467SOL    HW118860   0.231   2.139   4.439 -1.0044 -0.0044 -1.4984
 2467SOL    HW218861   0.274   2.000   4.429 -1.7255 -1.1095 -1.1284
 2468SOL     OW18862   2.570   2.375  11.379 -0.2012  1.1768  0.4624
 2468SOL    HW118863   2.630   2.449  11.384 -0.2267  1.4088 -2.6155
 2468SOL    HW218864   2.482   2.411  11.379 -0.5839  0.2263  1.4295
 2469SOL     OW18865   3.303   0.993   3.413 -0.6643  0.1788  0.5527
 2469SOL    HW118866   3.217   0.976   3.452 -1.5976 -0.5346 -1.8158
 2469SOL    HW218867   3.357   0.960   3.485  1.7665 -1.3642 -1.9395
 2470SOL     OW18868   2.209   2.698   3.164 -0.4512 -0.3240  1.0158
 2470SOL    HW118869   2.244   2.609   3.161 -0.3688 -0.2555 -0.0041
 2470SOL    HW218870   2.273   2.756   3.206  0.6724  0.0311 -1.1511
 2471SOL     OW18871   4.114   3.722  12.296  0.7565  0.2717  0.0139
 2471SOL    HW118872   4.030   3.682  12.315  0.5793  0.3258 -0.6515
 2471SOL    HW218873   4.108   3.745  12.203  0.7727  1.6377  0.3453
 2472SOL     OW18874   4.136   4.250   7.578  0.9388 -0.1191  0.2088
 2472SOL    HW118875   4.166   4.341   7.570 -2.7560  1.1650  1.0376
 2472SOL    HW218876   4.211   4.208   7.620 -0.5387  0.4891  3.4586
 2473SOL     OW18877   2.579   1.911   2.078 -0.6230  0.2538 -0.1882
 2473SOL    HW118878   2.656   1.879   2.126  0.1948  2.0271 -0.2850
 2473SOL    HW218879   2.599   1.862   1.999  0.7325 -0.2243  0.4479
 2474SOL     OW18880   3.034   1.015   2.585 -0.4489 -0.2000 -0.4288
 2474SOL    HW118881   3.063   0.933   2.624  1.5466  1.0952  0.7833
 2474SOL    HW218882   2.969   0.975   2.527 -0.9093 -0.9180  0.5972
 2475SOL     OW18883   3.819   4.143  15.278 -0.0917 -0.4524  0.8452
 2475SOL    HW118884   3.886   4.192  15.327  2.1813 -2.5242 -0.1842
 2475SOL    HW218885   3.762   4.217  15.260  1.1480  0.1374 -0.6494
 2476SOL     OW18886   3.623   2.257  14.797  0.4477  0.4720  0.0505
 2476SOL    HW118887   3.564   2.324  14.763  0.0126 -1.1299 -2.3947
 2476SOL    HW218888   3.694   2.314  14.825  2.3105 -1.9707  0.2456
 2477SOL     OW18889   3.164   1.627   8.080 -0.0320  0.3569  0.0653
 2477SOL    HW118890   3.163   1.675   8.162  0.5175  1.7579 -0.7544
 2477SOL    HW218891   3.093   1.672   8.036 -0.7047 -0.6392  0.1303
 2478SOL     OW18892   4.184   1.574   3.256  0.3902  0.5495  0.2058
 2478SOL    HW118893   4.260   1.517   3.259 -0.0342 -0.1259 -1.9601
 2478SOL    HW218894   4.151   1.581   3.346 -1.9926 -0.1017 -0.6131
 2479SOL     OW18895   1.998   1.478  15.994  0.5314  0.5495 -0.0309
 2479SOL    HW118896   1.905   1.496  15.987  0.5981  1.0965  0.5270
 2479SOL    HW218897   2.025   1.553  16.047  0.3543  1.6888 -1.5540
 2480SOL     OW18898   1.498   0.135  14.314 -0.7286  0.4422  0.7237
 2480SOL    HW118899   1.530   0.106  14.399  2.4861  0.3136 -0.5414
 2480SOL    HW218900   1.417   0.083  14.312  0.3789 -1.2663 -0.1963
 2481SOL     OW18901   2.974   4.627  12.257 -0.3631  0.4769 -0.3550
 2481SOL    HW118902   2.992   4.677  12.177 -1.1238  0.7341 -0.3659
 2481SOL    HW218903   2.978   4.705  12.313  0.4526  1.7039 -2.0969
 2482SOL     OW18904   0.461   2.476   9.589 -0.0542 -0.0222 -0.4379
 2482SOL    HW118905   0.485   2.432   9.507  0.0100 -2.3884  0.8445
 2482SOL    HW218906   0.494   2.418   9.657  1.0109 -0.2007 -1.1002
 2483SOL     OW18907   0.091   2.498   4.818 -0.2826  0.0294 -0.4435
 2483SOL    HW118908   0.066   2.470   4.730 -1.4759  0.4205 -0.2320
 2483SOL    HW218909   0.096   2.411   4.859  0.2585  0.7716  1.0829
 2484SOL     OW18910   3.305   2.044  15.427  0.4734 -0.3779 -0.1003
 2484SOL    HW118911   3.370   2.012  15.364  0.0849 -0.2876 -0.5510
 2484SOL    HW218912   3.246   1.969  15.433  0.0378  0.0924  1.2971
 2485SOL     OW18913   2.532   2.062   9.304 -0.6350  0.8126 -0.4454
 2485SOL    HW118914   2.518   1.991   9.367  0.3758  0.6931 -0.3617
 2485SOL    HW218915   2.445   2.102   9.310 -0.5855  0.9690 -0.8255
 2486SOL     OW18916   1.830   0.264   4.252  0.4468 -0.4313 -0.0610
 2486SOL    HW118917   1.843   0.268   4.346 -0.5855 -0.7566  0.0972
 2486SOL    HW218918   1.736   0.283   4.244 -0.0239 -1.9144  1.9502
 2487SOL     OW18919   2.430   3.003   5.306 -0.5664  0.7933  0.1741
 2487SOL    HW118920   2.338   3.011   5.331 -1.0200  2.2725 -1.9258
 2487SOL    HW218921   2.438   2.914   5.340  2.1480  0.9695 -0.0491
 2488SOL     OW18922   2.708   1.814   1.846  0.2543  0.0855  0.5760
 2488SOL    HW118923   2.774   1.881   1.827  0.0849  0.5585  1.6352
 2488SOL    HW218924   2.657   1.808   1.766 -0.6448 -3.3817  1.4476
 2489SOL     OW18925   3.237   1.347   7.849 -0.7257  0.5804  0.4956
 2489SOL    HW118926   3.300   1.410   7.812  0.3333 -0.5820  0.3190
 2489SOL    HW218927   3.161   1.403   7.832 -1.0011 -0.3067 -1.2314
 2490SOL     OW18928   0.052   2.797  16.129 -0.4257  0.0624 -0.6186
 2490SOL    HW118929   0.022   2.880  16.092 -0.3041  0.3312 -0.1097
 2490SOL    HW218930   0.146   2.809  16.114 -0.5270  0.1550 -1.1852
 2491SOL     OW18931   4.097   4.021   3.917 -0.6609  0.1542  0.3122
 2491SOL    HW118932   4.140   4.025   4.003  0.4642  0.5164 -0.2782
 2491SOL    HW218933   4.037   3.948   3.934  1.3142 -1.2593  1.1969
 2492SOL     OW18934   3.241   3.280   5.602  0.0852  0.3079  0.2877
 2492SOL    HW118935   3.295   3.356   5.623  0.2414 -0.0253  1.0645
 2492SOL    HW218936   3.191   3.263   5.682 -1.3100  0.2268 -0.5972
 2493SOL     OW18937   3.524   4.185   4.252 -0.3155 -0.0998  0.3424
 2493SOL    HW118938   3.553   4.098   4.226 -0.5279 -0.8210  2.4936
 2493SOL    HW218939   3.472   4.220   4.180  0.1681 -1.0002 -0.4477
 2494SOL     OW18940   1.584   3.119   5.491 -0.8634 -0.6001  0.0122
 2494SOL    HW118941   1.524   3.073   5.432 -1.3908  0.1326 -0.0244
 2494SOL    HW218942   1.614   3.050   5.549  0.5091  0.9810  1.1871
 2495SOL     OW18943   0.603   2.265   8.081  0.2318  0.1274 -0.0240
 2495SOL    HW118944   0.678   2.241   8.136 -0.4916  0.7547  1.2449
 2495SOL    HW218945   0.551   2.315   8.145  0.8003 -2.0082  2.1284
 2496SOL     OW18946   3.676   2.486  16.005 -0.4790 -0.3897  0.6790
 2496SOL    HW118947   3.626   2.420  16.051  0.2550 -0.9433  0.6887
 2496SOL    HW218948   3.715   2.423  15.944  0.8410  0.0109  1.1084
 2497SOL     OW18949   1.591   0.469   9.557 -0.2395 -1.1537  0.0903
 2497SOL    HW118950   1.529   0.434   9.621 -0.5927 -0.2088  0.2739
 2497SOL    HW218951   1.527   0.514   9.501  0.7025  0.4165  0.2831
 2498SOL     OW18952   1.499   1.627  17.275  0.1545 -0.0311  0.5623
 2498SOL    HW118953   1.404   1.629  17.285 -0.0566 -2.2750 -0.7866
 2498SOL    HW218954   1.524   1.719  17.279 -3.1058  0.9224 -1.2427
 2499SOL     OW18955   0.084   0.595   8.490  0.0263 -0.7670 -0.1013
 2499SOL    HW118956   0.093   0.540   8.568  0.4366 -1.5693 -0.7054
 2499SOL    HW218957   4.716   0.619   8.503  0.6814  0.4927  2.0953
 2500SOL     OW18958   3.210   0.808   4.528  0.7654  0.0760 -0.3883
 2500SOL    HW118959   3.274   0.869   4.566  0.4335  0.1516  0.0421
 2500SOL    HW218960   3.216   0.842   4.438  1.6358  1.2268  0.0999
 2501SOL     OW18961   4.497   1.655   6.612 -0.3970  0.0182 -0.1429
 2501SOL    HW118962   4.403   1.645   6.595 -0.4410 -1.6539  1.0758
 2501SOL    HW218963   4.513   1.566   6.643 -1.7616 -0.1813 -0.0081
 2502SOL     OW18964   2.280   2.652   2.421 -0.5611 -0.3520  0.4162
 2502SOL    HW118965   2.192   2.675   2.452 -0.3008  0.3386  0.6408
 2502SOL    HW218966   2.335   2.687   2.492  0.3763 -0.4452 -0.2717
 2503SOL     OW18967   2.487   1.367  12.534 -0.0641 -0.1431  0.4158
 2503SOL    HW118968   2.414   1.355  12.594 -1.1512 -2.2077 -1.3100
 2503SOL    HW218969   2.484   1.462  12.530  1.4819 -0.1294 -0.3075
 2504SOL     OW18970   0.165   2.045   6.113 -0.2598 -0.0610 -0.5449
 2504SOL    HW118971   0.118   1.962   6.103 -1.5237  0.7810 -1.7830
 2504SOL    HW218972   0.231   2.036   6.045 -0.8448  2.9082 -1.4825
 2505SOL     OW18973   1.200   4.340   0.800 -0.2553  0.2611 -0.8405
 2505SOL    HW118974   1.197   4.421   0.852 -1.1637  0.6851 -1.5462
 2505SOL    HW218975   1.291   4.343   0.773  0.4784 -3.6688  1.1442
 2506SOL     OW18976   4.624   2.854   7.053 -0.4052  0.1031 -0.0663
 2506SOL    HW118977   4.570   2.793   7.103 -1.8852  1.4208 -0.0689
 2506SOL    HW218978   4.631   2.930   7.111 -0.4980 -1.2813  1.7573
 2507SOL     OW18979   0.433   2.561   5.384  0.2150 -0.2131 -0.0776
 2507SOL    HW118980   0.453   2.488   5.443  0.4670  0.1939  0.3437
 2507SOL    HW218981   0.410   2.634   5.442  0.7932 -1.8742  2.2432
 2508SOL     OW18982   1.650   1.219  10.593  0.1021  0.6188  0.2079
 2508SOL    HW118983   1.655   1.159  10.518  1.5469 -1.1892  1.7205
 2508SOL    HW218984   1.573   1.179  10.633  1.1137 -1.5128  0.0413
 2509SOL     OW18985   0.975   3.997   8.333 -0.1377 -0.2716 -0.2173
 2509SOL    HW118986   0.907   3.932   8.315 -0.2700 -0.4667  1.0017
 2509SOL    HW218987   1.039   3.939   8.374 -0.4759  1.5259  2.8436
 2510SOL     OW18988   1.251   2.500   1.248  0.0152  0.2333  0.2274
 2510SOL    HW118989   1.172   2.505   1.193  0.3425 -0.8482 -0.3432
 2510SOL    HW218990   1.253   2.409   1.277 -1.9567  0.0607 -0.1783
 2511SOL     OW18991   1.403   4.352  14.953 -0.5388  0.2297  0.3935
 2511SOL    HW118992   1.480   4.325  15.005 -0.3488 -0.1447 -0.0876
 2511SOL    HW218993   1.337   4.285  14.968 -2.5726  2.0236 -0.4602
 2512SOL     OW18994   0.001   1.176   7.455  0.5394 -0.1663  0.7403
 2512SOL    HW118995   4.633   1.188   7.430  0.6414 -0.7025  0.1031
 2512SOL    HW218996   0.028   1.131   7.374  0.2296  0.3306  0.3609
 2513SOL     OW18997   2.710   0.026  11.973  0.0769  0.3875  0.3082
 2513SOL    HW118998   2.644   4.704  12.027 -0.4305  0.9634  0.1632
 2513SOL    HW218999   2.783   0.046  12.031 -0.5149  0.7794  0.9197
 2514SOL     OW19000   1.297   2.224   7.766  0.4978  0.3609 -0.3912
 2514SOL    HW119001   1.271   2.280   7.693 -1.4509  0.2038  0.1767
 2514SOL    HW219002   1.325   2.298   7.821  0.7358 -0.4899  0.6443
 2515SOL     OW19003   2.795   0.302   3.488  0.0576  0.1306  0.5067
 2515SOL    HW119004   2.887   0.278   3.479  0.6947  2.6210  0.3505
 2515SOL    HW219005   2.797   0.385   3.440  1.3572 -0.3193 -0.2012
 2516SOL     OW19006   1.999   1.282   1.368 -0.1282 -0.4532  0.2664
 2516SOL    HW119007   2.052   1.255   1.293 -1.2453 -0.6355 -0.4720
 2516SOL    HW219008   1.914   1.268   1.324 -0.6560 -1.0640  1.4774
 2517SOL     OW19009   0.059   0.774   5.779  1.0376  0.1334 -0.6291
 2517SOL    HW119010   0.112   0.845   5.814  1.1906 -0.3959  0.2021
 2517SOL    HW219011   4.700   0.822   5.773  1.7731  1.4734  0.0514
 2518SOL     OW19012   1.031   1.236   9.721  0.0592  0.3195  0.2767
 2518SOL    HW119013   1.028   1.223   9.626  3.4008  0.7800  0.0988
 2518SOL    HW219014   1.042   1.331   9.713  1.9220  0.0116 -0.8733
 2519SOL     OW19015   0.001   3.740   0.833  0.7658 -0.2110  0.4999
 2519SOL    HW119016   0.090   3.750   0.868  1.5016 -3.9593 -0.2809
 2519SOL    HW219017   4.676   3.799   0.891 -1.2893  0.2441 -1.6882
 2520SOL     OW19018   2.445   0.768  15.918  0.1189  0.4160 -0.0017
 2520SOL    HW119019   2.353   0.751  15.939 -0.7522  1.9305 -2.5972
 2520SOL    HW219020   2.492   0.697  15.961 -2.1774  1.2833  3.8749
 2521SOL     OW19021   0.321   1.339   8.588  0.0011  0.1236 -0.5113
 2521SOL    HW119022   0.370   1.337   8.670  0.5868  1.6055 -0.8268
 2521SOL    HW219023   0.240   1.303   8.624  0.5448 -1.4239 -0.8207
 2522SOL     OW19024   3.191   2.795   4.107 -0.4705 -0.3243 -0.4859
 2522SOL    HW119025   3.180   2.831   4.019  1.7120  2.5727  0.4242
 2522SOL    HW219026   3.154   2.867   4.159  2.4047 -0.5678  1.9437
 2523SOL     OW19027   4.632   3.685   7.637  0.4988 -0.4693  0.1193
 2523SOL    HW119028   4.708   3.642   7.676  1.4094  1.9404  1.0395
 2523SOL    HW219029   4.627   3.644   7.551  1.2481  0.1473 -0.2228
 2524SOL     OW19030   1.295   1.166   6.354 -0.0819  0.2352 -0.3869
 2524SOL    HW119031   1.341   1.199   6.278 -0.2891  1.7098  0.1326
 2524SOL    HW219032   1.365   1.115   6.396 -0.0583  1.7264  1.3951
 2525SOL     OW19033   0.389   1.626   8.048  0.0551  0.3584  0.1315
 2525SOL    HW119034   0.379   1.611   7.954  1.4460 -0.2596  0.0797
 2525SOL    HW219035   0.413   1.535   8.067  0.8461  0.0737 -2.1575
 2526SOL     OW19036   4.707   3.024  15.999 -0.5533 -0.0767  0.4303
 2526SOL    HW119037   4.690   3.117  16.016 -1.0282  0.1006 -0.9662
 2526SOL    HW219038   4.629   2.998  15.951 -0.5851  1.6541 -0.4404
 2527SOL     OW19039   3.407   4.527   4.997  0.0727 -0.0540  0.2062
 2527SOL    HW119040   3.360   4.520   4.913  0.9509 -0.9715 -0.2110
 2527SOL    HW219041   3.436   4.435   4.998 -0.9884 -0.4149 -1.1188
 2528SOL     OW19042   1.399   1.183   7.643  0.0458 -0.0920 -0.1792
 2528SOL    HW119043   1.384   1.089   7.654  0.4732  0.1205  2.2031
 2528SOL    HW219044   1.373   1.198   7.552  0.9256 -1.1938 -0.6143
 2529SOL     OW19045   0.964   0.414   0.473  0.0009  0.5206 -0.4656
 2529SOL    HW119046   1.055   0.409   0.444 -0.5779 -1.5991 -1.8941
 2529SOL    HW219047   0.973   0.416   0.568  0.4259 -0.5677 -0.4789
 2530SOL     OW19048   3.811   0.508   3.316 -0.2985 -0.0112  0.6181
 2530SOL    HW119049   3.720   0.480   3.302 -0.2092  0.6071 -1.1443
 2530SOL    HW219050   3.813   0.584   3.257  0.5828 -1.4124 -1.1411
 2531SOL     OW19051   3.213   1.146   5.312  0.1191  0.3603  0.4205
 2531SOL    HW119052   3.200   1.180   5.401  1.5372 -2.2009  1.6206
 2531SOL    HW219053   3.304   1.117   5.319 -0.6427 -2.3440 -0.8049
 2532SOL     OW19054   1.770   0.925  15.166  0.1410 -0.4081  0.0057
 2532SOL    HW119055   1.784   1.019  15.164 -1.4770 -0.1270  1.2719
 2532SOL    HW219056   1.675   0.927  15.156  0.0766  2.4864  1.3396
 2533SOL     OW19057   0.580   1.071   6.767  0.0161 -0.1684 -0.5101
 2533SOL    HW119058   0.640   1.123   6.713 -0.1320 -0.3427 -0.8454
 2533SOL    HW219059   0.636   1.053   6.842 -3.0171  1.0175  2.0191
 2534SOL     OW19060   0.458   4.647   2.171 -0.4283 -0.4754  0.0478
 2534SOL    HW119061   0.373   4.631   2.129  0.3522 -0.6915 -1.4294
 2534SOL    HW219062   0.471   4.567   2.223 -2.1354 -0.8421 -0.0944
 2535SOL     OW19063   0.183   1.587   0.985  0.8576  0.1693  0.5479
 2535SOL    HW119064   0.240   1.620   1.054  3.0811 -0.2418 -1.1198
 2535SOL    HW219065   0.231   1.511   0.952  2.6137  1.9477 -0.9240
 2536SOL     OW19066   0.797   0.029  13.468  0.1899 -0.1612 -0.4259
 2536SOL    HW119067   0.780   0.049  13.560  1.2172  1.9697 -0.6968
 2536SOL    HW219068   0.707   0.029  13.436  0.0597 -0.7015 -0.0441
 2537SOL     OW19069   0.324   3.842  16.426 -0.1374  0.0912 -0.1292
 2537SOL    HW119070   0.360   3.767  16.381  0.1790  0.2484 -0.1378
 2537SOL    HW219071   0.269   3.888  16.363 -0.3212  0.5206  0.3396
 2538SOL     OW19072   2.765   3.007   8.021 -0.5176  0.0186  0.1656
 2538SOL    HW119073   2.818   2.930   8.040  0.0452  0.1307 -0.9039
 2538SOL    HW219074   2.789   3.053   8.101 -0.5652  2.4510 -1.2110
 2539SOL     OW19075   0.902   3.161   5.066  0.2446 -0.4357  0.2124
 2539SOL    HW119076   0.820   3.123   5.034 -1.0735  1.9784  0.7188
 2539SOL    HW219077   0.945   3.085   5.107  2.1417  0.1600 -0.6835
 2540SOL     OW19078   2.614   0.682  11.003 -0.2196 -0.0080  0.2432
 2540SOL    HW119079   2.631   0.610  10.943 -0.5256 -1.0316  1.3936
 2540SOL    HW219080   2.522   0.675  11.028  0.3873 -3.0417  1.6064
 2541SOL     OW19081   4.401   3.411   7.182 -0.9375 -0.1096 -0.2892
 2541SOL    HW119082   4.318   3.374   7.151  0.9377 -2.7012 -2.2912
 2541SOL    HW219083   4.401   3.372   7.269  0.7152 -1.2860 -0.8289
 2542SOL     OW19084   2.686   3.878   3.954  0.3376 -0.5034 -0.3531
 2542SOL    HW119085   2.674   3.784   3.947 -0.5025 -0.4957  0.8537
 2542SOL    HW219086   2.661   3.903   3.865 -0.1727  2.2174  0.5391
 2543SOL     OW19087   3.827   2.252   1.591 -0.3139 -0.0489 -0.0271
 2543SOL    HW119088   3.817   2.284   1.501  0.8260  0.5569  0.0642
 2543SOL    HW219089   3.876   2.170   1.580  0.2605  0.2259  0.4952
 2544SOL     OW19090   0.419   0.070   6.637  0.0580  0.1791  0.2732
 2544SOL    HW119091   0.326   0.048   6.645 -0.1005  0.8292  0.1614
 2544SOL    HW219092   0.422   0.163   6.658  0.3640  0.0835  0.6597
 2545SOL     OW19093   0.817   2.086  14.466 -0.3319 -0.3818  0.1532
 2545SOL    HW119094   0.737   2.106  14.418 -0.7626 -0.1135  0.9740
 2545SOL    HW219095   0.819   2.163  14.523 -3.2738  0.3396 -0.7320
 2546SOL     OW19096   0.232   0.803  11.277 -0.4551 -0.2825 -0.3157
 2546SOL    HW119097   0.301   0.864  11.300 -2.1493  1.4657  0.1107
 2546SOL    HW219098   0.174   0.813  11.353 -0.9747 -2.2352 -0.4303
 2547SOL     OW19099   1.328   3.928   5.340 -0.4516 -0.1838  0.1538
 2547SOL    HW119100   1.349   3.889   5.255 -3.6997  1.2635 -1.2879
 2547SOL    HW219101   1.290   3.849   5.380 -0.4806  0.2739  1.0235
 2548SOL     OW19102   1.853   4.489  11.190  0.1340 -0.0537 -0.3512
 2548SOL    HW119103   1.761   4.475  11.214  0.5140 -2.1094 -0.0647
 2548SOL    HW219104   1.874   4.424  11.257 -1.8124  1.3533  1.6314
 2549SOL     OW19105   3.739   3.740  14.507 -0.6057 -0.7236 -0.1372
 2549SOL    HW119106   3.684   3.663  14.524 -0.3787 -0.5682  1.2558
 2549SOL    HW219107   3.738   3.728  14.412  0.0532  0.2939 -0.2650
 2550SOL     OW19108   0.947   2.796   2.645  0.4076  0.0173  0.4189
 2550SOL    HW119109   0.933   2.702   2.660  1.3137  0.1672  2.2558
 2550SOL    HW219110   1.035   2.820   2.674  0.0123  0.6486  1.1080
 2551SOL     OW19111   2.582   3.495  15.641  0.1708 -0.7530 -0.1358
 2551SOL    HW119112   2.495   3.483  15.679 -0.5955  0.7883 -1.3914
 2551SOL    HW219113   2.607   3.407  15.613 -0.6079 -0.8951 -0.3816
 2552SOL     OW19114   1.354   2.720   3.821 -0.4770 -0.3114 -0.2998
 2552SOL    HW119115   1.401   2.650   3.865 -1.1081  0.1319  1.0867
 2552SOL    HW219116   1.425   2.762   3.772 -1.3680  0.7393 -0.7038
 2553SOL     OW19117   3.813   1.743   5.857  0.2561  0.2605 -0.1172
 2553SOL    HW119118   3.865   1.670   5.890  1.8332  1.1258 -0.7102
 2553SOL    HW219119   3.727   1.706   5.875  0.6142 -0.2772  0.4950
 2554SOL     OW19120   3.174   0.112   3.264 -0.4340 -0.1111  0.7150
 2554SOL    HW119121   3.177   0.118   3.169  1.1281 -3.2104  0.5650
 2554SOL    HW219122   3.196   0.019   3.262  2.3719  0.5420  0.6580
 2555SOL     OW19123   1.144   4.555   5.526 -0.1200  0.2255 -0.5815
 2555SOL    HW119124   1.070   4.615   5.514 -1.1160 -0.8947  0.0875
 2555SOL    HW219125   1.117   4.480   5.579  0.8784  0.8296  0.7711
 2556SOL     OW19126   2.458   2.534   8.540  0.0628 -0.1770  0.8055
 2556SOL    HW119127   2.379   2.583   8.566 -0.6983 -0.6069 -0.7229
 2556SOL    HW219128   2.474   2.561   8.450  0.5245 -0.8292  0.6998
 2557SOL     OW19129   2.831   4.333   2.643  0.4453  0.2273 -0.5394
 2557SOL    HW119130   2.839   4.238   2.652  2.7200  0.3869 -0.9380
 2557SOL    HW219131   2.835   4.372   2.730 -2.7701  1.2919 -0.8665
 2558SOL     OW19132   3.673   3.293   7.618  0.4398 -0.0474  0.9361
 2558SOL    HW119133   3.674   3.382   7.584 -0.6172  0.4427  2.1674
 2558SOL    HW219134   3.626   3.302   7.701 -2.6401 -1.7558 -0.5921
 2559SOL     OW19135   1.357   0.591   8.428  0.5029  0.3054  0.1124
 2559SOL    HW119136   1.291   0.552   8.370 -0.7951 -2.3603  3.3887
 2559SOL    HW219137   1.304   0.599   8.508  0.7390 -0.9162  0.3895
 2560SOL     OW19138   2.867   2.113   5.647  0.3090 -0.6571 -0.2510
 2560SOL    HW119139   2.893   2.106   5.555 -1.1439  0.3053 -0.7382
 2560SOL    HW219140   2.939   2.065   5.686  1.0701 -2.1264 -3.4150
 2561SOL     OW19141   2.096   2.260   6.561 -0.1425  0.9235  0.4462
 2561SOL    HW119142   2.181   2.303   6.573  0.9296 -1.0725 -0.0804
 2561SOL    HW219143   2.054   2.273   6.647  0.4086  2.0369  0.5519
 2562SOL     OW19144   3.540   3.120   9.104 -0.0723 -0.0093  0.0987
 2562SOL    HW119145   3.569   3.211   9.095 -1.6778  0.4149 -0.6953
 2562SOL    HW219146   3.445   3.125   9.106  0.1445  3.6650  0.5984
 2563SOL     OW19147   4.541   1.334   2.855  0.1049  1.2309  0.7155
 2563SOL    HW119148   4.563   1.341   2.762  0.0127 -2.2715  0.4132
 2563SOL    HW219149   4.521   1.241   2.871  2.7830  0.8390  1.9479
 2564SOL     OW19150   1.345   0.578   2.463  0.3964 -0.2883 -0.6864
 2564SOL    HW119151   1.319   0.603   2.552 -0.6206 -0.4277 -0.9487
 2564SOL    HW219152   1.373   0.659   2.421 -0.1093  0.1060 -0.2685
 2565SOL     OW19153   4.047   0.757  12.772 -0.3867  0.3015 -0.3321
 2565SOL    HW119154   3.991   0.826  12.806 -0.7180 -1.6377  3.0424
 2565SOL    HW219155   4.033   0.752  12.677 -2.0895 -0.7326 -0.0226
 2566SOL     OW19156   3.771   3.984   4.411  0.0242 -0.7270 -1.0624
 2566SOL    HW119157   3.854   3.998   4.457 -1.5293  1.5309  1.0570
 2566SOL    HW219158   3.805   4.015   4.327  1.4380 -0.2054 -0.3013
 2567SOL     OW19159   3.415   1.081  14.308 -0.1134 -0.0721 -0.0785
 2567SOL    HW119160   3.365   1.126  14.240 -0.6299  0.7047  0.8154
 2567SOL    HW219161   3.507   1.107  14.306 -0.5746  1.3502 -2.6699
 2568SOL     OW19162   2.249   1.563  17.149  0.1127 -0.0776  0.4293
 2568SOL    HW119163   2.184   1.513  17.199  2.1876 -1.4426  1.7482
 2568SOL    HW219164   2.312   1.501  17.114 -0.3780  0.0480 -0.6920
 2569SOL     OW19165   1.505   1.466   8.657  0.0163  0.1418  0.0301
 2569SOL    HW119166   1.458   1.425   8.730  1.0639 -2.3231 -0.6801
 2569SOL    HW219167   1.488   1.558   8.679 -0.2790  0.1853 -0.3968
 2570SOL     OW19168   3.172   1.086   4.881  0.6092  0.8913 -0.1280
 2570SOL    HW119169   3.215   1.171   4.867 -0.8363  1.5495 -0.5811
 2570SOL    HW219170   3.129   1.103   4.966 -0.1675  0.3636 -0.4172
 2571SOL     OW19171   1.132   2.872   6.582  0.4767 -0.1127  0.1016
 2571SOL    HW119172   1.201   2.907   6.638  0.5804 -2.1182  1.1976
 2571SOL    HW219173   1.149   2.906   6.494  1.5770  1.4671  0.9301
 2572SOL     OW19174   4.001   2.871   1.269  0.3606 -0.1490  0.5071
 2572SOL    HW119175   3.991   2.824   1.186 -1.2971 -0.1123  0.6847
 2572SOL    HW219176   4.093   2.896   1.258 -0.4466  3.8277  3.1689
 2573SOL     OW19177   1.207   1.842   5.925 -0.0675  0.1022 -0.6364
 2573SOL    HW119178   1.194   1.767   5.866 -0.7641  0.1319 -0.5217
 2573SOL    HW219179   1.246   1.912   5.873 -0.4336  0.1192 -0.8908
 2574SOL     OW19180   3.976   3.932   5.347  0.8237  0.4846  0.3118
 2574SOL    HW119181   3.891   3.940   5.391  0.9810  2.9180  0.1574
 2574SOL    HW219182   3.961   3.965   5.259  2.4945  1.0267  0.2335
 2575SOL     OW19183   1.592   1.402   3.154  0.0599 -0.1174 -0.4483
 2575SOL    HW119184   1.637   1.462   3.095 -1.1528  0.8963 -0.3252
 2575SOL    HW219185   1.610   1.439   3.240  2.7215 -0.2881 -0.9371
 2576SOL     OW19186   2.541   3.583   7.510  0.1130 -0.1478 -0.3048
 2576SOL    HW119187   2.523   3.668   7.550  0.8669 -0.5191  0.8146
 2576SOL    HW219188   2.600   3.546   7.576 -2.9378 -1.4881  1.6737
 2577SOL     OW19189   4.123   1.060   3.667  0.0490  0.2111  0.3299
 2577SOL    HW119190   4.202   1.040   3.718  0.2716  0.1876 -0.0313
 2577SOL    HW219191   4.074   1.106   3.736  0.3614  0.1488  0.5985
 2578SOL     OW19192   0.475   3.189  17.297  0.3114  0.6095 -0.6994
 2578SOL    HW119193   0.517   3.104  17.305 -1.6098 -0.1845  0.9079
 2578SOL    HW219194   0.400   3.190  17.357  1.2916 -3.0548  0.5737
 2579SOL     OW19195   0.251   1.761   8.325  0.3033  0.2944 -0.0614
 2579SOL    HW119196   0.295   1.677   8.310  0.6434  0.3088  0.8853
 2579SOL    HW219197   0.191   1.757   8.250  0.6941  3.2786 -0.5253
 2580SOL     OW19198   4.513   2.298  10.839 -0.2556 -0.7051 -0.2178
 2580SOL    HW119199   4.500   2.203  10.848 -1.8500 -0.6703 -2.2138
 2580SOL    HW219200   4.443   2.322  10.900 -0.0866  1.6926 -0.9845
 2581SOL     OW19201   2.631   3.971   2.436  0.6691 -0.4387  0.1796
 2581SOL    HW119202   2.720   3.983   2.406  0.4846  0.2090 -0.1031
 2581SOL    HW219203   2.599   4.059   2.416  0.0973 -0.9083 -0.9651
 2582SOL     OW19204   4.548   4.600  12.754 -0.4083  0.0732  0.3286
 2582SOL    HW119205   4.542   4.694  12.737  0.5750 -0.2698 -1.9692
 2582SOL    HW219206   4.460   4.565  12.738  0.2554 -0.7154 -1.6398
 2583SOL     OW19207   3.017   0.104  14.264 -0.2994 -0.5289 -0.2226
 2583SOL    HW119208   2.967   0.128  14.185  0.8914 -0.8274 -1.0721
 2583SOL    HW219209   3.036   0.188  14.306  1.1214 -0.1184 -1.7020
 2584SOL     OW19210   1.424   4.259   5.158 -0.1054  0.2832  0.5899
 2584SOL    HW119211   1.338   4.291   5.186  0.2195 -0.6019  2.5487
 2584SOL    HW219212   1.422   4.173   5.199 -0.5913  1.8700  3.9062
 2585SOL     OW19213   3.844   2.649   1.417 -0.3145  0.5937  1.0091
 2585SOL    HW119214   3.895   2.730   1.407 -1.0427  0.8742 -0.4124
 2585SOL    HW219215   3.776   2.644   1.351 -0.5253 -0.4913  1.3050
 2586SOL     OW19216   3.109   3.517   3.463  0.5707  0.1314 -0.1653
 2586SOL    HW119217   3.143   3.560   3.385  1.5294 -0.5922 -0.1534
 2586SOL    HW219218   3.142   3.579   3.528 -2.2882 -1.2860  2.6219
 2587SOL     OW19219   1.329   1.137  10.355 -0.5963 -0.3334 -0.2790
 2587SOL    HW119220   1.354   1.208  10.296 -0.8797  3.1092  3.7451
 2587SOL    HW219221   1.363   1.063  10.305  0.2307  0.7095 -1.2531
 2588SOL     OW19222   2.862   1.128   5.553  0.2282 -0.4820 -0.4856
 2588SOL    HW119223   2.926   1.096   5.490  1.5005  1.0826  0.0107
 2588SOL    HW219224   2.811   1.197   5.512 -1.8701 -1.5652  0.3227
 2589SOL     OW19225   3.381   4.548  16.155  0.0370 -0.1060 -0.1431
 2589SOL    HW119226   3.376   4.452  16.153 -1.7175 -0.1399  4.9003
 2589SOL    HW219227   3.342   4.564  16.070  1.6514  2.3205 -0.4231
 2590SOL     OW19228   4.007   0.550   4.005  0.0606  0.1239 -0.0408
 2590SOL    HW119229   3.944   0.485   3.975 -0.8065 -0.6074  3.3710
 2590SOL    HW219230   3.982   0.552   4.097 -2.5575  2.5422 -0.7964
 2591SOL     OW19231   4.234   2.074  10.350 -0.0485 -0.0956  0.0112
 2591SOL    HW119232   4.185   1.995  10.328  0.7056 -0.0603 -1.8057
 2591SOL    HW219233   4.323   2.046  10.371 -0.2129 -0.0187  0.8005
 2592SOL     OW19234   2.680   0.164   2.594 -0.5547  0.1213  0.2159
 2592SOL    HW119235   2.669   0.091   2.655 -2.2406 -0.4680 -0.7881
 2592SOL    HW219236   2.714   0.116   2.519 -1.1774  0.0640 -0.0306
 2593SOL     OW19237   0.583   4.646   5.142  0.2575 -0.2702 -0.2122
 2593SOL    HW119238   0.543   4.675   5.060  0.7374  0.7184 -0.0999
 2593SOL    HW219239   0.505   4.622   5.192 -0.1028  0.5657 -0.3813
 2594SOL     OW19240   3.101   1.378   6.592  0.4346  0.1192  0.3597
 2594SOL    HW119241   3.174   1.367   6.652 -0.7981 -0.9439  1.6613
 2594SOL    HW219242   3.131   1.319   6.522 -0.2876  1.2712 -0.9207
 2595SOL     OW19243   1.473   4.647   3.278  0.0882 -0.0218 -0.0072
 2595SOL    HW119244   1.536   4.602   3.334  1.6503  1.6564 -0.3908
 2595SOL    HW219245   1.394   4.615   3.323  0.6446  1.6673  2.1526
 2596SOL     OW19246   2.779   1.329  17.644 -0.2347 -0.2767 -0.6797
 2596SOL    HW119247   2.754   1.342  17.553  0.8142 -2.2034 -1.2372
 2596SOL    HW219248   2.873   1.349  17.643 -0.1616 -0.4494  1.9866
 2597SOL     OW19249   1.633   0.614   8.772 -0.4779  0.3063 -0.1370
 2597SOL    HW119250   1.567   0.548   8.792 -0.4987 -0.0872 -1.5371
 2597SOL    HW219251   1.656   0.641   8.861 -0.7685  0.4169 -0.0950
 2598SOL     OW19252   2.451   3.299  10.191 -0.4363  0.9021  0.1773
 2598SOL    HW119253   2.375   3.300  10.249  0.2094  0.8342  1.0256
 2598SOL    HW219254   2.509   3.229  10.222  0.6145 -0.1221 -4.0077
 2599SOL     OW19255   2.678   1.508   3.606  0.0952  0.6037 -0.0367
 2599SOL    HW119256   2.674   1.453   3.528  1.1796  2.3551 -1.3016
 2599SOL    HW219257   2.603   1.478   3.658  0.3069 -0.1040 -0.1346
 2600SOL     OW19258   4.705   1.509   3.702  0.2525  0.1331  0.1248
 2600SOL    HW119259   4.688   1.508   3.796 -0.0310 -0.6197  0.0626
 2600SOL    HW219260   0.075   1.529   3.694  0.0525  0.5009 -1.2594
 2601SOL     OW19261   4.186   4.582   5.391 -0.2166 -0.1296 -0.0750
 2601SOL    HW119262   4.258   4.644   5.377 -1.1880  0.5297 -2.2205
 2601SOL    HW219263   4.149   4.596   5.478 -2.1168 -2.1562 -0.5491
 2602SOL     OW19264   1.755   4.658   7.334  0.3893 -0.5148  0.1463
 2602SOL    HW119265   1.741   0.024   7.366 -0.4378 -0.6644  0.1978
 2602SOL    HW219266   1.741   4.604   7.412  1.4705  1.3932  1.6484
 2603SOL     OW19267   2.145   4.436   8.293  0.3154  0.1847 -0.2420
 2603SOL    HW119268   2.206   4.362   8.302 -0.4782 -0.2367  1.5930
 2603SOL    HW219269   2.148   4.441   8.197  0.5252 -4.5997 -0.5029
 2604SOL     OW19270   1.537   1.272  12.079 -0.5520 -0.3643  0.5310
 2604SOL    HW119271   1.480   1.319  12.019  0.9302  0.3003 -0.3728
 2604SOL    HW219272   1.496   1.287  12.164 -0.5074  0.9535  0.3247
 2605SOL     OW19273   2.980   4.512   2.466  0.0027  0.4779 -0.1307
 2605SOL    HW119274   2.911   4.501   2.530  0.9216  1.8059  1.0769
 2605SOL    HW219275   2.920   4.522   2.391 -0.4176  0.4304  0.2017
 2606SOL     OW19276   1.699   1.984   8.878 -0.4723 -0.3259  0.2599
 2606SOL    HW119277   1.733   2.030   8.955  0.2648 -1.8494  0.8383
 2606SOL    HW219278   1.611   2.021   8.883 -0.6412 -0.5642 -1.1662
 2607SOL     OW19279   0.993   3.218   6.149  0.2902 -0.6243 -0.6910
 2607SOL    HW119280   0.977   3.130   6.115 -1.0774 -1.5416  2.3239
 2607SOL    HW219281   0.914   3.259   6.114  1.1424  2.0539  0.5519
 2608SOL     OW19282   2.698   2.069  13.752 -0.4953  0.1947 -0.0568
 2608SOL    HW119283   2.612   2.090  13.717 -0.6593 -0.2982  0.0554
 2608SOL    HW219284   2.718   2.007  13.682  0.4521 -1.1518  1.4273
 2609SOL     OW19285   3.905   3.468  14.061 -0.4213  0.1746  0.4189
 2609SOL    HW119286   3.857   3.512  13.990  0.0779  0.7912  0.4706
 2609SOL    HW219287   3.859   3.501  14.138  1.3333  1.5963  0.8357
 2610SOL     OW19288   0.213   1.628  17.461  0.1567 -0.3264 -0.0324
 2610SOL    HW119289   0.266   1.578  17.398 -1.9503 -0.2729 -1.8603
 2610SOL    HW219290   0.216   1.571  17.538 -0.3452 -0.0218  0.2099
 2611SOL     OW19291   0.381   2.943   1.696 -0.3588 -0.1782 -0.3348
 2611SOL    HW119292   0.466   2.937   1.652 -0.9605  3.2455 -1.9813
 2611SOL    HW219293   0.365   3.037   1.692 -1.2067 -0.3346 -0.6641
 2612SOL     OW19294   0.401   4.385   8.785  0.0804  0.1801 -0.6611
 2612SOL    HW119295   0.400   4.413   8.877 -1.1663  0.1486 -0.6594
 2612SOL    HW219296   0.308   4.367   8.768 -0.0909 -0.1034  0.5376
 2613SOL     OW19297   3.381   4.086  11.695  0.3444  0.0731  0.1675
 2613SOL    HW119298   3.439   4.088  11.771  0.9208 -2.2009 -0.2114
 2613SOL    HW219299   3.295   4.094  11.736  0.6328 -0.0131  0.7959
 2614SOL     OW19300   1.671   1.309  16.337 -0.3646  0.2042 -0.3054
 2614SOL    HW119301   1.737   1.378  16.337 -1.1695  0.9763  0.6279
 2614SOL    HW219302   1.719   1.230  16.313  0.1566 -0.2171  2.1061
 2615SOL     OW19303   3.842   1.052   6.014 -0.4082  0.3183 -0.2357
 2615SOL    HW119304   3.835   1.041   5.919 -1.4336 -1.5967  0.0489
 2615SOL    HW219305   3.937   1.047   6.022 -0.2237  0.1135 -2.4094
 2616SOL     OW19306   4.182   2.474   5.878  0.2253 -0.1979  0.3274
 2616SOL    HW119307   4.210   2.473   5.969 -1.2293 -2.0397  0.7501
 2616SOL    HW219308   4.095   2.512   5.890  0.1468 -1.0887  2.4109
 2617SOL     OW19309   4.037   4.014   7.741  0.2235 -0.1199  0.6211
 2617SOL    HW119310   4.066   4.074   7.673  0.4027 -2.0256 -0.9676
 2617SOL    HW219311   3.985   4.068   7.801 -0.9626 -2.4839  1.7325
 2618SOL     OW19312   4.155   3.111  14.637  0.2901 -0.2090  0.7147
 2618SOL    HW119313   4.109   3.182  14.594 -1.1661 -0.1568  2.3328
 2618SOL    HW219314   4.137   3.032  14.586 -0.0341  0.1629  0.2620
 2619SOL     OW19315   3.746   1.989   4.430 -0.3309  0.3553 -0.4752
 2619SOL    HW119316   3.754   1.928   4.356 -0.9223  0.1481 -0.3637
 2619SOL    HW219317   3.811   2.055   4.407  1.2460 -0.0126  2.9079
 2620SOL     OW19318   2.862   4.408   4.279  0.0695  0.3379 -0.0984
 2620SOL    HW119319   2.899   4.483   4.326  2.0343  0.7998 -2.3814
 2620SOL    HW219320   2.939   4.393   4.224 -0.9352 -0.7950 -1.1957
 2621SOL     OW19321   2.065   2.982   6.195 -0.1715  0.6584 -0.6350
 2621SOL    HW119322   2.041   2.936   6.276 -0.7414 -0.5871 -1.5025
 2621SOL    HW219323   2.098   3.067   6.224  0.3892 -0.4113  1.8268
 2622SOL     OW19324   0.263   1.679  17.142 -0.2396  0.1417  0.2906
 2622SOL    HW119325   0.176   1.646  17.164 -0.8076  0.8212 -1.0018
 2622SOL    HW219326   0.321   1.614  17.183  0.1827  1.0314  1.1217
 2623SOL     OW19327   3.144   3.142   2.100 -0.1484 -0.2368  0.4351
 2623SOL    HW119328   3.066   3.094   2.126  0.1725 -0.2910  1.3070
 2623SOL    HW219329   3.192   3.070   2.060 -0.1986 -0.1148  0.1545
 2624SOL     OW19330   2.874   0.870  11.664  0.4700  0.1002  0.4969
 2624SOL    HW119331   2.863   0.777  11.644 -0.4996 -0.3189  2.9973
 2624SOL    HW219332   2.787   0.890  11.698  0.9494  2.2606  0.4535
 2625SOL     OW19333   2.739   3.275  16.146 -0.6836  0.5106 -0.4709
 2625SOL    HW119334   2.734   3.192  16.194 -0.2622  2.3611  2.7755
 2625SOL    HW219335   2.756   3.332  16.221 -2.1394 -0.3583  0.5169
 2626SOL     OW19336   4.247   2.222  13.769 -0.0649 -0.1773 -0.2347
 2626SOL    HW119337   4.199   2.302  13.788  0.5891  0.2041 -0.1938
 2626SOL    HW219338   4.208   2.162  13.832  0.9076 -1.0548 -0.4768
 2627SOL     OW19339   1.981   0.235   9.409  0.2173 -0.0488 -0.2857
 2627SOL    HW119340   1.991   0.330   9.400  0.3164 -0.1065 -0.8122
 2627SOL    HW219341   1.936   0.217   9.491  0.5857 -1.0569 -0.3139
 2628SOL     OW19342   0.267   2.435   2.487 -0.6440 -0.2028 -0.8480
 2628SOL    HW119343   0.308   2.466   2.568 -2.8592  1.1271 -0.2521
 2628SOL    HW219344   0.183   2.480   2.495  1.4893  3.5692  0.3911
 2629SOL     OW19345   0.364   2.770   6.633 -0.1897 -0.7608  0.0518
 2629SOL    HW119346   0.457   2.784   6.653 -0.3177  1.6597 -1.0468
 2629SOL    HW219347   0.321   2.855   6.647  0.5784 -0.4196  0.3816
 2630SOL     OW19348   4.224   1.604   1.195 -0.1915 -0.3247 -0.4390
 2630SOL    HW119349   4.232   1.678   1.256  1.4222 -2.0247  1.4090
 2630SOL    HW219350   4.304   1.553   1.205 -0.2077  0.0196  1.5669
 2631SOL     OW19351   3.704   0.226  10.463  0.2370 -0.0781  0.1346
 2631SOL    HW119352   3.685   0.217  10.556  1.4804 -1.5915  0.2392
 2631SOL    HW219353   3.716   0.137  10.431  1.5476 -0.7437  2.4501
 2632SOL     OW19354   1.060   0.513   7.395 -0.2232  0.0024 -0.1663
 2632SOL    HW119355   1.104   0.532   7.313  0.5155 -0.8842  0.0248
 2632SOL    HW219356   1.050   0.602   7.428 -0.3030  0.0651 -0.3600
 2633SOL     OW19357   3.827   3.254   2.785 -0.1010  0.5472  0.4826
 2633SOL    HW119358   3.829   3.348   2.802  0.2162  0.5584  0.3928
 2633SOL    HW219359   3.921   3.238   2.777 -0.1098 -0.1724  1.8295
 2634SOL     OW19360   2.653   2.946  15.183  0.1073 -0.0879 -0.2861
 2634SOL    HW119361   2.609   2.885  15.124 -0.7092  0.4994 -0.2794
 2634SOL    HW219362   2.728   2.901  15.222 -0.3459 -0.7857 -0.2242
 2635SOL     OW19363   2.276   2.335   5.294  0.0434  0.5532  0.0653
 2635SOL    HW119364   2.227   2.393   5.353  0.0686 -1.5934  2.2127
 2635SOL    HW219365   2.363   2.372   5.309  0.7851 -0.6170 -1.3576
 2636SOL     OW19366   1.941   2.538   3.459 -0.2809 -0.0753  0.3606
 2636SOL    HW119367   1.848   2.544   3.482 -0.2426 -0.6307  0.6557
 2636SOL    HW219368   1.932   2.478   3.385  1.1842 -0.6286  0.6342
 2637SOL     OW19369   1.779   0.020  11.107  0.0832  0.1150  0.6395
 2637SOL    HW119370   1.812   4.653  11.108  1.0200  0.4392 -1.0519
 2637SOL    HW219371   1.687   0.008  11.085  0.6794  1.5746 -2.6986
 2638SOL     OW19372   3.281   1.708   2.679  0.0820  0.2341 -0.2837
 2638SOL    HW119373   3.312   1.780   2.625 -0.4526  0.6196 -0.0747
 2638SOL    HW219374   3.356   1.648   2.675 -1.7233 -2.2950  2.9512
 2639SOL     OW19375   2.637   4.375   8.768  0.5176  0.2045 -0.0528
 2639SOL    HW119376   2.623   4.404   8.858  1.4031  1.1534 -0.2191
 2639SOL    HW219377   2.618   4.281   8.774  0.6168  0.1037 -1.3232
 2640SOL     OW19378   0.231   3.763  16.106 -0.1398  0.2609 -0.4770
 2640SOL    HW119379   0.153   3.756  16.160 -0.5979  1.4084 -0.9979
 2640SOL    HW219380   0.220   3.848  16.064 -2.6770  1.1420  1.9237
 2641SOL     OW19381   2.040   0.060   8.739  0.3272 -0.1401  0.3540
 2641SOL    HW119382   1.986   0.138   8.744 -1.4941 -1.2489 -1.8588
 2641SOL    HW219383   2.118   0.087   8.690  1.4924 -0.9321  1.7779
 2642SOL     OW19384   3.941   1.941  11.264 -0.5138  0.5542  0.6368
 2642SOL    HW119385   3.961   1.990  11.343 -1.3617  1.1379  0.4864
 2642SOL    HW219386   3.882   1.871  11.293  0.0380  0.1133  0.6844
 2643SOL     OW19387   1.808   3.146   2.526 -0.1231 -0.4294 -0.5542
 2643SOL    HW119388   1.750   3.219   2.545  0.5671  0.5572 -2.2544
 2643SOL    HW219389   1.787   3.083   2.596  1.1312 -0.9351 -0.6385
 2644SOL     OW19390   2.033   3.286   3.058 -0.5847 -0.2817 -0.0880
 2644SOL    HW119391   2.103   3.350   3.069  1.8658 -2.9479 -0.3124
 2644SOL    HW219392   1.973   3.353   3.027  0.1205 -0.0348 -0.8984
 2645SOL     OW19393   4.258   3.207   4.510  0.3482 -0.7776 -0.1390
 2645SOL    HW119394   4.311   3.279   4.474 -1.2442 -0.6869 -2.3255
 2645SOL    HW219395   4.265   3.216   4.605  0.8022 -1.8911 -0.0684
 2646SOL     OW19396   3.918   1.025   8.062 -0.1736  0.3411 -0.2558
 2646SOL    HW119397   3.916   0.935   8.094  1.3956 -0.0505 -1.2557
 2646SOL    HW219398   4.005   1.054   8.091 -0.6916  1.1227  0.5081
 2647SOL     OW19399   0.630   3.320   4.501 -0.5299 -0.0280  0.8827
 2647SOL    HW119400   0.639   3.313   4.406  1.5141 -0.5484  1.1106
 2647SOL    HW219401   0.535   3.308   4.502 -0.5491  0.1016  0.6624
 2648SOL     OW19402   4.014   1.001   7.603  1.0963  0.1258  0.1016
 2648SOL    HW119403   4.050   0.912   7.604  0.7296 -0.0646 -1.8379
 2648SOL    HW219404   3.932   0.979   7.647 -0.5467  1.8756 -2.0086
 2649SOL     OW19405   0.352   4.234   6.170  0.2794  0.2517 -0.7056
 2649SOL    HW119406   0.353   4.196   6.083 -0.7309  0.0187 -0.6150
 2649SOL    HW219407   0.416   4.174   6.208 -0.8991  0.6671  1.9759
 2650SOL     OW19408   2.341   0.499   3.127  0.4717  0.6460 -0.3925
 2650SOL    HW119409   2.270   0.447   3.089  1.6640 -1.1725 -0.1513
 2650SOL    HW219410   2.326   0.487   3.221  1.3744  0.5001 -0.2608
 2651SOL     OW19411   4.482   2.822   3.050 -0.5951  0.6685 -0.2362
 2651SOL    HW119412   4.471   2.916   3.033 -2.0051  0.2230 -1.8800
 2651SOL    HW219413   4.574   2.809   3.028  0.0042  1.9336  1.5147
 2652SOL     OW19414   4.311   1.650  13.555  0.3779  0.1025  0.1589
 2652SOL    HW119415   4.380   1.599  13.514  0.4363  1.0360 -0.8930
 2652SOL    HW219416   4.275   1.586  13.617 -1.1218  0.2535 -0.5701
 2653SOL     OW19417   4.051   2.652   6.668  0.1216 -0.1099 -0.7188
 2653SOL    HW119418   4.093   2.576   6.629 -1.2118 -1.0762 -0.2903
 2653SOL    HW219419   4.126   2.688   6.715 -0.1783 -0.3491 -0.0594
 2654SOL     OW19420   3.890   4.485   4.012  0.1753 -0.0392  0.8264
 2654SOL    HW119421   3.944   4.489   4.091  2.7493 -1.3199 -0.8382
 2654SOL    HW219422   3.915   4.405   3.965  1.7739 -0.0509  1.6864
 2655SOL     OW19423   1.981   4.246   9.678  0.2474  0.2025  0.4673
 2655SOL    HW119424   2.043   4.209   9.741 -0.9874  0.1738  1.6893
 2655SOL    HW219425   1.901   4.237   9.730 -0.5207  4.1959 -0.0379
 2656SOL     OW19426   3.418   2.969  11.053 -0.0973 -0.4043 -0.1680
 2656SOL    HW119427   3.509   2.945  11.070  0.6896  1.7944 -1.3278
 2656SOL    HW219428   3.430   3.060  11.028 -0.4869 -0.2447  0.2092
 2657SOL     OW19429   3.428   1.406  12.119  0.6088 -0.6981 -0.2028
 2657SOL    HW119430   3.465   1.384  12.204  1.2484 -0.4290 -0.4109
 2657SOL    HW219431   3.419   1.317  12.084 -0.3537 -0.2609 -1.0784
 2658SOL     OW19432   1.975   4.155   3.763  0.1767  0.0151  0.1763
 2658SOL    HW119433   1.893   4.197   3.789  0.7366  0.4535  1.2687
 2658SOL    HW219434   1.977   4.166   3.668  1.6054 -0.3192  0.1696
 2659SOL     OW19435   4.351   2.633   6.393  0.0826 -0.1934  0.3788
 2659SOL    HW119436   4.289   2.563   6.415  1.6587 -1.9572 -0.8828
 2659SOL    HW219437   4.411   2.599   6.327  0.4469  2.2457 -0.5417
 2660SOL     OW19438   0.920   1.070   6.729  0.1144  0.4770 -0.5962
 2660SOL    HW119439   0.888   1.137   6.669  1.2208  1.0192 -0.5735
 2660SOL    HW219440   0.951   1.013   6.658 -0.6866 -0.4635 -0.1979
 2661SOL     OW19441   1.050   3.284   2.711  0.2529 -0.1392  0.1357
 2661SOL    HW119442   1.016   3.204   2.670  1.0743 -0.2546 -0.3017
 2661SOL    HW219443   1.053   3.348   2.641 -2.5175 -0.6973 -0.5038
 2662SOL     OW19444   0.425   3.270  14.090  0.0186 -0.2179 -0.3295
 2662SOL    HW119445   0.481   3.325  14.035  1.3846 -1.1932  0.0820
 2662SOL    HW219446   0.370   3.232  14.021 -1.6301 -3.2327  2.6886
 2663SOL     OW19447   0.073   3.466   7.735 -0.2560  0.0044  0.8725
 2663SOL    HW119448   0.158   3.457   7.779  1.2446  3.1634 -1.3803
 2663SOL    HW219449   0.052   3.373   7.746  1.8751 -0.2227  3.1554
 2664SOL     OW19450   4.198   0.939   4.799 -0.1315 -0.7357  0.2800
 2664SOL    HW119451   4.225   0.848   4.785  0.1883 -0.3063 -1.9840
 2664SOL    HW219452   4.137   0.927   4.871 -1.0810 -0.7604 -0.5313
 2665SOL     OW19453   1.839   2.113   4.436  0.3245  0.0663 -0.1243
 2665SOL    HW119454   1.919   2.077   4.475  0.7784  1.4008  0.1809
 2665SOL    HW219455   1.800   2.027   4.420 -1.7579  0.8706  0.6351
 2666SOL     OW19456   0.680   2.250   1.978 -0.8538  0.7723  0.2878
 2666SOL    HW119457   0.619   2.274   1.908  0.7088  1.0908 -0.9565
 2666SOL    HW219458   0.662   2.157   1.992  3.0538 -0.5217 -3.4239
 2667SOL     OW19459   4.141   1.382  13.164  0.4637 -0.0610  0.0410
 2667SOL    HW119460   4.057   1.364  13.205  0.0006  0.8926 -0.5044
 2667SOL    HW219461   4.123   1.468  13.126  1.7013 -0.6976 -1.9893
 2668SOL     OW19462   3.206   2.979  12.490 -0.2533  0.2019 -0.0364
 2668SOL    HW119463   3.152   2.977  12.411 -1.6931 -1.8007  1.0200
 2668SOL    HW219464   3.286   3.018  12.454 -1.7263  0.9803 -2.4641
 2669SOL     OW19465   0.973   0.699   2.927  0.1987 -0.1431  0.0764
 2669SOL    HW119466   1.043   0.749   2.886 -1.9031  1.0417 -2.0699
 2669SOL    HW219467   1.021   0.686   3.009  0.9433  0.7476 -0.2261
 2670SOL     OW19468   4.597   1.789   7.446 -0.0067  0.2120  0.2070
 2670SOL    HW119469   4.678   1.805   7.397 -0.3510  0.3422 -0.3258
 2670SOL    HW219470   4.548   1.742   7.378  2.3225 -0.8424 -0.7425
 2671SOL     OW19471   3.720   0.524   7.395  0.5032  0.2006  0.1037
 2671SOL    HW119472   3.692   0.596   7.339  1.1189  1.5518  1.5176
 2671SOL    HW219473   3.720   0.558   7.485 -0.0356  0.0396  0.1661
 2672SOL     OW19474   0.568   4.475   9.319  0.0279  0.0919 -0.2280
 2672SOL    HW119475   0.495   4.532   9.342  0.1934  0.3689 -0.3882
 2672SOL    HW219476   0.525   4.390   9.312 -0.0395  0.0711  0.4272
 2673SOL     OW19477   0.963   3.316  14.283 -0.3610  0.2083 -0.0025
 2673SOL    HW119478   1.015   3.257  14.337  1.5918  1.4602 -0.5008
 2673SOL    HW219479   0.974   3.403  14.320 -0.8665  0.4790 -0.4847
 2674SOL     OW19480   3.191   3.020   2.621  0.1560  0.0962 -0.1674
 2674SOL    HW119481   3.105   3.009   2.582  1.1560  1.7812 -2.8149
 2674SOL    HW219482   3.213   3.109   2.596  1.3143 -0.1605 -0.1028
 2675SOL     OW19483   3.859   0.655   9.940 -0.2207 -0.4830  0.2926
 2675SOL    HW119484   3.931   0.630   9.882 -1.2646 -1.1217 -0.7312
 2675SOL    HW219485   3.879   0.745   9.963 -1.2221  0.0401 -0.8765
 2676SOL     OW19486   0.845   3.583  15.403  0.3406  0.4230  0.1028
 2676SOL    HW119487   0.861   3.647  15.334  2.5508  1.9032  1.9866
 2676SOL    HW219488   0.757   3.611  15.431 -0.1979 -1.1575 -0.0112
 2677SOL     OW19489   0.804   2.931   0.323 -0.2789 -0.4482  0.1274
 2677SOL    HW119490   0.779   2.857   0.266  0.0651  0.4233 -1.1649
 2677SOL    HW219491   0.718   2.969   0.339  0.4787  1.0951  0.5121
 2678SOL     OW19492   3.764   1.396  14.855 -1.1297 -0.4134 -0.1310
 2678SOL    HW119493   3.809   1.350  14.926  1.2676 -0.5647 -1.7809
 2678SOL    HW219494   3.832   1.457  14.828 -1.4760  0.5271  1.1056
 2679SOL     OW19495   4.450   4.426   0.854 -0.6279  0.1924  0.6061
 2679SOL    HW119496   4.357   4.404   0.854 -0.3423 -1.0150  1.3656
 2679SOL    HW219497   4.443   4.510   0.899  0.6376  0.6445 -0.0408
 2680SOL     OW19498   3.691   3.537  13.418 -0.0798  0.1670 -0.0233
 2680SOL    HW119499   3.685   3.496  13.504  2.6074 -0.2862 -0.0487
 2680SOL    HW219500   3.774   3.584  13.420 -1.3093  2.4140 -1.3156
 2681SOL     OW19501   3.297   3.256   0.752 -0.0749 -0.0166  0.0230
 2681SOL    HW119502   3.331   3.168   0.765  1.1735  0.0914 -2.5471
 2681SOL    HW219503   3.336   3.277   0.667 -1.1590  0.8147 -0.2838
 2682SOL     OW19504   0.366   4.148   3.983  0.5453  0.3670  0.2783
 2682SOL    HW119505   0.441   4.160   3.925 -0.3397 -0.2529 -1.0100
 2682SOL    HW219506   0.306   4.110   3.918  0.7691  0.3667  0.0732
 2683SOL     OW19507   0.568   4.155   1.690 -0.4296  0.3553 -0.6003
 2683SOL    HW119508   0.645   4.150   1.746  0.9566  0.9910 -2.4708
 2683SOL    HW219509   0.544   4.248   1.685 -1.0735  0.3610  2.4506
 2684SOL     OW19510   1.825   3.216   3.689 -0.1157  0.3095 -0.3948
 2684SOL    HW119511   1.776   3.182   3.763 -0.9241 -0.5769 -1.3395
 2684SOL    HW219512   1.859   3.139   3.644 -1.1261 -2.2857  3.3178
 2685SOL     OW19513   0.282   1.297   2.933 -0.1529 -0.4468 -0.4075
 2685SOL    HW119514   0.295   1.281   2.839 -1.0282  1.2314 -0.8114
 2685SOL    HW219515   0.368   1.283   2.971 -0.4464 -0.6081  0.2058
 2686SOL     OW19516   2.671   2.415   4.435 -0.0362  0.2683  0.2274
 2686SOL    HW119517   2.758   2.375   4.433  0.9869  2.5483 -1.1890
 2686SOL    HW219518   2.620   2.337   4.456 -2.5846  1.5106 -1.3175
 2687SOL     OW19519   3.056   3.835   4.016 -0.4087 -0.0914 -0.4170
 2687SOL    HW119520   3.059   3.770   4.086  0.3751  0.2124 -0.1740
 2687SOL    HW219521   3.057   3.778   3.940 -0.3893 -1.7594  0.8227
 2688SOL     OW19522   3.638   3.849   5.754  0.2657 -0.3338 -0.4207
 2688SOL    HW119523   3.597   3.929   5.788  0.8399 -0.4321  0.4715
 2688SOL    HW219524   3.560   3.794   5.761  1.0817 -1.6199 -1.5573
 2689SOL     OW19525   0.265   2.882  10.713  0.4755 -0.5862 -0.0552
 2689SOL    HW119526   0.339   2.861  10.656 -0.1143 -0.3834 -0.8896
 2689SOL    HW219527   0.221   2.798  10.729 -0.0301 -0.5107 -1.0535
 2690SOL     OW19528   1.266   2.924   9.758 -0.0100  0.0201 -0.0694
 2690SOL    HW119529   1.233   2.950   9.844  0.0125  1.0075 -0.3621
 2690SOL    HW219530   1.224   2.988   9.701  0.0314  0.3567  0.2750
 2691SOL     OW19531   1.160   1.060  11.724 -0.3051  0.2641  0.0342
 2691SOL    HW119532   1.088   1.122  11.717 -1.1222 -0.6199  0.7270
 2691SOL    HW219533   1.176   1.064  11.629 -0.9291  1.0704 -0.0393
 2692SOL     OW19534   0.950   0.396   3.395 -0.6402 -0.0432 -0.2887
 2692SOL    HW119535   0.888   0.399   3.469 -1.8466 -0.3658 -1.2864
 2692SOL    HW219536   0.981   0.486   3.385  1.7171 -1.1224 -2.6980
 2693SOL     OW19537   1.604   1.681  16.516  0.1061  0.0375 -0.1643
 2693SOL    HW119538   1.699   1.668  16.516 -0.0983 -1.4797 -0.3037
 2693SOL    HW219539   1.580   1.709  16.605 -1.9627  2.0344 -1.3449
 2694SOL     OW19540   3.385   4.498  13.062  0.2061  0.5918  0.0271
 2694SOL    HW119541   3.463   4.499  13.117  0.1897 -2.3650  0.1198
 2694SOL    HW219542   3.410   4.570  13.004  1.8364 -1.4359 -1.7697
 2695SOL     OW19543   0.405   3.314   9.820  0.3014  0.2694 -0.0255
 2695SOL    HW119544   0.384   3.253   9.891  1.2936 -1.3296 -1.1227
 2695SOL    HW219545   0.376   3.395   9.863  1.0966 -0.5952  2.1435
 2696SOL     OW19546   2.985   4.448   8.047  0.0021 -0.1451  0.3016
 2696SOL    HW119547   3.016   4.529   8.007  2.2024 -0.5731  1.1690
 2696SOL    HW219548   3.012   4.377   7.989  1.1490  1.6239 -1.3436
 2697SOL     OW19549   0.731   4.442   6.585  0.0574  0.4277 -0.0498
 2697SOL    HW119550   0.759   4.470   6.498 -3.1265 -0.9286 -1.4965
 2697SOL    HW219551   0.806   4.386   6.609  0.4337  1.0092  0.1344
 2698SOL     OW19552   2.670   0.767   2.307  0.1641 -0.1622  0.3436
 2698SOL    HW119553   2.709   0.698   2.252  3.4597 -1.1412  3.9147
 2698SOL    HW219554   2.616   0.806   2.238  1.3875 -0.5777 -0.8529
 2699SOL     OW19555   3.382   0.227   3.601 -0.5605 -0.3238 -0.2839
 2699SOL    HW119556   3.366   0.138   3.571 -0.8543  0.1153 -1.4444
 2699SOL    HW219557   3.361   0.277   3.522  0.3051 -0.3595 -0.5473
 2700SOL     OW19558   1.405   1.435  16.820 -0.7927 -0.9838  0.1733
 2700SOL    HW119559   1.466   1.409  16.751  0.0055 -0.7204  0.7840
 2700SOL    HW219560   1.465   1.433  16.895  0.7977 -1.8608 -1.1188
 2701SOL     OW19561   0.816   4.025   5.028 -0.5794 -0.2989  0.0511
 2701SOL    HW119562   0.780   3.970   4.959 -3.7210  0.6651  0.9573
 2701SOL    HW219563   0.753   4.019   5.099 -0.5692 -0.5215  0.0411
 2702SOL     OW19564   0.468   0.619   6.716  0.1435  0.2292  0.0407
 2702SOL    HW119565   0.551   0.658   6.689  0.4920  0.7043  1.7472
 2702SOL    HW219566   0.483   0.606   6.810  2.9245  0.8835 -0.2997
 2703SOL     OW19567   3.333   2.334   1.902  0.1146  0.0057 -0.2954
 2703SOL    HW119568   3.247   2.356   1.939 -0.7779 -1.2749 -1.5914
 2703SOL    HW219569   3.327   2.242   1.929 -0.0049 -0.3623 -1.5782
 2704SOL     OW19570   1.009   3.786   9.137 -0.3814 -0.1254 -0.3071
 2704SOL    HW119571   1.039   3.726   9.069 -0.0349 -0.7730  0.4330
 2704SOL    HW219572   1.080   3.783   9.201  0.3496 -0.0689 -1.1102
 2705SOL     OW19573   0.623   0.261  10.647  0.2466  0.3937 -0.2656
 2705SOL    HW119574   0.612   0.169  10.673  1.6518 -0.0444 -1.2364
 2705SOL    HW219575   0.616   0.248  10.552  0.0211  2.1417 -0.4787
 2706SOL     OW19576   4.238   3.818   2.488 -0.5346 -0.2542 -0.0726
 2706SOL    HW119577   4.158   3.868   2.473  0.1022  0.4607 -1.1132
 2706SOL    HW219578   4.206   3.729   2.469 -0.9626 -0.0361 -0.3627
 2707SOL     OW19579   2.759   1.897   0.241  0.0947  0.2669 -0.3006
 2707SOL    HW119580   2.725   1.821   0.288 -1.5136  0.5877 -0.9495
 2707SOL    HW219581   2.725   1.871   0.155  3.8628 -0.2100 -1.6240
 2708SOL     OW19582   4.411   1.353   8.104  0.3214  0.0677  0.3204
 2708SOL    HW119583   4.452   1.428   8.060  0.9909  0.0965  0.9929
 2708SOL    HW219584   4.481   1.288   8.104  1.0608  0.8714  1.3502
 2709SOL     OW19585   2.512   0.850   4.192  0.1363  0.0924  0.3214
 2709SOL    HW119586   2.563   0.772   4.174 -1.5348 -0.8222 -0.4082
 2709SOL    HW219587   2.559   0.872   4.273  0.2275  0.3214  0.2062
 2710SOL     OW19588   1.663   1.428   6.124 -0.6519  1.0958  0.1746
 2710SOL    HW119589   1.694   1.413   6.035 -0.5290  0.6119  0.2949
 2710SOL    HW219590   1.729   1.376   6.170 -0.2622  2.6251  1.3283
 2711SOL     OW19591   0.562   1.331   1.267 -0.4700 -0.1666  0.0926
 2711SOL    HW119592   0.542   1.298   1.355  0.7194 -0.2085  0.3513
 2711SOL    HW219593   0.502   1.279   1.213  0.4218 -0.7832 -0.2979
 2712SOL     OW19594   4.080   2.019   0.726  0.3847  0.6646 -0.4247
 2712SOL    HW119595   4.071   2.114   0.711 -1.8468  0.6759  0.9894
 2712SOL    HW219596   4.119   1.998   0.641  0.6505  5.7417 -1.5569
 2713SOL     OW19597   1.787   2.107   9.862 -0.0455 -0.0719  0.3122
 2713SOL    HW119598   1.834   2.043   9.916  2.1431  0.6078 -0.7920
 2713SOL    HW219599   1.698   2.089   9.890 -1.5966  1.5946 -3.6124
 2714SOL     OW19600   1.916   0.692   4.878 -0.4495  0.3893 -0.2218
 2714SOL    HW119601   1.876   0.770   4.917  0.5927  0.4355  0.7657
 2714SOL    HW219602   1.996   0.684   4.929  0.5674  0.3939 -1.7971
 2715SOL     OW19603   4.694   3.573   4.345 -0.6111  0.4627  0.4847
 2715SOL    HW119604   0.013   3.546   4.428 -1.1485 -1.6062  0.0843
 2715SOL    HW219605   0.036   3.635   4.313  0.7673  0.1751  2.6551
 2716SOL     OW19606   3.641   2.435  12.264 -0.1695 -0.3594 -0.0985
 2716SOL    HW119607   3.550   2.408  12.262  0.2053 -1.5735 -0.4876
 2716SOL    HW219608   3.636   2.504  12.331  3.0865 -0.0149 -0.1851
 2717SOL     OW19609   1.151   3.959   1.195  0.1293  0.1910  0.0323
 2717SOL    HW119610   1.177   4.026   1.131 -1.6249  1.1368  0.3123
 2717SOL    HW219611   1.235   3.917   1.214  0.9351  1.3916 -0.8633
 2718SOL     OW19612   0.238   2.952   7.173  0.3751  0.0879  0.0438
 2718SOL    HW119613   0.282   2.896   7.109 -1.5981  0.2698 -1.4895
 2718SOL    HW219614   0.196   2.883   7.224 -1.9216  0.1000 -1.8802
 2719SOL     OW19615   0.223   3.283   0.762  0.0425 -0.1120 -0.5583
 2719SOL    HW119616   0.211   3.306   0.854 -0.1626  0.3852 -0.7102
 2719SOL    HW219617   0.132   3.264   0.738 -0.2037  0.5619 -0.1470
 2720SOL     OW19618   2.163   0.314   5.811  0.1232  0.0322 -0.5302
 2720SOL    HW119619   2.109   0.259   5.755  0.8178  0.3203 -1.4832
 2720SOL    HW219620   2.249   0.309   5.769  0.3932  0.3720 -0.0187
 2721SOL     OW19621   1.552   3.693  12.167  0.7188  0.3243  1.0879
 2721SOL    HW119622   1.633   3.670  12.120  0.0920  1.4192 -0.5331
 2721SOL    HW219623   1.500   3.734  12.098  1.2556  0.1644  0.5858
 2722SOL     OW19624   3.181   2.457   8.066 -0.1226 -0.3175  0.3738
 2722SOL    HW119625   3.136   2.451   8.150  2.1135 -0.5903  1.5299
 2722SOL    HW219626   3.112   2.411   8.017 -0.4445  1.9426 -1.3116
 2723SOL     OW19627   0.883   1.794   0.367 -0.2982 -0.3602  0.0995
 2723SOL    HW119628   0.863   1.700   0.366 -0.6665 -0.2866  0.6198
 2723SOL    HW219629   0.804   1.824   0.412  0.5058  1.0361  0.5867
 2724SOL     OW19630   2.604   4.275   1.570 -0.0761  0.5090  0.2389
 2724SOL    HW119631   2.684   4.327   1.566 -1.2116  2.4282  2.8825
 2724SOL    HW219632   2.578   4.272   1.478  0.2937  1.9534  0.0982
 2725SOL     OW19633   1.080   2.798  16.342  0.2180  0.8434 -0.0138
 2725SOL    HW119634   1.069   2.769  16.251  1.6378 -2.2489  0.7940
 2725SOL    HW219635   1.078   2.891  16.318  3.3403  0.5621 -1.2965
 2726SOL     OW19636   2.675   1.947  13.501 -0.9108 -0.2590  0.7433
 2726SOL    HW119637   2.718   1.875  13.455  0.8967  1.9796 -1.0625
 2726SOL    HW219638   2.688   2.021  13.443  0.2541 -0.8772  0.2210
 2727SOL     OW19639   1.421   1.881   4.256  0.9612  0.2917  0.1438
 2727SOL    HW119640   1.481   1.946   4.220 -1.4130  2.9487  0.9606
 2727SOL    HW219641   1.347   1.882   4.195  0.9898 -2.0835  0.0817
 2728SOL     OW19642   4.200   2.550   5.250 -0.3256 -0.0410  0.4878
 2728SOL    HW119643   4.260   2.589   5.186  1.3485 -1.4907  1.1887
 2728SOL    HW219644   4.150   2.491   5.194 -2.6363  3.0283 -0.7058
 2729SOL     OW19645   4.220   2.658   4.841 -0.4616 -0.0902  0.5198
 2729SOL    HW119646   4.155   2.728   4.847 -1.3481 -1.0329  1.9444
 2729SOL    HW219647   4.193   2.612   4.762  0.4534  0.2364  0.0084
 2730SOL     OW19648   1.075   0.314   4.576 -0.1874  0.4158  0.0708
 2730SOL    HW119649   1.165   0.298   4.605 -0.7313 -1.3676  0.7833
 2730SOL    HW219650   1.077   0.402   4.614 -0.7608  0.7110 -0.5780
 2731SOL     OW19651   2.352   2.293   1.622 -0.3953  0.7887 -0.2963
 2731SOL    HW119652   2.397   2.242   1.555  0.0741 -1.6749  1.8845
 2731SOL    HW219653   2.381   2.382   1.604  1.0375 -0.1549 -2.4917
 2732SOL     OW19654   3.904   3.387   0.062 -0.3649 -0.3351 -0.1371
 2732SOL    HW119655   3.834   3.448   0.088 -0.2626  0.0867 -0.8512
 2732SOL    HW219656   3.848   3.328   0.011 -0.3599  1.2749 -2.0382
 2733SOL     OW19657   4.520   0.088   8.716 -0.2782 -0.1212  0.9440
 2733SOL    HW119658   4.504   0.178   8.745  1.4166  0.6801 -0.6120
 2733SOL    HW219659   4.566   0.098   8.633 -2.4210 -1.2207 -0.3839
 2734SOL     OW19660   0.346   4.283   2.058 -0.4547  0.2016  0.2896
 2734SOL    HW119661   0.343   4.369   2.100 -1.4688 -0.4935  1.6076
 2734SOL    HW219662   0.336   4.316   1.968  0.3569 -3.4778 -1.1738
 2735SOL     OW19663   1.725   2.223   4.728  0.2783  0.0389 -0.2248
 2735SOL    HW119664   1.650   2.163   4.739 -0.2078  0.7783  0.4654
 2735SOL    HW219665   1.762   2.180   4.651  1.7117  1.1727 -0.1501
 2736SOL     OW19666   0.679   1.381   9.834  0.5955  0.2246 -0.1622
 2736SOL    HW119667   0.740   1.453   9.818 -0.0896  0.5554 -1.3040
 2736SOL    HW219668   0.646   1.375   9.745  2.3162  1.3982 -0.8917
 2737SOL     OW19669   2.977   2.495  16.520 -0.9779 -0.1248  0.4081
 2737SOL    HW119670   3.020   2.410  16.531 -0.0582 -0.0839 -2.9965
 2737SOL    HW219671   3.011   2.536  16.441  1.9245 -0.7538  1.3302
 2738SOL     OW19672   1.591   3.346   2.031 -0.2524 -0.4998 -0.0464
 2738SOL    HW119673   1.496   3.335   2.030 -0.2890 -0.2706  1.7972
 2738SOL    HW219674   1.621   3.263   2.068  2.5062 -0.2174 -1.5630
 2739SOL     OW19675   4.174   2.583  10.324 -0.1966  0.1732 -0.3848
 2739SOL    HW119676   4.194   2.521  10.255 -0.7180 -0.0573 -0.3317
 2739SOL    HW219677   4.137   2.525  10.391  1.1582 -0.6904 -0.4060
 2740SOL     OW19678   4.074   0.380  12.352 -0.9594 -0.5122 -0.0976
 2740SOL    HW119679   4.164   0.350  12.348 -0.8061 -0.2392  1.2308
 2740SOL    HW219680   4.023   0.299  12.360 -0.1748 -1.0386 -0.4803
 2741SOL     OW19681   0.202   0.902   4.426 -0.1351 -0.4276  0.7482
 2741SOL    HW119682   0.136   0.832   4.428 -1.1187  0.4550 -0.5347
 2741SOL    HW219683   0.158   0.962   4.366 -0.6741  0.3213  1.8686
 2742SOL     OW19684   1.489   4.077  15.677  0.2760 -0.2426  0.8302
 2742SOL    HW119685   1.546   4.027  15.736  1.8754  1.2525  0.5591
 2742SOL    HW219686   1.410   4.041  15.717 -1.5779  1.6317 -1.1567
 2743SOL     OW19687   2.048   1.784   8.041 -0.2656  0.0593  0.4337
 2743SOL    HW119688   2.022   1.740   8.122  0.6862  0.6499  1.0639
 2743SOL    HW219689   2.074   1.871   8.070  1.4036 -0.1799 -0.3480
 2744SOL     OW19690   1.291   0.551   9.153  0.2816  0.4903  0.6379
 2744SOL    HW119691   1.222   0.615   9.135 -0.5304 -0.9143 -1.3416
 2744SOL    HW219692   1.244   0.480   9.198  0.5221  1.1832  1.9701
 2745SOL     OW19693   1.848   3.823   0.620  0.0353  0.1108 -0.7814
 2745SOL    HW119694   1.783   3.879   0.664 -0.4888  0.3249 -1.8350
 2745SOL    HW219695   1.905   3.817   0.697 -0.0729  1.0052 -0.6316
 2746SOL     OW19696   3.803   1.640   7.540 -0.1248 -0.6156 -0.1651
 2746SOL    HW119697   3.769   1.633   7.629  0.4408 -0.5800  0.0524
 2746SOL    HW219698   3.844   1.725   7.548  0.5901 -1.0145  0.3746
 2747SOL     OW19699   2.074   3.835   5.080  0.4156 -0.4772  0.0185
 2747SOL    HW119700   2.007   3.894   5.114  2.0863  0.5857  1.4962
 2747SOL    HW219701   2.120   3.817   5.162  1.2322  1.2409 -0.0555
 2748SOL     OW19702   3.270   2.659   3.001  0.2942  0.1048  0.0984
 2748SOL    HW119703   3.245   2.572   3.031 -2.0265  1.4798  2.1761
 2748SOL    HW219704   3.340   2.662   3.067  1.3137 -2.0454 -0.8832
 2749SOL     OW19705   3.929   0.269   3.359  0.4278 -0.1251  0.0307
 2749SOL    HW119706   3.882   0.194   3.322  0.3216  0.0431 -0.1741
 2749SOL    HW219707   3.897   0.348   3.317  1.7739  1.2426  1.6076
 2750SOL     OW19708   4.515   0.929   1.356 -0.3495  0.5575 -0.0014
 2750SOL    HW119709   4.488   0.937   1.264  0.7511 -1.8708 -0.5237
 2750SOL    HW219710   4.610   0.926   1.353 -0.1455  4.9425  1.4344
 2751SOL     OW19711   0.793   4.507   4.487 -0.5416  0.8212  0.1718
 2751SOL    HW119712   0.733   4.433   4.495  0.0808  0.4826  1.6136
 2751SOL    HW219713   0.866   4.458   4.449 -1.0835 -0.0788  0.2934
 2752SOL     OW19714   2.191   0.540   4.164 -0.3164 -0.4514  0.1118
 2752SOL    HW119715   2.231   0.497   4.089 -0.1016 -1.2323  0.6691
 2752SOL    HW219716   2.228   0.628   4.172 -0.9032 -0.0818 -1.3755
 2753SOL     OW19717   1.611   4.305   6.405 -0.4465 -0.0923 -0.4506
 2753SOL    HW119718   1.579   4.283   6.493  1.9004 -0.2829  0.3572
 2753SOL    HW219719   1.536   4.277   6.352 -0.5243 -1.5222  0.4126
 2754SOL     OW19720   4.292   2.151   9.410 -0.8194  0.6350 -0.5770
 2754SOL    HW119721   4.231   2.124   9.341 -0.1179 -0.9384 -0.5984
 2754SOL    HW219722   4.272   2.244   9.413  2.6092  1.3554  0.6634
 2755SOL     OW19723   1.191   0.055   3.346  0.0980 -0.0034  0.2826
 2755SOL    HW119724   1.203   0.051   3.251 -0.1152  1.4952  0.1990
 2755SOL    HW219725   1.252   0.126   3.368  1.4596 -0.8540 -0.7145
 2756SOL     OW19726   0.023   1.325   5.470  0.7674 -0.0627  0.1215
 2756SOL    HW119727   0.031   1.419   5.483 -1.5478  0.1124  0.1322
 2756SOL    HW219728   0.115   1.300   5.458  0.8057  0.4995 -0.7564
 2757SOL     OW19729   0.363   2.104   2.209 -0.1802 -0.4264 -0.1599
 2757SOL    HW119730   0.370   2.125   2.116 -0.6514 -3.2745 -0.8148
 2757SOL    HW219731   0.452   2.126   2.236 -0.3850  0.9333 -0.5531
 2758SOL     OW19732   2.625   0.240   3.676  0.4224  0.0935  0.1968
 2758SOL    HW119733   2.688   0.265   3.608 -0.4524 -0.1674 -0.6984
 2758SOL    HW219734   2.557   0.305   3.656 -1.6400 -1.2929  2.7133
 2759SOL     OW19735   0.778   4.491   5.856  0.3033 -0.3074  0.0978
 2759SOL    HW119736   0.864   4.483   5.896 -0.0312  0.0819  0.8889
 2759SOL    HW219737   0.728   4.528   5.929 -0.8939  1.0932 -1.4331
 2760SOL     OW19738   0.403   0.389  10.726  0.4306 -0.2761 -0.8107
 2760SOL    HW119739   0.485   0.345  10.707  1.1648  2.0517 -3.1129
 2760SOL    HW219740   0.386   0.355  10.814  0.9245  0.4151 -0.4525
 2761SOL     OW19741   2.679   2.169   6.138 -0.5458  0.4996 -0.1294
 2761SOL    HW119742   2.743   2.154   6.207 -0.8170 -1.3831 -0.2631
 2761SOL    HW219743   2.690   2.263   6.129 -0.7592  0.6655  1.3418
 2762SOL     OW19744   0.522   2.783   8.101 -0.3101  0.5212  0.0502
 2762SOL    HW119745   0.616   2.765   8.099  0.0847  2.3761  1.8980
 2762SOL    HW219746   0.507   2.877   8.111  0.1730  0.5593  0.4339
 2763SOL     OW19747   0.376   3.697   9.682  0.6012 -0.2116  0.1545
 2763SOL    HW119748   0.420   3.665   9.761 -0.5185 -1.4195  0.2979
 2763SOL    HW219749   0.350   3.783   9.714  0.7992 -0.7440  1.7506
 2764SOL     OW19750   0.297   4.441   8.488 -0.3037 -0.0562  0.1666
 2764SOL    HW119751   0.298   4.360   8.540 -0.3047  0.4392  0.9351
 2764SOL    HW219752   0.211   4.474   8.510 -1.4047 -2.4186 -0.5521
 2765SOL     OW19753   0.248   2.705   3.646  0.4620 -0.0933 -0.2377
 2765SOL    HW119754   0.208   2.618   3.648  0.9946 -0.4306 -3.6112
 2765SOL    HW219755   0.272   2.706   3.553 -0.5177 -0.0409 -0.4904
 2766SOL     OW19756   1.026   3.521   7.224 -0.0678  0.6646 -0.2678
 2766SOL    HW119757   0.986   3.504   7.138 -0.4023 -1.1286  0.2494
 2766SOL    HW219758   0.990   3.608   7.237 -2.9741 -0.3373 -1.5266
 2767SOL     OW19759   0.872   3.917   8.630  0.0996  0.5270  0.1400
 2767SOL    HW119760   0.905   3.868   8.554 -0.8375 -1.8568  1.2880
 2767SOL    HW219761   0.828   3.847   8.678  3.0957 -1.3884  0.0441
 2768SOL     OW19762   4.284   0.794   3.409  0.3928 -0.4716 -0.4393
 2768SOL    HW119763   4.301   0.769   3.319  1.7099 -1.2802  0.0360
 2768SOL    HW219764   4.204   0.745   3.426  0.5980 -0.2609  1.1839
 2769SOL     OW19765   1.110   3.315  15.665 -0.2947 -0.4535  0.1010
 2769SOL    HW119766   1.110   3.274  15.579 -1.5159 -2.1411  0.8971
 2769SOL    HW219767   1.022   3.354  15.663 -0.7290 -1.5934 -3.1916
 2770SOL     OW19768   4.668   3.946   3.820 -0.3812 -0.3156 -0.1378
 2770SOL    HW119769   4.617   4.011   3.868  1.2865  0.4504  0.5962
 2770SOL    HW219770   4.701   3.892   3.892  1.8523 -0.9260 -1.6174
 2771SOL     OW19771   3.623   1.956   2.227 -0.1958  0.2690 -0.0976
 2771SOL    HW119772   3.696   1.984   2.282  1.0760 -2.1086 -0.5648
 2771SOL    HW219773   3.606   1.870   2.266 -0.4615  0.1238 -0.5363
 2772SOL     OW19774   1.657   0.413   1.608 -0.0551 -0.2926 -0.5793
 2772SOL    HW119775   1.659   0.355   1.684 -0.4312  2.3460  1.4476
 2772SOL    HW219776   1.743   0.396   1.570 -0.8551 -2.5851 -1.3687
 2773SOL     OW19777   3.607   1.291   4.380  0.5112  0.1021  0.5698
 2773SOL    HW119778   3.569   1.311   4.294  0.6169  0.7458  0.6749
 2773SOL    HW219779   3.606   1.374   4.428  1.0815 -0.3606  1.3744
 2774SOL     OW19780   0.272   1.695   6.066 -0.2946 -0.1843  0.7245
 2774SOL    HW119781   0.294   1.785   6.043  1.7424 -0.9415 -0.2487
 2774SOL    HW219782   0.218   1.674   5.990  0.0189  0.7125  0.2636
 2775SOL     OW19783   2.822   1.884   4.960 -0.2528  0.2134 -0.0167
 2775SOL    HW119784   2.739   1.867   4.915  0.3405 -4.7362  0.7656
 2775SOL    HW219785   2.873   1.925   4.890  0.3742 -1.6757 -0.6649
 2776SOL     OW19786   1.035   0.328   7.593  0.1137  0.0724  0.1418
 2776SOL    HW119787   1.085   0.265   7.541  0.8431  1.3733 -0.7119
 2776SOL    HW219788   1.062   0.407   7.546 -0.7054  2.4768  3.7423
 2777SOL     OW19789   0.228   3.286   5.323  0.8060 -0.1021 -0.3925
 2777SOL    HW119790   0.238   3.334   5.406 -0.6020  0.0517 -0.3097
 2777SOL    HW219791   0.310   3.304   5.278 -0.2799  1.5721 -1.6856
 2778SOL     OW19792   0.106   0.962  12.261 -0.0788  0.0978 -0.7323
 2778SOL    HW119793   0.020   1.003  12.247  0.2809  0.5073 -1.7145
 2778SOL    HW219794   0.105   0.882  12.209 -1.1277 -2.1384  2.6887
 2779SOL     OW19795   3.742   0.843   4.590 -0.3286  0.2663 -0.3643
 2779SOL    HW119796   3.752   0.780   4.661 -3.4854 -0.4029 -0.5063
 2779SOL    HW219797   3.714   0.783   4.521 -0.4345  0.2532 -0.3101
 2780SOL     OW19798   2.026   1.391   3.744 -0.4536 -0.4513 -0.1372
 2780SOL    HW119799   1.982   1.469   3.776 -0.5698  0.2584 -2.0128
 2780SOL    HW219800   2.059   1.348   3.823 -3.5029 -0.6268  1.0164
 2781SOL     OW19801   3.510   3.314   6.255 -0.0764  0.3683 -0.0010
 2781SOL    HW119802   3.596   3.339   6.289 -0.6663 -0.1107  1.8248
 2781SOL    HW219803   3.478   3.255   6.323 -0.5062 -0.5564 -1.0027
 2782SOL     OW19804   4.135   2.381   9.197 -0.2693 -0.1083 -0.0231
 2782SOL    HW119805   4.079   2.338   9.133 -0.1170 -0.5013  0.1057
 2782SOL    HW219806   4.208   2.407   9.141  0.1708  1.4812  1.2814
 2783SOL     OW19807   1.395   4.282   3.754  0.1501 -0.3525  0.1637
 2783SOL    HW119808   1.413   4.291   3.848  1.3035 -1.1601  0.0184
 2783SOL    HW219809   1.384   4.188   3.742  1.3016 -0.9149  3.5195
 2784SOL     OW19810   2.539   1.059   8.482  0.3171  0.0703  0.4093
 2784SOL    HW119811   2.461   1.011   8.510 -0.5624  0.5739 -1.1352
 2784SOL    HW219812   2.557   1.102   8.565  1.1722 -0.2513  0.3880
 2785SOL     OW19813   0.314   2.763  16.525  0.1580 -0.3752  0.2407
 2785SOL    HW119814   0.241   2.702  16.510 -1.4679  1.8070 -0.6590
 2785SOL    HW219815   0.388   2.705  16.542  0.4299  0.0451  0.4720
 2786SOL     OW19816   2.126   4.116   7.442 -0.5713  0.1908 -0.3807
 2786SOL    HW119817   2.140   4.116   7.537  1.0772 -2.5735 -0.6083
 2786SOL    HW219818   2.169   4.194   7.407 -0.8136  0.0511 -0.9871
 2787SOL     OW19819   1.109   3.349  17.134 -0.6176 -0.4832  0.2921
 2787SOL    HW119820   1.153   3.384  17.212 -2.1570 -0.4713  1.1581
 2787SOL    HW219821   1.065   3.424  17.094  0.5897 -1.7214 -3.3676
 2788SOL     OW19822   4.496   1.128   0.517  0.4077  0.3989 -0.2196
 2788SOL    HW119823   4.571   1.185   0.497  2.2065 -1.8918 -0.0031
 2788SOL    HW219824   4.432   1.198   0.509  0.2693  0.2005 -0.8020
 2789SOL     OW19825   3.990   1.328   3.373  1.0333  0.3303  0.0227
 2789SOL    HW119826   4.085   1.342   3.371  1.2324 -0.8989  0.6933
 2789SOL    HW219827   3.998   1.242   3.330 -1.1501  1.3034 -2.3360
 2790SOL     OW19828   0.724   3.218  16.351  0.3038 -0.1639 -0.1929
 2790SOL    HW119829   0.699   3.284  16.286 -1.6525 -2.3382 -1.6354
 2790SOL    HW219830   0.723   3.137  16.300  1.1422 -0.2024 -0.1493
 2791SOL     OW19831   4.610   4.686  17.021  0.0269 -0.2654 -0.2394
 2791SOL    HW119832   4.604   0.013  16.940 -0.0741 -0.1144 -0.1384
 2791SOL    HW219833   4.538   0.003  17.070 -0.6762 -0.2391 -1.2898
 2792SOL     OW19834   3.395   4.568  13.383 -0.1548  0.4093  0.6319
 2792SOL    HW119835   3.338   4.492  13.396  2.2288 -1.6201 -0.9404
 2792SOL    HW219836   3.479   4.536  13.352 -0.6462 -0.3236  0.0778
 2793SOL     OW19837   1.911   1.547   1.848 -0.1380 -0.2578  0.6154
 2793SOL    HW119838   1.914   1.637   1.880 -0.3487  0.1738 -0.5722
 2793SOL    HW219839   1.987   1.541   1.790  0.2389  0.3032  1.0577
 2794SOL     OW19840   3.197   4.693   5.109  0.2788  0.0232 -0.1300
 2794SOL    HW119841   3.271   4.640   5.081  0.1641 -0.3235  0.2150
 2794SOL    HW219842   3.166   4.717   5.022  0.6570  0.9002 -0.0210
 2795SOL     OW19843   0.478   1.082   4.184  0.0777  0.1874  0.2224
 2795SOL    HW119844   0.404   1.142   4.175 -0.7034 -0.9076 -0.7210
 2795SOL    HW219845   0.517   1.096   4.098  0.5431 -1.8227  0.1048
 2796SOL     OW19846   0.535   2.398   8.599 -0.7697  0.1726  0.2123
 2796SOL    HW119847   0.545   2.473   8.540  2.2090 -0.1622  0.3138
 2796SOL    HW219848   0.613   2.414   8.651 -0.1814  1.9221 -1.1834
 2797SOL     OW19849   1.860   3.587   0.497  0.6878  0.2652 -0.2412
 2797SOL    HW119850   1.951   3.565   0.517  0.3043 -0.1572  1.0270
 2797SOL    HW219851   1.842   3.677   0.524  1.1226  0.3648 -0.2757
 2798SOL     OW19852   0.683   0.515   7.902 -0.1777  0.6291 -0.3778
 2798SOL    HW119853   0.720   0.444   7.850  0.1833  1.1233 -0.7964
 2798SOL    HW219854   0.756   0.576   7.888 -1.5349  2.2892 -0.3263
 2799SOL     OW19855   0.943   4.108   8.914  0.2605  0.5690 -0.3719
 2799SOL    HW119856   0.906   4.097   9.002  2.5672 -1.6561  0.3185
 2799SOL    HW219857   1.033   4.082   8.934 -0.2157 -0.6761  0.1267
 2800SOL     OW19858   3.405   1.633   6.410 -0.1162 -0.0857  0.0678
 2800SOL    HW119859   3.464   1.558   6.415  0.4571  0.2628 -1.5353
 2800SOL    HW219860   3.459   1.707   6.383 -0.7630  0.9985  1.7128
 2801SOL     OW19861   3.873   3.645   6.221  0.1278  0.2484 -0.4108
 2801SOL    HW119862   3.957   3.633   6.177  0.4065 -0.4025  0.3000
 2801SOL    HW219863   3.809   3.674   6.156 -0.8829  0.1340  0.5254
 2802SOL     OW19864   3.803   2.219  12.221  0.0731  0.0358 -0.0047
 2802SOL    HW119865   3.887   2.242  12.262  0.8000 -1.1619 -0.8317
 2802SOL    HW219866   3.761   2.299  12.252  2.2093  1.1527  0.0125
 2803SOL     OW19867   4.392   1.833   7.157 -0.1345 -0.2921  0.6028
 2803SOL    HW119868   4.366   1.753   7.204 -0.6221 -0.3640  0.2044
 2803SOL    HW219869   4.356   1.899   7.216 -0.9170 -1.0026  0.9231
 2804SOL     OW19870   0.663   1.524   2.844  0.0543  0.1136  0.2487
 2804SOL    HW119871   0.655   1.585   2.771  0.2270 -0.2098 -0.0393
 2804SOL    HW219872   0.621   1.446   2.810 -3.1993  1.9026  0.1578
 2805SOL     OW19873   1.405   1.463   9.982  0.4832 -0.4777  0.4429
 2805SOL    HW119874   1.450   1.516   9.916 -1.7907  0.7689 -0.0765
 2805SOL    HW219875   1.320   1.444   9.943  0.0407  0.7567  0.7919
 2806SOL     OW19876   2.488   1.825  11.745  0.3520 -0.1273 -0.8306
 2806SOL    HW119877   2.465   1.738  11.712  1.2283 -0.4153 -0.6947
 2806SOL    HW219878   2.533   1.798  11.825  0.5346  2.4194 -0.0842
 2807SOL     OW19879   2.992   3.508  10.380 -0.1287 -0.6626  0.0626
 2807SOL    HW119880   3.070   3.452  10.382  1.5558  1.6778  0.7672
 2807SOL    HW219881   2.912   3.456  10.378 -0.6520  0.1322  0.4710
 2808SOL     OW19882   1.073   3.796   2.913 -1.0017 -0.6491  0.3227
 2808SOL    HW119883   1.026   3.717   2.884 -3.2088  1.2787 -1.4228
 2808SOL    HW219884   1.085   3.837   2.828 -1.6822 -0.4303  0.3321
 2809SOL     OW19885   1.898   3.498   7.880  0.1167 -0.0537 -0.2133
 2809SOL    HW119886   1.821   3.489   7.936  0.8595  1.0692  0.9668
 2809SOL    HW219887   1.859   3.555   7.813  1.2268  2.0740  0.9689
 2810SOL     OW19888   1.265   0.589   2.784  0.5265  0.0575  0.0927
 2810SOL    HW119889   1.323   0.514   2.774  0.8932  0.4288 -0.6108
 2810SOL    HW219890   1.177   0.558   2.763  0.9518 -2.1485  1.6181
 2811SOL     OW19891   1.701   3.068   4.500  0.0750  0.2953  0.6157
 2811SOL    HW119892   1.610   3.075   4.528 -0.6982 -0.4552 -1.7911
 2811SOL    HW219893   1.730   3.000   4.562  2.4242  0.3845 -0.3692
 2812SOL     OW19894   0.837   0.684  14.890 -0.3119 -0.1802 -0.5052
 2812SOL    HW119895   0.862   0.603  14.846  2.6391  0.9186 -0.9011
 2812SOL    HW219896   0.743   0.691  14.873 -0.0191  3.4889 -0.6191
 2813SOL     OW19897   2.783   0.564   2.129 -0.2150 -0.2275 -0.0293
 2813SOL    HW119898   2.873   0.589   2.110  0.1619 -2.0235 -0.5415
 2813SOL    HW219899   2.752   0.536   2.043 -0.3231  0.6499 -0.2816
 2814SOL     OW19900   3.860   3.282  15.622  0.3034  0.2356  0.7394
 2814SOL    HW119901   3.855   3.316  15.533  2.7975  1.7610  1.1752
 2814SOL    HW219902   3.955   3.284  15.632  0.3331  1.2692  0.2535
 2815SOL     OW19903   2.118   2.374   2.104 -0.1545  0.3189 -0.3236
 2815SOL    HW119904   2.170   2.329   2.171 -1.1909  1.0536  0.9781
 2815SOL    HW219905   2.077   2.300   2.058 -2.0931  0.5190  1.0879
 2816SOL     OW19906   4.475   2.827  12.432  0.6615 -0.6691  0.3045
 2816SOL    HW119907   4.386   2.834  12.397  1.0278 -1.5908 -0.8173
 2816SOL    HW219908   4.494   2.737  12.406  1.0772 -0.5710  0.2684
 2817SOL     OW19909   1.224   0.093   3.052 -0.0174  0.2340 -0.3085
 2817SOL    HW119910   1.131   0.093   3.027  0.4701  0.4367 -2.1715
 2817SOL    HW219911   1.233   4.722   3.037 -0.1027 -0.1505  2.1808
 2818SOL     OW19912   0.294   0.272  14.829  0.0189  0.5813  0.1383
 2818SOL    HW119913   0.238   0.195  14.832  0.0959  0.5457  0.9061
 2818SOL    HW219914   0.226   0.339  14.828  0.5263  1.1685  2.5650
 2819SOL     OW19915   3.852   4.504   3.086 -0.6811  0.6170  0.3760
 2819SOL    HW119916   3.863   4.415   3.118 -5.9062  0.2874  1.1748
 2819SOL    HW219917   3.925   4.557   3.118 -0.3016  0.8491 -0.8507
 2820SOL     OW19918   4.347   3.085   0.586  0.1799  0.1821  0.1457
 2820SOL    HW119919   4.408   3.051   0.652 -1.2813 -1.9383  0.3953
 2820SOL    HW219920   4.276   3.022   0.597  0.6065 -0.3094  0.1192
 2821SOL     OW19921   2.338   0.007   3.632  0.0290  0.4327  0.6618
 2821SOL    HW119922   2.426   4.698   3.654  0.1292 -1.2505 -2.0756
 2821SOL    HW219923   2.360   0.097   3.606  1.3769  0.1753  0.9204
 2822SOL     OW19924   1.367   3.550  10.363 -0.0060  0.4093 -0.1915
 2822SOL    HW119925   1.354   3.509  10.277 -2.4519  0.3929  0.1904
 2822SOL    HW219926   1.276   3.565  10.387  0.2235  0.8530  0.3901
 2823SOL     OW19927   1.401   3.547   1.020 -0.5525  0.3712 -0.1528
 2823SOL    HW119928   1.494   3.551   1.042 -0.5691 -1.0890  0.1654
 2823SOL    HW219929   1.383   3.611   0.951  1.0325 -0.2484 -1.1517
 2824SOL     OW19930   3.807   0.859  12.087  0.3695  0.2762  0.3355
 2824SOL    HW119931   3.845   0.774  12.063 -0.8775 -0.4753  1.0763
 2824SOL    HW219932   3.878   0.901  12.136  1.1804 -1.1569  0.3935
 2825SOL     OW19933   0.544   0.453   0.693  0.0175 -0.9091  0.2084
 2825SOL    HW119934   0.521   0.400   0.769 -0.2619 -0.4537  0.4473
 2825SOL    HW219935   0.469   0.507   0.667 -0.0310 -1.0508  0.0542
 2826SOL     OW19936   4.691   0.682   6.733 -0.0548  0.5442  0.7873
 2826SOL    HW119937   4.660   0.634   6.657  1.1883 -1.9167  1.8006
 2826SOL    HW219938   0.063   0.690   6.722 -0.4482  0.1657 -2.8908
 2827SOL     OW19939   0.916   2.441  15.346  0.6376 -0.4731 -0.9079
 2827SOL    HW119940   0.885   2.510  15.287  2.0333  1.0313  0.1294
 2827SOL    HW219941   0.930   2.365  15.289  0.2569 -1.3835  0.2022
 2828SOL     OW19942   0.867   1.756   3.515 -0.1819 -1.0444 -0.2658
 2828SOL    HW119943   0.908   1.674   3.488  0.3967 -0.3415 -1.5054
 2828SOL    HW219944   0.781   1.715   3.525 -0.4342 -0.3870  0.2388
 2829SOL     OW19945   2.282   2.713   8.632  0.8197 -0.2044 -0.4223
 2829SOL    HW119946   2.271   2.805   8.608  2.1270 -0.3218 -1.5187
 2829SOL    HW219947   2.303   2.712   8.725 -3.3620 -0.1397  0.4979
 2830SOL     OW19948   4.412   0.697   9.664 -0.8352 -0.0945 -0.6220
 2830SOL    HW119949   4.470   0.624   9.689 -2.0825 -0.6406  0.6529
 2830SOL    HW219950   4.330   0.654   9.687  0.4807 -1.3909  1.7225
 2831SOL     OW19951   3.197   1.675   8.836  0.0427 -0.1857  0.5106
 2831SOL    HW119952   3.109   1.663   8.872 -0.0743  0.8372  0.5796
 2831SOL    HW219953   3.182   1.654   8.744 -1.1175  1.8192  0.2278
 2832SOL     OW19954   3.758   2.545   1.645  0.5421 -0.6633 -0.0049
 2832SOL    HW119955   3.796   2.457   1.639  1.2788 -0.3319 -0.1784
 2832SOL    HW219956   3.797   2.587   1.568 -0.0802  0.4391  0.2791
 2833SOL     OW19957   4.408   4.287   3.196  0.6387  0.1294 -0.6587
 2833SOL    HW119958   4.441   4.197   3.196 -0.0674 -0.1229 -2.6372
 2833SOL    HW219959   4.463   4.327   3.264  1.5983 -0.6699 -0.9632
 2834SOL     OW19960   3.936   4.241  10.811 -0.2289 -0.2935 -0.1696
 2834SOL    HW119961   3.847   4.210  10.798  0.2058 -0.7060 -2.1289
 2834SOL    HW219962   3.928   4.337  10.817  0.7577 -0.0779 -2.1510
 2835SOL     OW19963   0.122   0.302   0.796  0.4085 -0.0112 -0.2097
 2835SOL    HW119964   0.081   0.386   0.817 -3.0004 -1.6724 -0.0528
 2835SOL    HW219965   0.160   0.285   0.882 -0.8145  0.3329  0.4002
 2836SOL     OW19966   4.071   4.181  10.232 -0.4212 -0.3055 -0.7056
 2836SOL    HW119967   4.087   4.259  10.180  0.2439 -0.0149 -0.0644
 2836SOL    HW219968   4.143   4.192  10.294 -2.1673 -1.5496  1.5475
 2837SOL     OW19969   2.036   2.345   8.160 -0.1980  0.0802  0.0991
 2837SOL    HW119970   2.028   2.440   8.154  0.3328  0.0545 -1.0112
 2837SOL    HW219971   2.130   2.334   8.149  0.0542 -0.5728  2.9403
 2838SOL     OW19972   2.100   0.041   8.101 -0.3055 -0.2920 -0.1571
 2838SOL    HW119973   2.189   0.067   8.076 -0.4453  0.9144  0.6438
 2838SOL    HW219974   2.076   0.115   8.155 -0.0966 -1.1168  1.0656
 2839SOL     OW19975   0.986   1.378  10.153  0.2056  0.1212  0.2170
 2839SOL    HW119976   0.989   1.300  10.208  1.0894 -0.6795 -0.9615
 2839SOL    HW219977   0.893   1.392  10.138  0.2846 -1.0472 -1.3322
 2840SOL     OW19978   0.033   0.837   6.273 -0.1385 -0.2014  0.1318
 2840SOL    HW119979   0.114   0.879   6.244  0.0420 -1.3058 -0.9581
 2840SOL    HW219980   4.708   0.857   6.192  0.8114  1.1286 -0.1175
 2841SOL     OW19981   4.515   2.209   8.510  0.4929  0.0887 -0.1596
 2841SOL    HW119982   4.550   2.129   8.472 -0.0414 -0.8790  1.3770
 2841SOL    HW219983   4.595   2.261   8.519 -0.4635  1.4995  0.2364
 2842SOL     OW19984   4.674   4.122   6.756 -0.1522  0.4799  0.1865
 2842SOL    HW119985   4.657   4.216   6.769  0.4120  0.8297 -1.5481
 2842SOL    HW219986   0.047   4.123   6.761 -0.1541 -1.7945  0.6048
 2843SOL     OW19987   3.552   1.261   3.919 -1.0575  0.0362  0.1272
 2843SOL    HW119988   3.516   1.256   4.007  0.1546 -1.0383  0.5608
 2843SOL    HW219989   3.572   1.352   3.897  1.3155 -0.2877  1.0203
 2844SOL     OW19990   3.830   3.109   7.033 -0.0203 -0.1631 -0.0514
 2844SOL    HW119991   3.899   3.176   7.034  0.3029 -0.5127  0.8571
 2844SOL    HW219992   3.806   3.089   7.123  0.1166  0.3547  0.1044
 2845SOL     OW19993   3.762   2.738   4.786  0.4599 -0.2805  0.2462
 2845SOL    HW119994   3.788   2.804   4.722  0.5961 -0.1046  0.4875
 2845SOL    HW219995   3.680   2.710   4.745 -0.1151  2.2362 -0.3053
 2846SOL     OW19996   0.113   2.815   5.683 -0.1326  0.3720  0.0190
 2846SOL    HW119997   0.088   2.836   5.772  3.5154  1.3399  0.8065
 2846SOL    HW219998   0.190   2.871   5.677 -0.4550  0.6189 -1.9198
 2847SOL     OW19999   0.694   0.320  11.111 -0.0957  0.0784 -0.4364
 2847SOL    HW120000   0.687   0.414  11.127  2.5541 -0.2417  2.6682
 2847SOL    HW220001   0.722   0.327  11.020 -0.9913  0.9414 -0.6475
 2848SOL     OW20002   0.398   3.568   7.093  0.1972  0.1343  0.2219
 2848SOL    HW120003   0.388   3.496   7.030  1.4580 -1.2016  1.5355
 2848SOL    HW220004   0.344   3.638   7.056 -2.2543 -1.8637  0.0358
 2849SOL     OW20005   1.818   3.299   2.223  0.2050  0.0581 -0.1874
 2849SOL    HW120006   1.893   3.292   2.164  0.5566 -0.9477  0.3743
 2849SOL    HW220007   1.765   3.224   2.195 -0.1698 -1.0693  3.5385
 2850SOL     OW20008   1.841   0.073  14.807 -0.0396  0.0965  0.2998
 2850SOL    HW120009   1.931   0.069  14.837  1.0998  0.0753 -3.1404
 2850SOL    HW220010   1.839   0.167  14.822 -3.2636 -0.2003  1.8039
 2851SOL     OW20011   4.442   3.980   2.613  0.4138 -0.1177 -0.4607
 2851SOL    HW120012   4.529   3.993   2.575 -0.2394  3.7845 -0.6095
 2851SOL    HW220013   4.376   3.965   2.545  1.2487 -1.3143 -1.0033
 2852SOL     OW20014   3.438   4.204   9.193  0.0930 -0.2714 -0.5391
 2852SOL    HW120015   3.507   4.252   9.241  0.8058 -1.1955 -0.6381
 2852SOL    HW220016   3.486   4.168   9.119 -2.7836 -1.0605 -2.0138
 2853SOL     OW20017   3.641   3.465   0.936 -0.0706 -0.0878 -0.3804
 2853SOL    HW120018   3.581   3.434   1.004  0.4477  2.8275  1.4289
 2853SOL    HW220019   3.601   3.548   0.911  1.5126  0.4486 -1.1160
 2854SOL     OW20020   4.663   4.501   2.145 -0.2698 -0.1820 -0.4227
 2854SOL    HW120021   4.607   4.511   2.222  0.1298 -1.2904  0.0124
 2854SOL    HW220022   0.023   4.474   2.185 -1.0309  1.2312  2.0979
 2855SOL     OW20023   1.860   1.098  10.009 -0.7173 -0.3726  0.4078
 2855SOL    HW120024   1.840   1.015   9.966 -1.5507  0.6585 -1.1761
 2855SOL    HW220025   1.787   1.090  10.069  0.4462 -0.0363  1.8677
 2856SOL     OW20026   3.517   3.074   7.351  0.0568 -0.4105 -0.5657
 2856SOL    HW120027   3.438   3.054   7.302 -0.4324  0.2547 -0.0404
 2856SOL    HW220028   3.498   3.057   7.443  0.6356  0.0709 -0.3565
 2857SOL     OW20029   3.762   2.560   0.704 -0.3639  0.0574  0.7235
 2857SOL    HW120030   3.738   2.576   0.796 -0.6154  1.7845  0.3672
 2857SOL    HW220031   3.742   2.467   0.701  3.0771 -0.5610 -1.6374
 2858SOL     OW20032   0.819   2.816   8.230  0.3580  0.1407 -0.3547
 2858SOL    HW120033   0.886   2.784   8.291  0.1930  3.0726  1.3581
 2858SOL    HW220034   0.811   2.909   8.252 -1.8532  0.1397 -1.2545
 2859SOL     OW20035   3.536   1.740   5.873 -0.3774 -0.2700 -0.1646
 2859SOL    HW120036   3.468   1.738   5.939  0.6719  1.5734  0.9716
 2859SOL    HW220037   3.492   1.703   5.796  0.7764 -0.8188 -0.5631
 2860SOL     OW20038   4.534   4.075   3.601 -0.1793  0.0740 -0.2343
 2860SOL    HW120039   4.599   4.022   3.647  1.5078  2.1360 -0.2461
 2860SOL    HW220040   4.460   4.016   3.614 -0.3484  0.2335 -0.4704
 2861SOL     OW20041   1.961   2.055   2.058 -0.5872 -0.3083  0.3375
 2861SOL    HW120042   2.050   2.035   2.027 -1.1753 -1.3778 -0.6474
 2861SOL    HW220043   1.921   2.123   2.004 -0.6914 -0.5099  0.1618
 2862SOL     OW20044   3.767   4.172   9.064  0.0023  0.1015  0.6907
 2862SOL    HW120045   3.686   4.134   9.030  1.8012 -3.0621 -0.0623
 2862SOL    HW220046   3.798   4.224   8.990 -0.4518 -1.3633 -0.5028
 2863SOL     OW20047   3.406   4.092  17.370 -0.4120 -0.1918 -0.4789
 2863SOL    HW120048   3.364   4.135  17.294 -0.2119 -1.5646 -1.3715
 2863SOL    HW220049   3.403   4.151  17.445  0.0990 -0.2254 -0.4388
 2864SOL     OW20050   1.233   3.974  14.374 -0.0589 -0.2088 -0.4270
 2864SOL    HW120051   1.161   3.928  14.331 -0.6752  0.5802 -0.2517
 2864SOL    HW220052   1.197   4.057  14.405  0.1299 -0.1791 -0.2819
 2865SOL     OW20053   1.559   1.173  16.711 -0.2451  0.1232  0.1111
 2865SOL    HW120054   1.483   1.116  16.701  0.2832 -0.3209 -1.4307
 2865SOL    HW220055   1.628   1.115  16.680 -1.2278 -0.9668 -0.0637
 2866SOL     OW20056   3.336   1.625   7.837 -0.8067 -0.2186  0.5113
 2866SOL    HW120057   3.262   1.664   7.884 -0.8872 -0.5230  0.6387
 2866SOL    HW220058   3.408   1.686   7.852 -1.2639  0.1411  1.2754
 2867SOL     OW20059   2.552   2.464  17.244 -0.4479  0.2261  0.2343
 2867SOL    HW120060   2.558   2.372  17.270  0.1405  0.7713  2.0146
 2867SOL    HW220061   2.600   2.515  17.310  1.7596 -0.6200 -0.7015
 2868SOL     OW20062   1.842   1.342  17.537  0.0436 -0.1959  0.1921
 2868SOL    HW120063   1.757   1.359  17.497  0.8133 -1.7429 -2.0712
 2868SOL    HW220064   1.816   1.278  17.603  1.0294 -2.3871 -1.5622
 2869SOL     OW20065   3.086   4.250   7.911  0.3897  0.6327  0.4991
 2869SOL    HW120066   3.019   4.182   7.907  0.9754  0.0232  1.0699
 2869SOL    HW220067   3.161   4.191   7.908  1.1107  1.6528 -1.1483
 2870SOL     OW20068   2.585   0.582  14.847 -0.4175  0.0217  0.0229
 2870SOL    HW120069   2.508   0.581  14.904 -0.0835  1.7810  0.5368
 2870SOL    HW220070   2.542   0.613  14.768  1.0806 -0.4860 -0.9917
 2871SOL     OW20071   0.341   1.796   3.486 -0.4804  0.3415 -0.5149
 2871SOL    HW120072   0.269   1.802   3.549 -1.3759  0.1045 -1.5179
 2871SOL    HW220073   0.298   1.781   3.402 -0.9154  0.8473 -0.3789
 2872SOL     OW20074   1.414   4.086   6.821 -0.4699 -0.0090  0.0467
 2872SOL    HW120075   1.362   4.161   6.850 -2.2973 -1.9124  1.6705
 2872SOL    HW220076   1.461   4.066   6.902  1.2016  1.0679 -0.6550
 2873SOL     OW20077   4.130   1.357  17.004  0.2730 -0.1715 -0.4325
 2873SOL    HW120078   4.050   1.403  17.031  1.2423  1.2073  0.1322
 2873SOL    HW220079   4.186   1.378  17.079 -0.1739 -0.5161  0.0014
 2874SOL     OW20080   3.477   4.072   3.294  0.3308 -0.0392 -0.3299
 2874SOL    HW120081   3.459   3.986   3.331  0.7427  0.4846  1.0661
 2874SOL    HW220082   3.475   4.125   3.374 -0.0497 -1.4364  0.5828
 2875SOL     OW20083   0.338   3.050   4.677  0.1530 -0.3039 -0.0246
 2875SOL    HW120084   0.389   2.982   4.634 -1.2741 -0.6940 -1.1108
 2875SOL    HW220085   0.281   2.999   4.734  0.5323 -0.5065  0.1696
 2876SOL     OW20086   3.311   0.751   8.688  0.9058 -0.2572 -0.3313
 2876SOL    HW120087   3.331   0.660   8.666 -1.5002 -0.7277 -0.4904
 2876SOL    HW220088   3.231   0.751   8.636 -0.5725 -0.8374  1.9529
 2877SOL     OW20089   2.672   0.728   6.201  0.1452 -0.3559 -0.1683
 2877SOL    HW120090   2.765   0.722   6.220 -0.0235 -0.0195  0.7515
 2877SOL    HW220091   2.639   0.679   6.276 -0.6524 -0.6759 -0.7204
 2878SOL     OW20092   3.226   3.218   8.371  0.4541 -0.3935 -0.0842
 2878SOL    HW120093   3.313   3.256   8.381 -0.6786  1.6883  1.7996
 2878SOL    HW220094   3.186   3.256   8.449  0.5661  0.1848 -0.3112
 2879SOL     OW20095   0.657   3.064   4.111 -0.1153  0.2859  0.3821
 2879SOL    HW120096   0.739   3.017   4.103 -0.2526 -0.0967  1.2266
 2879SOL    HW220097   0.609   3.041   4.031 -0.5505  1.2616  0.3520
 2880SOL     OW20098   0.385   1.944  11.264 -0.2838 -0.0367  0.2050
 2880SOL    HW120099   0.421   2.028  11.235  0.8274 -0.2633  0.9383
 2880SOL    HW220100   0.311   1.970  11.319 -0.1180  1.3001 -0.1866
 2881SOL     OW20101   2.342   2.691   9.421  0.0858 -0.2041  0.1403
 2881SOL    HW120102   2.410   2.632   9.388 -0.7053 -1.5702  0.9094
 2881SOL    HW220103   2.290   2.710   9.342  0.2498 -0.8920 -0.1408
 2882SOL     OW20104   1.783   0.174   5.858 -0.6632  0.1734  0.0674
 2882SOL    HW120105   1.699   0.130   5.861 -1.1246  0.9195 -1.9600
 2882SOL    HW220106   1.775   0.221   5.775  3.0137 -0.0813 -0.4392
 2883SOL     OW20107   1.882   1.885  10.098  0.0146  0.4511  0.1727
 2883SOL    HW120108   1.898   1.832  10.176  3.8119  1.5340  0.1386
 2883SOL    HW220109   1.964   1.877  10.050  1.1137  1.3595  1.9135
 2884SOL     OW20110   0.453   3.338   5.181  0.2780 -0.3971 -1.0543
 2884SOL    HW120111   0.496   3.254   5.193 -1.9675 -1.5317 -0.9330
 2884SOL    HW220112   0.517   3.388   5.231  0.3631  0.1843 -1.7420
 2885SOL     OW20113   0.725   0.563   9.331 -0.2634  0.5031 -0.1962
 2885SOL    HW120114   0.771   0.542   9.412 -1.8581 -2.1250  0.0383
 2885SOL    HW220115   0.672   0.629   9.374 -0.4528 -0.9090  1.7523
 2886SOL     OW20116   2.878   3.915   3.588  0.0839 -0.1639 -0.1631
 2886SOL    HW120117   2.855   3.920   3.495 -0.4889  0.0353 -0.0050
 2886SOL    HW220118   2.791   3.935   3.621  0.9197 -1.0139  2.5591
 2887SOL     OW20119   3.280   4.560   1.228 -0.9453 -0.3260  0.4990
 2887SOL    HW120120   3.323   4.476   1.209 -0.0334  0.5322 -1.3075
 2887SOL    HW220121   3.262   4.595   1.141 -0.7303 -1.1306  0.1340
 2888SOL     OW20122   0.980   0.585  13.228 -0.0469  0.2602  0.4050
 2888SOL    HW120123   0.989   0.648  13.157  0.4917  2.7643  2.6741
 2888SOL    HW220124   1.071   0.584  13.256 -0.4980  2.7142  1.9690
 2889SOL     OW20125   0.957   1.543  15.832  0.4860 -0.0504 -0.0114
 2889SOL    HW120126   0.909   1.487  15.894  1.5327 -1.5321 -0.5427
 2889SOL    HW220127   1.048   1.534  15.862  0.0333 -0.0174  1.3943
 2890SOL     OW20128   2.010   4.048   3.052 -0.5375  0.1468 -0.2576
 2890SOL    HW120129   1.971   3.975   3.100  0.3380 -0.8864 -1.1188
 2890SOL    HW220130   2.086   4.072   3.104 -0.3932  1.8380 -1.2380
 2891SOL     OW20131   1.570   0.562  11.426  0.1369  0.2647  0.5606
 2891SOL    HW120132   1.499   0.566  11.490  0.3382 -0.1228  0.8008
 2891SOL    HW220133   1.633   0.508  11.472 -0.7619 -2.0103 -0.8552
 2892SOL     OW20134   1.681   1.702   5.154  0.0395 -0.5149 -0.3085
 2892SOL    HW120135   1.606   1.651   5.185 -0.2098  0.0143 -0.0358
 2892SOL    HW220136   1.736   1.702   5.232  0.1092  1.6479 -0.3563
 2893SOL     OW20137   0.613   4.614   6.780  0.2573  0.0978 -0.1257
 2893SOL    HW120138   0.646   4.573   6.700  0.7046  1.0219 -0.4089
 2893SOL    HW220139   0.542   4.668   6.748  1.3634  0.8761 -1.2442
 2894SOL     OW20140   0.898   2.519  15.806 -0.6457 -0.4764  0.3018
 2894SOL    HW120141   0.921   2.514  15.899  1.4827  2.8623 -0.0624
 2894SOL    HW220142   0.804   2.534  15.814 -0.6484 -0.4356  0.1921
 2895SOL     OW20143   0.566   0.489   5.694  0.1248 -0.4439  0.0613
 2895SOL    HW120144   0.510   0.422   5.654 -0.5352 -1.8368  3.3953
 2895SOL    HW220145   0.553   0.568   5.640  0.9663 -0.7489 -0.5763
 2896SOL     OW20146   2.461   2.568   5.054  0.1096 -0.1983 -0.1808
 2896SOL    HW120147   2.444   2.603   5.142  2.5052 -1.4067  0.7723
 2896SOL    HW220148   2.402   2.610   4.991 -1.8624 -1.1485  1.0258
 2897SOL     OW20149   4.193   4.679   3.721 -0.1846 -0.1518  0.4394
 2897SOL    HW120150   4.157   4.600   3.680  1.7648 -0.8226  0.0499
 2897SOL    HW220151   4.132   0.028   3.704 -1.4441 -0.9986  1.3848
 2898SOL     OW20152   0.270   1.106   3.397  0.4649  0.2728  0.1567
 2898SOL    HW120153   0.193   1.110   3.340  0.0225  1.0062  0.8147
 2898SOL    HW220154   0.282   1.196   3.426 -0.0378 -0.1456  1.6674
 2899SOL     OW20155   4.371   1.793   5.884  0.4205 -0.6978  0.2103
 2899SOL    HW120156   4.295   1.771   5.831  0.6975 -0.9192 -0.1006
 2899SOL    HW220157   4.364   1.884   5.912  2.1073 -0.5505  0.1923
 2900SOL     OW20158   2.934   1.790   5.519  0.0601 -0.6744 -0.2844
 2900SOL    HW120159   2.874   1.803   5.592  0.8888  1.5926  0.0041
 2900SOL    HW220160   2.891   1.715   5.478  0.8965 -1.4821  0.3289
 2901SOL     OW20161   3.753   3.665   2.546  0.1004 -0.3898  0.4525
 2901SOL    HW120162   3.760   3.723   2.471  2.3662 -0.6240  0.4812
 2901SOL    HW220163   3.779   3.722   2.619 -0.1090  0.1630  0.0970
 2902SOL     OW20164   3.488   3.409   4.270  0.4231  0.1298 -0.3782
 2902SOL    HW120165   3.534   3.343   4.322  0.0752 -0.7453 -1.1856
 2902SOL    HW220166   3.414   3.351   4.251 -0.1988  0.3181  1.4226
 2903SOL     OW20167   4.162   1.514   5.879 -0.1272 -0.1084  0.1557
 2903SOL    HW120168   4.250   1.480   5.896  0.2241  0.7207  0.0162
 2903SOL    HW220169   4.182   1.563   5.799  0.7937 -0.7831 -0.0154
 2904SOL     OW20170   0.801   0.715   8.109 -0.7953 -0.1513 -0.4294
 2904SOL    HW120171   0.736   0.773   8.069  0.6193 -0.1767 -2.7586
 2904SOL    HW220172   0.868   0.774   8.142 -0.5774  0.3068 -1.6664
 2905SOL     OW20173   3.553   3.616   9.623  0.2472  0.3946 -0.2361
 2905SOL    HW120174   3.532   3.693   9.569 -0.3151  1.4747  1.5337
 2905SOL    HW220175   3.580   3.546   9.563  1.8844 -0.4106  1.4301
 2906SOL     OW20176   3.102   4.021  12.056  0.2275 -0.0073 -0.3873
 2906SOL    HW120177   3.017   4.064  12.047  0.1318 -0.1031  0.0254
 2906SOL    HW220178   3.132   4.034  11.966  1.1522  1.3601  0.1253
 2907SOL     OW20179   3.495   1.226  15.453  0.5872  0.7457 -0.0855
 2907SOL    HW120180   3.524   1.148  15.406  1.5167  0.8377  0.3406
 2907SOL    HW220181   3.409   1.197  15.484 -0.1472  0.6805 -2.2204
 2908SOL     OW20182   0.765   1.404  10.406 -0.3951 -0.3653  0.0591
 2908SOL    HW120183   0.743   1.401  10.313 -0.0638 -0.7219 -0.0095
 2908SOL    HW220184   0.684   1.442  10.442 -0.6555  0.0805 -0.9989
 2909SOL     OW20185   3.152   4.094   3.953 -0.1678 -0.1689 -0.0831
 2909SOL    HW120186   3.168   4.058   3.866 -0.0857 -0.1476 -0.0766
 2909SOL    HW220187   3.129   4.013   4.000  1.8923 -0.1387  0.9782
 2910SOL     OW20188   4.613   3.401   3.633 -0.1943 -0.2422  0.0264
 2910SOL    HW120189   4.564   3.410   3.714  1.6832 -1.2458  1.2773
 2910SOL    HW220190   4.663   3.320   3.644  0.0901  0.0475  0.7938
 2911SOL     OW20191   1.977   0.180  11.844  0.2394  0.4496 -0.0175
 2911SOL    HW120192   2.072   0.188  11.855  0.1591  0.1700  0.9337
 2911SOL    HW220193   1.963   0.257  11.789  0.9097  1.1751  0.8232
 2912SOL     OW20194   0.618   2.270   2.696 -0.2063 -0.4923  0.2657
 2912SOL    HW120195   0.571   2.276   2.779  0.1980  1.2110  0.3727
 2912SOL    HW220196   0.548   2.257   2.632  0.5560 -0.1816 -0.6318
 2913SOL     OW20197   0.529   2.692   1.339 -0.1730  0.3250 -0.4294
 2913SOL    HW120198   0.444   2.666   1.304 -0.3829 -1.0342  1.0758
 2913SOL    HW220199   0.504   2.758   1.404  0.6061 -1.4482  1.6858
 2914SOL     OW20200   4.552   2.005   4.673 -0.4279 -0.2999 -0.0240
 2914SOL    HW120201   4.503   2.055   4.738  0.4802 -0.6228  0.9022
 2914SOL    HW220202   4.529   2.062   4.599 -1.5661 -0.4891  0.1792
 2915SOL     OW20203   0.058   0.737   3.401 -0.0928  0.0126  0.1603
 2915SOL    HW120204   4.719   0.690   3.457 -0.1994  0.8016  0.7081
 2915SOL    HW220205   0.142   0.741   3.447  0.0808 -3.2571  0.0893
 2916SOL     OW20206   2.982   1.298  17.206  0.3956 -1.0081 -0.1952
 2916SOL    HW120207   2.993   1.265  17.295 -0.8817 -1.4856 -0.2155
 2916SOL    HW220208   3.064   1.344  17.185 -0.1796  0.5316  0.9785
 2917SOL     OW20209   0.681   4.270   3.118 -0.1226  0.0182 -0.0718
 2917SOL    HW120210   0.632   4.189   3.135  2.4740 -1.0840  2.1872
 2917SOL    HW220211   0.688   4.265   3.023  1.3453  2.5518 -0.1073
 2918SOL     OW20212   1.408   2.211   8.610  0.2945  0.5261  0.1489
 2918SOL    HW120213   1.353   2.194   8.534 -1.1996 -1.4115  1.6434
 2918SOL    HW220214   1.365   2.289   8.643  0.9984  1.0911 -0.2778
 2919SOL     OW20215   0.700   0.797   3.431  0.1934  0.5037  0.3001
 2919SOL    HW120216   0.615   0.825   3.397  0.4739 -3.1052 -3.3669
 2919SOL    HW220217   0.735   0.872   3.478 -0.7276  0.8255  0.4751
 2920SOL     OW20218   1.076   2.186   2.678  0.3545  0.4039  0.2428
 2920SOL    HW120219   1.084   2.256   2.743 -0.9619  0.8372 -0.0659
 2920SOL    HW220220   1.056   2.111   2.733  2.0836  1.1456  1.8579
 2921SOL     OW20221   0.572   0.001   3.394 -0.0971 -0.7880 -0.2587
 2921SOL    HW120222   0.622   4.680   3.325  0.9035  0.0998 -0.1019
 2921SOL    HW220223   0.508   0.045   3.339 -1.5131 -0.7945  1.3609
 2922SOL     OW20224   2.415   3.788   3.627  0.3514  0.8901  0.0316
 2922SOL    HW120225   2.424   3.752   3.715 -1.3932  0.7183  0.1382
 2922SOL    HW220226   2.326   3.762   3.601  0.3096  1.1963 -0.1349
 2923SOL     OW20227   3.716   0.513   9.012  0.8283 -0.6528  0.3999
 2923SOL    HW120228   3.628   0.478   9.026  0.9482 -0.4886  1.5947
 2923SOL    HW220229   3.725   0.589   9.070 -2.9772  1.0943 -1.2778
 2924SOL     OW20230   1.294   1.231   7.402  0.3681 -0.0755 -0.2917
 2924SOL    HW120231   1.234   1.258   7.472 -0.4560 -1.2458 -0.5481
 2924SOL    HW220232   1.228   1.178   7.357  0.3307  2.2568 -2.9692
 2925SOL     OW20233   2.255   3.077   8.424 -0.0829 -0.0998  0.1889
 2925SOL    HW120234   2.208   3.152   8.389  0.1954 -0.8580 -1.8007
 2925SOL    HW220235   2.335   3.118   8.457 -2.4218  3.3072  1.5445
 2926SOL     OW20236   2.870   3.691   7.970  0.4732 -0.7905  0.5363
 2926SOL    HW120237   2.951   3.653   8.002  0.4934 -1.3944 -0.2249
 2926SOL    HW220238   2.812   3.620   7.998  0.7097 -0.3921  2.0295
 2927SOL     OW20239   4.192   2.051   4.440  0.1022  0.7853  0.1486
 2927SOL    HW120240   4.236   2.014   4.363 -2.2553  0.7561 -1.1758
 2927SOL    HW220241   4.107   2.064   4.398  0.6904  0.2565 -1.2326
 2928SOL     OW20242   0.513   2.270  10.265 -0.1923  0.5749 -0.3829
 2928SOL    HW120243   0.447   2.338  10.253  1.3976  1.8946 -1.7665
 2928SOL    HW220244   0.589   2.315  10.303  0.2125  0.7456 -1.3821
 2929SOL     OW20245   1.047   1.651   6.447 -0.1002 -0.6219 -0.1112
 2929SOL    HW120246   1.056   1.562   6.481  1.8704 -1.0229 -1.6759
 2929SOL    HW220247   1.133   1.674   6.412 -0.6259 -0.0344 -1.0321
 2930SOL     OW20248   3.788   2.381  13.854 -0.2025  0.3617 -0.1694
 2930SOL    HW120249   3.776   2.456  13.912  0.5252  1.4579 -1.4199
 2930SOL    HW220250   3.773   2.434  13.776 -1.3459  0.8443  0.3774
 2931SOL     OW20251   1.409   3.096   4.471 -0.2585 -0.2966 -0.0290
 2931SOL    HW120252   1.447   3.183   4.461 -0.5276  0.1122  2.4257
 2931SOL    HW220253   1.320   3.112   4.502  0.1165  1.8035 -0.0036
 2932SOL     OW20254   0.241   3.376   0.065 -0.4473 -0.2302  0.0533
 2932SOL    HW120255   0.262   3.283   0.078 -1.8022 -0.8000 -1.7515
 2932SOL    HW220256   0.302   3.411   0.130 -0.8019  0.0136  0.2566
 2933SOL     OW20257   0.286   2.677  14.953 -1.0614  0.4411  0.5010
 2933SOL    HW120258   0.206   2.700  15.001 -1.3922  0.6895 -0.1670
 2933SOL    HW220259   0.307   2.765  14.924  1.6302 -1.1190 -2.3649
 2934SOL     OW20260   1.609   4.045  17.032 -0.3797  0.5655  0.5281
 2934SOL    HW120261   1.603   4.050  17.127  2.5810  1.0345  0.6884
 2934SOL    HW220262   1.625   4.138  17.015 -0.5610  0.3403 -0.9032
 2935SOL     OW20263   2.386   2.620   2.045 -0.4921  0.4565  0.1947
 2935SOL    HW120264   2.473   2.629   2.006 -0.1263  0.4423  1.0041
 2935SOL    HW220265   2.413   2.562   2.116 -2.1095  0.4408  0.7911
 2936SOL     OW20266   3.005   4.653   1.047 -0.0527 -0.0203  0.5478
 2936SOL    HW120267   3.099   4.659   1.029 -0.3514  1.3879 -0.5354
 2936SOL    HW220268   2.982   0.009   0.998  0.6778 -0.7819 -1.0316
 2937SOL     OW20269   3.033   3.712   3.745 -0.0434  0.1686  0.4262
 2937SOL    HW120270   3.122   3.733   3.719  0.8840 -2.7985  1.2681
 2937SOL    HW220271   2.986   3.777   3.692 -1.2030  1.1860  2.6840
 2938SOL     OW20272   1.714   4.373   7.196 -0.4647 -0.0432  0.6528
 2938SOL    HW120273   1.626   4.343   7.176 -0.3156 -0.2490  0.3086
 2938SOL    HW220274   1.709   4.462   7.161  0.6178 -0.1560  0.2026
 2939SOL     OW20275   1.427   0.467  12.575  0.4503  0.1501 -0.1385
 2939SOL    HW120276   1.470   0.533  12.629  1.0260 -0.7464  0.4860
 2939SOL    HW220277   1.476   0.481  12.494 -0.4789 -1.4254 -0.9685
 2940SOL     OW20278   3.813   0.582   1.044 -0.0879 -0.5327 -0.5504
 2940SOL    HW120279   3.755   0.515   1.008  0.6324  0.6258 -3.8308
 2940SOL    HW220280   3.791   0.564   1.135  2.8151  0.5666  0.3843
 2941SOL     OW20281   0.145   3.733  17.090 -0.5398  0.4353  0.0995
 2941SOL    HW120282   0.088   3.658  17.109  1.7752 -1.5326 -0.7066
 2941SOL    HW220283   0.215   3.703  17.148  0.7696  3.5576  0.1527
 2942SOL     OW20284   0.905   0.608  17.553 -0.1554  0.5599  0.0703
 2942SOL    HW120285   0.883   0.685  17.500  0.4244 -0.0209 -1.0140
 2942SOL    HW220286   0.816   0.580  17.577 -0.2108  0.9014  0.2679
 2943SOL     OW20287   4.157   4.159  13.638 -0.1789 -0.1453  0.4709
 2943SOL    HW120288   4.240   4.185  13.677 -0.0458 -0.0870  0.1550
 2943SOL    HW220289   4.096   4.223  13.676  0.7781  0.7984  0.4229
 2944SOL     OW20290   2.449   4.243   5.895  0.2594  0.1199  0.1431
 2944SOL    HW120291   2.366   4.255   5.848 -0.2378  1.9994  1.4873
 2944SOL    HW220292   2.445   4.171   5.958 -0.5295  0.8663  0.9610
 2945SOL     OW20293   2.269   0.530   2.533 -0.6253  0.6661  0.0219
 2945SOL    HW120294   2.296   0.618   2.507  1.1512 -0.0949 -0.6656
 2945SOL    HW220295   2.286   0.480   2.454  1.4706  0.9919  0.2723
 2946SOL     OW20296   2.529   1.839   3.876 -0.3795  0.1752 -0.0492
 2946SOL    HW120297   2.492   1.751   3.882  0.9078 -0.3060  0.6836
 2946SOL    HW220298   2.555   1.826   3.785 -1.3693 -2.4683  0.0584
 2947SOL     OW20299   1.420   0.901   3.390  0.3759 -0.9513 -0.8419
 2947SOL    HW120300   1.465   0.873   3.470 -1.0689 -2.9808 -0.7325
 2947SOL    HW220301   1.378   0.820   3.360  0.0983 -0.6340 -1.3122
 2948SOL     OW20302   4.571   0.375   4.706  0.5502 -0.4770 -0.4354
 2948SOL    HW120303   4.621   0.297   4.733 -1.7317 -1.5623  0.6096
 2948SOL    HW220304   4.631   0.416   4.643 -1.1892  0.6737 -1.3169
 2949SOL     OW20305   0.879   2.104  13.242  0.3618 -0.1350 -0.1409
 2949SOL    HW120306   0.844   2.171  13.184  1.5813  0.4063 -0.2466
 2949SOL    HW220307   0.954   2.071  13.192  2.2734  2.7668  0.8663
 2950SOL     OW20308   1.936   1.649   4.110 -0.2888  0.3385  0.1436
 2950SOL    HW120309   1.861   1.687   4.156 -2.1717 -1.4961 -1.3598
 2950SOL    HW220310   2.007   1.677   4.167  0.4116  0.7665 -0.9330
 2951SOL     OW20311   2.029   1.230   4.718  0.6637 -0.1442 -0.1477
 2951SOL    HW120312   2.094   1.161   4.709  0.9874  0.2900 -1.2174
 2951SOL    HW220313   1.977   1.196   4.790  3.0664  0.0595  1.6753
 2952SOL     OW20314   3.801   4.131  13.817  0.7021  0.4012 -0.3882
 2952SOL    HW120315   3.827   4.214  13.778  0.8847  1.5067  2.1256
 2952SOL    HW220316   3.746   4.167  13.886  0.3359  0.3440 -0.6486
 2953SOL     OW20317   4.393   2.527   1.890 -0.5925  0.1180  0.0996
 2953SOL    HW120318   4.479   2.486   1.880  0.5204  2.4407  0.0996
 2953SOL    HW220319   4.364   2.524   1.799 -2.5856 -0.2996  0.7451
 2954SOL     OW20320   4.199   1.118   8.705 -0.6673 -0.0108  0.6583
 2954SOL    HW120321   4.209   1.178   8.631  3.6203 -0.9278  0.4593
 2954SOL    HW220322   4.258   1.051   8.669 -1.0503 -0.0080  0.0271
 2955SOL     OW20323   3.040   4.294   5.157  0.1960 -0.5200 -0.1620
 2955SOL    HW120324   2.997   4.369   5.117 -1.0628 -0.1287  1.9109
 2955SOL    HW220325   3.116   4.266   5.106  1.5919  1.6850  0.7236
 2956SOL     OW20326   0.524   1.193   3.927  0.1801 -0.1251  0.2487
 2956SOL    HW120327   0.563   1.127   3.870  1.3754  0.8548 -0.0630
 2956SOL    HW220328   0.504   1.273   3.878 -1.5299  0.0938  1.2984
 2957SOL     OW20329   4.557   1.575  15.990 -0.6367 -0.1401 -0.3638
 2957SOL    HW120330   4.624   1.537  16.047  1.4102  1.1543 -1.8897
 2957SOL    HW220331   4.529   1.496  15.944 -1.2739  0.7845 -1.5627
 2958SOL     OW20332   1.460   1.440  10.615 -0.0592  0.3383 -0.5332
 2958SOL    HW120333   1.382   1.386  10.628 -1.4305  2.3914 -0.3202
 2958SOL    HW220334   1.531   1.377  10.629  1.4562  1.6940 -2.1156
 2959SOL     OW20335   4.278   0.364   7.008 -0.4900  0.5244 -0.4600
 2959SOL    HW120336   4.341   0.303   6.971  1.0286  1.3169  0.8375
 2959SOL    HW220337   4.231   0.386   6.927 -1.9033 -2.4810 -0.4643
 2960SOL     OW20338   3.525   2.081   4.569 -0.0304  0.2373 -0.2034
 2960SOL    HW120339   3.611   2.053   4.537  0.8142 -1.0354  3.1311
 2960SOL    HW220340   3.538   2.074   4.664 -1.3664  2.3687  0.1298
 2961SOL     OW20341   3.484   1.586  11.286 -0.0971  0.1179 -0.2210
 2961SOL    HW120342   3.433   1.649  11.235  0.7176  1.3612  0.4951
 2961SOL    HW220343   3.417   1.535  11.331 -0.3291 -0.3338 -1.0771
 2962SOL     OW20344   3.820   0.743   6.322  0.5085  0.2037  0.0936
 2962SOL    HW120345   3.748   0.807   6.319  0.0982 -0.2563  0.1422
 2962SOL    HW220346   3.764   0.665   6.321 -0.4172  0.8310  2.0018
 2963SOL     OW20347   0.083   2.171   5.090 -0.2361  0.5584 -0.6068
 2963SOL    HW120348   0.170   2.182   5.051  0.2688  0.2451  0.4329
 2963SOL    HW220349   0.093   2.234   5.161 -0.8652 -2.4248  2.1102
 2964SOL     OW20350   2.861   1.963   4.391  0.4698 -0.5206 -0.1566
 2964SOL    HW120351   2.908   2.045   4.372  0.7245 -0.1389  2.0862
 2964SOL    HW220352   2.779   1.995   4.354  1.1788  1.5929  0.0642
 2965SOL     OW20353   2.654   4.175  15.179  0.1426  0.3988  0.2296
 2965SOL    HW120354   2.678   4.105  15.118 -0.2893  1.4305 -1.0992
 2965SOL    HW220355   2.644   4.115  15.253 -0.5167 -0.2029 -0.3522
 2966SOL     OW20356   0.882   3.322   4.555 -0.1209 -0.0481 -0.9546
 2966SOL    HW120357   0.881   3.385   4.483 -2.1216  0.5530 -0.4058
 2966SOL    HW220358   0.787   3.317   4.559 -0.1630  0.5764 -1.1654
 2967SOL     OW20359   4.575   3.828  16.429 -0.2054  0.2243 -0.4915
 2967SOL    HW120360   4.498   3.867  16.470 -0.9451 -0.1221 -1.5512
 2967SOL    HW220361   4.608   3.774  16.500  0.5067  0.3876 -0.6976
 2968SOL     OW20362   0.676   1.665  10.189 -0.3356 -0.0375 -0.1127
 2968SOL    HW120363   0.671   1.744  10.136 -1.2384  0.4360  0.6720
 2968SOL    HW220364   0.653   1.687  10.280  0.6942 -2.1884  0.6626
 2969SOL     OW20365   0.817   2.587  14.434 -0.1933 -0.6844 -0.3836
 2969SOL    HW120366   0.759   2.519  14.398 -1.9362 -1.4819  3.9019
 2969SOL    HW220367   0.828   2.636  14.352  0.4012  1.1933  0.8257
 2970SOL     OW20368   0.180   1.867  14.455 -0.3808 -0.3903  0.3533
 2970SOL    HW120369   0.203   1.950  14.413  1.3809 -1.1730 -0.2429
 2970SOL    HW220370   0.265   1.828  14.478 -0.1051 -0.3507 -0.6274
 2971SOL     OW20371   1.371   4.388   2.223  0.1207  0.2447 -0.1017
 2971SOL    HW120372   1.299   4.367   2.163 -1.7532  1.9601  1.5706
 2971SOL    HW220373   1.382   4.305   2.269  2.7399  1.2595  1.0749
 2972SOL     OW20374   3.896   0.385   5.899  0.3534  0.4147  0.4243
 2972SOL    HW120375   3.963   0.436   5.943  0.8895  0.5879 -0.5828
 2972SOL    HW220376   3.842   0.446   5.848  0.6315  0.1252 -0.2133
 2973SOL     OW20377   3.069   2.156  11.631 -0.2056 -0.5431 -0.3258
 2973SOL    HW120378   3.103   2.066  11.627 -2.1273 -1.1977 -2.0196
 2973SOL    HW220379   3.096   2.191  11.715 -0.3821  0.2657 -0.6073
 2974SOL     OW20380   0.949   2.006   1.764 -0.3917  0.0524 -0.3278
 2974SOL    HW120381   1.002   1.948   1.819 -2.1558 -2.0951 -0.8825
 2974SOL    HW220382   0.977   2.087   1.807  1.0804 -0.0347 -1.0888
 2975SOL     OW20383   2.093   1.291   3.146  0.2633  0.3060  0.1548
 2975SOL    HW120384   2.039   1.361   3.183 -0.4963  0.3626 -1.0772
 2975SOL    HW220385   2.155   1.341   3.093 -0.2726 -2.3538 -2.9686
 2976SOL     OW20386   2.366   2.964   1.157 -0.4171  0.0548  0.3313
 2976SOL    HW120387   2.385   3.051   1.123 -0.9370 -0.4916 -1.3801
 2976SOL    HW220388   2.272   2.971   1.139  0.2358  0.3183 -2.9863
 2977SOL     OW20389   1.497   0.674  14.415 -0.0406  0.0784 -0.0750
 2977SOL    HW120390   1.429   0.612  14.390 -0.0766 -0.3577  1.0903
 2977SOL    HW220391   1.536   0.640  14.496  0.5869  2.5648  0.6828
 2978SOL     OW20392   0.914   0.760   7.428  0.3028 -0.1378  0.0175
 2978SOL    HW120393   0.952   0.819   7.494 -0.4461 -0.9226  1.1473
 2978SOL    HW220394   0.910   0.816   7.351 -0.0591  0.7100  0.6475
 2979SOL     OW20395   2.678   1.424   5.780 -0.2571 -0.2037  0.2195
 2979SOL    HW120396   2.730   1.346   5.799  1.3645  0.8546  0.1816
 2979SOL    HW220397   2.630   1.393   5.704 -0.0979 -0.0508  0.0579
 2980SOL     OW20398   1.817   1.544  16.319 -0.0709 -0.6646  0.2086
 2980SOL    HW120399   1.762   1.574  16.246  0.6158 -1.7680 -0.7632
 2980SOL    HW220400   1.896   1.595  16.299 -0.3434 -1.2290 -2.3398
 2981SOL     OW20401   4.160   4.293   2.878  0.4788 -0.4853  0.0263
 2981SOL    HW120402   4.134   4.243   2.955 -4.1126  1.7980 -0.0146
 2981SOL    HW220403   4.246   4.268   2.846  0.2891 -1.8641  0.5743
 2982SOL     OW20404   2.642   0.949   4.386 -0.7492  0.1715 -0.4020
 2982SOL    HW120405   2.663   1.042   4.392  0.8519 -0.1356 -1.2264
 2982SOL    HW220406   2.721   0.923   4.433 -0.7229  0.6772 -0.1624
 2983SOL     OW20407   1.630   1.930  10.167 -0.5503 -0.2232  0.9620
 2983SOL    HW120408   1.594   1.991  10.103  0.1774 -0.0874  0.6815
 2983SOL    HW220409   1.714   1.900  10.132 -1.7962 -2.8007  0.1700
 2984SOL     OW20410   1.381   0.737   7.013  0.8338  0.4229  0.0252
 2984SOL    HW120411   1.301   0.714   6.965  1.2261  1.3993 -1.0932
 2984SOL    HW220412   1.434   0.784   6.950  1.0833 -0.8368 -0.7072
 2985SOL     OW20413   1.101   1.580  16.641  0.2265  0.2534  0.2234
 2985SOL    HW120414   1.045   1.569  16.718 -0.9456  2.8047 -0.2688
 2985SOL    HW220415   1.085   1.673  16.629  3.2342  0.7085 -0.3508
 2986SOL     OW20416   4.624   2.725   1.253 -0.0109 -0.3437  0.5937
 2986SOL    HW120417   4.606   2.657   1.318 -0.9931 -1.4955 -0.8994
 2986SOL    HW220418   4.572   2.689   1.181 -0.4504  1.5784 -0.0371
 2987SOL     OW20419   3.815   2.946  12.582  0.1202  0.1246 -0.2968
 2987SOL    HW120420   3.855   2.893  12.652 -0.2296  0.2417 -0.0100
 2987SOL    HW220421   3.879   3.016  12.569 -1.7120  1.8369  0.0244
 2988SOL     OW20422   2.929   2.531   1.449 -0.5936 -0.0564  0.5361
 2988SOL    HW120423   2.885   2.598   1.501  0.2840  0.1822  0.9784
 2988SOL    HW220424   2.852   2.475   1.440 -0.2221 -0.7946  2.0010
 2989SOL     OW20425   3.276   4.523  15.878 -0.0143  0.1003 -0.0203
 2989SOL    HW120426   3.188   4.495  15.902 -0.9137  0.7928 -2.5304
 2989SOL    HW220427   3.300   4.454  15.817  0.5178  0.6061 -0.3799
 2990SOL     OW20428   2.344   2.916   3.279  0.4727  0.2297  0.3007
 2990SOL    HW120429   2.293   2.957   3.209 -0.7533  1.6234  2.0197
 2990SOL    HW220430   2.357   2.989   3.340  2.0244  0.4228 -0.2466
 2991SOL     OW20431   3.745   0.841   8.964 -0.0677  0.0352 -0.3347
 2991SOL    HW120432   3.651   0.844   8.947 -0.1671 -1.3944 -0.0108
 2991SOL    HW220433   3.761   0.934   8.950 -0.9095 -0.0914 -2.0164
 2992SOL     OW20434   2.854   2.641   7.278  0.6703 -0.6930 -0.1168
 2992SOL    HW120435   2.849   2.611   7.187  2.0308  0.1065 -0.4509
 2992SOL    HW220436   2.815   2.727   7.261  1.5614 -0.2108  0.2795
 2993SOL     OW20437   4.057   4.196   6.931  0.1316  0.8226  0.2764
 2993SOL    HW120438   3.976   4.239   6.960 -0.7395  0.5888 -1.7934
 2993SOL    HW220439   4.054   4.218   6.838 -3.2690  0.6987  0.3519
 2994SOL     OW20440   3.924   4.107   6.521 -0.1530  0.2457  0.2242
 2994SOL    HW120441   3.971   4.167   6.578 -0.9901 -0.0622  1.2325
 2994SOL    HW220442   3.841   4.095   6.568  0.0461 -3.1266 -0.3147
 2995SOL     OW20443   0.258   2.604   5.185 -0.8063 -0.2818  0.3263
 2995SOL    HW120444   0.331   2.610   5.123 -2.0194  0.8397 -0.9849
 2995SOL    HW220445   0.297   2.558   5.259 -0.7918 -4.0104 -1.9943
 2996SOL     OW20446   1.225   2.744   8.866 -0.3646  0.4845  0.0071
 2996SOL    HW120447   1.185   2.797   8.935  0.0752 -0.5238  1.0355
 2996SOL    HW220448   1.288   2.693   8.917 -1.9103 -0.2904  1.1440
 2997SOL     OW20449   1.137   2.178  15.850  0.4695 -0.1740  0.0330
 2997SOL    HW120450   1.169   2.219  15.770 -1.1308  0.1494 -0.4363
 2997SOL    HW220451   1.081   2.108  15.815  3.7991 -3.0127  0.2759
 2998SOL     OW20452   1.042   1.680   3.736  0.0297  0.5064  0.3528
 2998SOL    HW120453   0.978   1.719   3.677  1.1576 -0.2142 -1.3343
 2998SOL    HW220454   1.105   1.653   3.669 -0.4987  0.3410 -0.0769
 2999SOL     OW20455   2.874   3.539  14.996 -1.1294 -0.3612 -0.1428
 2999SOL    HW120456   2.822   3.508  15.071 -1.5801 -0.0089 -0.3040
 2999SOL    HW220457   2.965   3.552  15.021 -1.8336  0.1338  2.1520
 3000SOL     OW20458   2.767   0.666   6.716 -0.0509  0.0668  0.1176
 3000SOL    HW120459   2.828   0.670   6.642 -0.5170 -0.4555 -0.2986
 3000SOL    HW220460   2.829   0.630   6.779 -1.8101 -2.1198  0.5977
 3001SOL     OW20461   1.536   1.336   9.376 -0.1618  0.9567 -0.4897
 3001SOL    HW120462   1.588   1.361   9.453  1.4662  0.4783 -1.4355
 3001SOL    HW220463   1.584   1.380   9.306 -0.4446  1.3004 -0.4650
 3002SOL     OW20464   0.690   3.731   2.867 -1.1349 -0.1121 -0.3434
 3002SOL    HW120465   0.728   3.795   2.928  0.8160 -1.0175 -0.6113
 3002SOL    HW220466   0.763   3.670   2.856 -0.8135  0.0647  0.8109
 3003SOL     OW20467   1.653   2.732   9.250 -0.2004 -0.0388  0.4641
 3003SOL    HW120468   1.575   2.770   9.291 -0.9895 -1.3512  0.1650
 3003SOL    HW220469   1.673   2.811   9.200  0.7450  1.2978  2.9153
 3004SOL     OW20470   0.115   2.048   4.671 -0.1488  0.1072  0.6618
 3004SOL    HW120471   0.029   2.012   4.693 -0.1937  0.0860  0.4546
 3004SOL    HW220472   0.147   1.966   4.635  0.9572  0.3225  1.1690
 3005SOL     OW20473   2.096   3.650   4.395 -0.4455 -0.3584  0.2691
 3005SOL    HW120474   2.115   3.575   4.340  1.5591 -0.7517  1.5219
 3005SOL    HW220475   2.078   3.605   4.477 -1.4456  0.6051  0.5883
 3006SOL     OW20476   1.512   3.665   6.995 -0.0687 -0.4778  0.1133
 3006SOL    HW120477   1.519   3.691   7.086 -0.4357 -1.3290  0.3876
 3006SOL    HW220478   1.517   3.570   6.999  0.4128 -0.3678  1.8289
 3007SOL     OW20479   4.303   1.308   0.406 -0.2882  0.2471  0.2414
 3007SOL    HW120480   4.248   1.376   0.368 -0.6026 -1.2621 -1.9748
 3007SOL    HW220481   4.331   1.262   0.327 -2.0328 -0.4826  0.0708
 3008SOL     OW20482   0.121   3.438   6.470  0.0748 -0.4779 -0.4711
 3008SOL    HW120483   0.123   3.532   6.454  0.8045 -0.0959  2.0354
 3008SOL    HW220484   0.147   3.428   6.561 -2.6274 -0.5070  0.3036
 3009SOL     OW20485   3.513   2.250   3.103 -0.3164 -0.0683  0.1294
 3009SOL    HW120486   3.511   2.271   3.010  1.0283 -1.9358 -0.3283
 3009SOL    HW220487   3.498   2.341   3.130 -0.5521 -0.7701  2.3808
 3010SOL     OW20488   2.442   4.693   4.217 -0.6706  0.1398 -0.1527
 3010SOL    HW120489   2.536   4.676   4.218 -0.4714  1.2060 -1.6444
 3010SOL    HW220490   2.418   4.655   4.301 -0.6334 -3.4642 -1.7731
 3011SOL     OW20491   2.175   3.410   5.786 -0.1869  0.3807  0.1567
 3011SOL    HW120492   2.214   3.400   5.699  2.6742  0.8699  1.3817
 3011SOL    HW220493   2.174   3.319   5.816 -0.3054  0.6741  1.0343
 3012SOL     OW20494   2.322   2.382   9.599 -0.1086 -0.0215 -0.1778
 3012SOL    HW120495   2.345   2.301   9.644 -3.3246 -0.3879  0.7449
 3012SOL    HW220496   2.227   2.392   9.601 -0.0037  1.0708 -0.3619
 3013SOL     OW20497   4.641   1.872   3.507  0.9345 -0.7079 -0.5001
 3013SOL    HW120498   4.614   1.964   3.499  1.0566 -0.5162  1.2019
 3013SOL    HW220499   4.560   1.830   3.481 -1.3459  2.3698  1.6180
 3014SOL     OW20500   0.378   2.465   6.771 -0.1760  0.4159 -0.0813
 3014SOL    HW120501   0.339   2.552   6.760  1.4509  1.0824 -0.5125
 3014SOL    HW220502   0.308   2.401   6.762  1.7525 -1.7902  0.7224
 3015SOL     OW20503   0.233   2.196   6.725  0.6335 -0.6798 -0.3277
 3015SOL    HW120504   0.159   2.155   6.770 -1.7914  0.8655 -2.8221
 3015SOL    HW220505   0.284   2.190   6.805 -0.7162  0.6463  0.6157
 3016SOL     OW20506   3.483   1.968   1.982  0.2633 -0.5691  0.2609
 3016SOL    HW120507   3.459   1.876   1.977 -1.4768 -0.0698 -0.4809
 3016SOL    HW220508   3.532   1.973   2.064 -0.6580 -0.6496  0.8205
 3017SOL     OW20509   3.209   2.453   2.759 -0.1885  0.5057 -0.7546
 3017SOL    HW120510   3.170   2.398   2.691 -1.3022  2.5201 -1.7579
 3017SOL    HW220511   3.144   2.464   2.828 -1.2219  0.0048 -1.6599
 3018SOL     OW20512   1.258   0.295   1.969  0.0288  0.4413 -0.6317
 3018SOL    HW120513   1.241   0.314   2.061  0.7743  0.9640 -0.6017
 3018SOL    HW220514   1.340   0.247   1.972 -0.1356  0.0745 -1.8558
 3019SOL     OW20515   0.721   0.299   2.358 -0.0415  0.0419 -0.3079
 3019SOL    HW120516   0.716   0.234   2.288 -1.7248  0.0499 -0.1970
 3019SOL    HW220517   0.694   0.232   2.420 -0.5061 -0.7690 -1.3935
 3020SOL     OW20518   2.857   3.570  15.996  0.1121 -0.5480 -0.2493
 3020SOL    HW120519   2.768   3.559  15.962  0.0101 -1.2556  0.2363
 3020SOL    HW220520   2.887   3.649  15.952  1.7703 -0.6826  0.6353
 3021SOL     OW20521   3.019   3.964  15.629  0.8294  0.1516 -0.6248
 3021SOL    HW120522   2.981   4.044  15.665 -0.1802 -1.2727  1.4729
 3021SOL    HW220523   2.952   3.945  15.564 -1.2837  4.1066  0.4184
 3022SOL     OW20524   0.763   0.169   0.887 -0.0022 -0.2195  0.3631
 3022SOL    HW120525   0.763   0.222   0.807  2.3838  1.0387  1.1942
 3022SOL    HW220526   0.839   0.208   0.930  0.0458 -1.3331  1.2816
 3023SOL     OW20527   1.801   0.706  15.011  0.0949 -0.6000  0.1510
 3023SOL    HW120528   1.870   0.733  14.950 -0.6688 -1.1242 -0.9503
 3023SOL    HW220529   1.798   0.775  15.078 -0.7392 -0.0030 -0.5099
 3024SOL     OW20530   2.296   2.270   6.240  0.1094 -0.2443  0.0863
 3024SOL    HW120531   2.202   2.254   6.248 -0.0361  0.7217  0.3101
 3024SOL    HW220532   2.324   2.334   6.305 -0.7605 -0.8937  1.1022
 3025SOL     OW20533   1.318   0.115   0.021 -0.4728  0.6120 -0.3188
 3025SOL    HW120534   1.250   0.103   0.088 -0.1859  0.0254 -0.1289
 3025SOL    HW220535   1.356   0.201   0.035  0.2862  0.8337 -3.7407
 3026SOL     OW20536   2.011   3.656   5.468 -0.1353  0.3570 -0.3448
 3026SOL    HW120537   2.091   3.673   5.518  0.1404 -0.5125 -0.4803
 3026SOL    HW220538   1.990   3.563   5.464  0.2501  0.3341 -1.6832
 3027SOL     OW20539   1.873   1.599  13.071 -0.3674  0.4212 -0.1127
 3027SOL    HW120540   1.799   1.659  13.066  0.2802  1.2667  0.4718
 3027SOL    HW220541   1.929   1.647  13.132 -0.7719  0.8290 -0.0593
 3028SOL     OW20542   3.739   1.613   6.773 -0.1910  0.3698 -0.4978
 3028SOL    HW120543   3.733   1.518   6.762  0.1587  0.0397  2.1712
 3028SOL    HW220544   3.789   1.643   6.697 -0.5566 -1.7313 -1.5577
 3029SOL     OW20545   3.775   2.307   7.009  0.3245 -0.5746  0.1635
 3029SOL    HW120546   3.711   2.237   7.023 -1.4432  0.4876 -2.4883
 3029SOL    HW220547   3.854   2.254   7.007 -0.0600 -1.1771  1.5456
 3030SOL     OW20548   3.642   4.560  10.977 -0.1554 -0.1163  0.1630
 3030SOL    HW120549   3.720   4.598  11.019  0.9569 -0.9668 -1.1316
 3030SOL    HW220550   3.663   4.559  10.884 -1.2277 -1.1360 -0.0725
 3031SOL     OW20551   3.052   2.507   4.120 -0.5696 -0.4087 -0.3597
 3031SOL    HW120552   2.978   2.505   4.060 -1.4320 -0.7974  0.7210
 3031SOL    HW220553   3.070   2.601   4.107 -1.8976 -0.3039 -1.3968
 3032SOL     OW20554   3.740   4.610   4.647 -0.3912  0.2087  0.1741
 3032SOL    HW120555   3.685   4.687   4.664  2.4739  2.4045 -0.3969
 3032SOL    HW220556   3.755   4.610   4.553  1.5000  1.9303  0.4697
 3033SOL     OW20557   1.113   1.745   2.636 -0.0189 -0.0659 -0.4492
 3033SOL    HW120558   1.071   1.809   2.579  1.3405  1.8643  0.7469
 3033SOL    HW220559   1.044   1.679   2.638  0.3783 -0.4567  0.2737
 3034SOL     OW20560   1.681   1.528  10.067  0.2147 -0.3400  0.0850
 3034SOL    HW120561   1.719   1.564  10.147  0.4914 -1.6632  0.5501
 3034SOL    HW220562   1.588   1.519  10.087  0.0105  1.1751 -0.1773
 3035SOL     OW20563   2.446   3.674   8.045 -0.4624 -0.3810  0.1799
 3035SOL    HW120564   2.475   3.586   8.021 -0.9465 -0.8383  1.2891
 3035SOL    HW220565   2.384   3.699   7.977 -0.3434  0.0116  0.2150
 3036SOL     OW20566   0.251   0.998  17.053  0.5275  0.4988  0.3403
 3036SOL    HW120567   0.239   0.913  17.011  0.4598 -0.3939  2.1542
 3036SOL    HW220568   0.200   1.044  16.986 -0.1769 -1.1858 -0.2635
 3037SOL     OW20569   4.255   1.844   1.029 -0.4398 -0.2425  0.2772
 3037SOL    HW120570   4.260   1.759   0.985  0.3842  0.6565 -1.3861
 3037SOL    HW220571   4.277   1.817   1.118  0.1291 -0.8071 -0.0346
 3038SOL     OW20572   4.127   3.429   8.445 -0.0820  0.0432  0.4999
 3038SOL    HW120573   4.167   3.457   8.527  0.4447 -2.3635  1.0677
 3038SOL    HW220574   4.206   3.433   8.391  0.6099 -1.8892  1.3765
 3039SOL     OW20575   0.214   0.685   7.111 -0.5568  0.0294 -0.5178
 3039SOL    HW120576   0.157   0.612   7.086  0.6027 -1.2351  0.5451
 3039SOL    HW220577   0.172   0.750   7.055 -1.0635  0.1681  0.0176
 3040SOL     OW20578   1.690   2.369   1.187 -0.2298 -0.1099 -0.1814
 3040SOL    HW120579   1.743   2.442   1.154  0.6552 -1.4940 -1.8049
 3040SOL    HW220580   1.759   2.304   1.197  1.0388  1.4795  1.4154
 3041SOL     OW20581   4.439   1.483   3.629  0.2897 -0.2594  0.2954
 3041SOL    HW120582   4.421   1.462   3.720 -1.0113  0.1776  0.1415
 3041SOL    HW220583   4.529   1.516   3.631 -0.4172  1.7176  0.1157
 3042SOL     OW20584   1.909   1.955   0.550 -0.4195  0.1321  0.2692
 3042SOL    HW120585   1.909   2.020   0.479 -0.7462 -0.0833  0.0720
 3042SOL    HW220586   1.966   1.995   0.616  0.3457  0.2187 -0.4370
 3043SOL     OW20587   0.732   1.314  12.387  0.0535 -0.4489  0.2337
 3043SOL    HW120588   0.638   1.311  12.366  0.1300  0.4968 -0.2075
 3043SOL    HW220589   0.771   1.281  12.306 -0.4881 -1.3537  0.3382
 3044SOL     OW20590   4.463   3.021   1.841  0.0859 -0.5686  0.3051
 3044SOL    HW120591   4.457   2.933   1.804 -2.6422  0.1414 -0.9454
 3044SOL    HW220592   4.543   3.054   1.800  0.4633 -2.3058 -0.3490
 3045SOL     OW20593   4.586   4.133   0.517 -0.1367  0.2833  0.1364
 3045SOL    HW120594   4.657   4.155   0.578  0.2778 -0.3339 -0.1230
 3045SOL    HW220595   4.591   4.197   0.446  3.2125  0.5612  0.5956
 3046SOL     OW20596   4.708   3.008   4.543  0.1488  0.5872  0.6350
 3046SOL    HW120597   4.706   3.096   4.581  2.3656 -0.0469  2.2392
 3046SOL    HW220598   4.621   3.011   4.503  0.3613  3.1437  0.3817
 3047SOL     OW20599   3.253   3.492   0.905 -0.2256  0.3158  0.4892
 3047SOL    HW120600   3.246   3.408   0.859  0.7890 -0.8848  2.5379
 3047SOL    HW220601   3.345   3.481   0.929 -0.4203  2.5513  2.2341
 3048SOL     OW20602   2.161   4.066   3.284 -0.7876  0.2332 -0.1940
 3048SOL    HW120603   2.238   4.123   3.275 -2.3154  2.5479  1.4731
 3048SOL    HW220604   2.207   3.990   3.319  0.8932  1.9553  1.3460
 3049SOL     OW20605   4.652   3.522   7.349 -0.0619 -0.1771  0.4831
 3049SOL    HW120606   4.622   3.443   7.304  0.3442  0.2705 -0.5547
 3049SOL    HW220607   0.011   3.483   7.379  0.7687  0.4729 -0.9692
 3050SOL     OW20608   1.130   0.049   1.589  0.2447  0.1095 -0.2848
 3050SOL    HW120609   1.135   4.678   1.570  1.6534  0.1964 -0.3379
 3050SOL    HW220610   1.117   0.086   1.502  3.3041 -0.2236 -0.8800
 3051SOL     OW20611   3.009   3.897   1.653  0.4644 -0.2679  0.1690
 3051SOL    HW120612   3.009   3.965   1.586  2.0255 -1.9421 -1.5421
 3051SOL    HW220613   3.062   3.826   1.617  0.7580 -0.7965  1.6320
 3052SOL     OW20614   0.096   2.334   8.527  0.8837  0.3464 -0.3073
 3052SOL    HW120615   0.098   2.426   8.502 -0.1511  0.7055  0.8884
 3052SOL    HW220616   0.176   2.313   8.480 -0.1258 -0.7714 -1.5590
 3053SOL     OW20617   1.284   1.363  12.613  0.3170 -0.2074 -0.0198
 3053SOL    HW120618   1.203   1.398  12.576 -0.1669 -0.8303  0.4538
 3053SOL    HW220619   1.344   1.434  12.592 -0.6048  0.7439  0.5371
 3054SOL     OW20620   0.754   0.030   9.273  0.1951  0.3037  0.4378
 3054SOL    HW120621   0.689   0.053   9.207  2.6674  2.3050 -1.2856
 3054SOL    HW220622   0.716   4.669   9.300  0.4244 -0.4362 -1.5496
 3055SOL     OW20623   4.471   0.965   9.706  0.4356 -0.3078  0.2951
 3055SOL    HW120624   4.513   0.963   9.792  0.6438  3.3472  0.3153
 3055SOL    HW220625   4.436   0.877   9.700 -0.8565  0.4555 -3.4830
 3056SOL     OW20626   0.820   0.210   2.848 -0.0127 -0.3532 -0.7069
 3056SOL    HW120627   0.771   0.201   2.766 -2.1253  0.9339  0.4103
 3056SOL    HW220628   0.795   0.296   2.882  1.2067 -0.7381  1.1698
 3057SOL     OW20629   2.078   0.726   2.013  0.0773  0.9496 -0.0397
 3057SOL    HW120630   2.146   0.685   1.959 -0.0563  1.0241 -0.2667
 3057SOL    HW220631   2.124   0.805   2.041 -0.6634  1.1827  0.5128
 3058SOL     OW20632   1.524   3.430   5.239  0.2936  0.0046  0.8491
 3058SOL    HW120633   1.589   3.491   5.204 -1.3117 -0.3384 -2.7505
 3058SOL    HW220634   1.474   3.400   5.163  0.4246  1.4425  0.1902
 3059SOL     OW20635   0.168   0.884  10.085  0.1013 -0.6082  0.2651
 3059SOL    HW120636   0.184   0.818  10.153 -2.4535 -2.3777 -0.8514
 3059SOL    HW220637   0.115   0.839  10.019  0.8337 -0.2823 -0.5418
 3060SOL     OW20638   1.619   0.823  13.926 -0.1578 -0.0814  0.1880
 3060SOL    HW120639   1.645   0.772  14.003 -0.8983 -0.8869 -0.1091
 3060SOL    HW220640   1.525   0.827  13.943 -0.3014  1.0274 -0.8452
 3061SOL     OW20641   2.329   4.586   6.395  0.1537 -0.1226 -0.5551
 3061SOL    HW120642   2.413   4.543   6.406  0.3878  0.6739  0.8132
 3061SOL    HW220643   2.351   4.679   6.400 -0.8086  0.1541 -1.6337
 3062SOL     OW20644   3.803   2.099   2.043 -0.2533 -0.7506 -0.3733
 3062SOL    HW120645   3.803   2.101   2.139 -1.3690 -2.2373 -0.3311
 3062SOL    HW220646   3.818   2.008   2.017 -0.4825 -1.2036  1.0684
 3063SOL     OW20647   1.191   2.231   3.312 -0.1432  0.1650  0.4187
 3063SOL    HW120648   1.211   2.139   3.331 -1.4837 -0.7208 -2.4965
 3063SOL    HW220649   1.115   2.250   3.367  0.1540  3.3994 -0.2961
 3064SOL     OW20650   1.259   3.013   7.930  0.1709  0.2729  0.3915
 3064SOL    HW120651   1.315   3.025   7.853 -1.2727 -1.5625 -0.9507
 3064SOL    HW220652   1.186   3.074   7.928  0.5379  0.6793 -0.4554
 3065SOL     OW20653   3.302   3.549   7.507  0.7505  0.3015 -0.0278
 3065SOL    HW120654   3.257   3.587   7.431  1.3171  0.4387 -0.2981
 3065SOL    HW220655   3.378   3.510   7.464 -0.5954 -2.2593 -0.0722
 3066SOL     OW20656   0.199   0.906  14.384  0.1758  0.0991  0.1932
 3066SOL    HW120657   0.194   0.824  14.335  1.7134 -0.3863  0.8544
 3066SOL    HW220658   0.183   0.959  14.306  1.3357 -1.3411 -1.0143
 3067SOL     OW20659   1.389   0.501   1.496 -0.4213  0.2952  0.5487
 3067SOL    HW120660   1.413   0.582   1.452 -2.1895  1.1882  1.2626
 3067SOL    HW220661   1.475   0.475   1.530  1.2008  1.3622 -2.6702
 3068SOL     OW20662   2.810   2.590   7.557 -0.5834  0.2236  0.3351
 3068SOL    HW120663   2.877   2.538   7.512  1.2055  1.1298  1.9003
 3068SOL    HW220664   2.760   2.616   7.480  2.3435  0.9122 -1.3420
 3069SOL     OW20665   2.293   2.851   8.258  0.1339  0.0683  0.3029
 3069SOL    HW120666   2.307   2.922   8.321  0.8495 -0.1377  0.3743
 3069SOL    HW220667   2.198   2.850   8.243  0.1811 -0.2882  0.0326
 3070SOL     OW20668   0.111   1.842  12.101 -0.2786  0.4860 -0.2449
 3070SOL    HW120669   0.206   1.838  12.087 -0.4159 -2.2620 -0.3103
 3070SOL    HW220670   0.085   1.764  12.053  0.8104  1.3875 -2.2692
 3071SOL     OW20671   0.830   2.889   5.621 -0.3891 -0.0496 -0.0295
 3071SOL    HW120672   0.898   2.955   5.629  0.2460 -0.5364 -1.3064
 3071SOL    HW220673   0.780   2.909   5.700 -1.0035 -3.0103  0.3674
 3072SOL     OW20674   0.556   3.039   6.599  0.2203 -0.5118 -0.4741
 3072SOL    HW120675   0.464   3.064   6.596  0.5388  0.7558  0.2859
 3072SOL    HW220676   0.572   3.098   6.673 -1.2735 -0.5254 -0.1543
 3073SOL     OW20677   2.972   0.277   5.499 -0.0715  0.3232 -0.2821
 3073SOL    HW120678   2.987   0.215   5.427 -0.8790 -1.1009  0.7604
 3073SOL    HW220679   2.939   0.213   5.563  0.7171  1.5682  1.3520
 3074SOL     OW20680   2.579   2.666   6.737  0.1767  0.0543  0.2160
 3074SOL    HW120681   2.545   2.731   6.799 -0.2042 -2.4989  2.7031
 3074SOL    HW220682   2.516   2.682   6.666  0.1963 -0.1392  0.1552
 3075SOL     OW20683   0.512   1.133   8.524  0.0068  0.5277  0.0236
 3075SOL    HW120684   0.444   1.201   8.519 -0.1420  0.5122  1.7705
 3075SOL    HW220685   0.562   1.161   8.601  2.0144  0.3595 -1.2196
 3076SOL     OW20686   0.587   4.026   7.500  0.1955  0.3710 -0.2519
 3076SOL    HW120687   0.573   3.931   7.496 -0.0195  0.3798  0.2508
 3076SOL    HW220688   0.500   4.063   7.485  0.7866  1.2893 -1.4190
 3077SOL     OW20689   0.786   0.338   4.285  0.1814  0.2599  0.9287
 3077SOL    HW120690   0.834   0.272   4.334  1.2667  0.4893  0.1585
 3077SOL    HW220691   0.722   0.362   4.352 -0.8074  1.7138 -0.5474
 3078SOL     OW20692   2.685   2.008   5.911 -0.5055  0.1191 -0.0130
 3078SOL    HW120693   2.609   2.035   5.860 -0.5843 -0.0057  0.0397
 3078SOL    HW220694   2.678   2.043   6.000 -3.0668 -1.8268  0.5290
 3079SOL     OW20695   1.873   4.650   9.258 -0.2251  0.6369 -0.3785
 3079SOL    HW120696   1.900   4.643   9.350 -0.1772  0.0855 -0.4356
 3079SOL    HW220697   1.911   4.571   9.220  2.3858  0.8018  1.8288
 3080SOL     OW20698   2.112   2.643   2.186  0.3159  0.4673 -0.1478
 3080SOL    HW120699   2.195   2.651   2.232  0.4325 -2.7229  0.1756
 3080SOL    HW220700   2.111   2.555   2.149  1.9490  0.6685 -0.6401
 3081SOL     OW20701   4.422   2.604   7.030  0.1481 -0.6333 -0.4596
 3081SOL    HW120702   4.462   2.614   6.944  2.0470 -0.5185  0.4368
 3081SOL    HW220703   4.477   2.534   7.067 -0.7006  0.7513  3.4652
 3082SOL     OW20704   4.183   2.304   5.475  0.0156 -0.4103  0.0361
 3082SOL    HW120705   4.104   2.254   5.454  1.2845 -1.0707 -3.1657
 3082SOL    HW220706   4.184   2.271   5.565 -0.7596  0.9908  0.5734
 3083SOL     OW20707   3.181   0.201   8.018  0.4037 -0.0761 -0.0892
 3083SOL    HW120708   3.251   0.244   8.068 -1.4066 -0.7821  2.9975
 3083SOL    HW220709   3.113   0.268   8.012  0.3795 -0.1031 -0.1186
 3084SOL     OW20710   3.587   2.068   4.831  0.3985  0.0108  0.4759
 3084SOL    HW120711   3.667   2.088   4.879  2.5597 -1.5383 -2.4719
 3084SOL    HW220712   3.527   2.045   4.902  2.5371 -2.3373  1.5093
 3085SOL     OW20713   4.535   2.002  10.844 -0.0707  0.1583  0.0159
 3085SOL    HW120714   4.580   2.006  10.760  0.5418  3.8196  0.5485
 3085SOL    HW220715   4.610   1.988  10.902 -0.6537  0.0551  0.7566
 3086SOL     OW20716   4.340   3.162   1.334 -0.4709 -0.1956  0.0804
 3086SOL    HW120717   4.362   3.139   1.244  1.8942 -0.3808  0.7121
 3086SOL    HW220718   4.354   3.076   1.372  0.5849  0.1373  0.4509
 3087SOL     OW20719   2.492   2.393   7.799 -0.5574 -0.0592 -0.4526
 3087SOL    HW120720   2.422   2.456   7.782  0.5151  0.3025 -3.4463
 3087SOL    HW220721   2.482   2.322   7.736 -1.4930  0.9151 -1.4046
 3088SOL     OW20722   1.075   1.505   9.668 -0.4202 -0.1741  0.3600
 3088SOL    HW120723   1.165   1.538   9.669  0.6132 -2.9947  2.5937
 3088SOL    HW220724   1.023   1.563   9.723 -0.2908 -0.1111  0.4157
 3089SOL     OW20725   4.040   4.620   5.621  0.0118 -0.5792 -0.1213
 3089SOL    HW120726   3.992   4.540   5.642 -0.8055  0.3789  1.6735
 3089SOL    HW220727   3.969   4.684   5.628  1.9094  1.4627  0.5536
 3090SOL     OW20728   1.114   2.852   5.878  1.0219 -0.5041  0.6117
 3090SOL    HW120729   1.084   2.925   5.824  1.5825  0.1370  1.1585
 3090SOL    HW220730   1.203   2.879   5.900  0.4300  1.6064  0.4293
 3091SOL     OW20731   2.207   2.352  10.975  0.2605  0.2156  0.1185
 3091SOL    HW120732   2.199   2.383  10.885 -0.2960 -0.7975 -0.1722
 3091SOL    HW220733   2.190   2.433  11.024  0.6951  0.6562 -0.4534
 3092SOL     OW20734   3.438   4.659   3.692 -0.0518  0.0733  0.1201
 3092SOL    HW120735   3.479   4.614   3.618  0.1356 -0.0152  0.2789
 3092SOL    HW220736   3.518   4.685   3.737 -0.1246 -1.5299  1.1941
 3093SOL     OW20737   0.367   0.028   4.346  0.2294 -0.2611 -0.0603
 3093SOL    HW120738   0.443   4.703   4.313  0.5683 -0.6747  1.3290
 3093SOL    HW220739   0.328   4.675   4.389  0.4027 -1.1199 -1.4421
 3094SOL     OW20740   0.218   0.205   2.793  0.1490 -0.1070  0.0237
 3094SOL    HW120741   0.148   0.240   2.738  1.7611  2.3784 -0.4357
 3094SOL    HW220742   0.238   0.283   2.845 -0.7887  0.1285  0.0351
 3095SOL     OW20743   4.413   1.691   1.619  0.0508 -0.0444 -0.1497
 3095SOL    HW120744   4.492   1.636   1.617  0.7770  1.0503 -1.2240
 3095SOL    HW220745   4.439   1.771   1.573  0.3910 -0.6239 -0.9606
 3096SOL     OW20746   4.435   1.881   6.886 -0.1807  0.1576 -0.0994
 3096SOL    HW120747   4.425   1.857   6.978 -0.8204 -1.6006 -0.6241
 3096SOL    HW220748   4.487   1.812   6.844  0.6830  1.6361 -1.4553
 3097SOL     OW20749   2.252   4.224   6.131 -0.0482  0.0215 -0.6937
 3097SOL    HW120750   2.162   4.229   6.097 -1.0218  0.1913  1.9309
 3097SOL    HW220751   2.243   4.152   6.193 -1.5519 -1.9762 -3.1785
 3098SOL     OW20752   3.435   4.391  10.995  0.2627  0.3958  0.0338
 3098SOL    HW120753   3.499   4.463  10.997 -0.2934  0.8578  1.0997
 3098SOL    HW220754   3.354   4.438  10.977  1.0430  1.9839  0.6057
 3099SOL     OW20755   1.700   4.072  16.139 -0.2718  0.3454 -0.1504
 3099SOL    HW120756   1.622   4.021  16.118  0.4253 -0.2009 -1.3867
 3099SOL    HW220757   1.658   4.156  16.158  0.7940  0.6237  0.9327
 3100SOL     OW20758   2.914   1.611  17.410  1.0066 -0.0811  0.3786
 3100SOL    HW120759   3.000   1.576  17.383  1.1104  1.7216 -1.5742
 3100SOL    HW220760   2.929   1.633  17.501  2.1370  1.6928 -0.2355
 3101SOL     OW20761   1.322   1.223  11.305 -0.1963  0.3806 -0.2293
 3101SOL    HW120762   1.408   1.187  11.326 -0.6958 -1.4890 -1.4325
 3101SOL    HW220763   1.328   1.231  11.210  0.5166 -0.0857 -0.2237
 3102SOL     OW20764   3.961   3.303   7.549 -0.0056  0.7512 -0.8693
 3102SOL    HW120765   3.877   3.269   7.578 -0.2461 -0.0235 -2.4363
 3102SOL    HW220766   3.990   3.338   7.633 -3.2256  1.4735 -0.0648
 3103SOL     OW20767   1.818   0.149   5.230 -0.0343  0.2224  0.1787
 3103SOL    HW120768   1.901   0.106   5.253 -0.5518 -1.6105 -1.4405
 3103SOL    HW220769   1.766   0.080   5.190 -1.1815  1.0974  0.1647
 3104SOL     OW20770   2.698   0.025  12.309  0.7908  0.3567  0.6646
 3104SOL    HW120771   2.619   0.077  12.327  0.4542 -0.0696  0.4167
 3104SOL    HW220772   2.768   0.078  12.348  2.0538 -2.5030  2.2534
 3105SOL     OW20773   4.548   2.968   6.423  0.0955 -0.6137 -0.2012
 3105SOL    HW120774   4.510   2.930   6.345 -0.3313 -0.2847 -0.1526
 3105SOL    HW220775   4.482   3.036   6.440 -1.1353 -1.7155 -0.6257
 3106SOL     OW20776   3.338   2.174   8.396  0.1769  0.2476  0.5495
 3106SOL    HW120777   3.401   2.111   8.361  2.3207  1.8372  1.5966
 3106SOL    HW220778   3.386   2.244   8.439  2.3104 -0.1055 -1.2666
 3107SOL     OW20779   4.257   3.599   7.435 -0.2552 -0.2291 -0.0540
 3107SOL    HW120780   4.274   3.581   7.527 -0.5676 -1.4484 -0.2449
 3107SOL    HW220781   4.163   3.584   7.434 -0.2509 -0.2313 -0.7187
 3108SOL     OW20782   0.038   2.369   6.684  0.0688 -0.6056  0.3827
 3108SOL    HW120783   0.111   2.308   6.678 -0.5301 -1.4013  1.3110
 3108SOL    HW220784   0.081   2.453   6.666 -2.0555  0.3643 -0.1751
 3109SOL     OW20785   2.755   3.432   8.062  0.5497  0.0888 -0.3327
 3109SOL    HW120786   2.770   3.373   7.988  2.2268 -0.7915  0.7099
 3109SOL    HW220787   2.824   3.404   8.122 -0.0746 -0.8774 -0.0666
 3110SOL     OW20788   1.751   4.605  14.445  0.1108  0.3775  0.0759
 3110SOL    HW120789   1.671   4.581  14.398  0.1881 -2.6792  1.5290
 3110SOL    HW220790   1.774   4.521  14.486 -2.6143  0.8601  2.6389
 3111SOL     OW20791   3.142   0.539   6.176  0.1870 -0.1025 -0.1078
 3111SOL    HW120792   3.231   0.574   6.178  1.2233 -2.8801  1.5571
 3111SOL    HW220793   3.149   0.485   6.098 -2.0193  0.9968 -1.0931
 3112SOL     OW20794   0.822   1.216   2.757  0.4684 -0.4402  0.1151
 3112SOL    HW120795   0.879   1.155   2.804  3.1922  2.3603  0.4768
 3112SOL    HW220796   0.775   1.157   2.698 -0.2949 -0.1576  0.4427
 3113SOL     OW20797   4.641   0.505  10.519  0.6802  0.3746  0.3496
 3113SOL    HW120798   4.559   0.511  10.568  0.0707 -1.4825 -0.4725
 3113SOL    HW220799   4.612   0.521  10.429 -0.7708  1.2401  0.9672
 3114SOL     OW20800   0.744   3.774   7.892 -0.1439  0.6340  0.3170
 3114SOL    HW120801   0.685   3.817   7.955 -1.8744  0.5622 -1.2699
 3114SOL    HW220802   0.713   3.810   7.809  0.9996  1.8113  0.4023
 3115SOL     OW20803   2.478   4.516   7.938 -0.2150  0.0087  0.1764
 3115SOL    HW120804   2.477   4.553   8.026 -0.4990 -0.3202  0.3083
 3115SOL    HW220805   2.554   4.458   7.945  0.7227  1.1414 -0.6370
 3116SOL     OW20806   0.486   2.222  11.135  0.1091 -0.1073 -0.5515
 3116SOL    HW120807   0.424   2.247  11.067  0.6361 -1.0970 -1.4038
 3116SOL    HW220808   0.566   2.239  11.085  0.5459 -0.4074  0.0350
 3117SOL     OW20809   2.937   2.601  17.249 -0.5021 -0.0098 -0.1875
 3117SOL    HW120810   2.868   2.611  17.314 -1.6758 -2.3052 -1.0676
 3117SOL    HW220811   2.945   2.694  17.231 -1.6554  0.1738  0.2713
 3118SOL     OW20812   3.357   4.530   5.593  0.2499  0.3989 -0.1705
 3118SOL    HW120813   3.318   4.558   5.510  0.5213 -1.7043 -1.0066
 3118SOL    HW220814   3.437   4.484   5.567 -0.6756  0.2150 -2.7514
 3119SOL     OW20815   0.770   2.030   4.378  0.4381  0.3866  0.2587
 3119SOL    HW120816   0.861   2.043   4.404  0.8657 -0.6253 -0.6926
 3119SOL    HW220817   0.729   2.113   4.401 -0.0124 -0.1795  1.4736
 3120SOL     OW20818   1.526   1.040   1.793 -0.4988  0.3221 -0.1580
 3120SOL    HW120819   1.434   1.013   1.793 -0.2370 -0.5722  0.0578
 3120SOL    HW220820   1.519   1.131   1.766 -1.6523 -0.0577 -1.1382
 3121SOL     OW20821   1.698   3.518  11.729 -0.4698 -0.5912  0.3925
 3121SOL    HW120822   1.722   3.584  11.664 -0.2199  0.2019  1.2936
 3121SOL    HW220823   1.707   3.437  11.679 -1.3003  0.5886 -1.7032
 3122SOL     OW20824   3.896   2.241   7.658 -0.6410 -0.0979 -0.5226
 3122SOL    HW120825   3.909   2.161   7.710 -1.1780 -0.4658 -0.9462
 3122SOL    HW220826   3.966   2.303   7.679 -0.8635 -0.1514  0.3886
 3123SOL     OW20827   3.546   4.312   5.120  0.1794 -0.4094 -0.2994
 3123SOL    HW120828   3.615   4.259   5.082 -0.5600 -1.3613 -0.2995
 3123SOL    HW220829   3.463   4.264   5.114  0.3449 -0.4949 -1.6735
 3124SOL     OW20830   2.316   3.236   4.414 -0.3592  0.4970 -0.4353
 3124SOL    HW120831   2.328   3.179   4.338  0.3629  1.5798 -1.1270
 3124SOL    HW220832   2.287   3.314   4.366 -0.5460  1.0727  0.6316
 3125SOL     OW20833   1.470   2.101   4.760  0.0310  0.1012  0.2680
 3125SOL    HW120834   1.469   2.041   4.686 -1.3442 -0.9728  1.1529
 3125SOL    HW220835   1.491   2.037   4.828  0.3288  0.8054  0.8430
 3126SOL     OW20836   1.038   2.724  16.063  0.0419  0.4145  0.2116
 3126SOL    HW120837   0.972   2.656  16.055 -0.3766  0.8080  0.3171
 3126SOL    HW220838   1.115   2.668  16.054 -0.5424 -0.4935  0.8570
 3127SOL     OW20839   2.969   1.968   7.752  0.3013  0.3263 -0.5059
 3127SOL    HW120840   2.881   1.980   7.789  0.6949  0.2410  0.4469
 3127SOL    HW220841   3.015   2.048   7.778 -0.7955  0.3234  1.4567
 3128SOL     OW20842   1.059   1.151   5.336  0.2055 -0.4732  0.1273
 3128SOL    HW120843   1.137   1.101   5.358  0.0673 -0.6487  0.2232
 3128SOL    HW220844   1.080   1.191   5.252  0.9794 -1.9986 -0.4026
 3129SOL     OW20845   2.521   3.074   8.216 -0.7802  0.6506  0.5622
 3129SOL    HW120846   2.548   3.004   8.275  1.0304 -0.9923 -2.1807
 3129SOL    HW220847   2.601   3.125   8.214 -1.2235  1.3453  0.4374
 3130SOL     OW20848   2.395   1.252   5.873 -0.5682  0.1630 -0.0190
 3130SOL    HW120849   2.434   1.252   5.786  1.1652 -3.8262  0.7335
 3130SOL    HW220850   2.460   1.313   5.907 -1.5128  0.8356  0.5664
 3131SOL     OW20851   4.006   3.066   7.371 -0.2803 -0.4104 -0.1512
 3131SOL    HW120852   3.977   3.136   7.429  3.0995 -0.9554  2.1838
 3131SOL    HW220853   3.918   3.045   7.339 -1.4579  0.4752  2.5452
 3132SOL     OW20854   1.638   1.084  10.161 -0.1505  0.5449  0.4469
 3132SOL    HW120855   1.590   1.162  10.190 -1.3298 -0.2130  0.5158
 3132SOL    HW220856   1.570   1.017  10.157  2.7734 -2.5285  1.6236
 3133SOL     OW20857   2.792   3.976   5.094  0.2974  0.0020 -0.5830
 3133SOL    HW120858   2.809   4.024   5.012 -0.7253 -1.6923 -1.7815
 3133SOL    HW220859   2.816   3.886   5.073  1.5950  0.9146 -3.0494
 3134SOL     OW20860   3.715   1.773   2.774 -0.4573 -0.1125  0.2254
 3134SOL    HW120861   3.735   1.694   2.824 -0.1452 -0.8799 -1.1150
 3134SOL    HW220862   3.759   1.840   2.826  0.3466  1.5141 -2.4935
 3135SOL     OW20863   2.336   3.098   1.621 -0.5640  0.8618 -0.4543
 3135SOL    HW120864   2.382   3.153   1.558 -0.7161  1.5858  0.0635
 3135SOL    HW220865   2.377   3.138   1.698 -1.5508 -0.1101  0.5885
 3136SOL     OW20866   3.099   4.382   2.041 -0.0895 -0.2824 -0.1100
 3136SOL    HW120867   3.106   4.467   2.085 -1.7886 -0.7058  0.9658
 3136SOL    HW220868   3.082   4.413   1.952  2.1597 -0.0510 -0.4747
 3137SOL     OW20869   2.832   4.424   1.470  0.2367 -0.0217  0.3157
 3137SOL    HW120870   2.860   4.467   1.390 -1.6297  0.7023  0.0542
 3137SOL    HW220871   2.877   4.341   1.455 -1.2708 -0.8710  0.4814
 3138SOL     OW20872   4.006   0.623   2.920  0.3658  0.0430 -0.2758
 3138SOL    HW120873   3.934   0.682   2.942 -0.6382 -0.9034 -1.0764
 3138SOL    HW220874   4.072   0.685   2.888 -0.3003  2.1658  2.3957
 3139SOL     OW20875   2.253   0.225   0.524  0.2734  0.1881  0.0370
 3139SOL    HW120876   2.294   0.229   0.610  0.1288  0.2332  0.1027
 3139SOL    HW220877   2.308   0.152   0.493 -2.5184 -1.1398 -1.7917
 3140SOL     OW20878   3.550   4.172   2.184  0.0407 -0.2151  0.1401
 3140SOL    HW120879   3.612   4.201   2.251 -3.1744  1.7302  2.2875
 3140SOL    HW220880   3.577   4.228   2.111  1.3249 -0.4772  0.4165
 3141SOL     OW20881   3.218   0.377   7.274  0.2666  0.1981 -0.1483
 3141SOL    HW120882   3.245   0.314   7.208  0.7481  0.9789 -0.6984
 3141SOL    HW220883   3.279   0.450   7.263  0.6898  0.2252  2.2885
 3142SOL     OW20884   2.056   2.358   7.669 -0.0458  0.4323  0.2129
 3142SOL    HW120885   2.044   2.313   7.586 -1.0331  0.4618  0.3334
 3142SOL    HW220886   2.138   2.401   7.646  0.4673 -0.7328 -0.1012
 3143SOL     OW20887   0.793   4.407   6.912  0.4421 -0.2561 -0.3767
 3143SOL    HW120888   0.866   4.464   6.935  0.7212 -1.0064  0.6017
 3143SOL    HW220889   0.731   4.471   6.877  1.5010 -0.1678 -2.0874
 3144SOL     OW20890   2.905   3.537   0.596  0.0177 -0.0216  0.5287
 3144SOL    HW120891   2.858   3.456   0.576 -1.6579  1.5291 -1.8122
 3144SOL    HW220892   2.920   3.524   0.690 -2.4961 -0.5937  0.8522
 3145SOL     OW20893   4.559   0.613  10.276  0.1689 -0.2076  0.1531
 3145SOL    HW120894   4.601   0.589  10.193  0.4834 -2.0615  0.8259
 3145SOL    HW220895   4.498   0.680  10.247 -2.0875 -1.1474  2.7284
 3146SOL     OW20896   1.649   3.433   3.605 -0.1305 -0.6862 -0.0190
 3146SOL    HW120897   1.707   3.358   3.614 -2.0372 -1.4529  5.5651
 3146SOL    HW220898   1.578   3.396   3.553  0.7817  1.5223 -2.8410
 3147SOL     OW20899   3.252   0.538  13.032  0.5007  0.2424  0.3310
 3147SOL    HW120900   3.160   0.565  13.031  0.2794 -0.5307 -0.4458
 3147SOL    HW220901   3.240   0.447  13.003  0.2617  0.9635 -1.7869
 3148SOL     OW20902   3.484   3.451   0.304 -0.1570  0.2124 -0.1143
 3148SOL    HW120903   3.561   3.396   0.288  0.1742  0.7089 -0.2253
 3148SOL    HW220904   3.518   3.510   0.371 -0.2606  0.9742 -0.7265
 3149SOL     OW20905   2.724   3.674  17.365 -0.3934 -0.1172  0.2521
 3149SOL    HW120906   2.646   3.723  17.392  0.2324  0.3263  1.2933
 3149SOL    HW220907   2.739   3.718  17.281 -2.1526  1.0210  0.5306
 3150SOL     OW20908   2.902   1.042   7.758 -0.4840  0.5894 -0.2226
 3150SOL    HW120909   2.998   1.049   7.754 -0.4675  0.3820 -0.1908
 3150SOL    HW220910   2.879   1.069   7.847  2.0128  0.0446  0.5808
 3151SOL     OW20911   0.030   2.774   4.372  0.0694  0.4775  0.4669
 3151SOL    HW120912   4.714   2.790   4.286 -1.0229  0.9200  1.0443
 3151SOL    HW220913   0.013   2.861   4.406 -1.9358 -0.0095  0.6886
 3152SOL     OW20914   1.766   3.526  16.571 -0.0883  0.3723 -0.0771
 3152SOL    HW120915   1.837   3.489  16.623 -1.1470  0.7948  1.6736
 3152SOL    HW220916   1.807   3.539  16.485  1.4163  1.5863  0.8326
 3153SOL     OW20917   0.823   3.834   7.008 -0.3404 -0.0804 -0.3648
 3153SOL    HW120918   0.879   3.903   6.973  0.1026 -1.5141 -2.4996
 3153SOL    HW220919   0.747   3.891   7.019  1.4661  2.2602 -0.1102
 3154SOL     OW20920   3.463   0.895  11.962 -0.5974 -0.0448  0.1194
 3154SOL    HW120921   3.462   0.902  11.866  1.1133 -0.5016  0.0735
 3154SOL    HW220922   3.400   0.961  11.990  0.0751 -0.4794  2.6533
 3155SOL     OW20923   0.782   1.091   8.993 -0.6652  0.1651  0.2000
 3155SOL    HW120924   0.699   1.079   9.040 -0.6846  2.3622  0.6915
 3155SOL    HW220925   0.795   0.998   8.974 -1.1745 -0.0521  0.8961
 3156SOL     OW20926   2.672   0.914   6.791 -0.5316 -0.3044  0.0256
 3156SOL    HW120927   2.711   0.832   6.763  1.2273  1.2032 -1.9963
 3156SOL    HW220928   2.650   0.946   6.703  1.1209 -1.4805 -0.8095
 3157SOL     OW20929   2.265   2.276  17.292  0.0169 -0.6190  0.0403
 3157SOL    HW120930   2.285   2.186  17.266  0.7195 -0.2618 -0.6429
 3157SOL    HW220931   2.213   2.296  17.214 -1.3061  2.3782  1.6667
 3158SOL     OW20932   1.666   3.376   7.647 -0.1998  0.4836  0.1256
 3158SOL    HW120933   1.659   3.291   7.690 -1.3956 -0.1316 -1.2865
 3158SOL    HW220934   1.756   3.367   7.617  0.1765 -2.1256  2.0893
 3159SOL     OW20935   2.736   4.682  15.299  0.0483  0.3906  0.0769
 3159SOL    HW120936   2.672   4.659  15.232 -0.4846  0.9884  0.3878
 3159SOL    HW220937   2.768   4.593  15.313 -0.9818  0.0634  0.3392
 3160SOL     OW20938   2.206   0.092   5.551 -0.7521  0.0158  0.1941
 3160SOL    HW120939   2.265   0.023   5.523  0.9793  1.6538 -0.2387
 3160SOL    HW220940   2.135   0.046   5.595 -0.4889  0.6096  1.2555
 3161SOL     OW20941   2.219   0.336   6.941  0.0051 -0.0025 -0.2321
 3161SOL    HW120942   2.189   0.281   6.869 -1.0737  1.2894 -0.7709
 3161SOL    HW220943   2.142   0.350   6.996 -0.4900 -1.6501 -0.5071
 3162SOL     OW20944   0.497   4.412   2.348 -0.4797  0.1544  0.6479
 3162SOL    HW120945   0.446   4.456   2.417 -1.5111 -0.3914  0.2423
 3162SOL    HW220946   0.580   4.389   2.390 -1.0341 -2.0737  0.5230
 3163SOL     OW20947   0.801   4.249   1.325  0.0320  0.3003  0.1648
 3163SOL    HW120948   0.835   4.255   1.235  0.6053  0.8098  0.4198
 3163SOL    HW220949   0.709   4.274   1.312  0.4983  2.6329  1.3161
 3164SOL     OW20950   1.301   4.033  14.728  0.0570  0.1737 -0.0377
 3164SOL    HW120951   1.371   3.974  14.699 -1.0110 -1.3517  0.4691
 3164SOL    HW220952   1.343   4.118  14.717 -0.5516  0.3575 -0.8970
 3165SOL     OW20953   3.398   0.200  11.765 -0.6960  0.1121  0.7171
 3165SOL    HW120954   3.395   0.268  11.698  2.2561  0.6861  1.1494
 3165SOL    HW220955   3.491   0.209  11.788 -0.9393 -1.7747  2.4480
 3166SOL     OW20956   1.916   1.952   3.244 -0.4596  0.2441 -0.0037
 3166SOL    HW120957   1.856   2.021   3.269 -1.0541  0.2088 -1.3153
 3166SOL    HW220958   1.856   1.884   3.212  1.1080 -0.6949 -1.0101
 3167SOL     OW20959   4.656   1.833   9.758  0.0158  0.2895  0.0183
 3167SOL    HW120960   4.579   1.889   9.770 -0.0664  0.1820 -0.0051
 3167SOL    HW220961   4.639   1.762   9.819 -0.5907  0.6473  0.2643
 3168SOL     OW20962   3.610   1.451   9.064  0.6797 -0.0187  0.6767
 3168SOL    HW120963   3.673   1.516   9.093 -1.0304  1.7060  0.5432
 3168SOL    HW220964   3.532   1.507   9.069 -0.3520 -1.3959  0.0670
 3169SOL     OW20965   3.988   0.643   6.098  1.0489  0.3904 -0.2567
 3169SOL    HW120966   3.915   0.702   6.114  1.0043  0.4225 -0.5715
 3169SOL    HW220967   4.039   0.655   6.178  0.4394  1.7938 -0.0792
 3170SOL     OW20968   3.804   2.481  11.056 -0.6330  0.5014 -0.3021
 3170SOL    HW120969   3.885   2.517  11.092 -2.4901 -0.3024  4.7725
 3170SOL    HW220970   3.837   2.412  10.999  1.3606  2.5524 -1.6052
 3171SOL     OW20971   0.970   1.906  13.691 -0.3625 -0.0397  0.3077
 3171SOL    HW120972   0.944   1.989  13.731  1.7303  0.8787 -0.2253
 3171SOL    HW220973   0.968   1.924  13.597  1.2767 -0.9994  0.0953
 3172SOL     OW20974   1.682   1.607   3.430  0.1389 -0.1264  0.1260
 3172SOL    HW120975   1.612   1.552   3.465 -0.0855 -0.1229 -0.3260
 3172SOL    HW220976   1.728   1.646   3.505  0.2438  0.2844 -0.1566
 3173SOL     OW20977   0.410   1.827   4.656  0.3936  0.0974  0.3651
 3173SOL    HW120978   0.318   1.800   4.665  1.2229 -4.2939 -4.6386
 3173SOL    HW220979   0.452   1.764   4.714  0.7801  1.1601  1.2431
 3174SOL     OW20980   3.724   3.606   2.910 -0.0897 -0.2292 -0.4443
 3174SOL    HW120981   3.644   3.554   2.900  0.6099 -1.4987  0.5479
 3174SOL    HW220982   3.693   3.693   2.932 -0.7645 -0.3361 -0.9800
 3175SOL     OW20983   3.900   3.645   5.263  0.2949  0.8131 -0.3970
 3175SOL    HW120984   3.812   3.669   5.291  0.3290 -0.5545  0.8994
 3175SOL    HW220985   3.939   3.731   5.283  1.0872  0.4361 -0.3415
 3176SOL     OW20986   1.194   0.666  11.373 -0.1328  0.1574  0.5694
 3176SOL    HW120987   1.167   0.581  11.339 -2.1392  0.3576  1.6722
 3176SOL    HW220988   1.104   0.695  11.386  0.0061  0.5027  0.7677
 3177SOL     OW20989   1.662   1.756  17.059  0.6136 -0.6678  0.3996
 3177SOL    HW120990   1.589   1.814  17.081  1.1940  0.7652 -1.4222
 3177SOL    HW220991   1.709   1.751  17.142 -0.8261  2.1375  1.3864
 3178SOL     OW20992   3.312   3.268  15.706 -0.2076 -0.1564 -0.0028
 3178SOL    HW120993   3.275   3.346  15.663 -1.1375  1.6823  4.1680
 3178SOL    HW220994   3.402   3.299  15.714 -0.4929  0.6833 -0.0085
 3179SOL     OW20995   2.519   1.519   6.364  0.2513  0.1461  0.1900
 3179SOL    HW120996   2.508   1.612   6.344 -2.4238  0.1454  1.5632
 3179SOL    HW220997   2.611   1.508   6.386 -0.1676  0.0118  1.9297
 3180SOL     OW20998   1.700   2.872  10.042  0.6489 -0.2727  0.0985
 3180SOL    HW120999   1.776   2.923  10.015  1.3460 -1.4533 -0.1908
 3180SOL    HW221000   1.743   2.786  10.046  1.2288  0.0023 -0.2386
 3181SOL     OW21001   3.701   0.585   7.708  0.2185 -0.1219  0.3208
 3181SOL    HW121002   3.726   0.498   7.739  2.0026  0.1780 -0.2630
 3181SOL    HW221003   3.623   0.604   7.759  0.4903  1.0572  0.2996
 3182SOL     OW21004   3.618   0.902  12.417 -0.2093  0.1872  0.3639
 3182SOL    HW121005   3.571   0.820  12.428  0.0750 -0.0154  0.0632
 3182SOL    HW221006   3.549   0.962  12.386  0.0771  0.2052 -0.2453
 3183SOL     OW21007   1.611   0.492   7.247  0.4199  0.5717 -0.5529
 3183SOL    HW121008   1.672   0.536   7.189  2.1193 -0.3288  0.5497
 3183SOL    HW221009   1.666   0.477   7.324 -0.1404 -0.0337 -0.2610
 3184SOL     OW21010   4.696   0.902   3.933  0.1042  0.4698  0.2990
 3184SOL    HW121011   4.708   0.995   3.917 -2.1604  1.6296  5.1419
 3184SOL    HW221012   0.006   0.857   3.856 -0.5790  0.1560  0.1857
 3185SOL     OW21013   3.430   3.565  11.024  0.0185 -0.6054  0.2445
 3185SOL    HW121014   3.475   3.645  10.997  0.6837 -0.5815  1.4463
 3185SOL    HW221015   3.496   3.517  11.074  1.2386  0.3856 -0.4231
 3186SOL     OW21016   2.238   3.230   2.336  0.1078 -0.7152 -0.0654
 3186SOL    HW121017   2.178   3.240   2.262 -1.4183 -0.9819  1.1442
 3186SOL    HW221018   2.223   3.315   2.378  1.2731 -0.2260 -0.6454
 3187SOL     OW21019   0.702   2.539  17.666 -0.7771 -0.1986  0.5020
 3187SOL    HW121020   0.754   2.593  17.606 -0.5243 -0.0712  0.8351
 3187SOL    HW221021   0.768   2.471  17.680  1.8365  2.2629  0.3054
 3188SOL     OW21022   2.727   4.607  11.491 -0.0428 -0.2690 -0.1459
 3188SOL    HW121023   2.632   4.610  11.482  0.2852 -0.2433 -3.5074
 3188SOL    HW221024   2.744   4.587  11.583 -1.5438 -0.7301  0.0308
 3189SOL     OW21025   3.736   3.705  10.059 -0.0397 -0.1812 -0.4071
 3189SOL    HW121026   3.794   3.759  10.113  2.0149 -1.9846 -0.7997
 3189SOL    HW221027   3.656   3.706  10.112 -1.5800  0.9157 -2.8040
 3190SOL     OW21028   0.317   1.381   4.872  0.0798 -0.0974 -0.0848
 3190SOL    HW121029   0.266   1.453   4.836 -0.3085  1.3218  3.2758
 3190SOL    HW221030   0.251   1.350   4.934  1.1002  2.1077  2.1034
 3191SOL     OW21031   0.333   0.103   4.080 -0.3097  0.0541 -0.6489
 3191SOL    HW121032   0.318   0.077   4.171 -0.1758  0.4221 -0.5215
 3191SOL    HW221033   0.363   0.022   4.038  1.2843 -0.4653  1.4668
 3192SOL     OW21034   3.357   1.579  14.961  0.2900  0.4314  0.2230
 3192SOL    HW121035   3.433   1.623  14.924 -1.2704  3.9459  1.2152
 3192SOL    HW221036   3.388   1.488  14.966 -2.9194 -0.6345  1.1446
 3193SOL     OW21037   1.835   4.141   9.140 -0.2844  0.6231  0.3597
 3193SOL    HW121038   1.849   4.054   9.178  0.2687  0.8953  0.7704
 3193SOL    HW221039   1.742   4.153   9.160 -1.1389 -2.6795 -1.5939
 3194SOL     OW21040   0.523   2.342  17.627  0.4948 -0.5200  0.4638
 3194SOL    HW121041   0.573   2.421  17.645 -0.7499  0.3237  0.1487
 3194SOL    HW221042   0.590   2.274  17.618  3.4291  2.1626  2.2309
 3195SOL     OW21043   4.143   0.672   6.320 -0.1522  0.4185  0.5619
 3195SOL    HW121044   4.089   0.702   6.394 -1.7230  1.5756 -1.0494
 3195SOL    HW221045   4.191   0.607   6.370 -0.0285 -1.0075 -1.4093
 3196SOL     OW21046   1.762   1.604  16.019 -0.0931  0.6115  0.1022
 3196SOL    HW121047   1.682   1.558  15.995  0.4677 -0.8725  1.0061
 3196SOL    HW221048   1.729   1.693  16.012 -1.7415  0.0479  0.8524
 3197SOL     OW21049   1.351   1.791  12.758 -0.5399 -0.7278  0.1625
 3197SOL    HW121050   1.305   1.752  12.684 -0.5631  0.5725 -0.5137
 3197SOL    HW221051   1.383   1.870  12.715  2.2890 -1.9778 -0.0214
 3198SOL     OW21052   3.337   3.996   6.858 -0.4827  0.2170  0.2554
 3198SOL    HW121053   3.365   3.918   6.908  1.0018 -2.3026 -4.5040
 3198SOL    HW221054   3.297   4.045   6.929 -2.7702 -2.3950  0.7693
 3199SOL     OW21055   1.762   2.725   0.640 -0.4168  0.2756  0.0602
 3199SOL    HW121056   1.775   2.670   0.563  4.1217 -0.5646  1.4556
 3199SOL    HW221057   1.717   2.663   0.697 -1.0488 -0.8059 -1.5939
 3200SOL     OW21058   3.759   1.619  16.227  0.0854  0.0519 -0.3058
 3200SOL    HW121059   3.800   1.680  16.288  0.6993 -1.0349  0.3774
 3200SOL    HW221060   3.793   1.643  16.140 -0.7637  1.6754 -0.1749
 3201SOL     OW21061   3.583   4.720   5.080 -0.0251 -0.1036 -0.5741
 3201SOL    HW121062   3.510   4.669   5.046 -0.0224  0.3647 -1.2765
 3201SOL    HW221063   3.529   0.075   5.098  1.2481  1.0039 -1.5891
 3202SOL     OW21064   4.627   0.247   7.856 -0.1279 -0.4134 -0.2138
 3202SOL    HW121065   4.610   0.330   7.811  0.8800 -0.7663 -1.2243
 3202SOL    HW221066   4.706   0.219   7.812 -1.0292 -1.4027 -1.2031
 3203SOL     OW21067   3.287   4.002   3.705 -0.5929 -0.3444 -0.2184
 3203SOL    HW121068   3.362   4.053   3.674  0.8773 -3.0447 -1.1555
 3203SOL    HW221069   3.319   3.912   3.697  1.7113  0.2832  1.6735
 3204SOL     OW21070   4.608   4.533  17.319  0.8219 -0.1900 -0.3245
 3204SOL    HW121071   4.651   4.472  17.378 -0.3022 -1.2134 -0.5650
 3204SOL    HW221072   4.646   4.616  17.348  1.8368 -1.8692  2.9948
 3205SOL     OW21073   3.340   2.678   4.854 -0.0371 -0.0978 -0.0172
 3205SOL    HW121074   3.319   2.708   4.943 -3.3298  0.7273 -1.0694
 3205SOL    HW221075   3.304   2.591   4.868  2.7164 -1.4633 -1.3976
 3206SOL     OW21076   0.370   4.500   3.577  0.4400 -0.0577  0.0724
 3206SOL    HW121077   0.405   4.584   3.548 -0.7666  1.2029  2.3360
 3206SOL    HW221078   0.405   4.500   3.665  1.0365 -1.6452 -0.1624
 3207SOL     OW21079   0.773   0.449  15.222  0.2583 -0.0845  0.1332
 3207SOL    HW121080   0.842   0.383  15.217 -0.8259 -1.0121 -2.5849
 3207SOL    HW221081   0.734   0.430  15.137 -2.7864  1.1803  1.2429
 3208SOL     OW21082   0.513   2.045   3.532 -0.6216 -0.5432  0.2771
 3208SOL    HW121083   0.602   2.036   3.567 -0.7807  1.8074  1.3023
 3208SOL    HW221084   0.494   1.958   3.497  1.0810 -0.1837 -1.5147
 3209SOL     OW21085   3.976   1.668   7.071  0.6108 -0.6042  0.6408
 3209SOL    HW121086   4.038   1.655   7.142  3.0793  0.2395 -1.3671
 3209SOL    HW221087   3.892   1.659   7.116 -1.1258  0.7578 -2.3392
 3210SOL     OW21088   3.775   2.521   8.668 -0.8703 -0.4785  0.3620
 3210SOL    HW121089   3.715   2.496   8.739  0.7366 -1.8333  1.2416
 3210SOL    HW221090   3.713   2.534   8.596  0.3163 -2.8416 -1.1182
 3211SOL     OW21091   0.408   1.147   6.130 -0.3260 -0.4823 -0.5075
 3211SOL    HW121092   0.426   1.134   6.037  0.2272  1.8066 -0.7131
 3211SOL    HW221093   0.415   1.242   6.123  2.1547 -0.5414  0.9971
 3212SOL     OW21094   4.521   1.510   3.324 -0.6478 -0.0944  0.0389
 3212SOL    HW121095   4.595   1.472   3.371 -1.1601 -0.1134  0.8285
 3212SOL    HW221096   4.538   1.477   3.235  2.1204  1.7049 -0.0961
 3213SOL     OW21097   0.140   2.955  15.583 -0.6800  0.1380 -0.1388
 3213SOL    HW121098   0.196   3.032  15.594 -1.1658  0.1060  2.5642
 3213SOL    HW221099   0.099   2.965  15.498 -2.0706  0.7122  0.5953
 3214SOL     OW21100   0.851   1.457  11.145  0.1653  0.1397 -0.3746
 3214SOL    HW121101   0.932   1.507  11.135 -1.0963  1.4221 -4.0112
 3214SOL    HW221102   0.792   1.509  11.092  0.1042 -2.4711 -2.8701
 3215SOL     OW21103   1.398   4.026   2.778 -0.2554  0.0948  0.2739
 3215SOL    HW121104   1.403   3.931   2.770 -0.0311  0.1086  0.2506
 3215SOL    HW221105   1.398   4.038   2.873 -0.0166  0.9012  0.1753
 3216SOL     OW21106   2.284   2.707   6.871 -0.4213  0.1604 -0.2532
 3216SOL    HW121107   2.280   2.615   6.895 -0.8749 -0.0225 -1.0104
 3216SOL    HW221108   2.218   2.723   6.803  0.7094  0.0939 -1.3566
 3217SOL     OW21109   3.921   2.010   6.735  0.1040  0.2221 -0.2315
 3217SOL    HW121110   3.967   2.009   6.651 -0.5202  0.0015 -0.5729
 3217SOL    HW221111   3.992   2.003   6.799  1.1701 -2.6868 -1.7402
 3218SOL     OW21112   3.545   2.976   4.085  0.1897  0.3427  0.5147
 3218SOL    HW121113   3.607   2.926   4.137 -0.8767 -0.7038  0.7858
 3218SOL    HW221114   3.505   3.036   4.149  1.5650 -1.4147  3.0349
 3219SOL     OW21115   0.925   1.913  14.289  0.6287  0.5731 -0.2062
 3219SOL    HW121116   0.947   1.987  14.232 -0.4654  1.6731  0.8060
 3219SOL    HW221117   0.907   1.968  14.366 -2.3315 -0.6610 -0.0065
 3220SOL     OW21118   2.738   1.324   8.881  0.2696  0.1843  0.0803
 3220SOL    HW121119   2.689   1.389   8.932  2.1247  1.3032  0.4045
 3220SOL    HW221120   2.764   1.255   8.942  3.3095 -0.1616 -1.6186
 3221SOL     OW21121   3.568   3.943   6.065 -0.6137  0.1759  0.4876
 3221SOL    HW121122   3.511   3.935   6.141 -1.1367 -1.7251 -0.1062
 3221SOL    HW221123   3.631   3.880   6.101  2.9488  1.6197 -3.2100
 3222SOL     OW21124   3.769   2.195   8.150  0.1486 -0.1558 -0.7321
 3222SOL    HW121125   3.732   2.276   8.116 -1.8586 -0.0204  1.7680
 3222SOL    HW221126   3.857   2.225   8.174 -0.8627  0.1702  2.6517
 3223SOL     OW21127   3.291   3.188   2.931 -0.4564 -0.2696 -0.1799
 3223SOL    HW121128   3.260   3.102   2.904  0.2625 -0.4081 -0.5742
 3223SOL    HW221129   3.340   3.217   2.853 -1.5415 -0.6385 -0.9965
 3224SOL     OW21130   2.847   3.382   8.732  0.3850  0.3700  0.2949
 3224SOL    HW121131   2.894   3.426   8.661 -0.6651 -1.2574 -1.4025
 3224SOL    HW221132   2.907   3.408   8.801  0.3963  0.5908  0.2045
 3225SOL     OW21133   0.826   4.634   8.325 -0.1781 -0.5186 -0.3522
 3225SOL    HW121134   0.848   4.635   8.232 -1.6651  0.9076 -0.6706
 3225SOL    HW221135   0.856   4.548   8.355  1.6603  0.8014  1.6435
 3226SOL     OW21136   2.160   0.377   2.948  0.6404  0.3189 -0.2037
 3226SOL    HW121137   2.160   0.374   2.852 -1.6276  0.8678 -0.2096
 3226SOL    HW221138   2.097   0.447   2.966  0.6568  0.3136 -0.1233
 3227SOL     OW21139   2.542   2.534  14.976  0.2720  0.4398 -0.3228
 3227SOL    HW121140   2.605   2.528  15.048  0.1023  0.4747 -0.1701
 3227SOL    HW221141   2.572   2.476  14.907 -1.3021 -2.0382  1.0682
 3228SOL     OW21142   4.561   3.250   0.414  0.7598  0.0473  0.2700
 3228SOL    HW121143   4.542   3.259   0.507 -0.9314 -0.9773  0.0154
 3228SOL    HW221144   4.643   3.300   0.410  1.3864 -0.9858  0.0752
 3229SOL     OW21145   1.307   4.676   8.942 -0.0336 -0.1102 -0.3805
 3229SOL    HW121146   1.219   4.682   8.905 -0.9302  1.2286  2.0027
 3229SOL    HW221147   1.358   4.654   8.864 -0.5763 -3.6170  0.2689
 3230SOL     OW21148   4.119   2.341   0.745 -0.4239  0.2472  0.3062
 3230SOL    HW121149   4.208   2.323   0.777 -1.6179 -4.0245  1.2635
 3230SOL    HW221150   4.136   2.406   0.677 -1.3257  0.8133  0.6265
 3231SOL     OW21151   0.969   3.775  16.421 -0.0471 -0.1040 -0.0066
 3231SOL    HW121152   0.949   3.827  16.499  0.2267  1.1047 -0.7523
 3231SOL    HW221153   1.065   3.783  16.418 -0.1545  0.6752 -1.3420
 3232SOL     OW21154   3.622   4.194   5.641  0.7382 -0.4794  0.1697
 3232SOL    HW121155   3.582   4.144   5.712 -0.7248  0.3976 -0.0184
 3232SOL    HW221156   3.680   4.252   5.690 -1.5412  1.8311  0.1227
 3233SOL     OW21157   2.109   4.197  12.793  0.0735 -0.4927  0.0363
 3233SOL    HW121158   2.090   4.166  12.704 -2.9800 -0.7595  0.7858
 3233SOL    HW221159   2.031   4.249  12.812  0.2719  0.1668 -0.9566
 3234SOL     OW21160   0.343   1.835   6.933 -0.6236 -0.7616 -0.0488
 3234SOL    HW121161   0.349   1.857   7.026  1.6664  0.2306 -0.4345
 3234SOL    HW221162   0.269   1.891   6.908  1.5690  2.6539  1.1341
 3235SOL     OW21163   4.186   2.991  16.742 -0.1584  0.3755  0.4830
 3235SOL    HW121164   4.211   2.955  16.827  0.5228  0.1834  0.1993
 3235SOL    HW221165   4.176   3.083  16.765 -0.4748  0.6160 -0.6404
 3236SOL     OW21166   0.915   2.947   6.688  0.6194 -0.3559 -0.0141
 3236SOL    HW121167   0.900   2.994   6.607 -0.0269 -0.8707 -0.1957
 3236SOL    HW221168   0.999   2.905   6.673 -0.8664 -3.2168 -0.4720
 3237SOL     OW21169   1.308   0.638   3.363 -0.4337 -0.8410  0.5596
 3237SOL    HW121170   1.378   0.610   3.305 -1.2078 -2.3517  0.3553
 3237SOL    HW221171   1.238   0.636   3.298  0.8109 -0.0567 -0.8052
 3238SOL     OW21172   1.750   0.609  15.956  0.6987  1.4241  0.1139
 3238SOL    HW121173   1.810   0.534  15.955  0.0095  0.8842 -1.2324
 3238SOL    HW221174   1.818   0.673  15.977  2.9096 -1.2901  1.1945
 3239SOL     OW21175   3.034   2.953  15.751  0.6792  0.3454  0.8174
 3239SOL    HW121176   3.086   2.960  15.671  0.4657  0.2779  0.6718
 3239SOL    HW221177   3.085   3.007  15.811 -0.3288  0.5499  1.4987
 3240SOL     OW21178   1.231   4.557   3.032  0.3692  0.5437 -0.6074
 3240SOL    HW121179   1.262   4.485   3.088 -0.6100  1.2160  0.7943
 3240SOL    HW221180   1.162   4.515   2.982 -1.6603  1.2001  1.6386
 3241SOL     OW21181   2.463   1.802   7.674  0.1279 -0.6425 -0.1308
 3241SOL    HW121182   2.473   1.717   7.631  2.9644 -0.1902 -0.3183
 3241SOL    HW221183   2.402   1.783   7.746 -0.8904 -0.6234 -0.9820
 3242SOL     OW21184   1.645   3.175  11.385  0.0864  0.2238  0.5046
 3242SOL    HW121185   1.735   3.151  11.368 -0.0923  0.4338 -0.7673
 3242SOL    HW221186   1.616   3.212  11.301 -0.1150  0.9205  0.8851
 3243SOL     OW21187   0.852   0.939   5.389  0.0349 -0.2988 -0.1054
 3243SOL    HW121188   0.871   0.874   5.322  1.1697  1.5385 -1.5713
 3243SOL    HW221189   0.923   1.004   5.384 -1.5322  1.5069  0.7835
 3244SOL     OW21190   3.791   4.212  11.691 -0.3993 -0.2288 -0.3694
 3244SOL    HW121191   3.865   4.271  11.677 -0.8959  0.0547 -1.7746
 3244SOL    HW221192   3.738   4.269  11.748  0.5475  1.9722 -1.7052
 3245SOL     OW21193   0.252   4.114   3.691  0.1208 -0.0105 -0.4256
 3245SOL    HW121194   0.322   4.143   3.632  0.9793  0.6436  0.9226
 3245SOL    HW221195   0.188   4.183   3.672 -0.1860 -0.1404  0.1414
 3246SOL     OW21196   4.106   1.518   7.503  0.2111 -0.8737  0.1399
 3246SOL    HW121197   4.108   1.425   7.526  0.8032 -0.8754  0.0779
 3246SOL    HW221198   4.119   1.559   7.588 -0.5475  1.3846 -0.8372
 3247SOL     OW21199   2.424   1.267   9.062 -0.0733 -0.3920  0.2706
 3247SOL    HW121200   2.366   1.195   9.087  0.5256 -0.9366  0.0768
 3247SOL    HW221201   2.503   1.215   9.047 -0.3623 -1.4137  2.2925
 3248SOL     OW21202   1.579   3.617   7.763  0.0980 -0.1260  0.0828
 3248SOL    HW121203   1.485   3.634   7.768  0.0897  0.5037 -2.2286
 3248SOL    HW221204   1.581   3.527   7.731 -2.0632  0.6411 -2.1664
 3249SOL     OW21205   0.994   1.538   7.785 -0.1191 -0.0047 -0.2418
 3249SOL    HW121206   0.918   1.573   7.832  1.0059 -1.8804  2.9284
 3249SOL    HW221207   1.071   1.585   7.817 -0.4973  1.3869 -1.3650
 3250SOL     OW21208   2.288   2.336   9.234  0.1907  0.0682  0.6421
 3250SOL    HW121209   2.290   2.319   9.328  0.4737 -1.0956  0.4278
 3250SOL    HW221210   2.352   2.406   9.232 -0.7183  0.9062  0.9471
 3251SOL     OW21211   3.678   3.310   5.284  0.3590  0.1978  0.0338
 3251SOL    HW121212   3.643   3.296   5.197 -1.8464  1.0760  0.7959
 3251SOL    HW221213   3.673   3.405   5.281  1.4086  0.1281 -3.8309
 3252SOL     OW21214   3.753   1.842   5.206 -0.1549  0.1406 -0.2136
 3252SOL    HW121215   3.834   1.843   5.257 -1.7560 -1.8392  2.4294
 3252SOL    HW221216   3.729   1.750   5.219  0.0273  0.0552 -0.4908
 3253SOL     OW21217   1.318   0.854   6.608  0.1099 -0.0355 -0.5039
 3253SOL    HW121218   1.364   0.938   6.601 -3.1879  1.6278 -2.1104
 3253SOL    HW221219   1.389   0.793   6.630 -1.1017 -0.8053  1.2819
 3254SOL     OW21220   3.629   2.331   3.426  0.6743 -0.6285  0.1639
 3254SOL    HW121221   3.593   2.284   3.352 -1.5077  1.2716  0.0360
 3254SOL    HW221222   3.549   2.360   3.469  1.5169  0.1839  1.1887
 3255SOL     OW21223   2.137   4.694   2.984 -0.1060 -0.2629 -0.4011
 3255SOL    HW121224   2.046   4.690   2.955 -0.5254  4.1266  0.3589
 3255SOL    HW221225   2.188   4.656   2.912  0.1458 -1.9419  0.6714
 3256SOL     OW21226   2.352   0.972   3.057  0.4395  0.4673  0.1289
 3256SOL    HW121227   2.324   0.943   2.970 -1.4135  2.0127  0.1918
 3256SOL    HW221228   2.441   0.937   3.062  0.2030 -0.5945 -2.9910
 3257SOL     OW21229   4.189   4.609   5.059 -0.0680  0.4476  0.0836
 3257SOL    HW121230   4.212   4.650   4.976 -0.8408  1.1611  0.2274
 3257SOL    HW221231   4.224   4.674   5.121  1.5503  1.2893 -1.7215
 3258SOL     OW21232   3.098   0.157   7.378  0.6580 -0.0859  0.2382
 3258SOL    HW121233   3.143   0.230   7.335  1.2479 -0.5164  0.1139
 3258SOL    HW221234   3.039   0.208   7.433  0.7398 -0.4398  0.6519
 3259SOL     OW21235   3.425   4.379   7.497  0.3022  0.1249  0.5146
 3259SOL    HW121236   3.408   4.386   7.591  0.4610  1.8116  0.4305
 3259SOL    HW221237   3.429   4.472   7.474 -3.2131 -0.0083 -0.5236
 3260SOL     OW21238   2.351   2.125   7.335 -0.6392  0.5013  0.7208
 3260SOL    HW121239   2.387   2.135   7.247 -0.3763 -2.0068  0.5279
 3260SOL    HW221240   2.429   2.101   7.386  1.6317  2.2575 -1.9663
 3261SOL     OW21241   2.559   2.481   5.783  0.8095 -0.6310 -0.0170
 3261SOL    HW121242   2.471   2.508   5.811  1.4970  1.8069 -0.2600
 3261SOL    HW221243   2.529   2.410   5.726  0.6934 -0.6882  0.1144
 3262SOL     OW21244   1.650   3.032   4.883 -0.1197 -0.0389 -0.1463
 3262SOL    HW121245   1.664   3.125   4.867 -0.9176  0.3251  1.2350
 3262SOL    HW221246   1.698   2.994   4.810  0.7813 -2.3074  1.6445
 3263SOL     OW21247   1.523   4.664   6.247  0.3123 -0.2666 -0.3412
 3263SOL    HW121248   1.486   4.630   6.166 -0.3362  1.2613 -0.6960
 3263SOL    HW221249   1.589   4.596   6.258  0.3657  0.0677  1.4231
 3264SOL     OW21250   1.074   0.552   4.840  0.4065 -0.0609 -0.3649
 3264SOL    HW121251   1.147   0.611   4.855 -0.8357  1.6101 -0.8781
 3264SOL    HW221252   1.037   0.593   4.762  1.7430  2.4182  0.3138
 3265SOL     OW21253   1.737   0.261   8.942 -0.2951 -0.1147  0.1540
 3265SOL    HW121254   1.735   0.216   9.027  1.4748 -0.6783 -0.1045
 3265SOL    HW221255   1.657   0.246   8.892  0.0349 -2.4160  0.3139
 3266SOL     OW21256   4.565   3.688  12.187 -0.2541  0.2149 -0.3563
 3266SOL    HW121257   4.522   3.711  12.105 -1.3598  0.5471  0.3093
 3266SOL    HW221258   4.650   3.720  12.158 -0.0536 -1.0828 -1.1895
 3267SOL     OW21259   4.447   0.389   8.521 -0.0862 -0.7533 -0.4784
 3267SOL    HW121260   4.473   0.389   8.614 -2.3522  2.7674  0.1402
 3267SOL    HW221261   4.527   0.360   8.478  0.9821 -1.5674  2.0285
 3268SOL     OW21262   0.892   1.598   2.557 -0.3222 -0.2533 -0.0870
 3268SOL    HW121263   0.888   1.663   2.487 -1.1058  1.3174  1.4064
 3268SOL    HW221264   0.856   1.524   2.509 -3.6433  1.2219  0.1006
 3269SOL     OW21265   2.858   2.982   2.784 -0.0973 -0.1063  0.4226
 3269SOL    HW121266   2.888   3.066   2.818  1.2652 -0.7759  0.8307
 3269SOL    HW221267   2.933   2.928   2.807 -0.0379 -0.8210 -1.3977
 3270SOL     OW21268   2.559   3.359  14.733  0.6925 -0.5088 -0.4173
 3270SOL    HW121269   2.490   3.356  14.800 -0.8355  0.9882 -1.9376
 3270SOL    HW221270   2.506   3.364  14.654 -0.0294  0.8215  0.1462
 3271SOL     OW21271   4.363   4.174   4.679  0.3386  0.2737 -0.6662
 3271SOL    HW121272   4.419   4.198   4.753 -1.3045  1.8673  0.0439
 3271SOL    HW221273   4.279   4.150   4.717  1.0802 -2.2789 -0.6484
 3272SOL     OW21274   1.755   1.463  10.700 -0.0812 -0.7870  0.5975
 3272SOL    HW121275   1.712   1.388  10.659 -0.2773  0.5622 -1.6772
 3272SOL    HW221276   1.844   1.438  10.723  0.1888  0.4928  0.9527
 3273SOL     OW21277   1.842   4.375  14.644 -0.0173  0.5342  0.2985
 3273SOL    HW121278   1.848   4.444  14.711 -1.4920  1.3444 -0.4085
 3273SOL    HW221279   1.828   4.298  14.699  0.5650 -0.6259 -1.1704
 3274SOL     OW21280   4.515   4.112   3.979 -0.5324  0.2418  0.1177
 3274SOL    HW121281   4.537   4.148   4.065 -0.2007 -0.9383  0.5310
 3274SOL    HW221282   4.491   4.193   3.934 -2.1342 -0.5773 -0.5061
 3275SOL     OW21283   0.287   2.653  15.945 -0.3346  0.1330  0.5811
 3275SOL    HW121284   0.285   2.615  15.857  0.3780 -0.6556  0.9071
 3275SOL    HW221285   0.263   2.746  15.940  3.8105  0.9927 -2.6808
 3276SOL     OW21286   2.634   0.457   3.273 -0.3558 -0.7574 -0.2984
 3276SOL    HW121287   2.687   0.536   3.265 -1.0660 -0.0603  1.9196
 3276SOL    HW221288   2.561   0.479   3.214 -0.2095 -1.2133 -0.6412
 3277SOL     OW21289   3.132   3.797   7.615 -0.4423 -0.2843  0.4729
 3277SOL    HW121290   3.152   3.883   7.578  1.1519 -1.0418 -0.4211
 3277SOL    HW221291   3.069   3.755   7.557 -0.5761 -0.1310  0.5068
 3278SOL     OW21292   3.753   1.673  15.113 -0.3210 -0.4297  0.3570
 3278SOL    HW121293   3.716   1.754  15.078 -3.2621 -1.1004  1.9181
 3278SOL    HW221294   3.749   1.613  15.038  2.0403 -0.4652  0.2437
 3279SOL     OW21295   1.378   3.906   9.075 -0.3833  0.1688 -0.1232
 3279SOL    HW121296   1.387   3.818   9.039  1.1163  0.7041 -1.0735
 3279SOL    HW221297   1.450   3.905   9.138  0.9484  2.1943 -1.6056
 3280SOL     OW21298   1.244   2.941   5.464  0.9002  0.1594  0.2536
 3280SOL    HW121299   1.316   2.953   5.402  0.3309  2.2947  0.0015
 3280SOL    HW221300   1.251   2.852   5.497  0.3748  0.1837  0.4241
 3281SOL     OW21301   0.200   0.597  15.681  0.3751  0.3376 -0.3553
 3281SOL    HW121302   0.139   0.628  15.613  1.6299  0.8535 -1.2380
 3281SOL    HW221303   0.145   0.586  15.759  2.2771 -1.7307  0.6849
 3282SOL     OW21304   0.671   2.505   7.735 -0.1253 -0.0888 -0.7091
 3282SOL    HW121305   0.741   2.480   7.796 -1.6323  0.4216  1.2282
 3282SOL    HW221306   0.633   2.582   7.777 -2.1828 -0.7894 -1.2760
 3283SOL     OW21307   3.267   3.755   7.835 -0.0014 -1.0560 -0.1356
 3283SOL    HW121308   3.353   3.751   7.794 -0.1789 -2.1997 -0.4110
 3283SOL    HW221309   3.213   3.766   7.757  0.8734 -1.0984 -0.7476
 3284SOL     OW21310   1.041   1.098  10.310 -0.2339 -0.2465  0.1975
 3284SOL    HW121311   1.000   1.120  10.393 -0.2565 -0.7802  0.3229
 3284SOL    HW221312   1.133   1.108  10.335 -0.6198 -0.0360  1.5034
 3285SOL     OW21313   1.665   1.596   1.598  0.1008  0.0897 -0.1850
 3285SOL    HW121314   1.722   1.620   1.525  2.6822 -3.1252  0.8061
 3285SOL    HW221315   1.658   1.683   1.637  0.6152  0.3406 -0.6621
 3286SOL     OW21316   3.287   3.241   3.520 -0.0723 -0.1620  0.4780
 3286SOL    HW121317   3.347   3.168   3.507 -2.0541 -1.4250 -1.6603
 3286SOL    HW221318   3.205   3.193   3.506  0.0585  0.4190 -2.2919
 3287SOL     OW21319   4.667   4.159   6.168  0.3081 -0.5076 -0.7827
 3287SOL    HW121320   4.691   4.114   6.250 -1.3055 -0.4504 -0.2751
 3287SOL    HW221321   4.701   4.246   6.187  1.3386 -1.5572  2.1985
 3288SOL     OW21322   2.702   0.809   1.298 -0.1931  0.3014  0.1529
 3288SOL    HW121323   2.681   0.848   1.213  1.8340  0.6481 -0.1954
 3288SOL    HW221324   2.742   0.729   1.265 -0.2978  1.2351 -2.2252
 3289SOL     OW21325   2.994   2.747   2.843 -0.5667 -0.5135 -0.1109
 3289SOL    HW121326   2.954   2.732   2.929 -0.6647 -0.7360 -0.1925
 3289SOL    HW221327   3.072   2.692   2.835 -0.9685 -1.2060  0.6751
 3290SOL     OW21328   4.179   2.224  13.483 -0.6489 -1.0435  0.1095
 3290SOL    HW121329   4.108   2.256  13.428  0.4024 -1.3883 -1.4361
 3290SOL    HW221330   4.120   2.182  13.546 -1.0050 -0.0035  0.4716
 3291SOL     OW21331   2.057   3.030   2.478 -0.3880  0.1175  0.2278
 3291SOL    HW121332   2.138   3.079   2.465  0.2297 -1.7698 -2.9585
 3291SOL    HW221333   1.992   3.099   2.487  1.4744  1.9696 -0.6080
 3292SOL     OW21334   1.674   3.940   0.762 -0.0167  0.0513  0.2124
 3292SOL    HW121335   1.629   4.024   0.767 -0.3628 -0.0945 -0.4908
 3292SOL    HW221336   1.723   3.931   0.844 -2.0654  1.5243  1.5884
 3293SOL     OW21337   3.442   0.046   6.429 -0.1611  0.0414 -0.3568
 3293SOL    HW121338   3.532   0.055   6.460  0.3980 -0.5730 -1.8228
 3293SOL    HW221339   3.404   0.034   6.516 -2.3260  1.4822 -1.0866
 3294SOL     OW21340   1.033   3.061   5.687  0.1212  0.0983  0.3058
 3294SOL    HW121341   1.100   3.034   5.624 -1.5675  0.3522 -1.6219
 3294SOL    HW221342   1.080   3.110   5.754  0.8820  0.8034 -0.7317
 3295SOL     OW21343   4.045   0.268   5.476 -0.0775  0.6812 -0.3320
 3295SOL    HW121344   3.971   0.283   5.417  0.4837  2.2217 -0.6212
 3295SOL    HW221345   4.006   0.188   5.511 -1.4086  0.4799 -2.2768
 3296SOL     OW21346   2.634   3.522  10.502 -0.3868  0.1665  0.5253
 3296SOL    HW121347   2.637   3.503  10.409 -2.7224  0.8707  0.3147
 3296SOL    HW221348   2.693   3.457  10.540 -0.4057 -0.0916  0.1030
 3297SOL     OW21349   4.144   4.180   0.564  0.3404  0.4419  0.4433
 3297SOL    HW121350   4.106   4.267   0.575  0.0921  0.6154 -1.9262
 3297SOL    HW221351   4.153   4.158   0.657  0.8014 -0.3527  0.2145
 3298SOL     OW21352   1.038   0.715  10.198  0.3429  0.8732 -0.8459
 3298SOL    HW121353   1.053   0.759  10.281  1.4058 -1.0649 -0.0084
 3298SOL    HW221354   1.123   0.727  10.157  1.4689 -0.0855  1.1944
 3299SOL     OW21355   1.759   1.295   5.272 -0.0154  0.2872 -0.1006
 3299SOL    HW121356   1.853   1.291   5.256  0.0022  2.0943 -0.5228
 3299SOL    HW221357   1.746   1.363   5.206 -0.7345  1.5050  1.2833
 3300SOL     OW21358   3.450   0.150   0.323  0.1004  0.3169  0.0851
 3300SOL    HW121359   3.408   0.121   0.242  2.1845 -0.3882 -0.7323
 3300SOL    HW221360   3.490   0.069   0.355 -0.5419  1.0432  2.8092
 3301SOL     OW21361   3.945   2.881   6.532 -0.3860  0.8401 -0.3112
 3301SOL    HW121362   3.977   2.799   6.570  1.4857  1.8469  0.2729
 3301SOL    HW221363   4.025   2.931   6.550  0.1051 -0.4657  1.1209
 3302SOL     OW21364   0.066   0.587  13.064  0.5088  0.6063 -0.2573
 3302SOL    HW121365   0.118   0.588  13.144  1.1748 -1.1883 -0.6561
 3302SOL    HW221366   0.130   0.540  13.009  0.2708  1.8515 -1.5936
 3303SOL     OW21367   1.811   2.300  14.270  0.6147 -0.3420  0.1342
 3303SOL    HW121368   1.805   2.355  14.191  0.0641 -1.1233 -0.3633
 3303SOL    HW221369   1.896   2.318  14.312 -0.6381 -1.4924  3.1444
 3304SOL     OW21370   1.998   0.337   3.459 -0.1816 -0.3422 -0.3400
 3304SOL    HW121371   2.007   0.367   3.549 -1.3463  2.3342 -1.1213
 3304SOL    HW221372   2.054   0.402   3.416 -0.9471 -0.1388 -1.0134
 3305SOL     OW21373   2.693   0.826   5.281 -0.3350  0.0961  0.2756
 3305SOL    HW121374   2.641   0.903   5.259  1.1253  0.6774 -1.2280
 3305SOL    HW221375   2.726   0.859   5.364  0.7997  0.7009 -0.3989
 3306SOL     OW21376   3.605   0.611   6.858  0.2603 -0.4217  0.0688
 3306SOL    HW121377   3.616   0.603   6.763  0.1254 -2.4163  0.2216
 3306SOL    HW221378   3.575   0.702   6.860 -1.3709 -0.9350 -0.8600
 3307SOL     OW21379   1.675   0.865  14.755 -0.6811 -0.2182  0.2153
 3307SOL    HW121380   1.644   0.789  14.804 -0.2217 -0.9130 -0.5828
 3307SOL    HW221381   1.619   0.878  14.679 -0.9557 -2.0703  0.0981
 3308SOL     OW21382   1.280   1.146   8.395 -0.0821 -0.3270  0.3243
 3308SOL    HW121383   1.224   1.155   8.317  1.3978  2.0529 -0.4735
 3308SOL    HW221384   1.340   1.075   8.371 -1.3776 -1.3678  0.1594
 3309SOL     OW21385   2.812   2.115   3.390  0.1053  0.5425  0.2246
 3309SOL    HW121386   2.860   2.123   3.308  0.7536 -0.2100  0.5356
 3309SOL    HW221387   2.867   2.152   3.459  1.7810 -3.2124  0.9021
 3310SOL     OW21388   2.682   1.677   0.352 -0.3530  0.1657  0.4800
 3310SOL    HW121389   2.618   1.613   0.321 -0.4440 -0.5882  2.2197
 3310SOL    HW221390   2.692   1.659   0.445 -0.6161 -1.9272  0.1068
 3311SOL     OW21391   0.664   4.640   0.923  0.3360  0.1448 -0.0121
 3311SOL    HW121392   0.585   4.653   0.976  0.2711 -0.4339  0.0373
 3311SOL    HW221393   0.683   0.008   0.903 -1.1292  0.3045 -0.6826
 3312SOL     OW21394   0.943   2.059   5.757  0.5902 -0.4851  0.4369
 3312SOL    HW121395   0.994   2.073   5.677 -0.9855 -1.3207 -0.7046
 3312SOL    HW221396   0.992   1.989   5.800  1.3304 -0.0735  0.2625
 3313SOL     OW21397   0.023   4.076   4.588 -0.0594  0.8165  0.3456
 3313SOL    HW121398   0.067   4.162   4.589 -2.5582  2.0542  1.4015
 3313SOL    HW221399   4.684   4.084   4.660  1.9337 -0.9920  2.2497
 3314SOL     OW21400   3.474   2.904   6.011  0.1570  0.0314 -0.2527
 3314SOL    HW121401   3.492   2.958   6.088 -1.7560 -0.1897  0.3312
 3314SOL    HW221402   3.564   2.897   5.978  0.9484 -2.0402  2.3276
 3315SOL     OW21403   2.168   2.209  11.205 -0.1196  0.0149  0.2206
 3315SOL    HW121404   2.146   2.124  11.167  1.4661 -0.7008  0.9257
 3315SOL    HW221405   2.213   2.250  11.130 -0.7501  1.3448  0.5672
 3316SOL     OW21406   3.254   3.237   7.953  0.7560  0.1448  0.8937
 3316SOL    HW121407   3.254   3.333   7.953  1.9925  0.1416  0.7394
 3316SOL    HW221408   3.319   3.203   7.891 -0.9811 -1.4789 -0.0440
 3317SOL     OW21409   0.432   3.330   6.326 -0.5419  0.1220  0.0555
 3317SOL    HW121410   0.426   3.376   6.243 -1.4387  0.3372  0.2397
 3317SOL    HW221411   0.456   3.394   6.393 -2.0876  0.3643  0.3875
 3318SOL     OW21412   4.564   1.614   1.077 -0.3255 -0.6149 -0.4391
 3318SOL    HW121413   4.581   1.558   1.001 -0.3272 -0.4372 -0.5716
 3318SOL    HW221414   4.504   1.554   1.120 -0.9417  1.1742  1.2123
 3319SOL     OW21415   1.087   4.069   3.625 -0.2441 -0.0198 -0.1144
 3319SOL    HW121416   1.170   4.042   3.664 -0.7531 -1.4317 -0.0121
 3319SOL    HW221417   1.077   4.155   3.665 -1.2980  0.6845 -1.8951
 3320SOL     OW21418   2.996   4.281   6.025  0.7335 -0.4641 -0.1384
 3320SOL    HW121419   3.031   4.272   5.937 -2.7626  0.6236 -1.6347
 3320SOL    HW221420   2.903   4.260   6.016  0.4333  0.1299  1.4424
 3321SOL     OW21421   3.577   1.711   8.497  0.5341  0.1812  1.1160
 3321SOL    HW121422   3.518   1.682   8.428  0.8880 -1.1317  1.3801
 3321SOL    HW221423   3.663   1.683   8.466  1.0873  2.9142  0.1969
 3322SOL     OW21424   4.258   2.939  16.461  0.1981  0.2059  0.3137
 3322SOL    HW121425   4.234   2.953  16.552 -2.3278  0.9416 -0.4573
 3322SOL    HW221426   4.225   2.849  16.461 -0.0292  0.2900  0.4681
 3323SOL     OW21427   0.409   3.933   4.140  0.3414 -0.1300 -0.5943
 3323SOL    HW121428   0.390   4.016   4.095 -0.0259  0.3464  0.4512
 3323SOL    HW221429   0.369   3.870   4.080  0.1898  0.0204 -0.6510
 3324SOL     OW21430   0.131   2.031   3.378  0.4173 -0.2392  0.4265
 3324SOL    HW121431   0.165   2.046   3.466 -0.0375 -3.5587  1.1710
 3324SOL    HW221432   0.075   1.956   3.396 -0.2419 -0.0327 -0.8105
 3325SOL     OW21433   4.433   1.550   7.681  0.0213  0.0932 -0.0715
 3325SOL    HW121434   4.413   1.631   7.729  0.7749  0.1811  0.0823
 3325SOL    HW221435   4.387   1.485   7.733 -1.8681  0.6556 -1.0224
 3326SOL     OW21436   3.901   1.791   8.090 -0.2304 -0.4526  0.5026
 3326SOL    HW121437   3.966   1.742   8.039  0.8620 -0.8283  2.2658
 3326SOL    HW221438   3.832   1.726   8.103 -0.8667  0.6205  2.4207
 3327SOL     OW21439   4.079   1.496   3.738  0.3323  0.0699  0.0191
 3327SOL    HW121440   3.994   1.518   3.775  0.6456 -0.9401  1.3379
 3327SOL    HW221441   4.080   1.400   3.739 -2.4454  0.0472 -0.6219
 3328SOL     OW21442   0.353   1.836   1.811 -0.0480  0.1409  0.4100
 3328SOL    HW121443   0.424   1.814   1.750 -1.2328 -1.1587 -0.4905
 3328SOL    HW221444   0.330   1.754   1.856  1.3750 -1.1687 -1.2426
 3329SOL     OW21445   3.996   2.393   1.983  0.3023 -0.7232  0.0075
 3329SOL    HW121446   4.030   2.318   1.935  0.4994  0.0795 -1.1021
 3329SOL    HW221447   3.903   2.372   1.969  0.0714  0.2103  0.1317
 3330SOL     OW21448   2.643   3.346  17.682 -0.1964 -0.3691  0.2364
 3330SOL    HW121449   2.731   3.354   0.026  0.5347 -1.4183 -1.2785
 3330SOL    HW221450   2.618   3.438  17.673  1.9587  0.2253  0.2634
 3331SOL     OW21451   3.299   1.782  14.747  0.2729 -0.3610 -0.4829
 3331SOL    HW121452   3.300   1.688  14.730 -1.7754 -0.4684  0.0102
 3331SOL    HW221453   3.209   1.804  14.724 -0.0429 -2.3833 -1.1578
 3332SOL     OW21454   0.652   1.312   7.373 -0.3367 -0.2223 -0.2521
 3332SOL    HW121455   0.722   1.373   7.395  1.0193 -1.3829 -1.3016
 3332SOL    HW221456   0.611   1.314   7.459  1.2578  2.4564  0.4390
 3333SOL     OW21457   4.526   1.717  10.083 -0.1900  0.0839 -0.5468
 3333SOL    HW121458   4.621   1.721  10.092 -0.4204  0.3499  1.7062
 3333SOL    HW221459   4.517   1.803  10.041  0.3850  1.7321  2.6644
 3334SOL     OW21460   1.709   3.356   5.451  0.1563 -0.1229  0.3479
 3334SOL    HW121461   1.662   3.275   5.469 -1.8015  0.9155 -0.1221
 3334SOL    HW221462   1.645   3.412   5.406 -0.1783 -0.9911 -0.2638
 3335SOL     OW21463   2.693   0.875   5.542 -0.3010 -0.2459 -0.0789
 3335SOL    HW121464   2.764   0.911   5.595 -0.1370 -0.8014  0.0740
 3335SOL    HW221465   2.675   0.806   5.605 -1.3725  0.0560 -0.0573
 3336SOL     OW21466   3.498   4.455   5.365 -0.2097 -0.2366  0.1015
 3336SOL    HW121467   3.498   4.431   5.272  0.7052  0.2833 -0.0399
 3336SOL    HW221468   3.588   4.449   5.397 -0.1401 -2.1077 -0.4635
 3337SOL     OW21469   3.310   4.101  16.688  0.7516  0.5609  0.3330
 3337SOL    HW121470   3.382   4.104  16.751  0.4657  1.3678  0.6294
 3337SOL    HW221471   3.322   4.193  16.663 -0.4789  0.2997 -1.1894
 3338SOL     OW21472   3.864   3.886  12.416  0.2440  0.2834  0.1913
 3338SOL    HW121473   3.867   3.960  12.476 -0.3372 -0.0931  0.6868
 3338SOL    HW221474   3.867   3.923  12.328 -0.3266 -0.2731 -0.0608
 3339SOL     OW21475   4.605   4.442   7.993  0.1468 -0.0875  0.3947
 3339SOL    HW121476   4.613   4.401   7.907  1.1060  0.6135  0.1496
 3339SOL    HW221477   4.575   4.530   7.970 -0.9277 -0.6441 -0.3102
 3340SOL     OW21478   2.680   1.003  16.153 -0.6695  0.0422 -0.0211
 3340SOL    HW121479   2.660   1.087  16.195 -0.9514 -1.4310  2.8283
 3340SOL    HW221480   2.775   0.992  16.159 -0.8629 -0.5380  1.8729
 3341SOL     OW21481   3.129   1.439   3.569  0.0121 -0.0058  0.4333
 3341SOL    HW121482   3.116   1.344   3.560  2.6788 -0.3904  0.4726
 3341SOL    HW221483   3.191   1.447   3.496 -0.0084  2.4748  0.6874
 3342SOL     OW21484   0.515   2.223  11.408 -0.0695 -0.0989  0.0887
 3342SOL    HW121485   0.492   2.220  11.315 -1.1312 -0.5713  0.3573
 3342SOL    HW221486   0.435   2.265  11.438 -0.0983 -0.3668  0.3892
 3343SOL     OW21487   1.183   1.049   1.667 -0.0433 -0.0795  0.8850
 3343SOL    HW121488   1.157   0.964   1.632 -2.4799  0.4473  1.4306
 3343SOL    HW221489   1.209   1.033   1.758  0.3713 -0.5630  0.6822
 3344SOL     OW21490   2.772   0.473  16.695 -0.1645 -0.0556  0.9108
 3344SOL    HW121491   2.678   0.491  16.706 -0.5237  0.2066 -2.6044
 3344SOL    HW221492   2.815   0.551  16.730  0.1810 -0.3477  1.1246
 3345SOL     OW21493   3.235   2.132   5.993 -0.2725 -0.0784 -0.6493
 3345SOL    HW121494   3.150   2.106   6.028  0.2035 -0.1730  0.4327
 3345SOL    HW221495   3.227   2.227   5.992  1.1535  0.0582  3.0186
 3346SOL     OW21496   4.291   3.962  10.914 -0.2893 -0.1029 -0.2004
 3346SOL    HW121497   4.236   3.886  10.894  0.6709 -0.6820 -0.6310
 3346SOL    HW221498   4.222   4.024  10.937  1.3108  1.5103  0.2283
 3347SOL     OW21499   1.732   1.679   9.829  0.3537 -0.2538 -0.2061
 3347SOL    HW121500   1.726   1.657   9.922 -0.1373 -0.7435 -0.3540
 3347SOL    HW221501   1.643   1.660   9.800 -0.5013  1.4137  1.3056
 3348SOL     OW21502   4.510   2.331   4.031 -0.5541 -0.1711 -0.6008
 3348SOL    HW121503   4.596   2.295   4.008 -0.2581  0.7105 -0.8670
 3348SOL    HW221504   4.539   2.405   4.083 -1.3303 -1.1921  1.2876
 3349SOL     OW21505   3.057   2.853   1.064  0.2720  0.2293 -0.3497
 3349SOL    HW121506   3.146   2.868   1.096 -0.7075  0.4188  2.2866
 3349SOL    HW221507   3.012   2.922   1.113 -2.2243 -2.7739  1.6215
 3350SOL     OW21508   4.209   2.065   3.235  0.5997 -0.6070  0.0141
 3350SOL    HW121509   4.236   2.152   3.262  1.5741 -0.7827 -0.3844
 3350SOL    HW221510   4.247   2.023   3.312 -1.2859  1.5016  2.0420
 3351SOL     OW21511   0.430   4.236   3.532 -0.1370  0.3959  0.1028
 3351SOL    HW121512   0.419   4.329   3.550 -1.1633  0.5849 -1.5062
 3351SOL    HW221513   0.367   4.233   3.461  0.3030  0.0304 -0.2721
 3352SOL     OW21514   2.681   0.480   4.813  0.4739  0.3171 -0.0437
 3352SOL    HW121515   2.755   0.455   4.869  1.5039 -0.0721 -1.5718
 3352SOL    HW221516   2.691   0.575   4.817  0.8736  0.2745 -0.0433
 3353SOL     OW21517   2.626   0.627   2.812 -0.5765  0.4708 -0.5190
 3353SOL    HW121518   2.646   0.720   2.816  0.8216  0.1368  0.2306
 3353SOL    HW221519   2.646   0.608   2.720  1.2527 -0.1196  0.0123
 3354SOL     OW21520   0.964   0.419   8.421  0.0394  0.2544 -0.8429
 3354SOL    HW121521   0.897   0.453   8.362 -2.1454  0.2708  1.6946
 3354SOL    HW221522   0.954   0.325   8.407 -2.3789  0.4955 -0.7233
 3355SOL     OW21523   2.797   1.941  10.638 -0.1134 -0.0312 -0.1744
 3355SOL    HW121524   2.739   1.963  10.711  0.5694 -0.1850  0.4133
 3355SOL    HW221525   2.759   1.860  10.605  0.3578 -0.0561 -0.6701
 3356SOL     OW21526   0.092   0.889   0.638  0.3080  0.4522 -0.7718
 3356SOL    HW121527   0.137   0.924   0.715  1.0811  1.1842 -1.5467
 3356SOL    HW221528   0.008   0.935   0.634  0.8728  1.5319 -0.2327
 3357SOL     OW21529   0.504   3.817   3.767 -0.0501  0.0968 -0.0060
 3357SOL    HW121530   0.523   3.867   3.688  0.2216 -0.3625 -0.2370
 3357SOL    HW221531   0.583   3.765   3.779  1.2899  2.0183 -0.6196
 3358SOL     OW21532   0.056   0.978   3.566 -0.7039 -0.0347 -0.2674
 3358SOL    HW121533   0.087   0.930   3.489 -1.1234  0.4724 -0.7510
 3358SOL    HW221534   0.029   0.910   3.627  1.9939  0.5521  1.5661
 3359SOL     OW21535   2.689   0.226   7.069 -0.9019 -0.7705 -0.4002
 3359SOL    HW121536   2.627   0.160   7.037  0.7282 -2.3935 -0.2083
 3359SOL    HW221537   2.645   0.308   7.049 -0.6276 -0.8560 -1.3254
 3360SOL     OW21538   2.127   3.117   4.583 -0.5216 -0.6559  0.1076
 3360SOL    HW121539   2.195   3.161   4.532 -0.0004 -0.9353  0.5654
 3360SOL    HW221540   2.063   3.187   4.596 -0.8342 -0.6526 -1.3985
 3361SOL     OW21541   3.801   0.838   7.694  0.2422  0.1212  0.7833
 3361SOL    HW121542   3.709   0.859   7.679 -0.2009 -1.7986  0.9410
 3361SOL    HW221543   3.795   0.743   7.686  0.0176  0.2867 -1.1585
 3362SOL     OW21544   3.059   3.823   8.582  0.2192 -0.4842 -0.8535
 3362SOL    HW121545   3.028   3.903   8.625 -1.3807 -1.5855  0.0283
 3362SOL    HW221546   3.138   3.862   8.544  1.0716  0.1653  1.5462
 3363SOL     OW21547   1.435   2.216   8.045  0.2731  0.2774 -0.8924
 3363SOL    HW121548   1.404   2.132   8.011  0.6715 -0.6127  0.9500
 3363SOL    HW221549   1.519   2.185   8.078  1.2973  2.8605 -1.0309
 3364SOL     OW21550   4.343   1.691   5.032  0.1851  0.1655 -0.4147
 3364SOL    HW121551   4.286   1.628   5.078  1.6189 -0.4165  0.5694
 3364SOL    HW221552   4.299   1.694   4.947  1.4632 -0.2691 -1.0992
 3365SOL     OW21553   0.788   4.585   8.849  0.0057 -0.2522  0.4772
 3365SOL    HW121554   0.750   4.505   8.813  2.0079  0.0584 -2.2797
 3365SOL    HW221555   0.787   4.558   8.941  1.8665 -1.1411  0.2408
 3366SOL     OW21556   4.349   2.975   3.645 -0.9197  0.1000  0.5755
 3366SOL    HW121557   4.314   2.922   3.573 -0.8178  0.8492 -0.0249
 3366SOL    HW221558   4.364   3.059   3.603  0.2148 -0.5063 -0.2245
 3367SOL     OW21559   3.238   4.394   6.949 -0.4885  0.4918 -0.2330
 3367SOL    HW121560   3.147   4.418   6.935 -0.6862  0.4593  1.0114
 3367SOL    HW221561   3.213   4.313   6.994 -1.5064  0.0825 -1.5348
 3368SOL     OW21562   1.577   1.400  17.390 -0.4237 -0.3874 -0.3002
 3368SOL    HW121563   1.582   1.493  17.367 -0.6144 -0.1477  0.6047
 3368SOL    HW221564   1.486   1.386  17.418  0.2528  0.5104  2.4169
 3369SOL     OW21565   1.642   2.094   7.262 -0.3158  0.2813  0.0274
 3369SOL    HW121566   1.694   2.074   7.184  0.1908  0.2582  0.3789
 3369SOL    HW221567   1.676   2.182   7.278  0.0114  0.2434 -0.4609
 3370SOL     OW21568   3.554   3.854  10.667  0.1932 -0.1243  0.1665
 3370SOL    HW121569   3.470   3.868  10.711  0.3669 -0.8358  0.7274
 3370SOL    HW221570   3.538   3.866  10.574 -0.4600  0.0130  0.2937
 3371SOL     OW21571   3.171   4.036   4.375 -0.3834  0.4125 -0.2112
 3371SOL    HW121572   3.173   3.944   4.348 -1.3897  0.3826 -0.1724
 3371SOL    HW221573   3.213   4.083   4.303 -0.5173  0.0524 -0.5268
 3372SOL     OW21574   1.488   2.483   5.403 -0.5709 -0.3593  0.1285
 3372SOL    HW121575   1.475   2.398   5.362  0.0180 -0.0150 -0.7741
 3372SOL    HW221576   1.565   2.462   5.456 -1.0805 -1.2910  0.4920
 3373SOL     OW21577   0.066   3.802  12.070  0.6386  0.1135  0.1143
 3373SOL    HW121578   0.143   3.849  12.102 -0.0046  1.7783 -0.8315
 3373SOL    HW221579   0.038   3.859  11.999 -1.8817 -0.2900  0.7780
 3374SOL     OW21580   0.878   1.452   0.894  0.1335 -0.7138 -0.4916
 3374SOL    HW121581   0.812   1.418   0.834  0.6049  0.2331 -1.5451
 3374SOL    HW221582   0.882   1.546   0.879  1.9907 -1.0978 -2.4067
 3375SOL     OW21583   2.130   2.266   5.075  0.6805  0.2005 -0.5274
 3375SOL    HW121584   2.069   2.321   5.125 -1.3139 -1.2495 -1.3474
 3375SOL    HW221585   2.204   2.268   5.136 -2.2330  0.9432  2.9870
 3376SOL     OW21586   3.839   4.325   8.121 -0.0480  0.0804 -0.7900
 3376SOL    HW121587   3.852   4.230   8.115 -2.5445 -0.3067  0.0660
 3376SOL    HW221588   3.764   4.327   8.062 -0.0847  0.6011 -0.7253
 3377SOL     OW21589   4.570   1.169  13.278 -0.0395 -0.1282 -0.6332
 3377SOL    HW121590   4.512   1.240  13.248 -0.0667  0.2512  0.3269
 3377SOL    HW221591   4.648   1.215  13.310  0.5126 -1.7528  0.3283
 3378SOL     OW21592   3.428   0.278   7.837  0.2671 -0.0192 -0.2815
 3378SOL    HW121593   3.386   0.197   7.808  3.1411 -1.7249  0.2507
 3378SOL    HW221594   3.481   0.242   7.909 -0.9385 -0.7478  0.2327
 3379SOL     OW21595   3.264   2.857  17.554 -0.2540  0.2383  0.3485
 3379SOL    HW121596   3.173   2.838  17.535 -0.1110 -1.8411  1.7641
 3379SOL    HW221597   3.290   2.773  17.592 -0.9655  0.4414  1.2911
 3380SOL     OW21598   1.903   0.293   8.712  0.1319 -0.2368 -0.2763
 3380SOL    HW121599   1.853   0.290   8.794  2.5480 -2.4180  1.1371
 3380SOL    HW221600   1.909   0.386   8.693 -1.6519 -0.1293 -0.2846
 3381SOL     OW21601   1.986   2.482   6.143 -0.2408  0.0467 -0.0792
 3381SOL    HW121602   1.999   2.415   6.210  0.4487  0.3794  0.1264
 3381SOL    HW221603   2.072   2.503   6.106  0.0189 -3.2825 -1.3168
 3382SOL     OW21604   0.358   3.933   6.844  0.3120  0.9181 -0.1484
 3382SOL    HW121605   0.329   4.024   6.839 -1.9763  0.1715 -0.3828
 3382SOL    HW221606   0.387   3.917   6.754  1.3625 -3.4627  0.9806
 3383SOL     OW21607   4.126   1.927  13.362  0.1758 -0.3611 -0.4104
 3383SOL    HW121608   4.038   1.938  13.398  0.8903 -0.4902  1.3343
 3383SOL    HW221609   4.109   1.937  13.268 -0.7214  0.5465 -0.1530
 3384SOL     OW21610   0.871   0.923  16.563 -0.7527  0.2357  0.1002
 3384SOL    HW121611   0.878   1.013  16.595 -0.4897  0.2239  0.0799
 3384SOL    HW221612   0.952   0.920  16.512 -0.0058  1.2912  1.2346
 3385SOL     OW21613   2.389   1.763   3.381 -0.0373  0.0048 -0.1660
 3385SOL    HW121614   2.475   1.806   3.379 -1.2941  2.6425  1.8887
 3385SOL    HW221615   2.352   1.819   3.313  1.1710 -1.2229 -1.8471
 3386SOL     OW21616   1.341   4.289   1.244 -0.7272  0.1981  0.1790
 3386SOL    HW121617   1.281   4.361   1.226 -1.2558 -0.0755  0.8320
 3386SOL    HW221618   1.372   4.268   1.156  1.4621  2.2686  0.4425
 3387SOL     OW21619   1.214   2.851   2.739  0.5600  0.0575 -0.1238
 3387SOL    HW121620   1.298   2.890   2.716  0.0933  0.2659 -1.5167
 3387SOL    HW221621   1.236   2.758   2.731 -2.0301 -0.6118  0.7195
 3388SOL     OW21622   0.045   0.018   9.587 -0.3603  0.3146  0.0197
 3388SOL    HW121623   0.018   0.025   9.678  0.8951 -1.2584  0.5138
 3388SOL    HW221624   0.081   0.106   9.574  1.2297 -0.2505  0.6387
 3389SOL     OW21625   1.589   3.797  14.928  0.1960 -0.2808 -0.2324
 3389SOL    HW121626   1.607   3.891  14.932 -1.0526 -0.0734  0.4865
 3389SOL    HW221627   1.505   3.786  14.973  0.3411 -0.3338  0.0248
 3390SOL     OW21628   1.935   1.962   5.156  0.3734 -0.0374 -0.2029
 3390SOL    HW121629   1.942   1.926   5.068  0.7931  0.7285 -0.4829
 3390SOL    HW221630   1.899   1.884   5.199  1.5108  0.5658  1.8046
 3391SOL     OW21631   1.063   0.777   9.014 -0.4565  0.3692 -0.9892
 3391SOL    HW121632   1.089   0.843   9.079  3.6122 -0.3846 -1.8515
 3391SOL    HW221633   1.024   0.706   9.065 -0.5470  1.1677  0.0514
 3392SOL     OW21634   2.639   1.587   4.292  0.1528  0.3182 -0.2443
 3392SOL    HW121635   2.725   1.585   4.334 -0.9017 -1.3588  1.8373
 3392SOL    HW221636   2.665   1.556   4.205 -0.9408  2.0920 -1.1934
 3393SOL     OW21637   1.605   2.225   5.665 -0.0292  0.6544  0.2783
 3393SOL    HW121638   1.618   2.200   5.756  3.0669 -0.1118 -0.3880
 3393SOL    HW221639   1.613   2.320   5.666 -0.3134  0.6772  0.2130
 3394SOL     OW21640   0.628   0.572   7.233 -0.5504 -0.2372 -0.4719
 3394SOL    HW121641   0.586   0.513   7.296 -0.6311  0.2654 -0.0619
 3394SOL    HW221642   0.610   0.657   7.271  1.5735  0.3167 -0.6845
 3395SOL     OW21643   1.874   3.135  17.660 -0.2875  0.2390  0.1837
 3395SOL    HW121644   1.920   3.060  17.621  0.0974  0.0360  1.0323
 3395SOL    HW221645   1.812   3.159  17.591  0.1806  0.8352 -0.0376
 3396SOL     OW21646   1.327   0.417  16.844  0.1969  0.6851  0.1694
 3396SOL    HW121647   1.371   0.482  16.899  1.3356 -0.8209  1.0499
 3396SOL    HW221648   1.413   0.381  16.821  0.8209  2.0617  0.3147
 3397SOL     OW21649   2.351   1.606   4.217 -0.1497 -0.3173 -0.4539
 3397SOL    HW121650   2.395   1.665   4.278 -1.5907  0.8996 -0.5976
 3397SOL    HW221651   2.421   1.541   4.211  0.9074  0.6637  1.3215
 3398SOL     OW21652   1.322   0.383   2.239  0.2465 -0.5852  0.5171
 3398SOL    HW121653   1.372   0.302   2.251 -0.1448 -0.4828  2.7926
 3398SOL    HW221654   1.401   0.435   2.251  0.7970 -0.3931 -3.8851
 3399SOL     OW21655   0.080   3.173   7.121  0.1415 -0.5499 -0.0981
 3399SOL    HW121656   4.715   3.158   7.156 -0.2899 -0.2221 -1.0232
 3399SOL    HW221657   0.130   3.093   7.139  1.7859  0.2107 -1.2487
 3400SOL     OW21658   4.126   2.240   5.727  0.6906 -0.1964  0.2027
 3400SOL    HW121659   4.137   2.321   5.777 -0.2401  0.9394 -1.4504
 3400SOL    HW221660   4.085   2.182   5.791  0.4725  0.0267  0.2645
 3401SOL     OW21661   0.635   2.546   3.062  0.1980  0.7938  0.4062
 3401SOL    HW121662   0.719   2.501   3.073  0.7695  1.4107 -1.4291
 3401SOL    HW221663   0.585   2.502   3.130  0.1461  0.1087 -0.0734
 3402SOL     OW21664   1.353   4.476   6.631  0.4892  0.1238 -0.7373
 3402SOL    HW121665   1.405   4.397   6.645  0.8953  0.1738 -1.8807
 3402SOL    HW221666   1.410   4.541   6.673  0.1341  0.2391 -0.4367
 3403SOL     OW21667   0.794   0.871  10.556 -0.0433  0.2665 -0.0648
 3403SOL    HW121668   0.755   0.916  10.632 -2.4294 -2.3345  0.2551
 3403SOL    HW221669   0.722   0.863  10.493 -0.6075 -1.2353  0.7811
 3404SOL     OW21670   3.255   1.361   1.713  0.4961 -0.0134  0.3675
 3404SOL    HW121671   3.351   1.363   1.714  0.5276 -1.8899  1.3430
 3404SOL    HW221672   3.237   1.273   1.682 -2.5820  0.4521  0.8964
 3405SOL     OW21673   3.214   4.247   7.345  0.8376  0.5111  0.6793
 3405SOL    HW121674   3.295   4.287   7.377  0.7535 -0.0657  1.5860
 3405SOL    HW221675   3.172   4.325   7.307 -0.9897 -1.4660 -1.3197
 3406SOL     OW21676   1.312   3.320   2.002 -0.2715  0.0654  0.0504
 3406SOL    HW121677   1.296   3.386   2.069 -0.6997  0.7324 -0.7121
 3406SOL    HW221678   1.293   3.368   1.921 -1.0803  0.4605  0.4773
 3407SOL     OW21679   3.681   0.548   5.799  0.0904  0.7079 -0.5331
 3407SOL    HW121680   3.656   0.515   5.713 -0.5910  1.1567 -0.5110
 3407SOL    HW221681   3.638   0.633   5.797 -3.0522 -0.7897  2.9284
 3408SOL     OW21682   3.313   2.465   8.434 -0.4874 -0.2351  0.3189
 3408SOL    HW121683   3.250   2.413   8.383 -2.3662 -1.3718  3.8452
 3408SOL    HW221684   3.297   2.551   8.395  1.1616  0.5408  1.3439
 3409SOL     OW21685   2.152   0.673   8.297 -0.0145  0.2483  0.0787
 3409SOL    HW121686   2.110   0.644   8.216  1.5246 -1.0525 -0.2524
 3409SOL    HW221687   2.095   0.623   8.356 -0.5278  1.3198  0.4831
 3410SOL     OW21688   4.174   4.647   6.750 -0.4251  0.1254 -0.7885
 3410SOL    HW121689   4.186   4.643   6.655 -0.2328 -1.4026 -0.7096
 3410SOL    HW221690   4.121   0.001   6.768 -0.9824 -0.2734 -0.7007
 3411SOL     OW21691   3.401   4.165   5.452 -0.6387 -0.3305  0.1571
 3411SOL    HW121692   3.453   4.183   5.530 -0.4072  0.5795 -0.2057
 3411SOL    HW221693   3.415   4.247   5.405 -0.1855 -0.1111  0.6806
 3412SOL     OW21694   1.801   3.296   3.375 -0.4831  0.4097 -0.4240
 3412SOL    HW121695   1.774   3.368   3.318 -0.2362 -1.9182 -3.4929
 3412SOL    HW221696   1.881   3.330   3.413 -1.1872  1.4111  0.1670
 3413SOL     OW21697   2.711   0.686   7.423 -0.4439  0.1908 -0.1632
 3413SOL    HW121698   2.789   0.645   7.459 -0.4613 -0.8652 -1.3571
 3413SOL    HW221699   2.649   0.626   7.465  1.6743 -0.4523  2.0320
 3414SOL     OW21700   1.904   1.006   2.569  0.2664  0.3303 -0.6658
 3414SOL    HW121701   1.918   0.917   2.601  1.7068  1.1132  0.8664
 3414SOL    HW221702   1.817   1.027   2.603  0.4997  2.4029 -1.2882
 3415SOL     OW21703   2.148   1.573   3.447  0.1137  0.0196 -0.3755
 3415SOL    HW121704   2.220   1.624   3.410  1.1859 -0.6971  0.7146
 3415SOL    HW221705   2.190   1.566   3.533 -2.9128 -0.3013  1.0961
 3416SOL     OW21706   3.738   4.128   8.424  0.0770  0.1056  0.2325
 3416SOL    HW121707   3.775   4.104   8.509  1.2945  0.3030 -0.2310
 3416SOL    HW221708   3.786   4.209   8.407 -2.6406  1.4534 -0.9719
 3417SOL     OW21709   4.073   2.361   4.480 -0.0038  0.8707 -0.3905
 3417SOL    HW121710   4.081   2.368   4.575  1.1431 -2.0043 -0.2929
 3417SOL    HW221711   4.160   2.374   4.442 -0.6104  0.1637 -2.0457
 3418SOL     OW21712   2.213   3.371   5.498  0.0095 -0.5727  0.7660
 3418SOL    HW121713   2.129   3.363   5.453  0.0779  2.1827  0.1413
 3418SOL    HW221714   2.250   3.445   5.450  0.4031 -1.0738  0.2928
 3419SOL     OW21715   3.130   1.661   8.576  0.2797 -0.3342  0.1444
 3419SOL    HW121716   3.113   1.616   8.493 -0.3837 -0.4245  0.3279
 3419SOL    HW221717   3.069   1.734   8.567  2.3591  1.4489  0.6156
 3420SOL     OW21718   3.643   2.652   3.148  0.4127  0.5624  0.6120
 3420SOL    HW121719   3.715   2.682   3.092 -1.3389  2.0403 -0.8435
 3420SOL    HW221720   3.680   2.685   3.230 -1.0229  1.4217  0.8995
 3421SOL     OW21721   2.654   0.551   2.558  0.4049 -0.4226 -0.2691
 3421SOL    HW121722   2.608   0.472   2.529 -0.6327 -0.2009  0.7955
 3421SOL    HW221723   2.697   0.568   2.474  0.3601  0.0268 -0.1974
 3422SOL     OW21724   2.213   2.977   8.711 -0.0469 -0.6048  0.0514
 3422SOL    HW121725   2.308   2.991   8.704 -0.3580  2.0742  1.0988
 3422SOL    HW221726   2.182   3.068   8.717 -1.4756 -1.0613 -0.4937
 3423SOL     OW21727   2.804   2.844   2.542  0.8277 -0.2674 -0.1908
 3423SOL    HW121728   2.810   2.906   2.614 -1.0859 -0.1655 -0.1325
 3423SOL    HW221729   2.717   2.857   2.504  0.3005 -1.7306  0.5056
 3424SOL     OW21730   4.011   1.623   0.527 -0.2448 -0.0126 -0.3558
 3424SOL    HW121731   4.025   1.592   0.438  3.2994  3.0657 -0.8564
 3424SOL    HW221732   3.923   1.596   0.553  0.4190 -0.2854  1.6017
 3425SOL     OW21733   0.591   3.963   5.194  0.1937  0.5705  0.0251
 3425SOL    HW121734   0.583   3.868   5.196  3.2758  0.3545  0.4876
 3425SOL    HW221735   0.502   3.976   5.229  0.1648 -1.2323  0.6026
 3426SOL     OW21736   3.440   3.117  13.121 -0.6203  0.1625 -0.0815
 3426SOL    HW121737   3.434   3.098  13.027 -0.2869  0.6120 -0.1921
 3426SOL    HW221738   3.520   3.168  13.129 -1.5164  1.5167  0.3027
 3427SOL     OW21739   4.387   0.946   8.544 -0.1115  0.2390 -0.3130
 3427SOL    HW121740   4.410   1.014   8.481 -0.8691 -0.1014 -0.9553
 3427SOL    HW221741   4.363   0.876   8.483 -1.2218  1.3924 -1.1965
 3428SOL     OW21742   0.960   1.633  13.172  0.1476 -0.3971 -0.0632
 3428SOL    HW121743   1.055   1.649  13.171  0.1060 -0.0330  1.1952
 3428SOL    HW221744   0.960   1.537  13.177  2.7348 -0.4204 -0.4852
 3429SOL     OW21745   4.630   4.103   8.509 -0.2708  0.2001 -0.4581
 3429SOL    HW121746   4.641   4.008   8.516 -1.5251  0.1220  0.5127
 3429SOL    HW221747   4.687   4.129   8.437  0.5235  0.4489  0.2660
 3430SOL     OW21748   3.865   1.409  12.218  0.9627  0.2194 -0.1862
 3430SOL    HW121749   3.842   1.460  12.140  1.3000  0.8287  0.1055
 3430SOL    HW221750   3.877   1.487  12.272 -1.3623  0.5239 -0.1500
 3431SOL     OW21751   1.875   3.233  14.714 -0.0850 -0.0767  0.0370
 3431SOL    HW121752   1.784   3.204  14.725 -0.4006  0.4287 -1.2706
 3431SOL    HW221753   1.858   3.266  14.626  0.6058 -2.8210 -1.1114
 3432SOL     OW21754   2.088   4.410  15.948  0.8905 -0.5422 -0.0434
 3432SOL    HW121755   2.042   4.424  15.865  1.2869  1.1513  0.0104
 3432SOL    HW221756   2.012   4.394  16.005  1.7107  0.9653  1.4777
 3433SOL     OW21757   2.287   0.188  10.039  0.3298  0.2228  0.3300
 3433SOL    HW121758   2.261   0.267   9.993  1.3971  1.2166  1.4162
 3433SOL    HW221759   2.312   0.133   9.965 -2.9090 -1.3259  0.3768
 3434SOL     OW21760   2.732   3.825   1.774 -0.2344 -0.2096  0.0583
 3434SOL    HW121761   2.769   3.835   1.687 -1.1424  1.1225 -0.1770
 3434SOL    HW221762   2.640   3.829   1.748 -0.7928 -1.2759  1.8369
 3435SOL     OW21763   2.119   0.526   5.531  0.4459 -0.3752 -0.0640
 3435SOL    HW121764   2.164   0.462   5.586 -0.7216 -1.6879 -0.6214
 3435SOL    HW221765   2.032   0.491   5.512  0.2754  0.5398 -0.9639
 3436SOL     OW21766   2.153   2.517   5.450  0.5244 -0.2752 -0.2290
 3436SOL    HW121767   2.116   2.472   5.526  0.2722 -0.8560 -0.6955
 3436SOL    HW221768   2.131   2.606   5.480  3.1713  0.1157  0.6057
 3437SOL     OW21769   3.647   4.586   3.948 -0.0536  0.7502 -0.0055
 3437SOL    HW121770   3.730   4.546   3.974  1.1602  3.6956  0.5607
 3437SOL    HW221771   3.595   4.552   4.022 -0.4707 -0.7983 -0.9960
 3438SOL     OW21772   2.218   3.443   2.564  0.0938 -0.0475 -0.5429
 3438SOL    HW121773   2.132   3.401   2.555  1.0511 -2.4832  1.4728
 3438SOL    HW221774   2.191   3.521   2.612  0.6967 -1.0195  1.3848
 3439SOL     OW21775   0.578   1.385   5.463  0.0734 -0.2642  0.2248
 3439SOL    HW121776   0.607   1.303   5.503  0.5384 -0.9795 -1.5738
 3439SOL    HW221777   0.663   1.426   5.447 -1.3221  2.2746 -0.7504
 3440SOL     OW21778   2.852   1.012   4.107  0.0597  0.1648  0.0138
 3440SOL    HW121779   2.919   1.036   4.172 -0.6077  0.2586  0.6701
 3440SOL    HW221780   2.908   1.000   4.030  1.7797 -0.2156  1.3215
 3441SOL     OW21781   2.656   4.026  14.637 -0.6293 -0.5166 -0.2640
 3441SOL    HW121782   2.714   3.958  14.604 -0.3041 -0.2463 -0.2620
 3441SOL    HW221783   2.640   3.995  14.726  0.0842  1.2800  0.5005
 3442SOL     OW21784   0.968   3.077  16.273 -0.5308 -0.1870  0.5940
 3442SOL    HW121785   0.905   3.109  16.209  0.0392 -2.1596 -0.9931
 3442SOL    HW221786   1.028   3.151  16.272 -1.7385  0.8327  3.2910
 3443SOL     OW21787   2.576   3.255   7.623 -0.6174 -0.2576  0.7190
 3443SOL    HW121788   2.610   3.183   7.675  2.1531 -0.8066 -1.8734
 3443SOL    HW221789   2.482   3.235   7.626 -0.9945  1.4707  0.8403
 3444SOL     OW21790   1.112   1.540   6.754  0.1486 -0.0740  0.2643
 3444SOL    HW121791   1.138   1.499   6.836  1.6601 -1.1125 -0.7388
 3444SOL    HW221792   1.060   1.467   6.721 -1.0949  0.0330  2.0205
 3445SOL     OW21793   2.997   4.054   5.249  0.1550  0.0646  0.2015
 3445SOL    HW121794   3.023   4.139   5.211 -0.5464 -0.4383 -1.3868
 3445SOL    HW221795   2.932   4.016   5.191 -0.8987  0.4941  1.0897
 3446SOL     OW21796   3.951   0.058   0.339  0.1705 -0.0921  0.0205
 3446SOL    HW121797   3.898   0.042   0.418 -0.4516  0.0444 -0.3696
 3446SOL    HW221798   3.986   4.691   0.344 -2.1769 -1.1422 -2.6242
 3447SOL     OW21799   3.404   3.217  13.392 -0.2413  0.1041  0.6007
 3447SOL    HW121800   3.395   3.144  13.331 -0.2566 -0.6227  1.4727
 3447SOL    HW221801   3.496   3.239  13.382 -0.6696  0.8845 -1.5892
 3448SOL     OW21802   2.173   3.332   7.835 -0.4809 -0.1405 -0.0211
 3448SOL    HW121803   2.154   3.422   7.860  1.2510  0.2551 -0.0958
 3448SOL    HW221804   2.218   3.293   7.910  0.2771  1.7380  0.5027
 3449SOL     OW21805   3.851   0.278   8.439 -0.3154 -0.0727  0.4837
 3449SOL    HW121806   3.803   0.245   8.363  1.6267  0.9510 -1.1597
 3449SOL    HW221807   3.788   0.258   8.509 -0.5263 -1.8038 -0.1815
 3450SOL     OW21808   2.297   4.644   5.834  0.1896 -0.1274  0.2954
 3450SOL    HW121809   2.204   4.639   5.810  0.3837 -0.0536 -0.4748
 3450SOL    HW221810   2.341   4.597   5.763 -2.3006 -0.0947 -1.3043
 3451SOL     OW21811   0.061   0.862  14.916  0.1845  0.3156 -0.1355
 3451SOL    HW121812   0.032   0.949  14.889 -1.6961 -1.4881 -3.9745
 3451SOL    HW221813   0.076   0.809  14.837  0.0541 -1.5364  1.0682
 3452SOL     OW21814   2.488   0.631   8.493 -0.2328  0.2602 -0.2718
 3452SOL    HW121815   2.404   0.632   8.538 -1.0572 -2.2752 -1.7690
 3452SOL    HW221816   2.505   0.541   8.522  0.5610  1.0318  1.6876
 3453SOL     OW21817   1.312   4.478  13.451  0.5595  0.1588 -0.5049
 3453SOL    HW121818   1.300   4.396  13.499  1.0831  0.2977 -0.1358
 3453SOL    HW221819   1.331   4.443  13.364 -0.2016 -0.9493 -0.2269
 3454SOL     OW21820   1.237   2.947   8.618  0.2709 -0.4093  0.1140
 3454SOL    HW121821   1.148   2.932   8.649  0.5639  2.0395  2.1231
 3454SOL    HW221822   1.248   3.039   8.643 -1.6589 -0.1143 -0.1393
 3455SOL     OW21823   4.281   2.901   2.160 -0.5838  0.1854 -0.0790
 3455SOL    HW121824   4.352   2.858   2.113  1.5647  2.3798  1.2302
 3455SOL    HW221825   4.211   2.854   2.113  1.0181 -0.0190 -2.2244
 3456SOL     OW21826   0.076   0.668   3.139 -0.3291  0.3322 -0.4037
 3456SOL    HW121827   0.167   0.647   3.120 -0.1512 -0.3681  1.2078
 3456SOL    HW221828   0.086   0.690   3.231  1.7835 -1.5418 -0.2001
 3457SOL     OW21829   2.467   2.798   7.669  0.1710  0.5506 -0.5984
 3457SOL    HW121830   2.497   2.874   7.718 -0.9031  0.8766 -0.4409
 3457SOL    HW221831   2.537   2.741   7.699 -1.5032 -1.9148 -1.3641
 3458SOL     OW21832   0.979   0.100  13.263  0.1269 -0.2473 -0.3216
 3458SOL    HW121833   1.033   0.175  13.289 -0.5773 -0.1547  0.8689
 3458SOL    HW221834   0.929   0.079  13.342  0.5186 -0.1476 -0.0439
 3459SOL     OW21835   4.606   1.894   1.513  0.2421 -0.0568  0.0657
 3459SOL    HW121836   4.606   1.861   1.423  1.2483  0.9122 -0.2810
 3459SOL    HW221837   4.692   1.867   1.544  0.3041 -0.7662 -0.7073
 3460SOL     OW21838   0.939   2.878   7.902  0.2353 -0.4862  0.3566
 3460SOL    HW121839   0.913   2.834   7.983 -0.4633 -3.8841 -1.6691
 3460SOL    HW221840   0.905   2.963   7.928  1.6540 -0.4316  1.9747
 3461SOL     OW21841   0.405   0.474   7.697  0.4800 -0.4484  0.1035
 3461SOL    HW121842   0.453   0.540   7.747 -1.2976  0.4289  0.6278
 3461SOL    HW221843   0.324   0.524   7.706 -0.5295 -1.6544 -2.2236
 3462SOL     OW21844   3.807   3.038   7.635  0.3562  0.2976  0.0990
 3462SOL    HW121845   3.772   2.984   7.563 -0.4047  2.7138 -1.3388
 3462SOL    HW221846   3.746   3.111   7.624  2.3333  1.9527  0.1570
 3463SOL     OW21847   1.826   2.464   0.197 -0.4589  0.1573 -0.1029
 3463SOL    HW121848   1.813   2.433   0.107  2.1274 -0.9774 -0.1123
 3463SOL    HW221849   1.922   2.461   0.206 -0.6080 -0.0839  1.4213
 3464SOL     OW21850   0.052   3.655   5.492  0.4660  0.6086  0.1990
 3464SOL    HW121851   0.035   3.688   5.404 -0.5527  0.0674  0.1915
 3464SOL    HW221852   4.713   3.583   5.505  1.7001 -0.3602  0.6673
 3465SOL     OW21853   2.337   4.050   7.215 -0.8017 -0.1444 -0.3211
 3465SOL    HW121854   2.332   4.000   7.297 -0.7663 -0.2872 -0.4084
 3465SOL    HW221855   2.318   4.139   7.246  1.3003  0.6016 -1.2344
 3466SOL     OW21856   4.109   4.489  10.094 -0.5127 -0.3501  0.1468
 3466SOL    HW121857   4.126   4.535  10.176  1.0699 -0.0642 -0.3554
 3466SOL    HW221858   4.026   4.529  10.069 -0.8631 -1.4803 -0.4839
 3467SOL     OW21859   0.253   2.968   7.513 -0.1512  0.2978  0.0170
 3467SOL    HW121860   0.230   2.900   7.576  1.1836 -0.1505  0.0111
 3467SOL    HW221861   0.219   2.925   7.434 -0.5817  0.3450  0.1786
 3468SOL     OW21862   2.158   2.520   2.759  0.7175 -0.1470  0.3760
 3468SOL    HW121863   2.092   2.471   2.709 -2.5329  0.9292  3.5955
 3468SOL    HW221864   2.209   2.450   2.799 -0.2912 -0.6555  0.7735
 3469SOL     OW21865   3.173   2.972  15.480 -0.1321 -0.2396  0.3931
 3469SOL    HW121866   3.173   3.041  15.415 -0.9564 -0.5011  0.1160
 3469SOL    HW221867   3.266   2.949  15.481 -0.0306  0.2432  2.2885
 3470SOL     OW21868   2.476   3.765   1.752  0.1834  0.8390  0.1659
 3470SOL    HW121869   2.394   3.814   1.758 -0.3505 -0.1351  0.9756
 3470SOL    HW221870   2.449   3.685   1.798  1.2847 -0.2643 -1.0973
 3471SOL     OW21871   3.382   3.208   8.763  0.2407  0.1982 -0.5028
 3471SOL    HW121872   3.415   3.131   8.809 -0.5788  1.3620  2.0378
 3471SOL    HW221873   3.380   3.179   8.672  0.5240  0.2074 -0.5119
 3472SOL     OW21874   3.880   1.928   7.642  0.1579  0.8026 -0.4177
 3472SOL    HW121875   3.844   1.914   7.729  0.1047  2.7885 -0.1031
 3472SOL    HW221876   3.804   1.963   7.594 -1.2039  0.1040  1.2250
 3473SOL     OW21877   1.815   3.400   6.617  0.4692 -0.2780  0.2922
 3473SOL    HW121878   1.725   3.378   6.590  0.4191 -0.5816  0.7031
 3473SOL    HW221879   1.844   3.309   6.608  2.2896  0.3216  0.2756
 3474SOL     OW21880   3.092   1.489   8.384 -0.2145  0.0207  0.5198
 3474SOL    HW121881   3.018   1.429   8.373 -0.6757  0.5130  0.9208
 3474SOL    HW221882   3.142   1.456   8.309  2.3591  1.1593  1.7471
 3475SOL     OW21883   4.446   2.887   4.125 -0.3667 -0.3033 -0.6578
 3475SOL    HW121884   4.531   2.931   4.131 -0.4162 -0.2647 -0.2360
 3475SOL    HW221885   4.419   2.905   4.035  0.9700  0.3303 -0.9347
 3476SOL     OW21886   3.923   2.189   4.334  0.9656  0.4607 -0.2936
 3476SOL    HW121887   3.895   2.241   4.259 -1.8566 -0.7562 -0.0823
 3476SOL    HW221888   3.963   2.256   4.390 -0.8532  2.7814 -1.7558
 3477SOL     OW21889   4.674   0.154   6.431  0.1244 -0.0058  0.3084
 3477SOL    HW121890   4.634   0.222   6.377 -2.5331 -0.7452  1.3529
 3477SOL    HW221891   0.015   0.210   6.474  0.8354  0.8439 -1.8187
 3478SOL     OW21892   4.372   3.248   4.804  0.5574  0.0441  0.5502
 3478SOL    HW121893   4.417   3.246   4.889  1.6303  1.1215 -0.0062
 3478SOL    HW221894   4.408   3.327   4.765  2.9844 -1.6800 -0.7002
 3479SOL     OW21895   2.074   2.252   3.445  0.3135 -0.6534 -0.0377
 3479SOL    HW121896   2.037   2.312   3.381 -1.8576  0.1450  1.9749
 3479SOL    HW221897   2.002   2.191   3.461 -0.7531  0.6299 -0.0083
 3480SOL     OW21898   1.129   1.653   3.205 -0.0676  0.2292  0.7405
 3480SOL    HW121899   1.131   1.691   3.118  1.8745 -0.7842  0.3569
 3480SOL    HW221900   1.200   1.591   3.188  1.0906  1.3471  1.4985
 3481SOL     OW21901   2.890   3.329  14.826 -0.7032 -0.1087 -0.1928
 3481SOL    HW121902   2.891   3.407  14.881 -2.9300  0.5320 -1.0538
 3481SOL    HW221903   2.980   3.299  14.839 -0.8791 -0.6275 -0.1757
 3482SOL     OW21904   3.814   1.131   4.334 -0.7090 -0.1029  0.1813
 3482SOL    HW121905   3.833   1.165   4.247 -2.5173 -0.7042 -0.4319
 3482SOL    HW221906   3.732   1.179   4.341  0.4622  1.9046  0.1150
 3483SOL     OW21907   1.016   0.527   2.663  0.4224  0.9108 -0.0192
 3483SOL    HW121908   0.976   0.492   2.743  1.8828  0.9432  0.7248
 3483SOL    HW221909   0.948   0.514   2.597 -0.9651  0.0637  1.5768
 3484SOL     OW21910   2.263   1.388   2.959  0.3732  0.1984 -0.2008
 3484SOL    HW121911   2.302   1.441   2.889 -1.8214  0.8981 -0.8786
 3484SOL    HW221912   2.326   1.402   3.030 -0.7490  1.2569  0.5770
 3485SOL     OW21913   0.622   0.177   7.312 -0.1714  0.0438 -0.0088
 3485SOL    HW121914   0.581   0.219   7.388 -0.1087 -0.7030  0.4337
 3485SOL    HW221915   0.708   0.217   7.321  0.1494 -0.8738  1.0058
 3486SOL     OW21916   0.748   4.403   2.483  0.2377  0.4832  0.1744
 3486SOL    HW121917   0.799   4.397   2.564  1.4076 -0.3088 -0.6314
 3486SOL    HW221918   0.701   4.486   2.478  0.5935  0.6508 -0.3469
 3487SOL     OW21919   1.691   0.774   7.133  0.3818  0.3885 -0.6610
 3487SOL    HW121920   1.635   0.775   7.056  1.8635 -0.6798 -1.7670
 3487SOL    HW221921   1.659   0.848   7.185  2.6277  0.6865  0.3321
 3488SOL     OW21922   2.248   2.799   5.432  0.0545 -0.1744  0.2459
 3488SOL    HW121923   2.193   2.874   5.408 -1.7881 -2.3018 -2.1767
 3488SOL    HW221924   2.244   2.740   5.357 -0.2383  2.3019 -1.6755
 3489SOL     OW21925   3.156   2.720   6.961 -0.1434  0.3863 -0.3789
 3489SOL    HW121926   3.153   2.814   6.945  0.2883  0.6090  0.8740
 3489SOL    HW221927   3.209   2.696   6.885 -0.1338 -0.3993 -0.1243
 3490SOL     OW21928   4.093   2.540   4.222  0.3944  0.3595 -0.3282
 3490SOL    HW121929   4.160   2.596   4.182  1.4238 -2.1144 -2.0808
 3490SOL    HW221930   4.137   2.455   4.230  0.8173  0.8146  2.1079
 3491SOL     OW21931   3.895   4.350   8.430  0.0838  0.0847 -0.2605
 3491SOL    HW121932   3.849   4.422   8.387  1.9703  0.7126 -1.2054
 3491SOL    HW221933   3.927   4.404   8.503  2.4349  0.2465 -1.4038
 3492SOL     OW21934   4.496   3.877   2.021  0.0058  0.4228 -0.2090
 3492SOL    HW121935   4.482   3.940   1.949  0.4917 -1.3861 -1.8847
 3492SOL    HW221936   4.591   3.862   2.023 -0.0723 -0.1206 -0.5404
 3493SOL     OW21937   0.279   0.981   4.740 -0.1187  0.5462  0.1111
 3493SOL    HW121938   0.366   0.972   4.777 -0.2727  1.8519  0.8181
 3493SOL    HW221939   0.293   1.059   4.686  1.9842 -0.6836 -1.1071
 3494SOL     OW21940   1.995   2.387   4.482 -0.1613  0.6173 -0.0769
 3494SOL    HW121941   2.006   2.406   4.575 -1.6817 -0.9469  0.4273
 3494SOL    HW221942   1.900   2.381   4.474 -0.2480  2.2953 -0.2271
 3495SOL     OW21943   0.771   3.359   7.320 -0.6001  0.0935 -0.3838
 3495SOL    HW121944   0.867   3.353   7.325 -0.6923 -0.6133  0.5608
 3495SOL    HW221945   0.768   3.429   7.255 -1.7877  1.5881  1.2688
 3496SOL     OW21946   0.454   2.224  11.760  0.3990  0.2829  0.0983
 3496SOL    HW121947   0.430   2.143  11.715 -0.4504  1.8723 -2.3133
 3496SOL    HW221948   0.548   2.217  11.778  0.4978  0.6157 -0.2900
 3497SOL     OW21949   1.033   2.197   4.923  0.3117  0.1578  0.1275
 3497SOL    HW121950   0.947   2.157   4.913 -0.5063  2.0801 -0.7523
 3497SOL    HW221951   1.082   2.143   4.862  1.3330 -0.6574  1.6753
 3498SOL     OW21952   2.754   1.328  12.115 -0.2114  0.2407  0.1415
 3498SOL    HW121953   2.680   1.341  12.056  1.6056  2.0158 -1.7324
 3498SOL    HW221954   2.715   1.361  12.196  0.2381  1.3346 -0.0941
 3499SOL     OW21955   4.445   3.122   6.067 -0.1207 -0.1812 -0.0081
 3499SOL    HW121956   4.465   3.053   6.130 -1.5774 -1.0482 -0.4960
 3499SOL    HW221957   4.512   3.096   6.005 -0.3514  1.7150 -1.0539
 3500SOL     OW21958   1.228   3.821   3.847 -0.0682 -0.3367  0.1465
 3500SOL    HW121959   1.310   3.774   3.833 -0.0560 -0.5622  1.0066
 3500SOL    HW221960   1.176   3.796   3.771 -0.4616 -3.2255  1.3619
 3501SOL     OW21961   0.519   0.228   0.355 -0.6333 -0.0246  0.3623
 3501SOL    HW121962   0.445   0.241   0.415  0.0510 -0.4135  1.2891
 3501SOL    HW221963   0.523   0.133   0.365 -2.7791 -0.5719 -4.1969
 3502SOL     OW21964   0.931   0.768   4.169  0.7804  0.7011 -0.1145
 3502SOL    HW121965   0.893   0.817   4.242 -1.9078 -1.8654  0.1684
 3502SOL    HW221966   0.959   0.683   4.204 -0.3697 -0.4987 -2.1097
 3503SOL     OW21967   4.578   2.083  16.606  0.5709  0.0711 -0.0368
 3503SOL    HW121968   4.656   2.128  16.574 -0.0240  0.4969 -0.9042
 3503SOL    HW221969   4.591   2.091  16.700 -1.7946 -2.5128  0.5292
 3504SOL     OW21970   1.778   1.025   9.347  0.2507 -1.0414 -0.3946
 3504SOL    HW121971   1.845   0.957   9.333  0.9056 -0.6184  0.6654
 3504SOL    HW221972   1.796   1.085   9.274  2.8898 -0.8328  0.4296
 3505SOL     OW21973   1.902   3.384  10.978 -0.4254  0.2041 -0.1787
 3505SOL    HW121974   1.890   3.350  10.889 -0.7886 -1.7455  0.6124
 3505SOL    HW221975   1.961   3.452  10.945  3.1168 -3.1265 -0.7588
 3506SOL     OW21976   2.800   3.110   7.523  0.4921 -0.3791  0.4983
 3506SOL    HW121977   2.892   3.120   7.546  0.4133 -0.2137  0.7409
 3506SOL    HW221978   2.782   3.023   7.558 -1.2664 -1.1775 -2.3473
 3507SOL     OW21979   2.132   1.856   9.998  0.0417  0.5388  0.4959
 3507SOL    HW121980   2.222   1.853  10.030 -0.5305 -1.9399  1.8919
 3507SOL    HW221981   2.140   1.831   9.906 -2.6812  0.4996  0.2719
 3508SOL     OW21982   3.615   0.114   2.852 -0.5012  1.0500 -0.0513
 3508SOL    HW121983   3.666   0.118   2.771 -3.7964  2.8587 -2.0340
 3508SOL    HW221984   3.679   0.148   2.914  0.9335 -1.6505 -0.0552
 3509SOL     OW21985   2.358   1.744   4.773 -0.0401  0.1402 -0.1076
 3509SOL    HW121986   2.361   1.689   4.695  1.6810  0.1191 -0.0446
 3509SOL    HW221987   2.318   1.690   4.842 -1.1402  1.5196  0.3184
 3510SOL     OW21988   2.881   4.476   1.194 -0.0873  0.3145 -0.3761
 3510SOL    HW121989   2.799   4.500   1.151 -1.3591  0.3291  2.0786
 3510SOL    HW221990   2.944   4.517   1.134 -2.0343  0.7178 -2.1183
 3511SOL     OW21991   0.959   0.152   5.739 -0.0221  0.0000  0.6491
 3511SOL    HW121992   0.915   0.237   5.745  0.3528  0.3432 -1.4843
 3511SOL    HW221993   0.935   0.124   5.827  0.3473 -0.0678  0.7287
 3512SOL     OW21994   4.372   4.602   8.755  0.0874  0.4075  0.9786
 3512SOL    HW121995   4.424   4.682   8.748  1.0327 -0.4074 -1.2357
 3512SOL    HW221996   4.318   4.600   8.676  0.1987 -3.0989  0.9805
 3513SOL     OW21997   2.743   3.193  11.508  0.0897  0.2903 -0.0279
 3513SOL    HW121998   2.746   3.223  11.417  0.0316 -1.2921 -0.5508
 3513SOL    HW221999   2.718   3.101  11.503 -1.2301  0.6551  0.0011
 3514SOL     OW22000   4.330   2.032   1.960 -0.3894  0.0247  0.2959
 3514SOL    HW122001   4.361   2.015   2.049 -0.2766 -0.6415  0.1270
 3514SOL    HW222002   4.341   1.944   1.924 -0.5277  0.7291 -1.4457
 3515SOL     OW22003   0.066   2.021   7.706 -0.5409  0.2000  0.1108
 3515SOL    HW122004   0.152   2.031   7.747  0.4027 -2.5759 -1.2504
 3515SOL    HW222005   0.073   2.099   7.650  1.1763 -0.0513 -0.0312
 3516SOL     OW22006   2.958   1.691  16.540  0.6129 -0.2749 -0.3678
 3516SOL    HW122007   3.040   1.727  16.574  0.3686 -0.4210  0.3711
 3516SOL    HW222008   2.912   1.702  16.623  0.2638  0.3509 -0.6448
 3517SOL     OW22009   3.479   3.145   2.019  0.0286 -0.4051 -0.2693
 3517SOL    HW122010   3.563   3.100   2.031  0.7656  0.7301 -1.2611
 3517SOL    HW222011   3.434   3.078   1.967  1.5620  0.2543 -2.4493
 3518SOL     OW22012   1.914   1.538   9.443  0.0977  0.2268  0.0765
 3518SOL    HW122013   1.880   1.456   9.409 -1.0865  1.0919 -0.8154
 3518SOL    HW222014   1.997   1.521   9.488  1.2459 -1.0559 -2.5020
 3519SOL     OW22015   3.888   0.083  11.929  0.6041 -0.1300 -0.2515
 3519SOL    HW122016   3.946   0.107  12.001 -0.1672  1.2295 -0.0804
 3519SOL    HW222017   3.917   0.145  11.863 -1.1257  0.8250 -0.1008
 3520SOL     OW22018   4.274   2.082   0.934 -0.0545  0.1357  0.2650
 3520SOL    HW122019   4.308   2.068   0.846  1.3113 -0.3806  0.8712
 3520SOL    HW222020   4.256   1.990   0.956 -0.7349 -0.0521 -1.0803
 3521SOL     OW22021   2.006   3.549   5.954  0.5179 -0.2922  0.3114
 3521SOL    HW122022   1.916   3.527   5.931  0.2248 -1.8309  2.8329
 3521SOL    HW222023   2.059   3.494   5.896 -1.3612 -1.7280 -0.0590
 3522SOL     OW22024   2.368   4.452  13.986  0.1450 -0.2603  0.1202
 3522SOL    HW122025   2.343   4.414  14.071 -0.8222 -0.0700 -0.0818
 3522SOL    HW222026   2.297   4.409  13.938  1.5447 -2.3477 -0.1084
 3523SOL     OW22027   1.748   2.576   0.429 -0.7963  0.2613  0.4084
 3523SOL    HW122028   1.711   2.637   0.366  0.5254  1.2616  0.6133
 3523SOL    HW222029   1.764   2.503   0.368 -2.0466 -1.2751  1.9000
 3524SOL     OW22030   1.451   1.081  10.751 -0.4953 -0.1904 -0.3362
 3524SOL    HW122031   1.485   1.140  10.819 -1.8936  1.6071 -1.1830
 3524SOL    HW222032   1.431   0.998  10.795  1.2676 -1.4894 -2.0015
 3525SOL     OW22033   3.241   2.702   7.270  0.3114  0.1051  0.0845
 3525SOL    HW122034   3.299   2.676   7.197  0.4944 -1.0447  0.6380
 3525SOL    HW222035   3.223   2.794   7.250  1.5430  0.6780  1.6162
 3526SOL     OW22036   3.871   2.900  13.868 -0.1723 -0.6572 -0.0982
 3526SOL    HW122037   3.921   2.971  13.828 -0.0903  0.8596  2.7131
 3526SOL    HW222038   3.783   2.933  13.853 -0.1071  0.0788  1.0668
 3527SOL     OW22039   1.971   3.149  15.205  0.5509 -0.0746  0.7730
 3527SOL    HW122040   1.953   3.236  15.241 -2.9203 -0.7681  0.6923
 3527SOL    HW222041   1.906   3.133  15.137  1.7240 -1.4911 -0.0345
 3528SOL     OW22042   0.952   1.864  16.682  0.7817  0.1264 -0.1579
 3528SOL    HW122043   0.900   1.828  16.754  1.0968  0.0503  0.0314
 3528SOL    HW222044   1.024   1.910  16.725 -0.3845  0.7150  1.1821
 3529SOL     OW22045   3.305   1.083   8.300  0.5803 -0.1664 -0.2785
 3529SOL    HW122046   3.351   1.154   8.344  0.4781 -0.2754  0.0059
 3529SOL    HW222047   3.379   1.022   8.295 -0.1150 -1.1845  1.8274
 3530SOL     OW22048   2.727   0.619   8.152 -0.5544  0.7197 -0.2351
 3530SOL    HW122049   2.743   0.538   8.102 -0.7765 -0.0583  0.9648
 3530SOL    HW222050   2.733   0.686   8.084  0.3770 -0.2401 -1.1204
 3531SOL     OW22051   2.636   2.990   1.946  0.6833  0.0252 -0.1437
 3531SOL    HW122052   2.592   2.925   1.891 -0.4431 -0.4491  1.3455
 3531SOL    HW222053   2.727   2.969   1.924  0.8847  2.1782 -1.3897
 3532SOL     OW22054   4.215   0.381   3.021 -0.5098  0.6575 -0.2015
 3532SOL    HW122055   4.178   0.453   2.969 -1.8990 -2.1639 -3.0927
 3532SOL    HW222056   4.185   0.305   2.971  0.3543  0.5959 -0.6365
 3533SOL     OW22057   2.191   0.792   5.329 -0.0705  0.0905  0.7071
 3533SOL    HW122058   2.275   0.762   5.296 -0.8290  0.1400 -1.2768
 3533SOL    HW222059   2.206   0.787   5.423 -1.5929  1.2661  1.0147
 3534SOL     OW22060   0.106   4.540  12.043  0.7503 -0.0623  0.3135
 3534SOL    HW122061   0.071   4.465  11.996  1.1917 -0.6278  0.8785
 3534SOL    HW222062   0.071   4.543  12.132 -0.7284 -0.1345 -0.2786
 3535SOL     OW22063   2.962   4.631   4.447 -0.6109  0.0341  0.0611
 3535SOL    HW122064   2.901   4.689   4.492 -1.8211 -1.4497  0.3270
 3535SOL    HW222065   3.049   4.667   4.464 -1.3609  1.0181  1.8281
 3536SOL     OW22066   0.261   3.467  16.922  0.2573 -0.3561  0.4538
 3536SOL    HW122067   0.295   3.382  16.950 -0.7953 -2.0694 -3.4775
 3536SOL    HW222068   0.340   3.519  16.928 -1.5107  2.1651  1.8749
 3537SOL     OW22069   4.040   2.988   3.444  0.5674  0.0208 -0.3568
 3537SOL    HW122070   4.058   2.922   3.377 -1.7887 -0.5979 -0.3884
 3537SOL    HW222071   3.986   2.940   3.507  0.5441 -0.9218 -1.0868
 3538SOL     OW22072   1.923   1.452   1.567 -0.4477  0.3142 -0.0929
 3538SOL    HW122073   2.002   1.496   1.597 -0.4350  2.1954 -2.9258
 3538SOL    HW222074   1.953   1.393   1.497  0.8270  0.4798  0.3225
 3539SOL     OW22075   3.724   4.046   5.124 -0.1039 -0.4951 -0.3018
 3539SOL    HW122076   3.782   3.971   5.113 -0.1914 -0.0858 -3.8601
 3539SOL    HW222077   3.778   4.125   5.117 -1.7523  0.5427 -1.4891
 3540SOL     OW22078   1.179   1.930   3.408  0.0540  0.6242  0.2348
 3540SOL    HW122079   1.251   1.930   3.344 -0.9407 -0.3282 -0.8833
 3540SOL    HW222080   1.134   1.856   3.367  0.3697 -0.4796  1.8704
 3541SOL     OW22081   1.580   0.099   6.458 -0.4690 -0.4079 -0.1451
 3541SOL    HW122082   1.571   0.174   6.398  0.6482 -0.3038 -0.1792
 3541SOL    HW222083   1.559   0.032   6.393  0.2067  0.0126 -0.8107
 3542SOL     OW22084   0.823   4.227   4.005  0.0904  0.4902 -0.0524
 3542SOL    HW122085   0.789   4.304   3.961 -0.9158  1.3262  2.1675
 3542SOL    HW222086   0.915   4.252   4.011 -0.1697  1.5154 -0.3079
 3543SOL     OW22087   1.985   4.613   7.162  0.0210 -0.4440  0.0873
 3543SOL    HW122088   1.979   4.673   7.088  0.4144  1.5586  1.6665
 3543SOL    HW222089   1.895   4.620   7.193 -0.9873  0.0827 -2.9957
 3544SOL     OW22090   4.315   0.734   1.645 -0.2958 -0.0189  0.5176
 3544SOL    HW122091   4.224   0.703   1.649 -0.4662  0.4189  0.0551
 3544SOL    HW222092   4.349   0.699   1.727 -1.7584  0.1012  1.1728
 3545SOL     OW22093   1.187   0.920   1.064  0.0996 -0.6893 -0.1682
 3545SOL    HW122094   1.166   0.906   1.157  0.1640  0.2670 -0.0095
 3545SOL    HW222095   1.282   0.923   1.065  0.0811 -0.3958  1.2813
 3546SOL     OW22096   3.330   3.371  16.159  0.5470  0.4146  0.9205
 3546SOL    HW122097   3.234   3.370  16.153  0.6434 -0.1313 -0.4492
 3546SOL    HW222098   3.356   3.413  16.078  0.5034  0.1481  0.7683
 3547SOL     OW22099   2.154   0.200   8.355 -0.0660  0.1828  0.0823
 3547SOL    HW122100   2.226   0.260   8.372  0.8785 -0.4084 -1.9127
 3547SOL    HW222101   2.080   0.260   8.352  0.6030  1.0286  0.5248
 3548SOL     OW22102   3.337   4.249   4.063  0.4627  0.3548 -0.4845
 3548SOL    HW122103   3.346   4.313   3.992 -0.4770 -0.2910 -1.1786
 3548SOL    HW222104   3.278   4.176   4.043  1.7677 -0.8538  0.0651
 3549SOL     OW22105   1.692   0.447   7.826 -0.2880 -0.2492  0.3283
 3549SOL    HW122106   1.746   0.526   7.831 -1.1355  0.3304  0.5082
 3549SOL    HW222107   1.696   0.414   7.916 -0.2374  0.3848  0.5626
 3550SOL     OW22108   1.006   3.026  15.805 -0.4739 -0.1492 -0.6045
 3550SOL    HW122109   1.048   3.109  15.782  1.6187 -0.7333  1.0432
 3550SOL    HW222110   1.069   2.959  15.776 -0.1778 -0.9912  1.9935
 3551SOL     OW22111   4.370   4.678  12.526 -0.0631  0.0113 -0.5237
 3551SOL    HW122112   4.345   4.669  12.618  0.0780 -0.6412 -0.5480
 3551SOL    HW222113   4.339   4.600  12.480 -1.8943 -0.0062  0.7536
 3552SOL     OW22114   3.250   3.349   1.303  0.6288  0.5591 -0.6262
 3552SOL    HW122115   3.295   3.406   1.364  1.9913 -1.0173 -0.1669
 3552SOL    HW222116   3.209   3.281   1.357  2.4445  0.7051  0.9153
 3553SOL     OW22117   1.758   3.812   5.623  0.0567 -0.2608  0.0717
 3553SOL    HW122118   1.799   3.726   5.624  0.2075 -0.1921 -0.1694
 3553SOL    HW222119   1.776   3.841   5.534  0.7363 -0.0372  0.2802
 3554SOL     OW22120   1.365   0.058   4.995 -0.2270  0.0479  0.0764
 3554SOL    HW122121   1.364   4.706   5.055 -2.6746  1.3648  1.6796
 3554SOL    HW222122   1.338   0.122   5.061  0.7710  0.0772  0.4543
 3555SOL     OW22123   0.136   4.280  11.885 -0.0177  0.3652  0.0616
 3555SOL    HW122124   0.066   4.220  11.909  0.7335  0.5002  2.6010
 3555SOL    HW222125   0.110   4.299  11.795 -0.1439  1.2719  0.2926
 3556SOL     OW22126   1.562   3.067   3.857 -0.0308 -0.1736  0.0359
 3556SOL    HW122127   1.492   3.129   3.837 -0.6390 -0.5223  1.0991
 3556SOL    HW222128   1.545   3.004   3.787  0.4986  0.4495 -0.6494
 3557SOL     OW22129   3.240   0.100   6.851  0.2508  0.1806  0.4584
 3557SOL    HW122130   3.159   0.049   6.846 -1.1108  2.1584  2.4857
 3557SOL    HW222131   3.289   0.049   6.786  0.9625  1.6806 -0.1774
 3558SOL     OW22132   4.103   3.435  15.794  0.0076  0.5959 -0.0469
 3558SOL    HW122133   4.124   3.399  15.708  1.0359  0.9370  0.0644
 3558SOL    HW222134   4.065   3.520  15.771 -1.2185  0.3704  1.1221
 3559SOL     OW22135   0.691   3.170   3.074 -0.0771  0.2957  0.2690
 3559SOL    HW122136   0.620   3.183   3.137  1.7900  0.6800  2.2963
 3559SOL    HW222137   0.690   3.256   3.031  1.1078 -0.3124 -0.9703
 3560SOL     OW22138   0.216   1.822   2.588 -1.1881 -0.2629 -1.3468
 3560SOL    HW122139   0.123   1.811   2.605 -1.1879  2.0022  0.0724
 3560SOL    HW222140   0.213   1.918   2.589  1.9408 -0.1610 -0.3272
 3561SOL     OW22141   0.022   0.063   5.864 -0.0054  0.3127 -0.5072
 3561SOL    HW122142   4.707   0.104   5.942 -0.0065  2.5412 -1.6787
 3561SOL    HW222143   4.671   0.036   5.809  1.7335  1.0566 -3.2131
 3562SOL     OW22144   1.072   2.965   7.412  0.4827 -0.1921 -0.8334
 3562SOL    HW122145   1.042   2.903   7.478 -0.0338 -0.2718 -1.1442
 3562SOL    HW222146   1.133   2.917   7.355  2.0749  0.4273  0.3467
 3563SOL     OW22147   1.582   2.547   5.827  0.0759 -0.1888 -0.3226
 3563SOL    HW122148   1.500   2.517   5.865  0.3247 -0.1276  0.2570
 3563SOL    HW222149   1.654   2.508   5.877  0.4472 -2.8837 -2.9329
 3564SOL     OW22150   3.877   2.742  17.132  0.5355  0.2776 -0.1742
 3564SOL    HW122151   3.828   2.789  17.065  0.9897  0.3733 -0.4363
 3564SOL    HW222152   3.947   2.807  17.142  0.0516  0.6912  0.5340
 3565SOL     OW22153   1.007   1.658   7.515  0.3523 -0.3249 -0.2637
 3565SOL    HW122154   1.024   1.614   7.598  0.1812  1.0446  0.5132
 3565SOL    HW222155   0.966   1.742   7.538 -1.3142 -1.4019  0.7108
 3566SOL     OW22156   3.532   0.338  14.993 -0.2158  0.0609  0.1548
 3566SOL    HW122157   3.466   0.389  15.040  0.2305  0.3408  0.4742
 3566SOL    HW222158   3.561   0.409  14.935  1.5991 -1.4921 -0.8322
 3567SOL     OW22159   0.868   4.402  12.340  0.3180 -0.8717 -0.1559
 3567SOL    HW122160   0.840   4.313  12.363  0.7408 -0.4668  1.9979
 3567SOL    HW222161   0.797   4.452  12.380  0.2519  0.1079 -1.5157
 3568SOL     OW22162   3.625   4.201  14.079 -0.1046  0.0254  0.1482
 3568SOL    HW122163   3.636   4.112  14.112  2.4832 -0.1645 -1.2151
 3568SOL    HW222164   3.601   4.253  14.156  1.7499 -2.5646  2.4711
 3569SOL     OW22165   2.110   1.077   2.066  0.1598 -0.0336  0.3565
 3569SOL    HW122166   2.158   1.154   2.095 -1.0161  0.9838 -0.3795
 3569SOL    HW222167   2.143   1.011   2.127 -1.4596  1.2807  2.6771
 3570SOL     OW22168   3.084   1.032   7.032  0.6008 -0.6223  0.1720
 3570SOL    HW122169   2.992   1.005   7.029  0.1579  0.5837  3.2885
 3570SOL    HW222170   3.074   1.117   7.075 -0.1857 -1.2856  1.3123
 3571SOL     OW22171   1.059   4.361  13.779  0.4476  0.3385 -0.0864
 3571SOL    HW122172   1.117   4.293  13.811  0.8126  0.6106 -0.1631
 3571SOL    HW222173   1.003   4.317  13.715  0.7737 -0.2241  0.0135
 3572SOL     OW22174   1.022   0.447   0.747 -0.1462 -0.4163 -0.1071
 3572SOL    HW122175   1.107   0.403   0.739 -0.6187 -1.3153 -0.2279
 3572SOL    HW222176   0.992   0.413   0.831  0.7769  0.6852  0.6657
 3573SOL     OW22177   1.066   1.583   1.165 -0.1615  0.6195  0.1220
 3573SOL    HW122178   1.085   1.612   1.254 -1.2174  0.2138  0.4727
 3573SOL    HW222179   1.047   1.671   1.130  0.2814  0.4273 -0.6018
 3574SOL     OW22180   1.780   2.373   0.837 -0.1203 -0.3321  0.1303
 3574SOL    HW122181   1.872   2.370   0.809  0.1357  2.5833  0.6523
 3574SOL    HW222182   1.747   2.462   0.821 -3.0136 -1.2546  1.1230
 3575SOL     OW22183   4.375   2.279  15.360 -0.1435 -0.0558  0.2719
 3575SOL    HW122184   4.431   2.232  15.299  0.1483  1.9281 -0.9685
 3575SOL    HW222185   4.294   2.276  15.309  0.6898  0.8414 -1.1003
 3576SOL     OW22186   0.109   0.322   5.527  0.4898  0.4173  0.3466
 3576SOL    HW122187   0.202   0.333   5.508  0.3166 -0.9735 -1.2997
 3576SOL    HW222188   0.072   0.397   5.481 -0.4565 -0.3153 -0.1044
 3577SOL     OW22189   1.772   1.038  17.346  0.6168 -0.0770 -0.0551
 3577SOL    HW122190   1.756   1.121  17.301 -1.4924 -2.2139 -3.3029
 3577SOL    HW222191   1.862   1.060  17.367  0.2885  1.2382 -0.0313
 3578SOL     OW22192   3.308   2.327   6.901 -0.3233 -0.0632  0.3364
 3578SOL    HW122193   3.279   2.381   6.974 -0.5227  1.4121 -0.8319
 3578SOL    HW222194   3.301   2.237   6.931  1.3762 -0.5190 -0.6250
 3579SOL     OW22195   4.565   1.059  16.453  0.4633  0.4308 -0.6421
 3579SOL    HW122196   4.593   0.986  16.397  0.2541 -0.2980  0.2160
 3579SOL    HW222197   4.473   1.043  16.473  0.6414 -0.2830 -0.3891
 3580SOL     OW22198   4.432   2.869   6.192 -0.6040 -0.2232 -0.3331
 3580SOL    HW122199   4.345   2.837   6.216 -0.2591 -1.2417 -0.4685
 3580SOL    HW222200   4.470   2.785   6.168 -0.4122 -0.6010  1.2436
 3581SOL     OW22201   4.540   3.886   0.995 -0.3710  0.3779 -0.0841
 3581SOL    HW122202   4.525   3.881   1.089 -2.1427  0.0550 -0.3847
 3581SOL    HW222203   4.544   3.978   0.968  0.0076 -0.0586 -1.4904
 3582SOL     OW22204   4.465   1.436  13.401 -0.4159 -0.0423 -0.4259
 3582SOL    HW122205   4.428   1.358  13.443  1.4273 -1.5186 -1.5332
 3582SOL    HW222206   4.454   1.423  13.307  1.4480 -1.5015 -0.4528
 3583SOL     OW22207   2.921   3.438   4.659  0.5294 -0.3721  0.2293
 3583SOL    HW122208   2.953   3.518   4.617 -1.7542  0.0119 -0.7800
 3583SOL    HW222209   2.994   3.426   4.720  1.1232  0.3162 -0.3412
 3584SOL     OW22210   3.707   1.583   5.253  0.0237 -0.1739  0.4762
 3584SOL    HW122211   3.649   1.536   5.313  2.2068 -0.4847  2.3933
 3584SOL    HW222212   3.790   1.543   5.280 -2.2442 -4.0806  1.6979
 3585SOL     OW22213   0.210   0.515  13.270  0.4502 -0.3057  0.2163
 3585SOL    HW122214   0.293   0.545  13.306  1.0521  0.4238 -1.8060
 3585SOL    HW222215   0.162   0.477  13.344  1.1597 -0.0218  0.8088
 3586SOL     OW22216   0.425   1.773   8.542 -0.6023  0.6669 -0.4548
 3586SOL    HW122217   0.351   1.717   8.517  0.3947 -0.6155 -0.5233
 3586SOL    HW222218   0.377   1.841   8.589  0.0639 -1.1988  2.9544
 3587SOL     OW22219   0.377   0.773   3.794 -0.2337 -0.0982 -0.5072
 3587SOL    HW122220   0.353   0.750   3.884  0.6856  2.6065  0.4349
 3587SOL    HW222221   0.405   0.864   3.804  1.4425 -0.5507 -1.0739
 3588SOL     OW22222   4.527   2.528   9.964  0.1287  0.0432  0.0269
 3588SOL    HW122223   4.453   2.514   9.904 -1.5019 -2.1867  2.5461
 3588SOL    HW222224   4.575   2.604   9.931  2.1662 -1.2650  0.0259
 3589SOL     OW22225   4.215   2.180   2.614 -0.0201  0.3409 -0.2299
 3589SOL    HW122226   4.121   2.173   2.624  0.2213  0.1643  1.8144
 3589SOL    HW222227   4.228   2.274   2.598  0.9099  0.5523  1.7963
 3590SOL     OW22228   1.433   3.799   9.492 -0.2854 -0.8656 -0.6660
 3590SOL    HW122229   1.397   3.732   9.550  0.1073 -0.7510 -0.2903
 3590SOL    HW222230   1.380   3.871   9.526  0.2518 -1.1253  0.7004
 3591SOL     OW22231   0.555   0.202  14.754 -0.7106  0.2064  0.0994
 3591SOL    HW122232   0.460   0.200  14.753 -0.7271 -0.4917  2.8417
 3591SOL    HW222233   0.564   0.258  14.831 -2.2332  2.4753 -1.3718
 3592SOL     OW22234   1.823   1.862   4.685  0.2768 -0.1291 -0.4100
 3592SOL    HW122235   1.888   1.840   4.752 -0.3432 -0.4802  0.0770
 3592SOL    HW222236   1.871   1.873   4.603 -1.5958  0.4067 -1.4320
 3593SOL     OW22237   1.853   2.783   2.774  0.1937  0.1642  0.2777
 3593SOL    HW122238   1.777   2.738   2.811  0.6527 -0.4845  0.4314
 3593SOL    HW222239   1.916   2.769   2.844 -0.6152  1.2689  1.2293
 3594SOL     OW22240   1.177   1.552  16.936  0.0098  0.1712 -0.1168
 3594SOL    HW122241   1.252   1.513  16.891  0.4834  2.4245 -1.2817
 3594SOL    HW222242   1.111   1.496  16.896 -0.5056 -0.0819  1.1039
 3595SOL     OW22243   1.348   1.738   7.106 -0.0521 -0.2411  0.1552
 3595SOL    HW122244   1.410   1.740   7.179 -1.0654 -1.0942  1.0346
 3595SOL    HW222245   1.281   1.682   7.144 -1.9340  1.0376 -1.2843
 3596SOL     OW22246   2.589   0.793  15.686  0.2237 -0.1968  0.5286
 3596SOL    HW122247   2.551   0.706  15.669 -0.5825  0.1657  0.4604
 3596SOL    HW222248   2.527   0.823  15.752 -1.9397 -3.4696  0.0187
 3597SOL     OW22249   0.882   2.814   7.651  0.4652  0.0859  0.2168
 3597SOL    HW122250   0.844   2.899   7.628  0.3438  0.0988  0.4712
 3597SOL    HW222251   0.925   2.837   7.734 -0.0586  1.1695  0.1891
 3598SOL     OW22252   2.871   0.677  16.955 -0.0421  0.0074 -0.2717
 3598SOL    HW122253   2.800   0.733  16.985  1.7391  2.3553 -0.4447
 3598SOL    HW222254   2.885   0.705  16.865  0.6525 -2.3041 -0.8925
 3599SOL     OW22255   3.349   2.416  14.923  0.1576 -0.2286  0.2455
 3599SOL    HW122256   3.411   2.412  14.851 -0.4834  1.5884 -0.4247
 3599SOL    HW222257   3.290   2.347  14.893  1.2172 -1.2900  0.6268
 3600SOL     OW22258   3.575   0.946   2.220  0.0845  0.2737 -0.3036
 3600SOL    HW122259   3.625   0.888   2.277 -0.0942 -1.5115 -1.9557
 3600SOL    HW222260   3.640   0.981   2.158 -2.2880  0.0752 -2.9009
 3601SOL     OW22261   2.226   3.020  15.246 -0.0808 -0.1567 -0.6715
 3601SOL    HW122262   2.146   3.033  15.196 -1.0833 -1.3432  0.6252
 3601SOL    HW222263   2.209   3.066  15.329 -1.1449  0.2434 -1.1160
 3602SOL     OW22264   0.712   3.683   6.715 -0.5090  0.1825  0.2928
 3602SOL    HW122265   0.674   3.652   6.633 -2.4861 -1.4094  1.7854
 3602SOL    HW222266   0.706   3.776   6.697  1.8695  0.8282  2.8289
 3603SOL     OW22267   4.095   2.160   2.349 -0.0332  0.5383 -0.4660
 3603SOL    HW122268   4.148   2.179   2.272  0.3865 -1.0449 -0.5656
 3603SOL    HW222269   4.163   2.154   2.417 -2.3283 -0.9122  1.6891
 3604SOL     OW22270   4.344   4.119   0.383  0.1840 -0.5766 -0.7017
 3604SOL    HW122271   4.408   4.103   0.452 -1.3455 -1.1937  0.5848
 3604SOL    HW222272   4.272   4.137   0.444 -0.3357 -2.5610 -0.7535
 3605SOL     OW22273   0.597   0.993   3.766  0.3904 -0.4212  0.0025
 3605SOL    HW122274   0.640   0.996   3.681 -2.6024  2.4890 -1.3823
 3605SOL    HW222275   0.641   0.923   3.815  0.9983  1.4264  2.0680
 3606SOL     OW22276   0.331   4.606   7.614  0.4217  0.0321 -0.5190
 3606SOL    HW122277   0.385   4.685   7.622  1.4357 -0.8717  1.7133
 3606SOL    HW222278   0.395   4.536   7.600  0.4786 -0.2341  1.0458
 3607SOL     OW22279   4.639   2.793   8.484  0.1549 -0.2188  0.5823
 3607SOL    HW122280   4.636   2.820   8.575  0.1895  1.8944 -0.0379
 3607SOL    HW222281   4.581   2.717   8.478  0.1497 -0.1080 -0.9523
 3608SOL     OW22282   2.967   1.209   4.596 -0.8829 -0.4186  0.4572
 3608SOL    HW122283   3.031   1.273   4.627 -0.8318 -0.6970  0.9404
 3608SOL    HW222284   2.897   1.200   4.660  0.6528 -1.6427  1.9789
 3609SOL     OW22285   2.402   2.514   6.351 -0.6185  0.3958 -0.2166
 3609SOL    HW122286   2.488   2.546   6.325 -0.8375 -0.3069 -1.7920
 3609SOL    HW222287   2.343   2.561   6.292 -1.3230  1.5544  1.4096
 3610SOL     OW22288   3.599   1.457   6.391 -0.0283  0.2952 -0.0394
 3610SOL    HW122289   3.686   1.493   6.373  0.2101 -1.7833 -3.0795
 3610SOL    HW222290   3.577   1.430   6.302 -1.8769 -1.5694  0.9850
 3611SOL     OW22291   1.646   1.562   8.091  0.0300  0.4169 -0.1309
 3611SOL    HW122292   1.584   1.520   8.031 -0.8862  2.6079 -0.6907
 3611SOL    HW222293   1.659   1.501   8.164  2.5489  0.5225 -0.5169
 3612SOL     OW22294   0.755   3.298   3.433 -0.0791 -0.1192  0.1678
 3612SOL    HW122295   0.767   3.371   3.493 -0.4043 -2.6676  3.3415
 3612SOL    HW222296   0.713   3.346   3.361  1.0101 -3.2099 -2.5302
 3613SOL     OW22297   2.656   2.192   1.992 -0.1927 -1.8270  0.3708
 3613SOL    HW122298   2.575   2.233   2.021  0.5646  1.8306 -2.6534
 3613SOL    HW222299   2.646   2.100   2.015 -1.2504 -1.8093 -0.0506
 3614SOL     OW22300   4.234   0.061  12.286  0.7041 -0.0510  0.3319
 3614SOL    HW122301   4.256   0.039  12.377 -2.9085 -1.0377  0.9601
 3614SOL    HW222302   4.275   0.148  12.285  2.4211 -0.8308  1.8902
 3615SOL     OW22303   1.787   2.039   7.773 -0.5077 -0.3078  0.4810
 3615SOL    HW122304   1.859   2.096   7.801 -0.0349 -1.0954  0.8791
 3615SOL    HW222305   1.803   1.963   7.829  0.6436 -1.8705 -1.9859
 3616SOL     OW22306   2.462   2.474   2.284 -0.3284  0.0453 -0.2149
 3616SOL    HW122307   2.544   2.505   2.323  0.1051 -2.6740  1.0349
 3616SOL    HW222308   2.397   2.506   2.347 -0.5520 -0.7321 -0.0485
 3617SOL     OW22309   1.582   2.413   7.082  0.2112 -0.0521 -0.7194
 3617SOL    HW122310   1.552   2.408   7.173  1.7477  0.6444 -0.1812
 3617SOL    HW222311   1.500   2.422   7.034 -0.2775  0.1317  0.1434
 3618SOL     OW22312   0.855   0.859   8.830  0.0629 -0.2011  0.3505
 3618SOL    HW122313   0.926   0.809   8.871 -1.2285 -2.0207  0.3421
 3618SOL    HW222314   0.851   0.822   8.741  2.0561 -0.7080  0.4517
 3619SOL     OW22315   0.826   3.079   8.056  0.0368 -0.5620 -0.0081
 3619SOL    HW122316   0.853   3.164   8.022  1.3513 -0.5823  1.0059
 3619SOL    HW222317   0.843   3.089   8.150  1.2121 -2.4893 -0.0245
 3620SOL     OW22318   3.684   0.082   6.558 -0.5948 -0.5178  0.1145
 3620SOL    HW122319   3.662   0.165   6.601  1.4023 -0.0156  0.1706
 3620SOL    HW222320   3.778   0.104   6.558 -1.5376  3.5582  0.4871
 3621SOL     OW22321   3.815   1.559  11.992 -0.0262  0.0070 -0.1994
 3621SOL    HW122322   3.752   1.547  11.921 -0.2191 -1.1644  0.1730
 3621SOL    HW222323   3.878   1.617  11.950  0.9838 -1.0278 -0.1292
 3622SOL     OW22324   1.093   3.088   3.375  0.5882  0.1367 -0.0113
 3622SOL    HW122325   1.154   3.092   3.301 -0.6484  0.6821 -0.9864
 3622SOL    HW222326   1.009   3.077   3.332  0.1388  0.9729  0.6612
 3623SOL     OW22327   1.178   3.309   0.464 -0.3062  0.3058 -0.0481
 3623SOL    HW122328   1.263   3.346   0.487 -0.2332  0.5323 -0.6856
 3623SOL    HW222329   1.180   3.217   0.492  1.1629  0.0386 -1.0478
 3624SOL     OW22330   1.706   1.750   4.196 -0.3179 -0.7893 -0.3535
 3624SOL    HW122331   1.726   1.810   4.268  0.2518 -1.0039 -0.3350
 3624SOL    HW222332   1.640   1.692   4.235 -0.8170 -0.1939 -0.3094
 3625SOL     OW22333   3.125   4.244  10.199 -0.3746  0.4121 -0.7916
 3625SOL    HW122334   3.082   4.186  10.137  1.1687  0.1059 -1.5665
 3625SOL    HW222335   3.081   4.327  10.182 -0.2250 -0.1808 -3.9883
 3626SOL     OW22336   1.218   2.946  10.657 -0.4440  0.6129 -0.1119
 3626SOL    HW122337   1.279   3.020  10.664  0.7078 -0.1641 -1.9811
 3626SOL    HW222338   1.134   2.991  10.658 -0.3526  0.7481  1.7256
 3627SOL     OW22339   1.366   0.916   8.912 -0.0635  0.5048  0.3484
 3627SOL    HW122340   1.390   0.843   8.855 -1.1422  0.6244 -0.2796
 3627SOL    HW222341   1.276   0.900   8.939 -0.2882 -0.2684 -0.8279
 3628SOL     OW22342   3.464   0.891   4.293 -0.5896 -0.7198  0.4774
 3628SOL    HW122343   3.501   0.808   4.325  1.1605 -0.1811 -0.1562
 3628SOL    HW222344   3.460   0.870   4.200 -1.2199  1.7320 -0.0434
 3629SOL     OW22345   1.179   0.797   5.239  0.3764  0.7168  0.3146
 3629SOL    HW122346   1.244   0.743   5.284 -0.4549 -2.0270 -1.7887
 3629SOL    HW222347   1.189   0.890   5.262  2.0225  0.6490 -0.1249
 3630SOL     OW22348   1.216   2.074   5.373 -0.0645  0.2564  0.1551
 3630SOL    HW122349   1.279   2.016   5.416 -0.0551 -0.4589 -0.8392
 3630SOL    HW222350   1.251   2.070   5.284 -0.2013  0.9148  0.0712
 3631SOL     OW22351   0.904   3.020   6.411  0.3181  0.2764 -0.4860
 3631SOL    HW122352   0.933   2.944   6.360 -0.5299 -0.8078  0.6637
 3631SOL    HW222353   0.822   3.042   6.368 -1.5738  1.5183  3.7304
 3632SOL     OW22354   1.200   0.330  15.439 -0.1959 -0.0566 -0.0634
 3632SOL    HW122355   1.253   0.384  15.381  0.5938 -0.5487  0.2047
 3632SOL    HW222356   1.167   0.386  15.510 -0.7019 -0.9554  0.4054
 3633SOL     OW22357   3.296   4.689  12.324 -0.3397  0.1772  0.3495
 3633SOL    HW122358   3.322   4.614  12.272  1.4339  1.3520 -0.4822
 3633SOL    HW222359   3.202   4.681  12.312 -0.6120  3.1508  0.2905
 3634SOL     OW22360   2.787   2.264  11.599 -0.5936 -0.0293  0.1013
 3634SOL    HW122361   2.868   2.213  11.606  1.0872  2.3509 -1.8304
 3634SOL    HW222362   2.806   2.348  11.641  0.0733  0.2961 -0.8575
 3635SOL     OW22363   4.595   1.026  15.459 -0.3618  0.2920  0.1741
 3635SOL    HW122364   4.557   1.088  15.396  2.2866 -0.6033 -2.2860
 3635SOL    HW222365   4.556   1.053  15.542  0.2962  0.4093  0.4477
 3636SOL     OW22366   0.941   3.060   8.604 -0.0128 -0.2584 -0.3640
 3636SOL    HW122367   0.913   3.131   8.662  0.0232 -0.2859 -0.3122
 3636SOL    HW222368   1.005   3.110   8.554 -0.6476  1.8719  0.9309
 3637SOL     OW22369   1.522   4.077   8.826  0.5934  0.3062  0.0185
 3637SOL    HW122370   1.515   3.987   8.795 -0.5182  0.6427 -0.7342
 3637SOL    HW222371   1.500   4.115   8.741 -0.7830 -0.3101  0.0886
 3638SOL     OW22372   2.766   3.804  14.527  0.3871  0.2442 -0.0643
 3638SOL    HW122373   2.858   3.799  14.501  0.3989 -0.8164  0.1958
 3638SOL    HW222374   2.749   3.711  14.516 -0.8491  0.7635 -2.6130
 3639SOL     OW22375   1.464   2.809   6.154 -0.5067  0.7587 -0.9168
 3639SOL    HW122376   1.381   2.765   6.136  0.4815 -1.8917  0.9557
 3639SOL    HW222377   1.434   2.896   6.130 -2.7179 -0.1010 -1.2737
 3640SOL     OW22378   2.768   1.028  12.429 -0.0319 -0.0961 -0.1364
 3640SOL    HW122379   2.780   1.111  12.476  0.9552 -0.1534 -0.2908
 3640SOL    HW222380   2.673   1.031  12.420 -0.1869 -0.9538  1.1418
 3641SOL     OW22381   3.514   4.176   3.591 -0.0948 -0.5814  0.0479
 3641SOL    HW122382   3.564   4.094   3.594 -0.4256 -0.7894 -0.1231
 3641SOL    HW222383   3.564   4.233   3.650  0.5081 -0.0647 -0.9656
 3642SOL     OW22384   2.489   4.699  11.538  0.2371  0.2841  0.4846
 3642SOL    HW122385   2.429   0.040  11.576 -0.4255  0.6229 -1.1064
 3642SOL    HW222386   2.444   4.675  11.457 -1.6391  1.1713  1.2717
 3643SOL     OW22387   3.468   0.571  14.248  0.0692 -0.1457 -0.0593
 3643SOL    HW122388   3.537   0.603  14.306  0.4974 -2.8274  0.9263
 3643SOL    HW222389   3.452   0.653  14.202 -0.3374 -0.1001  0.1584
 3644SOL     OW22390   3.632   0.915  13.999  0.3687 -0.2029  0.4086
 3644SOL    HW122391   3.571   0.885  14.066  2.0501 -3.2495  0.5864
 3644SOL    HW222392   3.639   1.004  14.034  0.1301  1.0168 -2.7053
 3645SOL     OW22393   1.113   1.870   6.854 -0.7408  0.2485  0.1351
 3645SOL    HW122394   1.171   1.827   6.916  1.8855  0.7273 -2.0105
 3645SOL    HW222395   1.043   1.804   6.850 -0.7159  0.2427 -0.2230
 3646SOL     OW22396   1.296   1.684   7.419  0.1956  0.3849 -0.1668
 3646SOL    HW122397   1.201   1.690   7.406  0.0745  0.1779  0.6511
 3646SOL    HW222398   1.311   1.774   7.391 -0.5351  0.2906 -0.8708
 3647SOL     OW22399   3.511   2.812  15.036 -0.2626  0.3320  0.9843
 3647SOL    HW122400   3.606   2.808  15.044 -0.2369 -1.8528 -0.3174
 3647SOL    HW222401   3.501   2.765  14.953 -0.2175  1.9810  0.0584
 3648SOL     OW22402   1.667   4.446   2.703 -0.0077 -0.4740  0.1025
 3648SOL    HW122403   1.680   4.351   2.702  1.7460 -0.2305 -0.1096
 3648SOL    HW222404   1.573   4.456   2.716  0.4327 -0.0953  3.0261
 3649SOL     OW22405   2.272   3.863   4.895  0.3275  0.0695  0.3216
 3649SOL    HW122406   2.216   3.861   4.817 -0.5693  3.4147  0.8834
 3649SOL    HW222407   2.202   3.874   4.960  0.3369  0.0593  0.3335
 3650SOL     OW22408   4.619   1.716   5.112 -0.0016 -0.3357  0.9205
 3650SOL    HW122409   4.527   1.701   5.088  0.4141 -0.3455 -0.6659
 3650SOL    HW222410   4.662   1.633   5.096  0.8026  0.5811 -1.7662
 3651SOL     OW22411   0.958   0.249   6.926  0.3216  0.1802  0.2111
 3651SOL    HW122412   0.912   0.303   6.990  1.2873 -1.4887  2.3456
 3651SOL    HW222413   1.040   0.291   6.900  0.9106 -0.6132  0.7953
 3652SOL     OW22414   2.221   3.788   5.312 -0.0009  0.0317 -0.1041
 3652SOL    HW122415   2.214   3.757   5.403 -1.4158  1.2473  0.1998
 3652SOL    HW222416   2.261   3.874   5.306  2.5222 -1.1188  0.3216
 3653SOL     OW22417   1.655   4.194  17.504  0.6725  0.0237  0.0771
 3653SOL    HW122418   1.751   4.197  17.506  0.6432 -0.3764  2.2517
 3653SOL    HW222419   1.643   4.205  17.599  0.7007 -2.0231  0.3140
 3654SOL     OW22420   4.131   2.411  13.908  0.1519 -0.0529  0.0562
 3654SOL    HW122421   4.222   2.426  13.936 -0.1598 -0.1177  1.1060
 3654SOL    HW222422   4.096   2.496  13.883 -0.5436 -0.6583 -0.9983
 3655SOL     OW22423   1.736   3.143   7.781 -0.3983 -0.3011  0.4459
 3655SOL    HW122424   1.705   3.167   7.868 -2.0820 -0.5854 -0.0842
 3655SOL    HW222425   1.800   3.073   7.797 -0.5204 -0.6202 -0.4303
 3656SOL     OW22426   2.218   3.193  11.983  0.1542  0.4808  0.5732
 3656SOL    HW122427   2.207   3.099  11.965 -1.6714  0.7525  0.2201
 3656SOL    HW222428   2.155   3.211  12.054 -2.1327 -1.1976 -1.0153
 3657SOL     OW22429   1.923   2.170   0.388  0.0861  0.1554  0.1562
 3657SOL    HW122430   1.995   2.203   0.334 -0.8937  2.6658  0.3851
 3657SOL    HW222431   1.842   2.205   0.351 -1.3084  0.1208  3.1353
 3658SOL     OW22432   4.233   2.305   6.944  0.0676  0.5106 -0.0557
 3658SOL    HW122433   4.301   2.260   6.894 -0.4855 -0.4958  0.1026
 3658SOL    HW222434   4.276   2.318   7.028  0.2622  0.1198 -0.0970
 3659SOL     OW22435   0.885   1.092   5.870 -0.0148  0.5536  0.3786
 3659SOL    HW122436   0.853   1.004   5.850  0.2574  0.6604 -0.5160
 3659SOL    HW222437   0.903   1.119   5.780 -2.6487 -1.0009 -0.5968
 3660SOL     OW22438   2.952   2.740   5.794  0.5954  0.1341 -0.5047
 3660SOL    HW122439   3.016   2.669   5.801  0.8340  0.4624  0.5868
 3660SOL    HW222440   2.887   2.694   5.741  1.9305  0.8754 -2.8054
 3661SOL     OW22441   3.764   4.070   5.416  0.2788  0.3903 -0.1814
 3661SOL    HW122442   3.695   4.089   5.480 -1.1691  0.5827 -1.7913
 3661SOL    HW222443   3.712   4.072   5.335 -1.5999 -0.7514  1.0008
 3662SOL     OW22444   0.498   0.016   6.353  0.0310 -0.1271 -0.0419
 3662SOL    HW122445   0.428   0.077   6.329 -2.1504 -3.4803 -2.0593
 3662SOL    HW222446   0.491   0.026   6.448 -1.7819  2.1120 -0.4152
 3663SOL     OW22447   0.386   1.561   6.936  0.1692 -0.2698  1.0429
 3663SOL    HW122448   0.354   1.649   6.959 -0.7385  0.6381 -3.5608
 3663SOL    HW222449   0.479   1.581   6.930  0.2039 -0.8934 -0.5038
 3664SOL     OW22450   0.978   3.556  16.989 -0.3141  0.0873  0.6108
 3664SOL    HW122451   1.021   3.549  16.904 -1.0023 -1.1931  0.3634
 3664SOL    HW222452   0.911   3.624  16.985  0.5675  0.9344  0.4725
 3665SOL     OW22453   2.362   1.251   4.940 -0.5505  0.5110  0.5610
 3665SOL    HW122454   2.279   1.210   4.963 -0.6678  0.2319 -0.3453
 3665SOL    HW222455   2.365   1.225   4.848 -1.9872  0.4077  0.5411
 3666SOL     OW22456   0.375   3.112   0.626 -0.7871  0.2155  0.2591
 3666SOL    HW122457   0.326   3.179   0.674  0.4496 -0.2760  2.2265
 3666SOL    HW222458   0.428   3.066   0.691 -0.0986 -0.6608 -0.9331
 3667SOL     OW22459   1.247   3.616  13.107  0.0384 -0.2534 -0.1724
 3667SOL    HW122460   1.165   3.662  13.127 -0.9788 -1.3608 -1.8082
 3667SOL    HW222461   1.301   3.688  13.075  2.2468 -1.4913  0.7898
 3668SOL     OW22462   4.458   0.868   0.342  0.2690 -0.6225 -0.5822
 3668SOL    HW122463   4.394   0.828   0.401  1.6256 -1.7755  0.1107
 3668SOL    HW222464   4.468   0.960   0.366  0.0254 -1.1366  1.5776
 3669SOL     OW22465   1.334   4.433   6.344 -0.0065  0.2924  0.3220
 3669SOL    HW122466   1.372   4.517   6.319  0.2453  0.3900  1.0220
 3669SOL    HW222467   1.342   4.432   6.439  3.0131  0.4317  0.0815
 3670SOL     OW22468   4.162   2.740   2.787  0.5495 -0.0113  0.0707
 3670SOL    HW122469   4.146   2.747   2.692 -0.5979  0.6025  0.3125
 3670SOL    HW222470   4.106   2.811   2.819  1.3603  0.8155 -0.3307
 3671SOL     OW22471   3.620   2.330   6.120  0.4124  0.7617  0.0417
 3671SOL    HW122472   3.528   2.323   6.142  0.6570 -1.4207  0.4312
 3671SOL    HW222473   3.663   2.376   6.192  1.4805 -0.9666  0.5339
 3672SOL     OW22474   1.416   4.590   1.390 -0.1133  0.2625 -0.0031
 3672SOL    HW122475   1.327   4.556   1.399  1.2179 -3.2746 -0.3413
 3672SOL    HW222476   1.466   4.509   1.396  0.7280  0.7315 -0.7189
 3673SOL     OW22477   4.559   3.355  11.193  0.5901  0.0312  0.0006
 3673SOL    HW122478   4.506   3.277  11.176  1.0181 -0.1623 -0.4945
 3673SOL    HW222479   4.503   3.427  11.164 -0.1413 -0.7535 -0.5275
 3674SOL     OW22480   0.590   0.121  11.258 -0.0113  0.2174  0.1882
 3674SOL    HW122481   0.676   0.082  11.274  1.0731  2.8172  0.6678
 3674SOL    HW222482   0.617   0.199  11.209  1.4861  0.0126  0.6853
 3675SOL     OW22483   4.219   3.388   1.504  0.4779  0.0557  0.1927
 3675SOL    HW122484   4.229   3.333   1.582  0.3458  0.0145  0.1799
 3675SOL    HW222485   4.280   3.460   1.522  1.8407 -0.9374 -0.4287
 3676SOL     OW22486   2.053   4.315  16.610 -0.0460 -0.5267  0.1379
 3676SOL    HW122487   2.032   4.248  16.676 -0.6072 -1.5697 -1.1026
 3676SOL    HW222488   2.064   4.390  16.669 -1.6083  0.0889 -0.3563
 3677SOL     OW22489   3.827   4.322   8.851 -0.5250  0.4150  0.0653
 3677SOL    HW122490   3.877   4.393   8.810  0.8780 -1.2345 -1.1046
 3677SOL    HW222491   3.745   4.366   8.873 -1.1946 -0.8802  0.1946
 3678SOL     OW22492   2.351   2.781   3.978 -0.0717  0.0434 -0.2046
 3678SOL    HW122493   2.339   2.697   4.022 -1.4943 -0.9949 -2.5733
 3678SOL    HW222494   2.285   2.784   3.908 -2.3774  1.6390  2.0608
 3679SOL     OW22495   3.175   4.560   5.381  0.4488  0.0114  0.1571
 3679SOL    HW122496   3.180   4.464   5.375 -0.4455 -0.0821  0.9276
 3679SOL    HW222497   3.142   4.585   5.295 -1.9179 -0.8493  0.8171
 3680SOL     OW22498   3.320   0.072   5.358  0.0093  0.4880 -0.2085
 3680SOL    HW122499   3.274   4.716   5.387  0.9259 -0.0826 -0.3211
 3680SOL    HW222500   3.310   0.078   5.263 -3.4590 -0.9904  0.0381
 3681SOL     OW22501   1.422   3.535   6.352  0.0080 -0.2257  0.0807
 3681SOL    HW122502   1.381   3.459   6.310 -1.2476  0.1616  0.6256
 3681SOL    HW222503   1.351   3.598   6.344 -0.0716 -0.1255  1.6621
 3682SOL     OW22504   2.088   4.367  16.354  0.2197  0.2891 -0.0033
 3682SOL    HW122505   2.079   4.350  16.447 -0.7334 -2.3300 -0.5693
 3682SOL    HW222506   2.023   4.305  16.320  1.2063  0.4793 -2.2565
 3683SOL     OW22507   1.857   4.622   2.819 -0.0985  0.1355 -0.3051
 3683SOL    HW122508   1.785   4.577   2.774 -0.5668 -0.4279  1.0026
 3683SOL    HW222509   1.921   4.638   2.749 -0.1753 -4.0097 -1.3307
 3684SOL     OW22510   0.103   3.592   8.598  0.0925  0.2919 -0.3917
 3684SOL    HW122511   0.061   3.600   8.683  0.0977  1.0414 -0.4530
 3684SOL    HW222512   0.037   3.549   8.542 -0.0952 -1.0044  0.8425
 3685SOL     OW22513   3.554   3.960  12.252 -0.2771 -0.0174  0.0746
 3685SOL    HW122514   3.646   3.951  12.228 -0.6289  1.1626 -1.7214
 3685SOL    HW222515   3.570   4.023  12.323  0.9145 -0.8655  0.5457
 3686SOL     OW22516   2.440   2.042  16.025  0.7198  0.0105 -0.0937
 3686SOL    HW122517   2.493   1.962  16.025  2.3542  1.0666 -1.5997
 3686SOL    HW222518   2.492   2.096  16.084 -0.4475  0.8235  0.1812
 3687SOL     OW22519   2.831   1.107   8.013 -0.7016  0.1092  0.4788
 3687SOL    HW122520   2.752   1.097   8.066 -0.1768 -1.2371  1.0096
 3687SOL    HW222521   2.903   1.109   8.076 -1.1804 -0.4194  1.0346
 3688SOL     OW22522   2.028   2.952   7.037 -0.0790 -0.0515  0.0165
 3688SOL    HW122523   2.102   2.891   7.042 -0.9192 -0.9001  2.3885
 3688SOL    HW222524   2.064   3.025   7.087  1.7087 -0.1246 -1.1766
 3689SOL     OW22525   0.964   3.567  14.413  0.2047  0.3194 -0.2616
 3689SOL    HW122526   0.896   3.618  14.370  0.8473  0.1593 -1.4530
 3689SOL    HW222527   1.037   3.628  14.411  0.5340 -0.0639  0.0277
 3690SOL     OW22528   4.144   1.630  15.631 -0.6000 -0.6783 -0.0189
 3690SOL    HW122529   4.175   1.541  15.617  0.4737 -0.2615 -0.2706
 3690SOL    HW222530   4.069   1.638  15.573 -1.2254 -0.5336  0.7997
 3691SOL     OW22531   1.459   1.995  11.159  0.3611 -0.4410 -0.1615
 3691SOL    HW122532   1.466   2.059  11.088 -0.6399  0.4242  0.5184
 3691SOL    HW222533   1.524   1.937  11.120 -2.1813 -2.4873 -1.3829
 3692SOL     OW22534   1.611   0.309  14.744 -0.2332 -0.0685 -0.5239
 3692SOL    HW122535   1.624   0.215  14.730 -1.6046 -0.4316  0.5962
 3692SOL    HW222536   1.694   0.330  14.786  0.8616  1.6246 -3.5884
 3693SOL     OW22537   0.064   1.506   4.252  0.1707 -0.3146  0.0747
 3693SOL    HW122538   4.714   1.478   4.197  1.4840 -2.9078 -0.3172
 3693SOL    HW222539   0.036   1.586   4.296 -2.4023 -1.5888  0.7602
 3694SOL     OW22540   3.675   2.064   7.073 -0.4766  0.0469  0.1409
 3694SOL    HW122541   3.627   2.004   7.131 -0.6683  1.1119  1.0787
 3694SOL    HW222542   3.725   1.996   7.027  1.3366  1.4822  0.0127
 3695SOL     OW22543   3.512   0.929   6.355  0.0136  0.1449 -0.4343
 3695SOL    HW122544   3.517   0.944   6.261 -1.7571  0.3286 -0.4923
 3695SOL    HW222545   3.519   1.018   6.392 -0.3438  0.4603 -1.1371
 3696SOL     OW22546   3.345   0.294   3.332  0.0910  0.0101 -0.0423
 3696SOL    HW122547   3.329   0.364   3.268 -1.8247  0.2143  0.6827
 3696SOL    HW222548   3.301   0.218   3.296 -1.4532  1.7452 -1.7891
 3697SOL     OW22549   3.229   1.143  10.733 -0.1831 -0.1045  0.1586
 3697SOL    HW122550   3.236   1.048  10.742  1.7167 -0.0302 -0.5527
 3697SOL    HW222551   3.319   1.168  10.755  0.1658 -1.4697  0.3122
 3698SOL     OW22552   2.044   4.147   1.616 -0.2169  0.3308 -0.3900
 3698SOL    HW122553   2.079   4.208   1.552  0.4263 -1.0279 -1.3230
 3698SOL    HW222554   1.964   4.114   1.575  1.1658 -1.4262 -1.6526
 3699SOL     OW22555   3.394   4.564  14.851 -0.2381  0.1157 -0.5049
 3699SOL    HW122556   3.398   4.492  14.913  2.5616  0.3411 -0.3995
 3699SOL    HW222557   3.359   4.641  14.896 -2.1261 -1.2561  0.3178
 3700SOL     OW22558   2.165   4.110   9.131 -0.4598 -0.1377 -0.1445
 3700SOL    HW122559   2.099   4.178   9.115 -1.1542 -1.2486 -1.9237
 3700SOL    HW222560   2.213   4.155   9.200  1.1093 -3.3654  0.8784
 3701SOL     OW22561   3.775   0.790   2.336  0.3819  0.3109  0.2108
 3701SOL    HW122562   3.788   0.777   2.242  0.4413 -0.2010  0.2908
 3701SOL    HW222563   3.719   0.714   2.350  0.7452 -0.2104 -1.2384
 3702SOL     OW22564   2.883   3.570  17.550 -0.5013 -0.6423 -0.5153
 3702SOL    HW122565   2.959   3.605  17.503  0.0690 -0.7650  0.3259
 3702SOL    HW222566   2.812   3.577  17.486 -0.7560 -1.0808 -0.2745
 3703SOL     OW22567   0.769   1.904  16.448 -0.0578 -0.5813  0.6453
 3703SOL    HW122568   0.837   1.889  16.514 -0.1926 -1.0201  0.6843
 3703SOL    HW222569   0.779   1.999  16.443 -1.5875 -0.3668  1.9794
 3704SOL     OW22570   4.133   0.348   5.171 -0.3361 -0.2374  0.6604
 3704SOL    HW122571   4.172   0.434   5.184 -0.0671 -0.2400 -0.1504
 3704SOL    HW222572   4.089   0.332   5.255  1.2460 -0.8804  1.3759
 3705SOL     OW22573   1.744   0.100   8.130 -0.0729  0.2255 -0.1589
 3705SOL    HW122574   1.729   0.008   8.150 -2.4883  0.7920  0.6189
 3705SOL    HW222575   1.797   0.133   8.203 -1.2249  0.4033  0.5878
 3706SOL     OW22576   3.930   0.538  11.994 -0.2212  0.3048  0.0346
 3706SOL    HW122577   3.981   0.466  11.956 -0.5800 -1.2047  2.4101
 3706SOL    HW222578   3.969   0.540  12.081 -0.9363  0.5791  0.3476
 3707SOL     OW22579   1.372   2.552   1.531  0.1332 -0.6676  0.2395
 3707SOL    HW122580   1.445   2.531   1.474 -0.9381 -1.6025 -0.8050
 3707SOL    HW222581   1.317   2.474   1.543  0.4341 -0.8722  0.2941
 3708SOL     OW22582   2.085   3.463  10.498 -0.0108 -0.7045 -1.0114
 3708SOL    HW122583   2.177   3.473  10.523 -0.5510  1.4009  0.1008
 3708SOL    HW222584   2.052   3.443  10.586 -1.1087 -0.8723 -1.4572
 3709SOL     OW22585   2.618   3.956   3.655  0.6086 -0.0050 -0.5759
 3709SOL    HW122586   2.535   3.914   3.633 -1.3344  3.3380  0.3849
 3709SOL    HW222587   2.596   4.046   3.631 -0.5805  0.5867  2.7523
 3710SOL     OW22588   3.307   3.634   3.965  0.5069  0.2040  0.4569
 3710SOL    HW122589   3.362   3.648   4.043 -0.5792 -0.3553  1.3278
 3710SOL    HW222590   3.243   3.571   3.998  1.3226 -0.8611  0.0182
 3711SOL     OW22591   1.431   2.118   6.233  0.0279 -0.9097 -0.2325
 3711SOL    HW122592   1.483   2.184   6.279 -1.8054  0.4036 -0.0255
 3711SOL    HW222593   1.388   2.077   6.307 -0.0952 -0.1502  0.1177
 3712SOL     OW22594   3.732   1.426  10.060 -0.0731 -0.2841  0.3636
 3712SOL    HW122595   3.645   1.387  10.056  0.0081 -0.4773  0.4878
 3712SOL    HW222596   3.713   1.512  10.022 -4.3931 -1.7087 -0.6839
 3713SOL     OW22597   0.274   0.803   8.558 -0.5603 -0.3074 -0.7200
 3713SOL    HW122598   0.209   0.735   8.538  0.0353 -0.8911 -0.6767
 3713SOL    HW222599   0.312   0.764   8.637 -0.1523 -1.9426 -1.7069
 3714SOL     OW22600   4.461   1.037   1.606 -0.0715 -0.2073 -0.1837
 3714SOL    HW122601   4.391   0.981   1.641  0.6730 -0.7193  0.4653
 3714SOL    HW222602   4.494   0.975   1.541  1.0436  0.2918 -0.0772
 3715SOL     OW22603   2.282   0.627   8.689  0.0199 -0.5155 -0.7741
 3715SOL    HW122604   2.225   0.565   8.734  0.0807  0.1400  0.2159
 3715SOL    HW222605   2.320   0.677   8.761  0.7117 -0.1901 -1.3570
 3716SOL     OW22606   3.353   2.504   8.694 -0.0505  0.0149 -0.1810
 3716SOL    HW122607   3.420   2.437   8.708 -0.9774 -0.6893  0.9074
 3716SOL    HW222608   3.336   2.488   8.601 -2.6256 -1.9842  0.6446
 3717SOL     OW22609   3.631   2.182  13.939 -0.3131 -0.6204  0.2323
 3717SOL    HW122610   3.679   2.251  13.894  1.7897 -2.1488  0.1448
 3717SOL    HW222611   3.687   2.180  14.017 -0.6168  0.9481  0.4934
 3718SOL     OW22612   0.091   4.194   1.921  0.0444 -0.2660  0.2654
 3718SOL    HW122613   0.170   4.150   1.889 -0.1985  0.1833 -0.9456
 3718SOL    HW222614   0.120   4.226   2.007  1.1337  0.4452 -0.3737
 3719SOL     OW22615   1.646   3.748   7.254  0.4691  0.0134  0.1302
 3719SOL    HW122616   1.656   3.776   7.345 -3.6980  1.6163  0.0681
 3719SOL    HW222617   1.733   3.710   7.239 -0.3680 -0.7970 -2.7354
 3720SOL     OW22618   1.863   1.391  12.829  0.1416 -0.4308  0.2445
 3720SOL    HW122619   1.881   1.465  12.887 -2.3348 -1.2224  1.9797
 3720SOL    HW222620   1.788   1.422  12.778  1.3297  1.7617 -0.1647
 3721SOL     OW22621   3.637   1.302   7.947 -0.3041 -0.5077  0.7628
 3721SOL    HW122622   3.692   1.230   7.914 -0.2500 -0.2193  0.2210
 3721SOL    HW222623   3.705   1.330   8.008  0.6410  0.9273 -0.9363
 3722SOL     OW22624   0.096   4.038  11.274  0.5204 -0.1487  0.2638
 3722SOL    HW122625   0.083   3.982  11.197 -2.6751  0.0369  0.6680
 3722SOL    HW222626   0.082   3.980  11.349 -1.8357  0.1609  0.0457
 3723SOL     OW22627   1.442   0.195   1.687  0.2553  0.3539 -0.0219
 3723SOL    HW122628   1.460   0.281   1.649 -0.1779  0.7956  0.7627
 3723SOL    HW222629   1.444   0.144   1.606  1.9581  2.9017 -1.6016
 3724SOL     OW22630   0.538   3.703   9.392 -0.3560  0.6020  0.0405
 3724SOL    HW122631   0.540   3.677   9.484  0.4827 -0.4344 -0.2708
 3724SOL    HW222632   0.628   3.726   9.370  0.4019 -1.7906  0.6191
 3725SOL     OW22633   3.844   3.623   4.983  0.1548  0.4024 -0.6692
 3725SOL    HW122634   3.901   3.611   5.059  0.6444 -1.5821 -1.3489
 3725SOL    HW222635   3.887   3.571   4.915  1.3901 -0.8371  1.0668
 3726SOL     OW22636   2.326   2.176  16.379  0.6811 -0.6865 -0.4404
 3726SOL    HW122637   2.349   2.238  16.449  2.2132 -1.6103 -0.1310
 3726SOL    HW222638   2.233   2.172  16.403  0.5659 -0.3425 -0.8192
 3727SOL     OW22639   3.009   1.799  14.662  0.2325 -0.1837  0.0352
 3727SOL    HW122640   2.922   1.764  14.645  0.4976 -0.6441 -0.3716
 3727SOL    HW222641   3.055   1.777  14.581 -0.5685  3.8527 -1.5624
 3728SOL     OW22642   1.220   0.768   4.941 -0.0792  0.0606 -0.2724
 3728SOL    HW122643   1.193   0.784   5.032  0.5284 -0.0973 -0.0642
 3728SOL    HW222644   1.173   0.843   4.905  3.2200  2.3015  0.0562
 3729SOL     OW22645   4.516   3.686   3.276  0.4447 -0.0047 -0.2342
 3729SOL    HW122646   4.486   3.661   3.189  0.4112 -0.4404 -0.0978
 3729SOL    HW222647   4.489   3.611   3.327  1.4699 -1.0745 -1.2571
 3730SOL     OW22648   2.719   4.147   9.297  0.3412  0.7945  0.0331
 3730SOL    HW122649   2.789   4.206   9.270 -0.6917  0.7813 -2.7309
 3730SOL    HW222650   2.766   4.105   9.369 -1.1957 -3.1550 -1.2659
 3731SOL     OW22651   0.128   2.287   2.724 -0.7331  0.0318  0.1047
 3731SOL    HW122652   0.125   2.379   2.696  1.5704 -0.1002 -0.6062
 3731SOL    HW222653   0.035   2.267   2.729 -1.7001  4.0127 -1.8208
 3732SOL     OW22654   3.523   1.640  16.731  0.0199 -0.6699  0.3008
 3732SOL    HW122655   3.515   1.592  16.649  1.2689 -0.4108  0.0221
 3732SOL    HW222656   3.525   1.730  16.697  1.5311 -0.6868  0.3638
 3733SOL     OW22657   0.858   1.077  15.662 -0.1724 -0.0627 -0.0408
 3733SOL    HW122658   0.775   1.031  15.677  0.2598 -0.4090  1.3615
 3733SOL    HW222659   0.810   1.159  15.665 -0.7918 -0.5403  3.6445
 3734SOL     OW22660   3.428   0.983  13.400 -0.1384 -0.7887  0.2754
 3734SOL    HW122661   3.488   0.981  13.325 -0.3975  3.3757 -0.0879
 3734SOL    HW222662   3.473   0.912  13.446  0.1153 -0.6039  0.3163
 3735SOL     OW22663   1.713   1.274  17.188  0.3542  0.3174 -0.6061
 3735SOL    HW122664   1.700   1.350  17.132  2.1093 -0.0392 -1.4962
 3735SOL    HW222665   1.657   1.310  17.257  0.4641 -3.1021  1.2685
 3736SOL     OW22666   1.209   1.229  15.762  0.7032 -0.5607  0.7745
 3736SOL    HW122667   1.214   1.296  15.693  3.1519 -0.7260  0.7944
 3736SOL    HW222668   1.186   1.290  15.831 -1.7308  1.5542 -1.8783
 3737SOL     OW22669   3.407   2.750   2.409  0.4717 -0.0776 -0.0087
 3737SOL    HW122670   3.347   2.720   2.341  0.4672  2.5675 -1.1984
 3737SOL    HW222671   3.366   2.717   2.489  1.4098  0.0919  0.5496
 3738SOL     OW22672   1.048   3.321  16.030 -0.2559 -0.3228  0.2191
 3738SOL    HW122673   1.005   3.340  15.946 -0.6634 -1.1076  0.2463
 3738SOL    HW222674   1.119   3.270  15.991  1.1678  1.9969 -0.1626
 3739SOL     OW22675   1.101   4.378  12.731 -0.0178 -0.8270 -0.5867
 3739SOL    HW122676   1.089   4.413  12.642 -0.4988  0.3261 -0.0739
 3739SOL    HW222677   1.116   4.288  12.704  0.9809 -0.5055 -1.1234
 3740SOL     OW22678   0.650   2.814   6.480  0.6348 -0.1350 -0.7671
 3740SOL    HW122679   0.630   2.899   6.520 -1.4930 -2.1543  2.4887
 3740SOL    HW222680   0.584   2.816   6.410  1.0924  0.5724 -1.1807
 3741SOL     OW22681   1.760   2.083   9.568 -0.3209 -0.2783  0.4537
 3741SOL    HW122682   1.758   2.179   9.559 -1.0844 -0.4522 -1.1607
 3741SOL    HW222683   1.768   2.080   9.664  0.1502 -1.4890  0.3738
 3742SOL     OW22684   1.753   0.195   7.398  0.3651  0.2944 -0.8919
 3742SOL    HW122685   1.826   0.198   7.337  1.3958  0.0732  0.3265
 3742SOL    HW222686   1.746   0.285   7.432 -0.2279  0.2998 -1.0230
 3743SOL     OW22687   2.661   1.248   0.584 -0.3440 -0.0493  0.0804
 3743SOL    HW122688   2.727   1.316   0.577 -2.5440  2.2578  1.8658
 3743SOL    HW222689   2.660   1.213   0.494  1.2493  1.1340 -0.3871
 3744SOL     OW22690   2.295   0.308   3.896  0.1094  0.0994  0.0122
 3744SOL    HW122691   2.237   0.382   3.878  0.0724  0.0730  0.0239
 3744SOL    HW222692   2.339   0.293   3.812  0.4437  0.0558  0.1986
 3745SOL     OW22693   2.526   3.121   5.794 -0.3485  0.4247 -0.2117
 3745SOL    HW122694   2.471   3.050   5.829 -1.4108  0.3293 -2.0512
 3745SOL    HW222695   2.479   3.131   5.711 -2.3555 -1.1388  0.7342
 3746SOL     OW22696   3.625   0.499   6.064  0.1197 -0.2204 -0.3103
 3746SOL    HW122697   3.664   0.521   5.979  0.8320 -1.2885 -0.2504
 3746SOL    HW222698   3.531   0.485   6.049  0.2030 -1.2605  0.1824
 3747SOL     OW22699   2.501   4.669   2.115  0.4130  0.1188 -0.4180
 3747SOL    HW122700   2.514   0.003   2.191  1.8735 -0.4100 -0.2822
 3747SOL    HW222701   2.468   0.002   2.044 -0.6351  0.6473  0.4782
 3748SOL     OW22702   3.926   4.050   6.087  0.2468  0.5976 -0.2413
 3748SOL    HW122703   3.889   4.121   6.139 -1.1166 -0.3114  0.0382
 3748SOL    HW222704   3.879   4.049   6.004  0.3825 -0.7338 -0.3063
 3749SOL     OW22705   0.563   3.552   4.950 -0.5074  0.1013  0.0790
 3749SOL    HW122706   0.613   3.474   4.928  2.6390  1.8480  0.9486
 3749SOL    HW222707   0.502   3.552   4.876  1.9391  2.1279 -1.9444
 3750SOL     OW22708   2.374   3.206   7.327 -0.4228 -0.3752 -0.1976
 3750SOL    HW122709   2.399   3.179   7.415  2.6291 -0.4727 -1.1002
 3750SOL    HW222710   2.364   3.301   7.337 -2.0312 -0.5352 -0.3293
 3751SOL     OW22711   4.315   2.321   8.304  0.2303 -0.6501 -0.0874
 3751SOL    HW122712   4.265   2.377   8.363 -1.0688  0.9421 -2.7179
 3751SOL    HW222713   4.369   2.266   8.361  0.1696 -1.1206 -0.4867
 3752SOL     OW22714   0.020   0.496   5.847  0.0993 -0.2337 -0.0945
 3752SOL    HW122715   0.098   0.447   5.819  1.2659  0.9345  1.1552
 3752SOL    HW222716   0.044   0.583   5.817 -2.2176  0.4271 -0.0262
 3753SOL     OW22717   1.636   4.557   3.833 -0.0066  0.2438  0.1502
 3753SOL    HW122718   1.554   4.541   3.786  1.4560 -0.0845 -2.3016
 3753SOL    HW222719   1.631   4.652   3.838 -2.4805  0.1751 -0.9274
 3754SOL     OW22720   2.780   2.781   7.751 -0.9255  0.3893  0.8326
 3754SOL    HW122721   2.816   2.746   7.669 -0.8521  1.6958  0.3168
 3754SOL    HW222722   2.820   2.713   7.806 -0.4505 -0.9956 -1.2377
 3755SOL     OW22723   4.366   0.201   9.567 -0.0052 -0.0169 -0.3338
 3755SOL    HW122724   4.323   0.286   9.581 -0.9873 -0.5494 -0.1177
 3755SOL    HW222725   4.402   0.213   9.480 -0.4926  0.2421 -0.4998
 3756SOL     OW22726   0.060   0.884   1.407 -0.0954  0.1206 -0.0987
 3756SOL    HW122727   0.139   0.911   1.361  0.2974 -0.2626  0.3543
 3756SOL    HW222728   0.080   0.847   1.493 -0.0860 -1.1183 -0.6373
 3757SOL     OW22729   2.494   2.635   5.325 -0.0858  0.3948  0.0211
 3757SOL    HW122730   2.532   2.566   5.380  0.1856  0.7942  0.3287
 3757SOL    HW222731   2.547   2.712   5.341 -0.5754  0.2377  2.4144
 3758SOL     OW22732   0.973   1.010   3.779  0.4671  0.1786  0.0713
 3758SOL    HW122733   0.971   1.075   3.708  0.2122  1.1667  0.9867
 3758SOL    HW222734   1.065   0.987   3.762  1.1756  4.6260 -2.1189
 3759SOL     OW22735   3.529   0.857   6.816  0.3727 -0.4854  0.3635
 3759SOL    HW122736   3.458   0.908   6.855  0.1810 -0.9586  0.6293
 3759SOL    HW222737   3.491   0.840   6.730  2.2063  0.1406 -0.5813
 3760SOL     OW22738   0.073   0.262   4.128 -0.1663 -0.8618 -0.2955
 3760SOL    HW122739   0.162   0.233   4.147  0.1369  0.3423  0.1210
 3760SOL    HW222740   0.019   0.228   4.199 -0.3067 -1.5658 -0.7376
 3761SOL     OW22741   0.973   3.405   7.631  0.5999 -0.3210  0.0793
 3761SOL    HW122742   0.996   3.454   7.710 -1.5616  2.0918 -0.7763
 3761SOL    HW222743   1.052   3.413   7.577  0.7308 -2.2994 -0.0196
 3762SOL     OW22744   1.849   0.744   3.847 -0.0596 -0.4070  0.3985
 3762SOL    HW122745   1.797   0.824   3.842 -1.0331 -1.1222 -1.0425
 3762SOL    HW222746   1.893   0.755   3.762 -1.1923 -0.4726 -0.2002
 3763SOL     OW22747   1.091   1.649   7.188  0.3226  0.0687 -0.9977
 3763SOL    HW122748   1.004   1.632   7.151 -0.9311  1.0775  1.5436
 3763SOL    HW222749   1.083   1.739   7.218  0.1956 -0.0698 -0.6185
 3764SOL     OW22750   4.638   2.551   4.192  0.1065  0.0649 -0.4727
 3764SOL    HW122751   4.700   2.572   4.262 -0.0068 -2.6463  0.4092
 3764SOL    HW222752   4.671   2.610   4.124 -0.9639  1.6464  0.3686
 3765SOL     OW22753   3.141   2.940   5.770 -0.2209 -0.2639 -0.0063
 3765SOL    HW122754   3.056   2.896   5.774  0.2801 -1.4191 -1.5934
 3765SOL    HW222755   3.189   2.885   5.708  1.0270 -2.0309  2.5281
 3766SOL     OW22756   4.491   0.935  13.437 -0.6018 -0.2114 -0.2711
 3766SOL    HW122757   4.535   0.871  13.381  1.1191  1.4629 -0.8565
 3766SOL    HW222758   4.520   1.017  13.395 -1.2958 -0.0063 -0.3446
 3767SOL     OW22759   2.504   0.512   4.434  0.2725  0.1397 -0.6118
 3767SOL    HW122760   2.518   0.423   4.401  1.2320  0.5301 -1.2831
 3767SOL    HW222761   2.593   0.542   4.456  0.1530 -0.5860  0.8329
 3768SOL     OW22762   2.340   4.643  15.332 -0.2628  0.1978 -0.0768
 3768SOL    HW122763   2.261   4.597  15.362 -0.4459  1.4183  1.3109
 3768SOL    HW222764   2.381   4.673  15.413  2.2059  0.5618 -1.4685
 3769SOL     OW22765   4.474   1.623   8.743 -0.0878  0.0835  0.5934
 3769SOL    HW122766   4.557   1.649   8.784 -0.1967 -1.4130  1.7440
 3769SOL    HW222767   4.470   1.533   8.773 -1.1232  0.0148  0.2211
 3770SOL     OW22768   3.387   0.962   1.912 -0.4520  0.1218  0.1948
 3770SOL    HW122769   3.397   0.955   2.007  3.3536 -0.9928 -0.3003
 3770SOL    HW222770   3.325   1.034   1.902 -0.0228  0.3153 -1.1269
 3771SOL     OW22771   4.145   2.810   6.249 -0.3168 -0.4427 -0.0648
 3771SOL    HW122772   4.054   2.794   6.224 -0.8390 -1.0689  2.2497
 3771SOL    HW222773   4.148   2.773   6.337 -0.1326  0.7785  0.4379
 3772SOL     OW22774   0.536   3.859   5.840 -0.7670 -0.2241 -0.0129
 3772SOL    HW122775   0.561   3.871   5.748  0.9335  1.1246  0.6062
 3772SOL    HW222776   0.620   3.877   5.883  0.5463 -1.2982 -2.1248
 3773SOL     OW22777   2.941   3.450   1.623 -0.1273  0.3480  0.7924
 3773SOL    HW122778   3.029   3.432   1.654  0.2960 -1.1194 -1.1912
 3773SOL    HW222779   2.875   3.449   1.692 -1.4530  1.4925 -0.4601
 3774SOL     OW22780   3.318   2.796   1.051  0.1290  0.2912 -0.5058
 3774SOL    HW122781   3.333   2.704   1.070 -1.7253  0.7107  3.0292
 3774SOL    HW222782   3.357   2.798   0.963 -2.2734  2.2260 -1.5554
 3775SOL     OW22783   2.936   4.455   3.844 -0.6920 -0.2614  0.1311
 3775SOL    HW122784   2.857   4.427   3.798 -0.4260  1.5536 -1.4402
 3775SOL    HW222785   2.996   4.455   3.769 -0.3741 -0.2157  0.3834
 3776SOL     OW22786   4.519   4.512   6.076 -0.1184  0.2612  0.2912
 3776SOL    HW122787   4.576   4.576   6.119  0.1385 -0.2499  0.7158
 3776SOL    HW222788   4.553   4.499   5.988 -0.8201 -0.0028  0.0561
 3777SOL     OW22789   1.271   3.765   5.779  0.5942 -0.0584 -0.0873
 3777SOL    HW122790   1.344   3.715   5.742 -0.5552 -2.3397  0.7688
 3777SOL    HW222791   1.205   3.700   5.802  1.6526 -1.6286 -1.4901
 3778SOL     OW22792   3.010   4.253   5.699 -0.0099  0.0866  0.0341
 3778SOL    HW122793   3.056   4.199   5.634  1.1927 -1.3293  2.0714
 3778SOL    HW222794   2.922   4.230   5.667 -0.1600  1.7659 -0.7434
 3779SOL     OW22795   0.509   1.941  10.614 -0.5083  0.0356  0.4000
 3779SOL    HW122796   0.587   1.994  10.630 -1.9099  1.7418  1.5764
 3779SOL    HW222797   0.536   1.877  10.547 -3.5490 -0.5750 -0.2471
 3780SOL     OW22798   2.184   1.066   5.870 -0.3149  0.1453  0.3000
 3780SOL    HW122799   2.259   1.124   5.859  0.1391 -0.5951 -0.5775
 3780SOL    HW222800   2.205   1.011   5.946 -3.1806 -1.6152 -0.2063
 3781SOL     OW22801   0.828   3.641   3.143  0.4881 -0.2881  0.4394
 3781SOL    HW122802   0.854   3.551   3.125 -2.5330 -0.7781 -1.6276
 3781SOL    HW222803   0.796   3.629   3.233 -0.1698  0.3628  0.2910
 3782SOL     OW22804   1.167   0.444  12.582 -0.2699  0.2257 -0.3036
 3782SOL    HW122805   1.260   0.467  12.578 -0.3623  0.2603 -2.2973
 3782SOL    HW222806   1.165   0.373  12.519 -0.6471  1.0619 -1.2441
 3783SOL     OW22807   3.612   0.305   7.270  0.3367 -0.1852  0.0429
 3783SOL    HW122808   3.620   0.341   7.182  1.3617  0.6348  0.4677
 3783SOL    HW222809   3.645   0.372   7.330  0.8918 -1.3352  1.0140
 3784SOL     OW22810   2.546   0.664   3.080 -0.0908 -0.0010 -0.3853
 3784SOL    HW122811   2.475   0.601   3.095  0.4801 -0.5170  0.1875
 3784SOL    HW222812   2.565   0.644   2.988  0.1538 -0.5242 -0.2215
 3785SOL     OW22813   3.363   1.868   3.242  0.2720 -0.5323 -0.2310
 3785SOL    HW122814   3.278   1.869   3.197  0.2498 -0.1615 -0.1810
 3785SOL    HW222815   3.344   1.908   3.327  3.0078 -1.5729  0.8685
 3786SOL     OW22816   1.496   3.352   7.062  0.3316 -0.7764  0.5889
 3786SOL    HW122817   1.536   3.310   6.986  1.7537 -2.2884  2.1513
 3786SOL    HW222818   1.493   3.275   7.119 -0.6652 -2.0472 -1.1791
 3787SOL     OW22819   1.376   2.228   4.384 -0.3621 -0.3166  0.8411
 3787SOL    HW122820   1.321   2.244   4.307  0.1865 -3.2962 -0.1504
 3787SOL    HW222821   1.457   2.198   4.342 -0.4581 -0.4682  0.7675
 3788SOL     OW22822   1.383   0.586   5.704 -0.3047  0.0921 -0.0750
 3788SOL    HW122823   1.401   0.497   5.734  0.1445  0.3521  0.4438
 3788SOL    HW222824   1.471   0.620   5.684 -0.8615  0.6574 -1.5712
 3789SOL     OW22825   2.031   1.618   6.440  0.4499 -0.3067 -0.0130
 3789SOL    HW122826   2.038   1.575   6.355  0.1479 -1.0285  0.3282
 3789SOL    HW222827   2.121   1.624   6.472 -0.2734 -0.2082  2.0563
 3790SOL     OW22828   3.118   0.615   1.759  0.1923 -0.1339  0.0608
 3790SOL    HW122829   3.061   0.540   1.776  0.8949 -0.0281  2.7935
 3790SOL    HW222830   3.053   0.671   1.717 -0.4397 -1.1294 -0.2881
 3791SOL     OW22831   0.384   1.047   5.040  0.5099  0.6453  0.1172
 3791SOL    HW122832   0.319   1.015   5.102  1.6916 -1.8152  0.1311
 3791SOL    HW222833   0.433   0.968   5.013  0.1313  0.2404  0.6211
 3792SOL     OW22834   4.383   4.057   8.500  0.5930 -0.3348 -0.4428
 3792SOL    HW122835   4.469   4.096   8.511  0.9318 -1.2313  0.1434
 3792SOL    HW222836   4.330   4.120   8.550  0.7568 -0.5057 -0.0500
 3793SOL     OW22837   1.610   2.641   4.751  0.3273 -0.0816 -0.4653
 3793SOL    HW122838   1.566   2.641   4.836  0.4560 -0.8928 -0.4010
 3793SOL    HW222839   1.546   2.687   4.696 -0.7279 -0.1732  0.6721
 3794SOL     OW22840   2.788   3.196   8.984  0.4733 -0.2496 -0.3094
 3794SOL    HW122841   2.849   3.219   9.054 -0.1144 -1.6328  0.6565
 3794SOL    HW222842   2.829   3.244   8.911  1.4949  1.7137  1.5770
 3795SOL     OW22843   2.294   2.591   7.711  0.0021  0.4286  0.5519
 3795SOL    HW122844   2.344   2.672   7.696  2.8131 -1.0787  1.6398
 3795SOL    HW222845   2.234   2.598   7.637  1.3604 -2.0376 -0.7825
 3796SOL     OW22846   2.246   0.774   7.917  0.1916  0.0290  0.4495
 3796SOL    HW122847   2.308   0.783   7.990  1.2215 -0.5173 -0.3531
 3796SOL    HW222848   2.246   0.679   7.907  3.1857  0.2036 -1.2957
 3797SOL     OW22849   3.638   4.414  10.321  0.2488  0.2973 -0.5122
 3797SOL    HW122850   3.713   4.398  10.265  0.1202 -2.5926  0.1208
 3797SOL    HW222851   3.570   4.433  10.256  0.8324  0.6759 -1.0062
 3798SOL     OW22852   0.543   3.587  10.393 -0.1781  0.2636  0.0075
 3798SOL    HW122853   0.511   3.620  10.309  1.0389  1.6097  0.0857
 3798SOL    HW222854   0.494   3.645  10.451  1.0870 -2.5598  3.8390
 3799SOL     OW22855   1.522   4.336   5.812 -0.6261 -0.1447  0.9241
 3799SOL    HW122856   1.434   4.332   5.775  0.8817 -2.0946 -2.4761
 3799SOL    HW222857   1.565   4.374   5.735 -0.7166 -0.2811  0.8067
 3800SOL     OW22858   3.855   2.412   4.967 -0.2762 -0.0317 -0.2201
 3800SOL    HW122859   3.831   2.437   4.878 -0.5011  0.3409 -0.0544
 3800SOL    HW222860   3.854   2.316   4.970 -0.1695 -0.0476 -0.8167
 3801SOL     OW22861   0.866   4.710   4.671 -0.6593 -0.3375  0.8733
 3801SOL    HW122862   0.954   4.679   4.649 -0.0108  1.6156  0.7079
 3801SOL    HW222863   0.812   4.657   4.612  0.6938 -0.5178 -0.2162
 3802SOL     OW22864   2.560   0.205  15.599 -0.1764 -0.2263  0.2711
 3802SOL    HW122865   2.552   0.110  15.606  2.1060 -0.2832  1.8395
 3802SOL    HW222866   2.589   0.223  15.510 -2.4952 -0.6509 -0.5823
 3803SOL     OW22867   1.506   2.148   3.172 -0.1329 -0.1488 -0.3222
 3803SOL    HW122868   1.489   2.184   3.259 -1.2527  1.3133 -1.1267
 3803SOL    HW222869   1.444   2.076   3.171 -0.1067 -0.1619 -0.7930
 3804SOL     OW22870   0.146   3.920   2.643 -0.1498  0.0297 -0.3527
 3804SOL    HW122871   0.096   3.857   2.592  0.1383 -1.1767  0.8342
 3804SOL    HW222872   0.105   4.005   2.626  2.2196  0.2272 -4.9948
 3805SOL     OW22873   2.871   1.627   1.950  0.2623 -0.0044  0.3329
 3805SOL    HW122874   2.805   1.678   1.904 -0.3784 -0.2190  1.0043
 3805SOL    HW222875   2.933   1.696   1.972 -0.1532  0.9334 -1.4652
 3806SOL     OW22876   2.183   1.011   4.705  0.1759  0.0967 -0.0714
 3806SOL    HW122877   2.137   0.965   4.634  1.9261 -2.6239  0.5700
 3806SOL    HW222878   2.272   0.979   4.700 -0.6926 -2.1748 -0.9611
 3807SOL     OW22879   4.451   0.492   2.718 -0.5747 -0.0221  1.0635
 3807SOL    HW122880   4.475   0.438   2.642 -1.0190  3.3305 -1.4559
 3807SOL    HW222881   4.489   0.578   2.700 -0.1132 -0.4960 -0.2454
 3808SOL     OW22882   0.595   4.227   5.902  0.4138 -0.4146 -0.3430
 3808SOL    HW122883   0.667   4.284   5.931 -0.6828  0.9061 -0.2439
 3808SOL    HW222884   0.615   4.210   5.810  1.2393 -0.6182 -0.1245
 3809SOL     OW22885   3.665   3.853   3.883 -0.2068  0.4184  0.1325
 3809SOL    HW122886   3.750   3.859   3.925 -0.1342  2.2597 -0.2655
 3809SOL    HW222887   3.638   3.767   3.915 -1.0204  0.3758 -0.6388
 3810SOL     OW22888   2.405   3.331   2.857 -0.3804 -0.2890  0.3112
 3810SOL    HW122889   2.356   3.251   2.839  0.6046 -0.1857 -2.8704
 3810SOL    HW222890   2.342   3.374   2.915 -0.9057 -0.0525 -0.4325
 3811SOL     OW22891   3.204   2.581   5.748 -0.3252 -0.3405 -0.2210
 3811SOL    HW122892   3.268   2.643   5.712 -1.7715  0.8011 -0.7960
 3811SOL    HW222893   3.178   2.539   5.666  1.9178 -2.0622 -0.0559
 3812SOL     OW22894   3.889   1.228  14.019  0.0234  0.3262  0.2599
 3812SOL    HW122895   3.942   1.274  14.085 -0.7846 -0.8563  1.7136
 3812SOL    HW222896   3.891   1.294  13.949 -1.9055 -1.9976 -1.9511
 3813SOL     OW22897   0.268   0.517   2.433 -0.7999  0.3411 -0.3792
 3813SOL    HW122898   0.223   0.601   2.433 -1.3286  0.0781  1.9576
 3813SOL    HW222899   0.209   0.455   2.392 -0.0893 -0.4078 -0.2788
 3814SOL     OW22900   3.885   1.065  11.616 -0.0470  0.7731  0.3493
 3814SOL    HW122901   3.906   1.026  11.531  1.6114  1.2445  0.5431
 3814SOL    HW222902   3.790   1.053  11.611  0.2444 -1.3782  0.1283
 3815SOL     OW22903   0.461   4.456   2.929 -0.0919 -0.1363 -0.2142
 3815SOL    HW122904   0.366   4.444   2.930  0.1479 -1.8911  0.7227
 3815SOL    HW222905   0.482   4.473   3.021  1.8978  2.6179 -1.1929
 3816SOL     OW22906   0.522   3.725   7.538  1.0777  0.0928 -0.2521
 3816SOL    HW122907   0.594   3.661   7.539 -0.7915 -1.9764  0.5509
 3816SOL    HW222908   0.509   3.738   7.444 -0.1474 -4.2156 -0.6857
 3817SOL     OW22909   1.383   3.172  10.653  0.5281  0.0068 -0.4031
 3817SOL    HW122910   1.437   3.119  10.594  0.6763 -1.0968  0.7117
 3817SOL    HW222911   1.382   3.262  10.621  1.4596 -0.0361 -0.5427
 3818SOL     OW22912   2.610   3.287  15.024  0.6669  0.1307  0.7736
 3818SOL    HW122913   2.566   3.229  15.087 -1.3594  2.5023  1.5311
 3818SOL    HW222914   2.595   3.367  15.074  1.3762 -0.6632  2.2636
 3819SOL     OW22915   0.215   1.565   8.847  1.1643 -0.8406  0.1561
 3819SOL    HW122916   0.143   1.618   8.882  0.5636  0.2899 -2.7534
 3819SOL    HW222917   0.167   1.535   8.770 -2.9577  1.8058  1.6613
 3820SOL     OW22918   2.498   4.487   6.663  0.0619  0.5695  0.4929
 3820SOL    HW122919   2.577   4.521   6.706 -0.5027 -0.1293  2.0543
 3820SOL    HW222920   2.457   4.560   6.616 -1.1297 -0.3203  0.1470
 3821SOL     OW22921   3.660   0.963   3.365 -0.1836 -0.0690 -0.6468
 3821SOL    HW122922   3.674   1.042   3.311 -1.6318  1.3390  1.0398
 3821SOL    HW222923   3.669   0.897   3.296 -0.5283 -0.4895 -0.2865
 3822SOL     OW22924   1.896   1.179   1.699 -0.4913  0.5940  0.7094
 3822SOL    HW122925   1.985   1.201   1.670  0.4654 -3.1191  0.9374
 3822SOL    HW222926   1.875   1.139   1.615  2.5488  0.0108  0.2248
 3823SOL     OW22927   2.844   3.240  16.560 -0.2698  0.4255 -0.2365
 3823SOL    HW122928   2.830   3.169  16.497 -0.3272 -0.8426  1.2240
 3823SOL    HW222929   2.856   3.316  16.503 -1.4060  0.0589 -0.9677
 3824SOL     OW22930   4.306   1.204   3.084  0.2565 -0.0946 -0.1199
 3824SOL    HW122931   4.379   1.171   3.033  0.0661  1.6659 -1.5510
 3824SOL    HW222932   4.338   1.198   3.174 -0.8485  1.5253  0.3839
 3825SOL     OW22933   1.510   1.690   5.821  0.1132 -0.0560 -0.3514
 3825SOL    HW122934   1.437   1.630   5.802  1.1272 -0.9029 -1.5835
 3825SOL    HW222935   1.574   1.674   5.751 -0.3036  0.8986 -0.9600
 3826SOL     OW22936   0.189   1.074   8.546  0.2837  0.0441  0.2695
 3826SOL    HW122937   0.202   1.079   8.451  0.3098 -1.9893  0.1696
 3826SOL    HW222938   0.227   0.989   8.567  2.9063  1.2634  0.4967
 3827SOL     OW22939   0.024   4.007  15.770 -0.5864  0.1580  0.1577
 3827SOL    HW122940   4.706   4.065  15.705 -1.4821  0.9973  1.4785
 3827SOL    HW222941   4.709   3.924  15.740 -1.2724  0.4980  0.0819
 3828SOL     OW22942   0.884   4.409  16.267 -0.0266  0.0095 -0.1901
 3828SOL    HW122943   0.929   4.422  16.350 -0.4251  0.7069 -0.0840
 3828SOL    HW222944   0.861   4.316  16.273  2.1199 -0.4505  0.7343
 3829SOL     OW22945   3.563   3.830  11.958  0.5071  0.5206 -0.2344
 3829SOL    HW122946   3.609   3.854  12.038  0.4986  3.0764 -0.9694
 3829SOL    HW222947   3.562   3.917  11.916  0.2015  0.1132 -1.0785
 3830SOL     OW22948   2.091   0.570   5.070 -0.1929 -0.5206 -0.0020
 3830SOL    HW122949   2.017   0.518   5.101 -1.0662  0.3467 -0.6407
 3830SOL    HW222950   2.164   0.532   5.119  0.5705  0.1203 -0.6473
 3831SOL     OW22951   0.126   0.431  15.280  0.1416  0.3119 -0.2877
 3831SOL    HW122952   0.056   0.401  15.222  1.0821 -1.9802 -0.2251
 3831SOL    HW222953   0.200   0.425  15.220 -1.1164  1.3793 -1.9414
 3832SOL     OW22954   0.828   3.064   3.296  0.9702  0.3442 -0.0385
 3832SOL    HW122955   0.822   3.148   3.342 -2.6101 -0.5193  1.1512
 3832SOL    HW222956   0.783   3.081   3.213  1.2008  1.9809  0.1868
 3833SOL     OW22957   1.090   3.603   2.173 -0.9315  0.3618  0.5119
 3833SOL    HW122958   1.019   3.634   2.116 -1.4967 -0.6642  0.6521
 3833SOL    HW222959   1.148   3.677   2.157 -1.1895  0.8096  1.5829
 3834SOL     OW22960   4.620   4.124  11.972  0.3045 -0.7921  0.1142
 3834SOL    HW122961   4.634   4.035  11.939  0.8665 -0.6907  0.0815
 3834SOL    HW222962   4.524   4.128  11.974  0.4194  1.1001  1.2426
 3835SOL     OW22963   2.730   2.952   3.909 -0.0614 -0.2696 -0.0176
 3835SOL    HW122964   2.807   3.009   3.921  1.2727 -1.7895 -1.4015
 3835SOL    HW222965   2.660   3.016   3.895  0.0797  0.0294  0.6486
 3836SOL     OW22966   2.928   2.174   8.988  0.2889 -0.0313  0.5147
 3836SOL    HW122967   2.844   2.147   9.024 -0.6437  0.9328 -0.9298
 3836SOL    HW222968   2.966   2.209   9.068  1.6567 -2.1562  0.8102
 3837SOL     OW22969   3.505   1.594   9.781  0.4997 -0.1934  0.0579
 3837SOL    HW122970   3.508   1.673   9.727 -0.4644  0.3298  0.7606
 3837SOL    HW222971   3.527   1.626   9.869  0.5543  1.4535 -0.5598
 3838SOL     OW22972   1.659   0.148  10.384 -0.1439  0.1840  0.4936
 3838SOL    HW122973   1.665   0.063  10.340  1.6439  0.8652 -0.5782
 3838SOL    HW222974   1.649   0.209  10.311 -0.1502  0.4755  0.7348
 3839SOL     OW22975   1.920   4.252   8.202  0.2075 -0.1531  0.6068
 3839SOL    HW122976   1.898   4.294   8.286  1.6489  1.2349  0.2936
 3839SOL    HW222977   1.936   4.163   8.233 -1.9057  0.1760  2.6622
 3840SOL     OW22978   0.064   3.687   2.499 -0.4955  0.1486 -0.1320
 3840SOL    HW122979   0.091   3.618   2.438 -0.9443  1.3229 -1.6609
 3840SOL    HW222980   4.721   3.634   2.544  0.0099  1.5818  2.2816
 3841SOL     OW22981   3.591   3.820   3.372  0.3420  0.4787 -0.5419
 3841SOL    HW122982   3.608   3.741   3.320  0.7179 -0.4138  0.9444
 3841SOL    HW222983   3.645   3.887   3.329  0.2667  1.1324  0.3791
 3842SOL     OW22984   2.148   3.180   7.158 -0.1863 -0.2856  1.0166
 3842SOL    HW122985   2.222   3.145   7.207 -0.6689  0.9131  2.5892
 3842SOL    HW222986   2.145   3.273   7.179 -1.1534 -0.1188  0.1881
 3843SOL     OW22987   4.240   1.757  14.379 -0.3621 -0.5087  0.5536
 3843SOL    HW122988   4.258   1.680  14.433  0.9572 -1.3883 -1.1267
 3843SOL    HW222989   4.326   1.799  14.389 -0.1884 -0.2314 -1.9436
 3844SOL     OW22990   3.467   2.889   1.586 -0.8925  0.2726  0.5831
 3844SOL    HW122991   3.556   2.922   1.602 -1.0085  0.3991  0.9659
 3844SOL    HW222992   3.478   2.799   1.615  3.6219  1.2106  1.9309
 3845SOL     OW22993   0.480   3.266   3.869  0.0490 -0.3704  0.0214
 3845SOL    HW122994   0.424   3.334   3.907 -1.0296 -0.7954 -0.7873
 3845SOL    HW222995   0.434   3.257   3.785 -0.9032 -1.4213  0.6466
 3846SOL     OW22996   1.994   3.118   5.923 -0.0172 -0.4877 -0.2729
 3846SOL    HW122997   1.991   3.082   6.012 -0.8742  1.2438  0.3980
 3846SOL    HW222998   2.071   3.174   5.924  1.7045 -2.8161 -1.3596
 3847SOL     OW22999   3.193   2.582   1.473  0.1423 -0.1991  0.7954
 3847SOL    HW123000   3.098   2.585   1.484  0.1862 -0.4458  1.2618
 3847SOL    HW223001   3.222   2.525   1.544  1.0371 -1.2493 -0.3951
 3848SOL     OW23002   2.873   1.863   3.682 -0.1377 -0.5074  0.5232
 3848SOL    HW123003   2.898   1.773   3.662 -0.9961 -0.4897 -0.6271
 3848SOL    HW223004   2.779   1.858   3.666  0.2385  0.8099 -2.1909
 3849SOL     OW23005   3.155   0.814   2.722 -0.0427 -0.4429 -0.3844
 3849SOL    HW123006   3.244   0.840   2.700 -0.4099  0.6312 -0.5851
 3849SOL    HW223007   3.170   0.720   2.738  1.0429  0.0131  1.3238
 3850SOL     OW23008   1.963   1.260   6.592  0.4118  0.2508 -0.3695
 3850SOL    HW123009   1.949   1.314   6.670  0.1489  0.8915 -0.8677
 3850SOL    HW223010   2.059   1.258   6.585  0.5677  0.4798  1.7168
 3851SOL     OW23011   1.233   2.534  16.001  0.3400  0.2508 -0.2685
 3851SOL    HW123012   1.268   2.503  16.084 -1.9078 -1.0533  0.1664
 3851SOL    HW223013   1.225   2.454  15.948 -2.8116  0.0319  0.5733
 3852SOL     OW23014   1.000   1.807   7.983  0.0182 -0.3349  0.0915
 3852SOL    HW123015   0.995   1.899   8.010 -1.4119 -0.6525  0.8959
 3852SOL    HW223016   1.091   1.798   7.954 -0.3823  0.3286 -1.3997
 3853SOL     OW23017   0.795   0.460   2.939 -0.3253 -0.3020  0.0389
 3853SOL    HW123018   0.810   0.431   3.029 -1.8898 -3.3642 -0.6772
 3853SOL    HW223019   0.845   0.541   2.949 -2.7535  1.1071  0.7688
 3854SOL     OW23020   1.430   3.624   3.525 -0.3211  1.0577 -0.8882
 3854SOL    HW123021   1.479   3.662   3.451  0.9133 -1.1301 -1.1803
 3854SOL    HW223022   1.405   3.534   3.505  0.0868  0.9404 -0.8638
 3855SOL     OW23023   0.845   3.639  16.231 -0.2905  0.0022  0.3260
 3855SOL    HW123024   0.873   3.658  16.141  0.0730  0.3718  0.5157
 3855SOL    HW223025   0.896   3.694  16.290 -1.0437  0.4754  0.5226
 3856SOL     OW23026   3.697   2.512   2.798  0.3580  0.0243 -0.6400
 3856SOL    HW123027   3.724   2.455   2.870  1.9801  1.1808 -0.3393
 3856SOL    HW223028   3.643   2.575   2.846  0.7829  0.2328 -0.4335
 3857SOL     OW23029   1.989   2.487   3.766 -0.0845 -0.4230  0.3567
 3857SOL    HW123030   2.040   2.529   3.836  0.1649 -1.1942  0.6328
 3857SOL    HW223031   2.036   2.503   3.684  1.4419 -0.9606  1.1261
 3858SOL     OW23032   1.264   1.904   9.099 -0.2217  0.5569  0.0488
 3858SOL    HW123033   1.205   1.881   9.171 -0.3102  1.7861  0.3658
 3858SOL    HW223034   1.196   1.948   9.047 -0.9725 -2.7082 -1.7783
 3859SOL     OW23035   3.085   1.259  10.950 -0.3353 -0.2690 -0.5315
 3859SOL    HW123036   3.163   1.283  11.001 -0.8089 -0.1446  0.1459
 3859SOL    HW223037   3.122   1.217  10.873  0.3004 -0.4593 -0.1323
 3860SOL     OW23038   3.894   4.515  10.812 -0.0325  0.3856 -0.4474
 3860SOL    HW123039   3.889   4.544  10.903  0.5620 -1.6686  0.2239
 3860SOL    HW223040   3.938   4.581  10.758  1.0266  0.2800  0.2887
 3861SOL     OW23041   2.783   0.036   1.351 -0.2726 -0.3616  0.2012
 3861SOL    HW123042   2.711   4.701   1.375 -0.1832 -0.4733  0.2006
 3861SOL    HW223043   2.831   4.715   1.282  2.1547  1.0066  1.0304
 3862SOL     OW23044   2.279   0.344   5.048 -0.4127  0.0855 -0.0561
 3862SOL    HW123045   2.265   0.317   5.139  0.4642  0.8720  0.3188
 3862SOL    HW223046   2.230   0.278   5.000 -0.0450  0.7524 -1.3696
 3863SOL     OW23047   0.601   1.907   1.356 -1.4321  0.3742  0.0277
 3863SOL    HW123048   0.653   1.850   1.301  2.4124  1.7834  2.1766
 3863SOL    HW223049   0.573   1.980   1.300 -0.6140  0.1686 -0.6504
 3864SOL     OW23050   3.869   1.818  14.610  0.2582  0.0031 -0.5177
 3864SOL    HW123051   3.780   1.831  14.577  0.0132  0.0833  0.1728
 3864SOL    HW223052   3.916   1.839  14.529  3.2471 -2.2560  0.6403
 3865SOL     OW23053   0.132   4.356   6.248 -0.3392  0.4488  0.1732
 3865SOL    HW123054   0.152   4.398   6.331 -2.7762  1.8215  0.0676
 3865SOL    HW223055   0.217   4.317   6.225 -0.5646  0.6694 -1.0564
 3866SOL     OW23056   4.456   0.689   1.420  0.4097  0.2495 -0.4486
 3866SOL    HW123057   4.413   0.705   1.504 -0.8215 -0.0669 -1.0228
 3866SOL    HW223058   4.481   0.779   1.401 -0.5395  0.4354 -0.7788
 3867SOL     OW23059   0.422   4.253   9.251  0.1689 -0.2282 -0.6542
 3867SOL    HW123060   0.453   4.162   9.247 -0.9307 -0.5071 -3.1023
 3867SOL    HW223061   0.405   4.273   9.159 -1.2348 -0.0234 -0.3449
 3868SOL     OW23062   2.276   4.440   4.955 -0.2220 -0.2916  0.1356
 3868SOL    HW123063   2.205   4.376   4.947  0.5000 -1.1065  0.3477
 3868SOL    HW223064   2.258   4.486   5.037 -0.0622 -0.4213  0.2430
 3869SOL     OW23065   0.337   1.395  11.211  0.5983 -0.0497 -0.6876
 3869SOL    HW123066   0.384   1.466  11.167 -1.5266  1.2859 -0.7949
 3869SOL    HW223067   0.416   1.348  11.237  1.8376  1.3475 -2.0081
 3870SOL     OW23068   2.696   0.619   8.882 -0.4556 -0.0552 -0.1723
 3870SOL    HW123069   2.744   0.570   8.949  0.5407  1.7298  0.4225
 3870SOL    HW223070   2.736   0.705   8.897  0.6554 -0.7015  0.5938
 3871SOL     OW23071   3.135   2.311  17.472  0.1399 -0.8200  0.0920
 3871SOL    HW123072   3.083   2.289  17.395 -1.1005  0.4756  0.5578
 3871SOL    HW223073   3.126   2.229  17.521  0.4988 -0.7529  0.2756
 3872SOL     OW23074   3.054   1.673   6.550 -0.4326 -0.3677  0.3434
 3872SOL    HW123075   3.077   1.581   6.561 -0.8705 -0.2953  1.9098
 3872SOL    HW223076   3.039   1.687   6.644 -0.2140  1.8619  0.0448
 3873SOL     OW23077   3.523   1.413   5.461 -0.4420 -0.3767 -0.1930
 3873SOL    HW123078   3.468   1.417   5.383 -0.6419  2.1956  0.0627
 3873SOL    HW223079   3.466   1.350   5.504  0.8042 -1.2758  0.1384
 3874SOL     OW23080   4.266   2.424   1.249  0.5732 -0.2551  0.1800
 3874SOL    HW123081   4.345   2.378   1.221 -0.6379 -0.9439 -2.1385
 3874SOL    HW223082   4.244   2.489   1.182  1.1098  0.6739  0.9148
 3875SOL     OW23083   0.611   1.322  12.662 -0.0213 -0.2894  0.0111
 3875SOL    HW123084   0.638   1.410  12.688 -0.4883  0.5514 -2.3237
 3875SOL    HW223085   0.640   1.327  12.571 -0.4226 -0.7636 -0.1489
 3876SOL     OW23086   3.504   3.001   3.068  0.6636  0.7849  0.0295
 3876SOL    HW123087   3.568   2.998   2.997  0.1663  0.3957 -0.3987
 3876SOL    HW223088   3.426   2.986   3.015  0.4445 -1.6116  1.0541
 3877SOL     OW23089   1.277   4.346   4.909 -0.0070  0.1720  0.3838
 3877SOL    HW123090   1.200   4.370   4.960  0.1863 -3.5069  2.4298
 3877SOL    HW223091   1.264   4.397   4.829 -0.6785 -0.1959  0.2564
 3878SOL     OW23092   3.355   3.472   8.796  0.0872  0.4738 -0.4331
 3878SOL    HW123093   3.320   3.471   8.885 -1.6698  3.2665 -1.0853
 3878SOL    HW223094   3.357   3.378   8.778  1.7947 -0.1237  2.7887
 3879SOL     OW23095   2.313   1.901   2.240 -0.2670 -0.1784 -0.5510
 3879SOL    HW123096   2.342   1.887   2.330  0.0051  0.6646 -0.5096
 3879SOL    HW223097   2.399   1.923   2.204  0.6740 -1.0313  1.1776
 3880SOL     OW23098   3.005   2.258   7.552  0.1937 -0.2897  0.0566
 3880SOL    HW123099   3.025   2.324   7.486  0.4689  0.1539  0.5920
 3880SOL    HW223100   3.096   2.229   7.564  0.8989  1.0337 -2.1206
 3881SOL     OW23101   3.455   3.530  16.536  0.4095 -0.4274  0.1982
 3881SOL    HW123102   3.429   3.480  16.614 -2.4459 -1.0645 -1.1605
 3881SOL    HW223103   3.499   3.473  16.474 -1.2846 -0.9808 -0.4957
 3882SOL     OW23104   4.040   2.597   8.684 -0.1838 -0.3452  0.0073
 3882SOL    HW123105   4.022   2.678   8.635  2.3649  1.2495  1.7124
 3882SOL    HW223106   3.952   2.562   8.693 -0.9175  1.5982  0.4078
 3883SOL     OW23107   1.073   0.553   2.241  0.4954 -0.0170 -0.0087
 3883SOL    HW123108   1.066   0.537   2.147 -2.5592  0.4877  0.1343
 3883SOL    HW223109   1.127   0.632   2.236 -1.3024  1.1804 -0.5938
 3884SOL     OW23110   2.402   1.398   1.611  0.4940  0.1854  0.1712
 3884SOL    HW123111   2.467   1.451   1.656 -0.1226  0.7276  0.4266
 3884SOL    HW223112   2.455   1.382   1.533 -0.6991  2.6646 -1.1608
 3885SOL     OW23113   3.981   4.100   0.339 -0.1136 -0.1321  0.2828
 3885SOL    HW123114   3.921   4.174   0.333  0.6346  0.3489 -1.1473
 3885SOL    HW223115   4.045   4.138   0.400  0.8061  0.2984 -0.9501
 3886SOL     OW23116   3.423   1.282   4.163 -0.1704 -0.2239 -0.0928
 3886SOL    HW123117   3.350   1.219   4.156 -1.0676  0.6869  0.9143
 3886SOL    HW223118   3.377   1.366   4.159 -1.2072 -0.5565  3.8818
 3887SOL     OW23119   4.021   1.394  16.011  0.0309  0.7527  0.1422
 3887SOL    HW123120   4.003   1.357  15.925 -2.1314  0.1739  0.8422
 3887SOL    HW223121   3.992   1.322  16.068  1.9770 -0.3147 -0.1956
 3888SOL     OW23122   0.060   3.973   7.471  0.2064  0.6316 -0.1207
 3888SOL    HW123123   0.135   3.917   7.491 -1.2565 -1.6306 -0.9915
 3888SOL    HW223124   0.015   3.914   7.411 -0.5166  1.1619 -0.1011
 3889SOL     OW23125   1.215   2.979   6.280 -0.0994 -0.2554 -0.0378
 3889SOL    HW123126   1.277   3.020   6.221 -0.7656  0.4474 -0.2529
 3889SOL    HW223127   1.133   2.984   6.231  0.2519  2.0549 -0.3679
 3890SOL     OW23128   0.616   1.286  14.906 -0.5657  0.2074 -0.2069
 3890SOL    HW123129   0.663   1.310  14.826  0.7726 -1.3810  0.0920
 3890SOL    HW223130   0.667   1.216  14.947 -0.1780 -0.0462 -1.1349
 3891SOL     OW23131   3.664   1.913   6.620 -0.4835  0.2754  0.5092
 3891SOL    HW123132   3.757   1.919   6.641 -0.3372  0.4146 -0.1716
 3891SOL    HW223133   3.650   2.008   6.622  2.7701  0.8100 -1.9150
 3892SOL     OW23134   1.847   2.210   8.347 -0.0730  0.5053 -0.4672
 3892SOL    HW123135   1.934   2.242   8.323  0.8680 -0.9213  0.9997
 3892SOL    HW223136   1.862   2.158   8.426  2.6265  2.2480  0.1823
 3893SOL     OW23137   3.827   3.595  13.832 -0.1168  0.9160  0.2510
 3893SOL    HW123138   3.913   3.606  13.790  0.6849 -0.8886  1.4199
 3893SOL    HW223139   3.781   3.540  13.769  2.2083 -0.0866 -0.5866
 3894SOL     OW23140   0.842   1.772   5.172 -0.5892 -0.0154  0.0709
 3894SOL    HW123141   0.885   1.808   5.250 -0.0786  0.4112 -0.4059
 3894SOL    HW223142   0.843   1.676   5.179 -0.3630  0.1961  2.9765
 3895SOL     OW23143   2.062   1.441   4.531 -0.0776 -0.3922  1.0439
 3895SOL    HW123144   2.128   1.383   4.493 -1.0377 -0.5158 -0.4454
 3895SOL    HW223145   2.040   1.393   4.611 -0.2957  0.2562  1.3725
 3896SOL     OW23146   4.425   1.730  11.294  0.4109 -0.3556  0.7289
 3896SOL    HW123147   4.356   1.669  11.268 -0.5787  2.1384 -2.5431
 3896SOL    HW223148   4.375   1.804  11.329 -0.5584 -0.6622 -0.0110
 3897SOL     OW23149   4.720   3.329  17.620  0.1634  0.4016  0.7689
 3897SOL    HW123150   0.074   3.359  17.669 -0.6407  1.4328  1.3764
 3897SOL    HW223151   4.672   3.278  17.685 -1.1907 -0.5349 -0.9825
 3898SOL     OW23152   4.093   0.975   4.068 -0.0480  0.4465  0.2098
 3898SOL    HW123153   4.076   0.882   4.084 -0.2024  0.4304 -0.0582
 3898SOL    HW223154   4.146   0.955   3.991 -1.3755  0.4263 -0.6886
 3899SOL     OW23155   0.146   1.807   4.538  0.0836  0.1077  0.0054
 3899SOL    HW123156   0.199   1.731   4.514  0.6572  1.9831 -4.6194
 3899SOL    HW223157   0.091   1.808   4.459  0.4636  2.5544 -0.2066
 3900SOL     OW23158   4.497   1.373  11.316 -0.4980  0.6252  0.4000
 3900SOL    HW123159   4.453   1.407  11.394  0.9618 -1.2526  2.0449
 3900SOL    HW223160   4.559   1.320  11.366 -0.5825 -1.4511 -1.7230
 3901SOL     OW23161   4.152   2.180   1.802  0.1624  0.4330  0.4970
 3901SOL    HW123162   4.190   2.115   1.860  3.5700  2.4737  0.5087
 3901SOL    HW223163   4.087   2.129   1.754 -0.5826  2.1197 -0.3009
 3902SOL     OW23164   1.024   4.545  16.843 -0.6117  0.3759 -0.0785
 3902SOL    HW123165   0.969   4.478  16.802  1.7071 -1.4132 -0.2636
 3902SOL    HW223166   1.007   4.634  16.812  3.0067  1.1811  0.2158
 3903SOL     OW23167   0.952   0.175   4.836  0.2950  0.1615  0.9416
 3903SOL    HW123168   0.928   0.125   4.914  0.5826 -0.9178  0.3295
 3903SOL    HW223169   0.913   0.109   4.779  1.0677  1.8253 -1.5283
 3904SOL     OW23170   3.388   1.441   5.237  0.5087  0.2084 -1.0806
 3904SOL    HW123171   3.293   1.437   5.251  0.5725  1.3152 -0.3897
 3904SOL    HW223172   3.400   1.457   5.143  1.3252 -0.7847 -1.1533
 3905SOL     OW23173   4.669   4.382  12.583 -0.2075  0.0860 -0.1652
 3905SOL    HW123174   0.035   4.355  12.602 -0.3981 -0.1357  0.4063
 3905SOL    HW223175   4.626   4.418  12.661 -0.2969 -2.2462  0.8608
 3906SOL     OW23176   0.531   0.567   2.439 -0.2381 -0.8585  0.1048
 3906SOL    HW123177   0.436   0.563   2.447 -0.2350 -0.1863  0.5029
 3906SOL    HW223178   0.535   0.648   2.389  3.2488 -1.5792 -0.7974
 3907SOL     OW23179   4.403   0.051   9.775 -0.0141 -0.4930 -0.8436
 3907SOL    HW123180   4.395   0.118   9.706 -0.7704  1.8792  1.5711
 3907SOL    HW223181   4.492   0.076   9.799 -0.3079 -0.6894  0.4023
 3908SOL     OW23182   2.585   1.886   4.600  0.6133  0.4415 -0.1742
 3908SOL    HW123183   2.666   1.836   4.592  0.4358  0.4811 -2.0668
 3908SOL    HW223184   2.526   1.848   4.536  0.5774  1.0660 -0.5061
 3909SOL     OW23185   0.490   0.094   8.074 -0.0553  0.5285 -0.6280
 3909SOL    HW123186   0.575   0.136   8.084 -0.5828  2.1041 -2.6740
 3909SOL    HW223187   0.510   0.008   8.110 -2.7018  0.2762  0.2236
 3910SOL     OW23188   3.113   1.899   3.137  0.3892 -0.0743  0.0088
 3910SOL    HW123189   3.132   1.884   3.045  1.7088  0.2605  0.2272
 3910SOL    HW223190   3.053   1.833   3.170  1.9611 -0.6398  1.7345
 3911SOL     OW23191   1.406   2.759   4.591 -0.2645  0.3368  0.7566
 3911SOL    HW123192   1.407   2.701   4.516 -0.3798  1.0832  0.1727
 3911SOL    HW223193   1.400   2.848   4.556  0.8521 -0.3776 -1.2624
 3912SOL     OW23194   2.646   0.893   9.998 -0.4739  0.2685 -0.6913
 3912SOL    HW123195   2.694   0.850  10.069  0.1467 -1.0608 -1.9190
 3912SOL    HW223196   2.608   0.968  10.043 -0.5236 -0.2865  0.1821
 3913SOL     OW23197   1.290   3.488   7.252 -0.0886 -0.1223  0.4335
 3913SOL    HW123198   1.197   3.509   7.260 -0.3229 -1.2671  0.7532
 3913SOL    HW223199   1.297   3.502   7.158 -0.5234  2.2466  0.7419
 3914SOL     OW23200   0.808   2.313   6.424 -0.3877 -0.3960  0.5014
 3914SOL    HW123201   0.876   2.249   6.444 -0.7750 -0.6699  0.9338
 3914SOL    HW223202   0.754   2.299   6.502 -1.2796  2.0544  0.3228
 3915SOL     OW23203   0.599   2.972   0.949  0.0616 -0.1666  0.3888
 3915SOL    HW123204   0.518   3.008   0.985  0.2139  1.1360 -0.6023
 3915SOL    HW223205   0.566   2.892   0.907  0.6758 -0.1420 -0.1398
 3916SOL     OW23206   0.081   3.416   3.435 -0.6740 -0.0566 -0.3626
 3916SOL    HW123207   0.007   3.394   3.492 -1.4666  0.7389 -1.0987
 3916SOL    HW223208   0.046   3.495   3.394  0.5522 -0.1300 -1.5203
 3917SOL     OW23209   2.342   0.330   5.566  0.2035 -0.1964  0.1791
 3917SOL    HW123210   2.294   0.248   5.560  0.7132 -0.6360  2.2967
 3917SOL    HW223211   2.377   0.334   5.476  2.4841 -2.0257  0.9652
 3918SOL     OW23212   1.300   3.590   6.095 -0.7511 -0.2014 -0.3494
 3918SOL    HW123213   1.231   3.610   6.031 -0.1848 -0.7108 -1.1315
 3918SOL    HW223214   1.271   3.647   6.166 -1.5000 -0.2602 -0.6065
 3919SOL     OW23215   3.646   3.152   6.828  0.2222 -0.0299 -0.5314
 3919SOL    HW123216   3.714   3.151   6.895 -1.3626  2.4681  1.1307
 3919SOL    HW223217   3.665   3.072   6.779 -0.7864  0.0703 -1.0986
 3920SOL     OW23218   3.474   2.537   5.978  0.3998 -0.3871 -0.1156
 3920SOL    HW123219   3.503   2.605   5.918  0.9591  1.4372  2.2081
 3920SOL    HW223220   3.493   2.460   5.924  1.7813 -0.3453  0.3026
 3921SOL     OW23221   3.927   0.076   3.908  0.0116  0.4901 -0.3086
 3921SOL    HW123222   3.963   0.070   3.820  1.7552 -0.1876  0.4458
 3921SOL    HW223223   3.895   4.710   3.920 -3.0924  1.6764  0.3193
 3922SOL     OW23224   1.516   1.412   3.543 -0.1036 -0.0108 -0.2004
 3922SOL    HW123225   1.515   1.452   3.630  0.0221 -1.6585  0.5610
 3922SOL    HW223226   1.523   1.317   3.549 -0.5622 -0.0030  0.5212
 3923SOL     OW23227   1.165   2.377  12.031  0.4541  0.1122 -0.6945
 3923SOL    HW123228   1.248   2.332  12.018 -0.3349 -1.7846  0.9976
 3923SOL    HW223229   1.102   2.308  12.049  0.5980  0.3592  0.7076
 3924SOL     OW23230   3.633   3.933   3.620  0.1392  0.4742 -0.1161
 3924SOL    HW123231   3.638   3.884   3.702 -0.2323 -0.4759 -0.6646
 3924SOL    HW223232   3.602   3.859   3.569 -0.9070  1.1123 -0.4051
 3925SOL     OW23233   0.137   0.919   9.388  0.2186  0.3616 -0.0467
 3925SOL    HW123234   0.170   0.861   9.456  0.4659  1.4859  0.7927
 3925SOL    HW223235   0.210   0.982   9.386 -0.4560  1.0137 -3.4867
 3926SOL     OW23236   1.263   0.929   8.581 -0.5516  0.0085 -0.5033
 3926SOL    HW123237   1.244   0.874   8.658 -0.0668 -1.0653 -1.1481
 3926SOL    HW223238   1.345   0.882   8.566 -0.4636  0.0213 -0.0710
 3927SOL     OW23239   3.792   1.294  13.062 -0.0033 -0.4218  0.0320
 3927SOL    HW123240   3.699   1.306  13.082 -0.2885 -1.2999 -0.7645
 3927SOL    HW223241   3.833   1.339  13.136  0.1310  0.7553 -0.7654
 3928SOL     OW23242   3.777   4.264  11.132  0.6034 -0.2191  0.0625
 3928SOL    HW123243   3.780   4.337  11.070 -0.5207 -0.7643 -0.6330
 3928SOL    HW223244   3.769   4.318  11.211  2.2426  1.5707 -0.9789
 3929SOL     OW23245   3.718   1.605   7.803 -0.4067 -0.3668 -0.2052
 3929SOL    HW123246   3.751   1.519   7.780 -0.2761 -0.4430  0.2705
 3929SOL    HW223247   3.705   1.592   7.897  0.0613  3.2139  0.3599
 3930SOL     OW23248   0.224   4.262   4.356  0.3051  0.5585  0.3776
 3930SOL    HW123249   0.287   4.200   4.320 -0.2122  1.8837 -2.8234
 3930SOL    HW223250   0.200   4.303   4.273 -0.4787 -0.1182  0.2771
 3931SOL     OW23251   0.904   2.491  16.068  0.2554  0.3444  0.8807
 3931SOL    HW123252   0.965   2.423  16.093  0.3871  0.3952  0.6957
 3931SOL    HW223253   0.846   2.490  16.144 -0.3659 -0.7348  0.3811
 3932SOL     OW23254   1.524   1.734   4.779  0.1008 -0.4179 -0.1089
 3932SOL    HW123255   1.599   1.780   4.741 -0.3226 -0.7858 -1.4090
 3932SOL    HW223256   1.523   1.780   4.863 -2.0662  0.5090 -0.6376
 3933SOL     OW23257   2.333   2.123   2.997 -0.3039  0.0708  0.2010
 3933SOL    HW123258   2.342   2.082   2.911  1.4015 -1.2288  0.9928
 3933SOL    HW223259   2.330   2.051   3.059 -0.4552 -1.5439 -1.7094
 3934SOL     OW23260   0.032   1.367   3.456 -0.5629  0.1517 -0.1132
 3934SOL    HW123261   0.079   1.429   3.400 -0.0391 -3.8027 -4.0570
 3934SOL    HW223262   0.049   1.407   3.542 -0.3061  0.0571 -0.1202
 3935SOL     OW23263   0.380   1.517   8.345  0.0745  0.2014 -0.1175
 3935SOL    HW123264   0.463   1.474   8.323  0.9739  2.1843 -0.6444
 3935SOL    HW223265   0.352   1.483   8.430 -0.4832 -0.0024 -0.3802
 3936SOL     OW23266   2.832   1.541   4.730 -0.2984  0.4045  0.6267
 3936SOL    HW123267   2.755   1.512   4.682 -0.0770  1.1685 -0.1777
 3936SOL    HW223268   2.863   1.617   4.681 -1.5903  0.3446 -0.2762
 3937SOL     OW23269   0.101   2.946   3.587 -0.1124 -0.1877  0.1575
 3937SOL    HW123270   0.052   2.988   3.658  1.1290  0.9361  0.3590
 3937SOL    HW223271   0.140   2.870   3.630 -1.8012 -0.1023  1.8704
 3938SOL     OW23272   3.594   2.070   8.281  0.2939  0.0164  0.1645
 3938SOL    HW123273   3.605   1.976   8.291 -2.9870  0.0643  3.9767
 3938SOL    HW223274   3.662   2.091   8.217  0.6522 -0.0278  0.5357
 3939SOL     OW23275   3.699   0.829  17.444 -0.0933 -0.8194  0.0566
 3939SOL    HW123276   3.619   0.809  17.395 -2.0782  0.2833  2.7988
 3939SOL    HW223277   3.701   0.749  17.497 -2.2459 -0.0421  1.3390
 3940SOL     OW23278   4.612   3.560  15.952  0.1580 -0.0144 -0.2015
 3940SOL    HW123279   4.526   3.557  15.994 -0.1585 -3.4183 -1.1039
 3940SOL    HW223280   4.599   3.632  15.891 -3.0905  0.2606  0.8399
 3941SOL     OW23281   3.823   2.125  14.545  0.3807 -0.0343  0.1344
 3941SOL    HW123282   3.854   2.067  14.476  1.2476 -2.0136  2.1563
 3941SOL    HW223283   3.906   2.135  14.592  0.2779 -0.4950  0.4239
 3942SOL     OW23284   4.267   0.830   3.885 -0.2410  0.0121  0.3026
 3942SOL    HW123285   4.316   0.793   3.959  1.5648  2.1275  0.1479
 3942SOL    HW223286   4.309   0.786   3.811  1.2810  1.6433  0.2104
 3943SOL     OW23287   0.843   2.383   8.677  0.8895  0.0979  0.1687
 3943SOL    HW123288   0.873   2.439   8.605  0.5566  1.1851  0.8764
 3943SOL    HW223289   0.829   2.446   8.747 -0.2483 -0.3821  0.3759
 3944SOL     OW23290   0.382   2.696   3.374 -0.2523  0.1967  0.2635
 3944SOL    HW123291   0.395   2.619   3.431 -1.9053 -0.6268 -0.4779
 3944SOL    HW223292   0.474   2.709   3.351 -1.2138  1.2235 -2.8946
 3945SOL     OW23293   0.923   3.417  10.779 -0.2385 -0.2218  0.3468
 3945SOL    HW123294   0.967   3.332  10.776 -1.3571 -0.8448  1.1135
 3945SOL    HW223295   0.987   3.476  10.740  1.4880 -3.1814 -1.2894
 3946SOL     OW23296   4.274   3.247  16.515  0.0646  0.4820 -0.1049
 3946SOL    HW123297   4.206   3.255  16.449 -0.4094 -1.4556  0.1361
 3946SOL    HW223298   4.220   3.231  16.593 -0.4850  1.8262 -0.1997
 3947SOL     OW23299   0.513   2.318   1.775  0.0888  0.4143  0.6318
 3947SOL    HW123300   0.535   2.292   1.686 -0.5361  1.7715  0.0782
 3947SOL    HW223301   0.496   2.408   1.746 -2.7797 -0.6256 -0.9053
 3948SOL     OW23302   0.585   1.841   6.797  0.0526 -0.2192 -0.1422
 3948SOL    HW123303   0.494   1.850   6.827 -0.1742 -1.3711 -0.4710
 3948SOL    HW223304   0.620   1.769   6.849 -0.0729  0.8369  1.4115
 3949SOL     OW23305   0.026   1.631  10.984  0.1075  0.1564 -0.5391
 3949SOL    HW123306   0.053   1.621  11.076  1.2705  2.6554 -0.6017
 3949SOL    HW223307   0.068   1.553  10.950 -1.1659 -0.9123  0.3572
 3950SOL     OW23308   0.213   0.278  15.744 -0.3396 -0.4446  0.0866
 3950SOL    HW123309   0.228   0.249  15.834  2.7094  0.3721 -0.1552
 3950SOL    HW223310   0.258   0.363  15.745 -1.9156  0.4076 -1.7396
 3951SOL     OW23311   3.420   4.338  14.278  0.2269  0.0055  0.4769
 3951SOL    HW123312   3.418   4.247  14.308 -1.2142  0.1724  0.8782
 3951SOL    HW223313   3.421   4.393  14.357 -0.1891 -1.3651  1.4287
 3952SOL     OW23314   0.672   2.015   7.396  0.7527 -0.3248  0.5891
 3952SOL    HW123315   0.577   2.015   7.406  0.5008  1.0451 -1.9503
 3952SOL    HW223316   0.692   2.106   7.374 -0.3904 -0.3947 -0.7563
 3953SOL     OW23317   3.873   1.917   9.121  0.0420 -0.1440  0.6818
 3953SOL    HW123318   3.904   1.962   9.043 -0.3454 -0.0455  0.5852
 3953SOL    HW223319   3.853   1.994   9.174 -1.1862 -0.8419  1.2508
 3954SOL     OW23320   2.226   1.131   5.550 -0.0236  0.0187  0.3250
 3954SOL    HW123321   2.173   1.052   5.540 -1.3619  1.0206 -0.6471
 3954SOL    HW223322   2.314   1.107   5.521  0.8633  1.7207  1.5981
 3955SOL     OW23323   0.226   4.568   2.052  0.5440 -0.3058  0.2854
 3955SOL    HW123324   0.163   4.635   2.026 -1.3351 -2.2234 -0.1104
 3955SOL    HW223325   0.263   4.532   1.972  0.9444  0.6366  0.0488
 3956SOL     OW23326   1.893   1.087  10.666 -0.3110  0.0081  0.2171
 3956SOL    HW123327   1.827   1.152  10.643 -0.0798  0.2071  0.1156
 3956SOL    HW223328   1.836   1.012  10.649  3.3919 -2.7260 -0.2482
 3957SOL     OW23329   4.337   3.626  13.688 -1.2405  0.0480  0.5120
 3957SOL    HW123330   4.345   3.628  13.592 -3.7057 -1.7958  0.2681
 3957SOL    HW223331   4.428   3.627  13.717 -0.8169 -0.8013 -0.7734
 3958SOL     OW23332   0.209   4.157   8.963 -0.5367 -0.4861 -0.0862
 3958SOL    HW123333   0.304   4.165   8.953 -0.3878 -1.5737  0.5164
 3958SOL    HW223334   0.206   4.090   9.031 -1.1643 -0.2069  0.1660
 3959SOL     OW23335   1.232   1.241  15.289  0.1699 -0.4226  0.5503
 3959SOL    HW123336   1.237   1.265  15.196 -0.8333 -1.0552  0.3306
 3959SOL    HW223337   1.326   1.222  15.293  0.6220  1.9822  1.2034
 3960SOL     OW23338   4.496   2.520   6.745 -0.3309  0.5066 -0.3902
 3960SOL    HW123339   4.578   2.476   6.724 -0.5140 -0.5025  0.9796
 3960SOL    HW223340   4.506   2.600   6.695  1.5615 -1.3961 -3.0497
 3961SOL     OW23341   1.456   3.935   7.288 -0.5551  0.1853 -0.0240
 3961SOL    HW123342   1.480   3.984   7.367 -2.0052  0.8105  0.0268
 3961SOL    HW223343   1.536   3.885   7.271  0.4861  2.0876 -0.8284
 3962SOL     OW23344   2.116   0.722   2.839  0.4795 -0.5940  0.1808
 3962SOL    HW123345   2.172   0.797   2.820  0.8436 -0.5243  1.4974
 3962SOL    HW223346   2.178   0.651   2.826  1.2753  0.2363 -0.5369
 3963SOL     OW23347   0.713   3.896   8.277 -0.2313 -0.1383  0.1678
 3963SOL    HW123348   0.707   3.952   8.200  1.9346  0.5025  0.4665
 3963SOL    HW223349   0.622   3.867   8.274  0.6451 -2.8464 -1.1386
 3964SOL     OW23350   3.032   1.335  17.561 -0.0971 -0.2322 -0.0641
 3964SOL    HW123351   3.035   1.240  17.545 -0.8066 -0.4071  0.8626
 3964SOL    HW223352   3.119   1.368  17.540 -0.3267  0.0390 -0.6043
 3965SOL     OW23353   4.548   2.960   0.809  0.4632 -0.0909  0.0311
 3965SOL    HW123354   4.534   2.868   0.789 -1.4737  0.0723  0.6496
 3965SOL    HW223355   4.605   2.958   0.887  1.9700  1.4665 -1.0241
 3966SOL     OW23356   3.832   4.015  11.004 -0.1557  0.0711 -0.1579
 3966SOL    HW123357   3.906   3.961  11.033  0.6720  0.3901 -1.6879
 3966SOL    HW223358   3.873   4.094  11.039 -0.8707  1.2148 -1.9193
 3967SOL     OW23359   3.877   1.768   3.430  0.0045 -0.2180  0.0464
 3967SOL    HW123360   3.893   1.773   3.336  0.5165  0.0139  0.1480
 3967SOL    HW223361   3.803   1.708   3.422 -1.5739  1.6510  0.4299
 3968SOL     OW23362   0.876   1.838  12.963  0.1195 -0.1029  0.4136
 3968SOL    HW123363   0.934   1.912  12.973 -1.1120  1.0554 -0.8950
 3968SOL    HW223364   0.917   1.770  13.016  0.2774 -1.5320 -1.5136
 3969SOL     OW23365   3.365   4.545  11.577 -0.2126 -0.0909 -0.1862
 3969SOL    HW123366   3.405   4.534  11.663 -1.1809 -0.8856  0.1528
 3969SOL    HW223367   3.380   4.460  11.536 -1.5240 -0.4396  0.0776
 3970SOL     OW23368   4.012   3.044  14.064 -0.0111 -0.2863 -0.5560
 3970SOL    HW123369   3.957   2.968  14.045 -1.3521  0.7158 -0.6896
 3970SOL    HW223370   4.102   3.020  14.039  0.0958 -1.5136  1.0207
 3971SOL     OW23371   2.707   3.268   5.986 -0.3575 -0.3827  0.4174
 3971SOL    HW123372   2.633   3.228   5.941  1.1414 -0.3512 -2.0831
 3971SOL    HW223373   2.777   3.210   5.956  1.2779  1.9798 -0.3048
 3972SOL     OW23374   1.644   1.058   5.150  0.4752 -0.1198 -0.3861
 3972SOL    HW123375   1.560   1.103   5.159  0.3701 -0.8872  2.4723
 3972SOL    HW223376   1.714   1.094   5.204  0.3086  0.6240 -0.6701
 3973SOL     OW23377   2.632   4.587   6.433 -0.5344  0.0596 -0.0030
 3973SOL    HW123378   2.707   4.630   6.476  0.2394 -0.1603 -1.1207
 3973SOL    HW223379   2.673   4.541   6.359  0.5244 -2.3542  2.0866
 3974SOL     OW23380   0.947   2.325   0.882  0.0000 -0.3030  0.6601
 3974SOL    HW123381   1.003   2.398   0.908 -1.6514  0.9735  0.6563
 3974SOL    HW223382   0.982   2.295   0.798 -0.8926  1.0789 -0.2196
 3975SOL     OW23383   3.489   3.069  16.661  0.3815 -0.6841  0.0045
 3975SOL    HW123384   3.403   3.034  16.686  0.3952 -0.1451  0.8162
 3975SOL    HW223385   3.465   3.160  16.642  0.5691 -1.1144 -2.2766
 3976SOL     OW23386   4.545   1.978   8.350  0.1285  0.6968 -0.8725
 3976SOL    HW123387   4.601   1.966   8.273  0.0516 -0.5932 -0.7190
 3976SOL    HW223388   4.470   2.005   8.297 -1.4943  0.6435  1.4378
 3977SOL     OW23389   0.824   3.643   8.333 -0.4837 -0.4031  0.0054
 3977SOL    HW123390   0.899   3.676   8.382 -1.4220 -0.6716  1.6227
 3977SOL    HW223391   0.774   3.723   8.319  0.9687  0.7365  1.2691
 3978SOL     OW23392   4.330   1.378   4.291  0.3970 -0.3005  0.2845
 3978SOL    HW123393   4.319   1.283   4.300 -0.2574 -0.1046  1.4776
 3978SOL    HW223394   4.355   1.405   4.379 -1.9800  0.5672  0.6896
 3979SOL     OW23395   3.065   3.901   6.774  0.6026  0.5648  0.3623
 3979SOL    HW123396   3.160   3.907   6.788  0.9719  0.2527 -2.0430
 3979SOL    HW223397   3.036   3.992   6.781  2.2977  1.1097  0.5069
 3980SOL     OW23398   2.985   2.169   4.890  0.6556 -0.3425  0.1528
 3980SOL    HW123399   2.914   2.210   4.939  1.1449 -0.2770  0.8163
 3980SOL    HW223400   2.994   2.204   4.802  0.6709 -2.0290 -0.5047
 3981SOL     OW23401   1.461   1.132   6.096 -0.0199 -0.4827 -0.4379
 3981SOL    HW123402   1.547   1.126   6.139 -0.9139  1.5362  1.6119
 3981SOL    HW223403   1.468   1.221   6.063  0.0784  0.4876  2.2058
 3982SOL     OW23404   2.688   2.932   0.823 -0.1486 -0.0014  0.3402
 3982SOL    HW123405   2.619   2.950   0.760  0.3649  1.7293  0.2577
 3982SOL    HW223406   2.750   3.004   0.805 -1.5916  1.3464  0.7692
 3983SOL     OW23407   1.952   2.906   2.175 -0.2620  0.3586  0.6883
 3983SOL    HW123408   2.038   2.948   2.176  0.1027 -0.3901  1.1755
 3983SOL    HW223409   1.986   2.817   2.172 -1.5053 -0.0859  0.1116
 3984SOL     OW23410   2.008   2.759   4.571 -0.1902  0.0850 -0.0927
 3984SOL    HW123411   2.083   2.735   4.518  1.4603  1.4761  1.6144
 3984SOL    HW223412   1.995   2.678   4.620  1.8197 -1.5204 -2.2341
 3985SOL     OW23413   2.794   3.736   6.927 -0.0987 -0.3779 -0.5553
 3985SOL    HW123414   2.792   3.764   6.835 -1.1394  3.2149  0.5785
 3985SOL    HW223415   2.716   3.778   6.964  1.7463  0.2960  2.5576
 3986SOL     OW23416   3.717   4.505   9.835 -0.2949  0.2216  0.4595
 3986SOL    HW123417   3.739   4.496   9.742  1.4361 -2.1406  1.0791
 3986SOL    HW223418   3.716   4.600   9.840  1.4559  0.3688 -1.7990
 3987SOL     OW23419   0.288   1.855   4.909  0.0783 -0.6890 -0.3796
 3987SOL    HW123420   0.195   1.870   4.889 -0.2559  0.8503  2.3878
 3987SOL    HW223421   0.307   1.909   4.986 -0.7230 -1.3208  0.2602
 3988SOL     OW23422   1.570   1.906   5.007 -0.4754 -0.1970  0.8363
 3988SOL    HW123423   1.628   1.842   5.050  0.4545 -0.8056 -1.2991
 3988SOL    HW223424   1.604   1.989   5.039 -0.1483  0.2834 -0.7547
 3989SOL     OW23425   0.894   4.596   1.198  0.3346 -0.1796  0.2246
 3989SOL    HW123426   0.817   4.552   1.235 -0.7268 -0.5409 -2.3888
 3989SOL    HW223427   0.858   4.614   1.111 -1.7498  0.9571  1.3377
 3990SOL     OW23428   2.728   3.675   3.465  0.0024  0.2374 -0.2787
 3990SOL    HW123429   2.705   3.707   3.378 -0.4555  1.5662  0.3316
 3990SOL    HW223430   2.821   3.657   3.456  0.0583  1.1658 -1.6125
 3991SOL     OW23431   2.180   1.917   8.560  0.3516  0.1475  0.5055
 3991SOL    HW123432   2.253   1.868   8.598 -0.2224 -0.7448  0.4472
 3991SOL    HW223433   2.201   2.005   8.592 -0.9935  0.4343  0.6189
 3992SOL     OW23434   0.620   3.718   4.524  0.3919 -0.4503  0.0769
 3992SOL    HW123435   0.640   3.642   4.580  1.2631 -0.1497  0.1766
 3992SOL    HW223436   0.707   3.758   4.528  0.8722 -1.6738  1.8140
 3993SOL     OW23437   3.648   1.693   2.329  0.0905 -0.2508 -0.0840
 3993SOL    HW123438   3.709   1.652   2.268  0.2476 -0.9809  0.5566
 3993SOL    HW223439   3.710   1.740   2.384 -0.8275  0.6641  0.1731
 3994SOL     OW23440   4.367   1.430   4.622 -0.1107  0.2594 -0.1098
 3994SOL    HW123441   4.276   1.403   4.633  0.1518  0.4499  2.5133
 3994SOL    HW223442   4.379   1.522   4.646 -1.1016  0.4740 -0.4369
 3995SOL     OW23443   2.886   3.913   3.306 -0.0198  0.1439  0.0086
 3995SOL    HW123444   2.925   3.979   3.248  3.1413 -0.0123  1.9457
 3995SOL    HW223445   2.912   3.837   3.255  2.6381  1.9084 -1.2825
 3996SOL     OW23446   0.935   1.872   2.421  0.6865 -0.3995 -0.8111
 3996SOL    HW123447   0.896   1.958   2.433 -0.3602 -0.8990 -0.5723
 3996SOL    HW223448   0.997   1.894   2.352 -0.4840  2.6054 -0.8763
 3997SOL     OW23449   1.536   1.898   9.417 -0.1630 -0.5314 -0.3384
 3997SOL    HW123450   1.538   1.934   9.328  0.1378  0.0455 -0.1010
 3997SOL    HW223451   1.592   1.956   9.468  1.1060 -2.5491  0.5822
 3998SOL     OW23452   2.384   0.547  13.387  0.1318 -0.0779 -0.1999
 3998SOL    HW123453   2.407   0.528  13.478  2.0688  1.2521 -0.4105
 3998SOL    HW223454   2.295   0.514  13.376  0.2183  0.0114 -1.1646
 3999SOL     OW23455   0.857   2.655   6.363 -0.5920 -0.6312  0.5803
 3999SOL    HW123456   0.788   2.705   6.407  1.1787  2.3105  0.0001
 3999SOL    HW223457   0.805   2.587   6.320 -0.6314  1.0597 -2.0360
 4000SOL     OW23458   1.494   0.785   8.586  0.2748  0.2664  0.6676
 4000SOL    HW123459   1.499   0.708   8.530  0.4686 -0.1015  1.1811
 4000SOL    HW223460   1.580   0.769   8.625 -0.0589 -2.5794  0.2356
 4001SOL     OW23461   4.503   0.763   5.398 -0.3931 -0.0716  0.0693
 4001SOL    HW123462   4.595   0.788   5.387 -0.3530 -0.4649 -0.4779
 4001SOL    HW223463   4.467   0.824   5.333  1.1290  0.8659  0.1066
 4002SOL     OW23464   1.920   2.009   5.736 -0.1368  0.1184 -0.0439
 4002SOL    HW123465   1.891   1.938   5.793 -1.0665  1.7898  1.5627
 4002SOL    HW223466   1.912   2.079   5.801  0.5021 -0.5671  0.7686
 4003SOL     OW23467   0.808   0.866  13.434  0.1979  0.5012  0.0075
 4003SOL    HW123468   0.825   0.772  13.436  3.6030  1.1627  1.7832
 4003SOL    HW223469   0.753   0.879  13.512 -0.3652  2.0250 -0.6275
 4004SOL     OW23470   3.241   2.926   1.970 -0.2298 -0.2738 -0.4993
 4004SOL    HW123471   3.323   2.880   1.949  0.2154  0.4242 -0.2687
 4004SOL    HW223472   3.183   2.871   1.918 -0.9758  0.2368 -0.1910
 4005SOL     OW23473   0.748   1.699   4.741 -0.4714  0.6613  0.3236
 4005SOL    HW123474   0.665   1.698   4.789 -0.1636  0.2723  0.8505
 4005SOL    HW223475   0.749   1.610   4.705  1.2553  1.4019 -1.4398
 4006SOL     OW23476   4.415   1.950   0.128 -0.4011 -0.9610 -0.3519
 4006SOL    HW123477   4.330   1.988   0.106  0.7706  2.8018  1.5865
 4006SOL    HW223478   4.449   1.972   0.041  0.5893  1.1543  0.5710
 4007SOL     OW23479   1.912   4.108   2.282  0.3567  0.0345  0.1051
 4007SOL    HW123480   1.860   4.127   2.359 -0.1424 -1.9812  0.2770
 4007SOL    HW223481   1.968   4.048   2.332  0.8441 -0.0033 -0.4729
 4008SOL     OW23482   2.744   3.133   1.665 -0.1024  0.1242 -0.0655
 4008SOL    HW123483   2.725   3.043   1.691 -0.7186 -0.0730 -1.1935
 4008SOL    HW223484   2.803   3.157   1.736 -1.2802  1.1858  0.5640
 4009SOL     OW23485   3.072   3.642  16.252  0.2180  0.0946 -0.0819
 4009SOL    HW123486   3.045   3.552  16.235  0.5090  0.1186 -0.6536
 4009SOL    HW223487   3.118   3.628  16.335  0.7132  0.2532 -0.3259
 4010SOL     OW23488   4.166   1.893  11.133 -0.2286 -0.5906  0.1260
 4010SOL    HW123489   4.186   1.941  11.214 -3.0344 -0.5611  0.7853
 4010SOL    HW223490   4.077   1.861  11.147 -0.5140 -0.1802 -0.7352
 4011SOL     OW23491   1.669   4.493   4.622 -0.5569 -0.6025  0.2088
 4011SOL    HW123492   1.677   4.511   4.529  1.6408  0.0138  0.5249
 4011SOL    HW223493   1.660   4.578   4.665 -0.4390 -0.0136 -0.9563
 4012SOL     OW23494   4.541   0.647   8.552 -0.8616  0.4791 -0.0380
 4012SOL    HW123495   4.466   0.706   8.543 -1.2199  0.0563  0.1762
 4012SOL    HW223496   4.504   0.559   8.556 -0.8809  0.5372  0.9790
 4013SOL     OW23497   3.034   4.630  13.443 -0.1017  0.5352  0.3185
 4013SOL    HW123498   3.028   4.684  13.365  0.6747 -0.2861 -0.3170
 4013SOL    HW223499   3.087   4.555  13.417  0.8210  1.9256 -1.7833
 4014SOL     OW23500   3.288   4.196   5.048  0.3939 -0.6784 -0.4953
 4014SOL    HW123501   3.268   4.208   4.955 -2.7378 -0.0037  0.2779
 4014SOL    HW223502   3.274   4.103   5.065  0.6899 -0.3894  1.3491
 4015SOL     OW23503   3.751   2.816  17.465 -0.8344  0.1221  0.0865
 4015SOL    HW123504   3.820   2.879  17.446  1.4680 -2.2616  0.5440
 4015SOL    HW223505   3.683   2.876  17.498 -0.8715  0.0250  0.1850
 4016SOL     OW23506   2.555   4.404   2.535  0.1981  0.2286 -0.2642
 4016SOL    HW123507   2.571   4.335   2.470  3.0942  1.1543 -0.5378
 4016SOL    HW223508   2.624   4.392   2.600 -0.8029 -0.2421  0.6969
 4017SOL     OW23509   1.587   3.930   5.833 -0.1541  0.6213  0.2976
 4017SOL    HW123510   1.538   3.979   5.768 -2.2945 -1.5727  0.2486
 4017SOL    HW223511   1.615   3.853   5.784 -0.8480 -1.0226  2.4521
 4018SOL     OW23512   2.685   4.537  12.501 -0.2951  0.4909  0.3328
 4018SOL    HW123513   2.686   4.589  12.421 -1.2479  2.5482  1.6471
 4018SOL    HW223514   2.591   4.525  12.513 -0.6783  2.3683 -0.7217
 4019SOL     OW23515   4.647   3.137   5.742  0.4407 -0.1108  0.1203
 4019SOL    HW123516   4.663   3.090   5.660  0.7520  0.1767  0.0176
 4019SOL    HW223517   4.565   3.181   5.719  1.6611  0.7766 -2.3788
 4020SOL     OW23518   2.254   1.568   5.831  0.7038 -0.2296  0.1413
 4020SOL    HW123519   2.335   1.552   5.783  0.4189  0.2776 -0.4980
 4020SOL    HW223520   2.278   1.538   5.919  0.4951  1.5400  0.8024
 4021SOL     OW23521   3.186   1.320   4.727 -0.2288  0.2047 -0.8425
 4021SOL    HW123522   3.251   1.279   4.671  0.1830  0.8973 -0.8771
 4021SOL    HW223523   3.230   1.404   4.740 -0.2236  0.2147 -0.9286
 4022SOL     OW23524   1.452   2.673  13.614  0.1711 -0.5389 -0.1442
 4022SOL    HW123525   1.534   2.717  13.636  1.7744 -2.6983 -1.8034
 4022SOL    HW223526   1.437   2.598  13.672 -0.3668 -2.1279 -2.3273
 4023SOL     OW23527   1.839   2.952  11.369 -0.0672  0.6249 -0.0449
 4023SOL    HW123528   1.919   2.997  11.398 -0.3444  1.0780  0.0198
 4023SOL    HW223529   1.878   2.865  11.362  1.8680  1.5108 -0.4747
 4024SOL     OW23530   3.383   4.357   7.755 -0.3323 -0.4481 -0.7184
 4024SOL    HW123531   3.333   4.381   7.833 -0.1267 -0.2475 -0.6456
 4024SOL    HW223532   3.439   4.283   7.780 -1.0052 -0.6465  0.1937
 4025SOL     OW23533   1.810   3.771   6.371  0.3171 -0.2088  0.2139
 4025SOL    HW123534   1.805   3.725   6.454  0.0027 -0.1956  0.2011
 4025SOL    HW223535   1.837   3.861   6.392 -0.5088 -0.2737  1.5573
 4026SOL     OW23536   2.425   1.252   7.568 -0.2337 -0.7330 -0.1552
 4026SOL    HW123537   2.359   1.290   7.509 -0.6250 -2.7084 -0.9872
 4026SOL    HW223538   2.511   1.263   7.527 -0.7718  0.0145 -1.0969
 4027SOL     OW23539   4.196   3.246   8.883  0.1858 -0.4493  0.4131
 4027SOL    HW123540   4.142   3.321   8.860  0.0917 -0.5754  0.2281
 4027SOL    HW223541   4.194   3.186   8.808  2.3194 -0.3099  0.2571
 4028SOL     OW23542   2.214   3.799  12.815  0.0026 -0.0142 -0.5084
 4028SOL    HW123543   2.253   3.835  12.895 -1.1814 -2.0347  0.9733
 4028SOL    HW223544   2.225   3.873  12.755  0.6944  0.6733  0.4510
 4029SOL     OW23545   0.036   0.518   4.006  0.2175 -0.4773 -0.4371
 4029SOL    HW123546   0.071   0.512   3.917  0.0367  0.6195 -0.5845
 4029SOL    HW223547   0.065   0.440   4.053  2.1286  2.2996  3.0175
 4030SOL     OW23548   4.687   4.245   2.896  0.0160 -0.3203 -0.4973
 4030SOL    HW123549   4.681   4.173   2.958  1.4851  1.6604  1.9251
 4030SOL    HW223550   4.713   4.201   2.814 -0.0189 -0.5926 -0.3621
 4031SOL     OW23551   3.733   1.423  14.582  0.0156  0.4917 -0.6986
 4031SOL    HW123552   3.821   1.432  14.545  0.9659  1.8424  1.9168
 4031SOL    HW223553   3.741   1.373  14.663  0.1980  1.9927  0.2063
 4032SOL     OW23554   1.163   1.708  13.776 -0.6480  0.6017 -0.1189
 4032SOL    HW123555   1.072   1.720  13.748 -0.4080  1.1698 -0.6544
 4032SOL    HW223556   1.191   1.788  13.733 -0.6139  0.7761  0.2245
 4033SOL     OW23557   0.719   4.379   7.561 -0.0450  0.3182 -0.3275
 4033SOL    HW123558   0.739   4.324   7.636  0.7222  1.5488  0.3535
 4033SOL    HW223559   0.767   4.458   7.585 -0.7085  0.9476 -1.0769
 4034SOL     OW23560   3.939   3.095   4.618 -0.6471  0.1240 -0.3197
 4034SOL    HW123561   3.864   3.143   4.652 -0.4087  0.3956 -0.1701
 4034SOL    HW223562   3.898   3.024   4.569  0.3194 -1.5885  1.3386
 4035SOL     OW23563   2.764   4.688   3.973 -0.0177 -0.0031  0.3674
 4035SOL    HW123564   2.751   4.597   3.998  2.9936 -0.6895 -0.4810
 4035SOL    HW223565   2.752   0.010   4.057  0.8839 -0.8323  0.9412
 4036SOL     OW23566   2.036   1.597   1.161 -0.4066  0.2712  0.1618
 4036SOL    HW123567   1.956   1.544   1.153 -0.0653 -0.2608  0.3045
 4036SOL    HW223568   2.003   1.670   1.110 -2.8450 -0.5354  0.5600
 4037SOL     OW23569   3.133   2.979   6.851  0.6011  0.6780 -0.2404
 4037SOL    HW123570   3.188   3.057   6.861  0.9813  0.3798  0.0184
 4037SOL    HW223571   3.119   2.975   6.757 -0.4630  1.4512 -0.1053
 4038SOL     OW23572   2.838   2.302   2.814  0.0575  0.7404 -0.3044
 4038SOL    HW123573   2.877   2.241   2.753  0.9327  1.1853 -0.1817
 4038SOL    HW223574   2.771   2.337   2.755  1.5307  3.4050 -0.3517
 4039SOL     OW23575   3.152   3.879  17.370 -0.5146  0.0143  0.1074
 4039SOL    HW123576   3.103   3.811  17.324  0.9189 -0.9778  0.0566
 4039SOL    HW223577   3.080   3.910  17.425 -0.2394  1.8093 -0.5585
 4040SOL     OW23578   1.462   4.233  11.156  0.0680  0.2272 -0.9089
 4040SOL    HW123579   1.379   4.203  11.193  0.8251  0.0021  0.6224
 4040SOL    HW223580   1.478   4.183  11.076  1.4347 -1.2535  0.2660
 4041SOL     OW23581   2.122   4.186   7.699  0.0206  0.6067 -0.4832
 4041SOL    HW123582   2.051   4.249   7.714  0.2141  0.4552  1.0508
 4041SOL    HW223583   2.141   4.170   7.791 -0.0985 -0.8789 -0.7108
 4042SOL     OW23584   1.758   0.895   8.621  0.0308 -0.1021  0.5973
 4042SOL    HW123585   1.845   0.861   8.643 -0.1349 -0.1893  1.1382
 4042SOL    HW223586   1.753   0.875   8.528  1.2613  0.9389  0.3095
 4043SOL     OW23587   4.708   4.135   5.465  0.1234 -0.0481 -0.5175
 4043SOL    HW123588   4.676   4.051   5.431  0.7351 -1.1273  1.5391
 4043SOL    HW223589   4.675   4.198   5.401 -0.7541  0.8615  0.8481
 4044SOL     OW23590   2.229   0.146   4.146 -0.4807  0.1677 -0.2658
 4044SOL    HW123591   2.305   0.092   4.168  0.0492  0.9826 -0.1079
 4044SOL    HW223592   2.259   0.192   4.068 -1.0997 -0.6339 -0.9741
 4045SOL     OW23593   3.838   3.330  15.344 -0.1609  0.0885  0.6065
 4045SOL    HW123594   3.880   3.284  15.271 -4.0305 -0.9582 -0.9704
 4045SOL    HW223595   3.871   3.420  15.334  1.6868 -0.3477  2.7983
 4046SOL     OW23596   2.254   3.742  11.486 -0.1601  0.3510  0.5837
 4046SOL    HW123597   2.283   3.745  11.577 -1.6837  0.5099  1.0519
 4046SOL    HW223598   2.198   3.664  11.492  1.4700 -0.8450  0.2168
 4047SOL     OW23599   4.194   1.022   8.041  0.6435 -0.5413 -0.4701
 4047SOL    HW123600   4.184   1.032   8.136 -2.4623  0.0067 -0.8739
 4047SOL    HW223601   4.144   0.949   8.007 -0.5921  0.5152 -0.9095
 4048SOL     OW23602   2.533   0.054   5.747 -0.0850 -0.3734  0.1828
 4048SOL    HW123603   2.438   0.053   5.757  0.1057  1.4724  2.1191
 4048SOL    HW223604   2.547   0.063   5.653  2.9397 -3.9158  0.2981
 4049SOL     OW23605   4.547   2.171   1.525 -0.1416 -0.1621  0.7058
 4049SOL    HW123606   4.581   2.089   1.491  1.5126  0.4056  1.0041
 4049SOL    HW223607   4.523   2.141   1.613  2.3238 -0.2059  1.3510
 4050SOL     OW23608   4.519   2.856  15.044  0.1418 -0.2278 -0.2018
 4050SOL    HW123609   4.462   2.928  15.021 -0.5051 -0.5666  0.3365
 4050SOL    HW223610   4.470   2.778  15.018 -0.3957 -0.0254  0.1992
 4051SOL     OW23611   4.090   4.177   8.347 -0.2565  0.3967 -0.1492
 4051SOL    HW123612   4.021   4.218   8.400  1.7745  0.9022  2.1056
 4051SOL    HW223613   4.052   4.091   8.327 -0.0049  0.5932 -1.4443
 4052SOL     OW23614   1.679   1.597  14.043  0.0304 -0.1770 -0.2146
 4052SOL    HW123615   1.601   1.585  14.097 -0.1075 -2.0637 -0.8382
 4052SOL    HW223616   1.751   1.606  14.105 -1.3128  2.9789  0.8623
 4053SOL     OW23617   1.152   1.951   7.338  0.1744  0.1690  0.5702
 4053SOL    HW123618   1.147   2.041   7.306  0.3895  0.9208  2.6121
 4053SOL    HW223619   1.137   1.966   7.432 -3.5536 -0.2364  0.0509
 4054SOL     OW23620   4.283   1.330   3.454  0.1743  0.3717  0.8120
 4054SOL    HW123621   4.322   1.366   3.534  1.9840  0.1707  0.0300
 4054SOL    HW223622   4.273   1.237   3.477 -0.1028 -0.1685 -1.5441
 4055SOL     OW23623   3.339   2.868  16.984 -0.0183  0.0052 -0.2061
 4055SOL    HW123624   3.351   2.782  16.944  0.1305 -0.2872  0.4735
 4055SOL    HW223625   3.335   2.843  17.076 -0.4096  0.3771 -0.1222
 4056SOL     OW23626   2.861   4.012   4.113 -0.1710 -0.1045  0.7693
 4056SOL    HW123627   2.934   3.981   4.059 -2.5741 -3.5640 -0.5368
 4056SOL    HW223628   2.800   3.968   4.053  0.0866 -1.3059  1.3892
 4057SOL     OW23629   3.206   1.101  13.773  0.4515 -0.0560 -0.6188
 4057SOL    HW123630   3.199   1.189  13.812  1.3475  0.5476 -1.8169
 4057SOL    HW223631   3.119   1.090  13.736 -1.1550  0.4705  3.0609
 4058SOL     OW23632   0.431   4.547  12.156  0.3083  0.4010 -0.1831
 4058SOL    HW123633   0.384   4.538  12.239  0.6962 -1.2801 -0.1625
 4058SOL    HW223634   0.387   4.484  12.098 -1.8380 -0.3524  2.2492
 4059SOL     OW23635   1.839   0.164  12.673 -0.3356 -0.0831 -0.0098
 4059SOL    HW123636   1.853   0.207  12.589 -1.6601 -0.3889 -0.3840
 4059SOL    HW223637   1.840   0.071  12.650 -0.7911 -0.1861  0.3737
 4060SOL     OW23638   4.460   0.892   8.044  0.3038  0.1215 -0.0961
 4060SOL    HW123639   4.428   0.803   8.051 -2.7615  1.3476  1.5832
 4060SOL    HW223640   4.379   0.942   8.056 -0.1782 -1.0786  1.4930
 4061SOL     OW23641   1.300   3.724   1.215 -0.2777 -0.0788 -0.2699
 4061SOL    HW123642   1.222   3.710   1.162  0.0478 -2.2701 -0.1725
 4061SOL    HW223643   1.350   3.650   1.180  0.1897  1.1106 -2.1239
 4062SOL     OW23644   2.805   2.703   3.863 -0.1588  0.4959 -0.0413
 4062SOL    HW123645   2.785   2.794   3.885  0.9654  0.8008 -0.2853
 4062SOL    HW223646   2.715   2.686   3.833  0.8775  0.2022 -2.9833
 4063SOL     OW23647   1.895   1.187   4.951  0.4490 -0.2669  0.2052
 4063SOL    HW123648   1.986   1.157   4.950  0.1995 -1.0785  2.2369
 4063SOL    HW223649   1.887   1.210   5.044  0.4346 -0.6279  0.2937
 4064SOL     OW23650   4.118   1.277  14.519  0.4835 -0.2576 -0.3842
 4064SOL    HW123651   4.179   1.254  14.449  0.8224 -1.6074  0.3624
 4064SOL    HW223652   4.036   1.232  14.497 -0.2353  0.4394  0.8676
 4065SOL     OW23653   0.170   4.316   4.091 -0.3465  0.3428 -0.8252
 4065SOL    HW123654   0.259   4.286   4.073 -0.4313 -1.6356  2.0511
 4065SOL    HW223655   0.155   4.387   4.029 -2.4007  2.2538  1.8806
 4066SOL     OW23656   2.044   4.490   5.342 -0.3769 -0.4299  0.2100
 4066SOL    HW123657   2.061   4.583   5.324 -1.7775 -0.0361  0.8861
 4066SOL    HW223658   2.035   4.494   5.437 -0.1916 -1.3726  0.2577
 4067SOL     OW23659   4.293   3.616  13.390 -0.0273 -0.5516  0.4558
 4067SOL    HW123660   4.216   3.672  13.378  0.5445 -0.3560 -2.4311
 4067SOL    HW223661   4.324   3.604  13.300 -1.6033 -0.3617 -0.1147
 4068SOL     OW23662   2.736   0.365   8.015 -0.2073  0.5655 -0.5911
 4068SOL    HW123663   2.717   0.365   7.922 -1.0787  1.9020 -0.4147
 4068SOL    HW223664   2.742   0.270   8.024 -1.5964  0.5384  0.2122
 4069SOL     OW23665   2.117   0.828   4.474  0.1559  0.3986  0.4347
 4069SOL    HW123666   2.203   0.796   4.500  0.6358  0.9938 -0.4441
 4069SOL    HW223667   2.139   0.895   4.409  0.7481  1.3580  1.6436
 4070SOL     OW23668   1.053   1.397   5.733 -0.5322 -0.3913 -0.0442
 4070SOL    HW123669   0.959   1.403   5.750 -0.3338  1.9122  0.1970
 4070SOL    HW223670   1.054   1.435   5.645  1.0486  0.5592  0.3750
 4071SOL     OW23671   1.785   2.096   9.101  0.2092  0.6726 -0.2474
 4071SOL    HW123672   1.703   2.104   9.151  0.4209 -0.4186  0.2744
 4071SOL    HW223673   1.821   2.022   9.149 -0.4322  0.1387 -0.5827
 4072SOL     OW23674   2.026   1.875  17.671  0.0976  0.3227  0.2910
 4072SOL    HW123675   1.979   1.820   0.040 -1.7680  0.0534 -1.3452
 4072SOL    HW223676   2.056   1.815  17.603 -0.9377  1.1875 -0.9422
 4073SOL     OW23677   3.270   2.115  12.104 -0.2322 -0.3489 -0.1300
 4073SOL    HW123678   3.334   2.046  12.121  0.5045  0.5583  0.7797
 4073SOL    HW223679   3.187   2.067  12.113 -0.7691  0.3708 -1.2124
 4074SOL     OW23680   2.957   4.507  12.635 -0.4059 -0.2386  0.5882
 4074SOL    HW123681   2.880   4.489  12.580 -0.9412  0.9491  0.9420
 4074SOL    HW223682   2.921   4.571  12.696 -1.6446 -1.0013  0.6634
 4075SOL     OW23683   4.720   1.552   5.826 -0.2951 -0.8573  0.2351
 4075SOL    HW123684   0.012   1.460   5.849  2.2341 -0.2048  1.2234
 4075SOL    HW223685   0.042   1.563   5.743 -1.6218  0.7351 -0.2686
 4076SOL     OW23686   0.609   1.811   5.390 -0.2826 -0.2354 -0.5169
 4076SOL    HW123687   0.702   1.810   5.411  0.0500 -2.8062 -2.1834
 4076SOL    HW223688   0.620   1.825   5.296  2.2288  1.7768  0.0637
 4077SOL     OW23689   1.784   3.905   1.176 -0.0297 -0.6806  0.5083
 4077SOL    HW123690   1.699   3.891   1.134  0.4293 -1.3568 -0.1872
 4077SOL    HW223691   1.800   3.994   1.147 -1.7449 -0.6872 -0.4998
 4078SOL     OW23692   0.240   4.617   6.181 -0.4078 -0.4832 -0.4221
 4078SOL    HW123693   0.152   4.587   6.201 -0.5231 -0.7915 -1.3968
 4078SOL    HW223694   0.237   4.694   6.238  0.4082  1.0202 -2.4112
 4079SOL     OW23695   1.881   3.240  11.188 -0.6879 -1.0707 -0.1831
 4079SOL    HW123696   1.932   3.159  11.179  0.0918 -0.9454  2.9294
 4079SOL    HW223697   1.898   3.281  11.103  1.6572 -2.5300 -0.4182
 4080SOL     OW23698   2.938   3.274   2.787 -0.5479  0.1926 -0.0607
 4080SOL    HW123699   2.882   3.349   2.766 -1.4410  0.1912  2.4062
 4080SOL    HW223700   2.984   3.261   2.704 -2.9237  2.3166 -1.7061
 4081SOL     OW23701   2.615   2.659   6.198  0.1398 -0.2423  0.2413
 4081SOL    HW123702   2.568   2.690   6.120  0.1475  1.4862  0.9198
 4081SOL    HW223703   2.676   2.731   6.211 -0.0162 -0.3909  1.7438
 4082SOL     OW23704   2.667   1.579   7.800 -0.7813 -0.0179 -0.4352
 4082SOL    HW123705   2.712   1.499   7.824 -1.2885 -0.7443 -1.9048
 4082SOL    HW223706   2.616   1.600   7.878 -1.8511  0.8756 -1.3584
 4083SOL     OW23707   4.198   0.209  14.036 -0.3684  0.7819 -0.6628
 4083SOL    HW123708   4.132   0.165  13.982 -0.3682 -0.2673  0.1777
 4083SOL    HW223709   4.184   0.301  14.014 -1.5673  0.0443 -2.9299
 4084SOL     OW23710   3.486   3.986  11.454 -0.6863  0.3959 -0.1283
 4084SOL    HW123711   3.439   4.012  11.374  1.8331  0.2831 -1.6491
 4084SOL    HW223712   3.427   4.012  11.524 -1.2268 -0.5702 -0.2260
 4085SOL     OW23713   1.545   4.608  11.065  0.7141  0.7840 -0.1409
 4085SOL    HW123714   1.567   4.570  10.979  0.0576 -0.6605  0.3285
 4085SOL    HW223715   1.546   4.531  11.122 -2.1416  1.6491  1.0404
 4086SOL     OW23716   2.299   0.959  10.017  0.4727  0.5821 -0.3580
 4086SOL    HW123717   2.340   1.023  10.076  0.5772 -0.1860  0.4133
 4086SOL    HW223718   2.321   1.000   9.933 -0.6282 -1.1431 -1.4591
 4087SOL     OW23719   2.685   1.955  11.625 -0.2525 -0.0748  0.2476
 4087SOL    HW123720   2.752   1.923  11.685  0.0145 -0.0757 -0.0480
 4087SOL    HW223721   2.604   1.914  11.656  0.1255  0.5515  2.0469
 4088SOL     OW23722   0.738   0.967  13.192  0.2697  0.4321 -0.3429
 4088SOL    HW123723   0.766   0.960  13.283 -1.6867  1.8112  0.3689
 4088SOL    HW223724   0.735   1.063  13.186  2.4621  0.5549  0.4094
 4089SOL     OW23725   2.406   3.052  12.528 -0.0287  0.2524  0.6163
 4089SOL    HW123726   2.478   2.999  12.495 -0.1921  1.0655 -1.0308
 4089SOL    HW223727   2.430   3.144  12.514 -0.4820  0.6060  2.0694
 4090SOL     OW23728   4.259   2.439   1.665  0.8053 -0.1433 -0.0872
 4090SOL    HW123729   4.218   2.390   1.736 -1.4286  0.5512 -0.9014
 4090SOL    HW223730   4.250   2.377   1.593  2.1814  0.3168 -0.6583
 4091SOL     OW23731   1.209   4.658  14.192 -0.3074 -0.3494 -0.4286
 4091SOL    HW123732   1.134   4.701  14.232 -0.1265 -0.2193 -0.2259
 4091SOL    HW223733   1.164   4.600  14.131 -0.1243 -0.7768 -0.1575
 4092SOL     OW23734   1.140   1.053   7.308 -0.3288 -0.3026 -0.1578
 4092SOL    HW123735   1.176   0.965   7.299 -0.2498 -0.1534 -1.2941
 4092SOL    HW223736   1.054   1.044   7.267 -0.2546 -0.6836 -0.2300
 4093SOL     OW23737   2.902   3.305   7.198 -0.0708  0.1404 -0.3106
 4093SOL    HW123738   2.826   3.323   7.253  1.5821  0.5775  1.8106
 4093SOL    HW223739   2.847   3.279   7.123 -1.8194  0.5365  0.8252
 4094SOL     OW23740   3.344   3.055   1.149  0.3844  0.2439 -0.4332
 4094SOL    HW123741   3.360   2.963   1.127  3.2396  0.8565 -0.9693
 4094SOL    HW223742   3.426   3.091   1.183 -1.1300  1.0813  2.3375
 4095SOL     OW23743   1.856   0.618   6.330  0.4587  0.3344 -0.1417
 4095SOL    HW123744   1.794   0.675   6.286 -1.5083 -2.1149 -0.5518
 4095SOL    HW223745   1.810   0.536   6.313  1.1635 -0.4173  1.5296
 4096SOL     OW23746   1.788   3.258   4.046 -0.2235 -0.1846 -0.4561
 4096SOL    HW123747   1.832   3.186   4.093 -0.8898  1.1596  2.2443
 4096SOL    HW223748   1.703   3.254   4.089 -0.5704  0.2882 -1.1085
 4097SOL     OW23749   0.651   3.985  11.846 -0.0394 -0.3360  0.4315
 4097SOL    HW123750   0.733   3.937  11.856  1.5493  2.0880 -0.8243
 4097SOL    HW223751   0.690   4.072  11.858  0.4449 -0.4278 -0.5108
 4098SOL     OW23752   2.256   4.681   8.476  0.2657 -0.0763  0.4199
 4098SOL    HW123753   2.208   4.602   8.452  1.0376 -1.0811  2.1373
 4098SOL    HW223754   2.217   0.020   8.415 -0.2296 -1.4243 -0.6393
 4099SOL     OW23755   2.022   1.363   4.043 -0.2717  0.0913  0.7853
 4099SOL    HW123756   1.966   1.330   4.112  2.9515  0.7998  3.7257
 4099SOL    HW223757   1.998   1.456   4.046  0.0137  0.1833  0.3005
 4100SOL     OW23758   0.815   0.789  17.349 -0.7105 -0.6248 -0.0102
 4100SOL    HW123759   0.752   0.860  17.366 -0.3178  0.2181 -2.0974
 4100SOL    HW223760   0.900   0.830  17.334 -0.2054 -0.7827  2.4745
 4101SOL     OW23761   1.115   2.065   7.884 -0.7104  0.6508  0.1362
 4101SOL    HW123762   1.057   2.119   7.939 -1.5643  1.1178 -1.2228
 4101SOL    HW223763   1.183   2.129   7.861 -0.8817  0.8406  0.1591
 4102SOL     OW23764   3.667   0.632   5.152  0.5580 -0.2277  0.1465
 4102SOL    HW123765   3.595   0.648   5.091 -0.0568  2.2684  1.5773
 4102SOL    HW223766   3.623   0.651   5.234 -1.2051 -1.2887 -0.5382
 4103SOL     OW23767   3.822   3.093  17.189  0.2609  0.4562 -0.0170
 4103SOL    HW123768   3.835   3.047  17.272 -1.0054 -0.6753 -0.4426
 4103SOL    HW223769   3.734   3.065  17.162  1.5540 -2.4220 -1.2970
 4104SOL     OW23770   0.392   0.949   1.639 -0.0828 -0.1893 -0.3799
 4104SOL    HW123771   0.437   0.923   1.559 -0.9762  0.8030 -1.2058
 4104SOL    HW223772   0.319   1.004   1.609  0.4804  0.0840 -1.2394
 4105SOL     OW23773   1.446   3.618   5.662 -0.1284  0.2045  0.2298
 4105SOL    HW123774   1.429   3.525   5.655 -1.6621  0.1653  4.5333
 4105SOL    HW223775   1.520   3.633   5.603 -1.0721  0.7316 -0.8223
 4106SOL     OW23776   1.178   1.272   3.363 -0.4757  0.4497 -0.0285
 4106SOL    HW123777   1.173   1.273   3.459  2.4061  1.0130  0.1139
 4106SOL    HW223778   1.149   1.182   3.346  0.2226  0.6522 -2.2475
 4107SOL     OW23779   2.374   3.058  10.912 -0.3657 -0.0113  0.0830
 4107SOL    HW123780   2.281   3.074  10.925 -0.2663 -0.5154  1.3555
 4107SOL    HW223781   2.393   3.008  10.991 -2.1431  1.1756  1.2635
 4108SOL     OW23782   2.510   4.522   4.834 -0.0727 -0.4297  0.1206
 4108SOL    HW123783   2.520   4.454   4.767  0.0293 -0.0153 -0.2909
 4108SOL    HW223784   2.430   4.485   4.872 -0.0512 -1.2377 -0.6097
 4109SOL     OW23785   2.254   2.075   9.438 -1.0981  0.0540  0.1582
 4109SOL    HW123786   2.309   2.000   9.459 -0.5832 -0.0668 -1.6116
 4109SOL    HW223787   2.181   2.060   9.497 -3.1048  1.3456 -1.9761
 4110SOL     OW23788   0.571   4.273   3.753 -0.0098  0.5900  0.0168
 4110SOL    HW123789   0.509   4.246   3.685 -0.2525  1.8877 -0.2621
 4110SOL    HW223790   0.646   4.225   3.718  0.2647  0.7418  0.4083
 4111SOL     OW23791   3.301   4.202   8.140 -0.5183  0.0180 -0.6180
 4111SOL    HW123792   3.289   4.139   8.068  1.4199  0.4942 -1.3543
 4111SOL    HW223793   3.356   4.148   8.197  0.1319  0.4948 -0.7893
 4112SOL     OW23794   4.396   0.174   8.994 -0.3380 -0.2907 -0.3789
 4112SOL    HW123795   4.321   0.234   8.996 -0.6268 -0.7001  0.9921
 4112SOL    HW223796   4.374   0.104   8.933  3.4027 -0.8058 -1.1059
 4113SOL     OW23797   2.166   3.686   2.894  0.3667 -0.3966  0.6591
 4113SOL    HW123798   2.123   3.645   2.819 -0.3185  0.1615  0.7435
 4113SOL    HW223799   2.208   3.761   2.852  2.9672 -0.5653  3.0000
 4114SOL     OW23800   2.424   1.003   6.872  0.1013 -0.4790  0.6247
 4114SOL    HW123801   2.517   0.981   6.866 -0.2145 -1.0521 -2.2407
 4114SOL    HW223802   2.407   0.988   6.964  0.0110  1.3224  0.9029
 4115SOL     OW23803   3.896   4.720   6.135 -0.2551 -0.1175  0.2741
 4115SOL    HW123804   3.868   0.040   6.055 -0.5865 -1.4747 -0.3289
 4115SOL    HW223805   3.870   0.062   6.201  0.5317  1.9368 -1.4720
 4116SOL     OW23806   4.049   3.696   5.553 -0.1276  0.0937 -0.0209
 4116SOL    HW123807   4.050   3.769   5.491  0.9163 -0.3082 -0.4829
 4116SOL    HW223808   4.126   3.715   5.606 -0.1393  1.5238 -0.4965
 4117SOL     OW23809   0.607   1.485   1.956  0.5164 -0.2668 -0.3296
 4117SOL    HW123810   0.578   1.458   1.869 -0.4867 -2.0808  0.5884
 4117SOL    HW223811   0.698   1.510   1.943  0.2087  1.6912  1.1885
 4118SOL     OW23812   0.648   3.128   6.332  0.0786  0.6180  0.2957
 4118SOL    HW123813   0.595   3.207   6.328 -0.4536  0.2173 -0.4877
 4118SOL    HW223814   0.636   3.102   6.424  0.0579  0.7307  0.3245
 4119SOL     OW23815   3.534   1.585   2.648 -0.0562 -0.4964  0.3493
 4119SOL    HW123816   3.586   1.656   2.686 -3.2185  1.5332  0.8903
 4119SOL    HW223817   3.607   1.526   2.626  1.0225  0.6155  0.9322
 4120SOL     OW23818   2.594   0.433   6.030  0.2027  0.2231 -0.8875
 4120SOL    HW123819   2.571   0.407   5.941 -0.4715 -0.7715 -0.4232
 4120SOL    HW223820   2.511   0.474   6.055  1.2397  1.9788 -0.3003
 4121SOL     OW23821   1.675   0.134  15.681 -0.1720  0.2728  0.0756
 4121SOL    HW123822   1.633   0.205  15.633  0.9901 -0.5454 -2.1198
 4121SOL    HW223823   1.625   0.060  15.647  0.3405  0.2900 -0.6960
 4122SOL     OW23824   2.365   1.547   2.760  0.0206  0.2295  1.2800
 4122SOL    HW123825   2.458   1.548   2.737  0.0760 -1.7009  1.4286
 4122SOL    HW223826   2.329   1.568   2.674  0.1155 -0.9394  0.9635
 4123SOL     OW23827   2.668   3.236   3.222 -0.5054  0.0653 -0.3665
 4123SOL    HW123828   2.725   3.160   3.211  2.4520  2.4119 -1.3078
 4123SOL    HW223829   2.632   3.224   3.310 -1.2079  3.1688 -0.2226
 4124SOL     OW23830   2.668   0.613   4.071  0.7015 -0.1085  0.0952
 4124SOL    HW123831   2.684   0.645   3.982 -1.5326  1.4249  0.2537
 4124SOL    HW223832   2.595   0.553   4.056  0.9907 -0.7739  1.3296
 4125SOL     OW23833   2.813   4.619  14.222  0.2018  0.1440 -0.1818
 4125SOL    HW123834   2.737   4.582  14.267  2.8570 -2.3021  2.2491
 4125SOL    HW223835   2.832   4.695  14.278 -1.4039  1.6934 -1.7246
 4126SOL     OW23836   4.445   2.401   4.315  0.4712 -0.2266 -0.2212
 4126SOL    HW123837   4.504   2.450   4.259  2.5168 -1.8989  0.4833
 4126SOL    HW223838   4.373   2.390   4.253  1.1557  1.2711 -1.2901
 4127SOL     OW23839   0.216   3.035  11.967 -0.0418  0.4055  0.1999
 4127SOL    HW123840   0.174   3.095  12.029  0.2589 -1.2027  1.9490
 4127SOL    HW223841   0.239   2.958  12.018  1.9070  0.3034 -0.8338
 4128SOL     OW23842   1.783   3.965  14.436 -0.1734 -0.0316 -0.0204
 4128SOL    HW123843   1.753   4.053  14.459  0.3976 -0.1640  1.2141
 4128SOL    HW223844   1.773   3.918  14.519  4.1823 -0.6024  0.1910
 4129SOL     OW23845   0.090   3.198  17.135 -0.1539 -0.0775 -0.5153
 4129SOL    HW123846   0.142   3.264  17.180 -0.4865  0.7528 -1.3577
 4129SOL    HW223847   0.147   3.179  17.060 -0.4693 -2.1416 -0.2345
 4130SOL     OW23848   3.138   3.165   1.480 -0.1706  0.3665  0.4943
 4130SOL    HW123849   3.043   3.175   1.475 -0.3124  0.1296  2.7598
 4130SOL    HW223850   3.158   3.072   1.483  1.4955  0.7165 -0.3794
 4131SOL     OW23851   4.371   3.789  13.108  0.1100 -0.5183  0.2534
 4131SOL    HW123852   4.381   3.853  13.178 -0.7389 -1.1790  0.9853
 4131SOL    HW223853   4.409   3.842  13.038 -3.6257  0.2765 -1.1641
 4132SOL     OW23854   0.060   1.484   6.989 -0.6335  0.0244 -0.0009
 4132SOL    HW123855   0.152   1.459   6.995 -0.9969 -0.8545  1.8334
 4132SOL    HW223856   0.022   1.437   7.063  0.3029  0.5624  0.8313
 4133SOL     OW23857   4.281   2.466   7.711 -0.2463 -0.1918 -0.4714
 4133SOL    HW123858   4.213   2.533   7.701  1.3060  1.4088 -0.2309
 4133SOL    HW223859   4.242   2.397   7.658  1.7658  1.4448 -4.0949
 4134SOL     OW23860   0.863   0.297   9.003  0.2231  0.5217  0.1239
 4134SOL    HW123861   0.830   0.383   8.976 -1.2326 -0.3525 -0.9449
 4134SOL    HW223862   0.803   0.241   8.953  1.9097  0.2832 -1.6376
 4135SOL     OW23863   2.717   3.262   3.571  0.0907 -0.0853  0.0386
 4135SOL    HW123864   2.676   3.316   3.639 -1.5159 -0.2297 -0.8178
 4135SOL    HW223865   2.721   3.184   3.626  4.9505 -0.0470 -0.2822
 4136SOL     OW23866   4.107   1.562   5.094  0.1755  0.2452  0.1543
 4136SOL    HW123867   4.062   1.519   5.167  0.2911  1.3418  0.8737
 4136SOL    HW223868   4.037   1.565   5.030  1.3714 -0.4235 -1.1968
 4137SOL     OW23869   1.528   2.375   8.977 -0.5670 -0.3068  0.4880
 4137SOL    HW123870   1.537   2.299   8.920 -0.2158  0.8949 -1.0582
 4137SOL    HW223871   1.527   2.342   9.066  3.7579  0.1158  0.6528
 4138SOL     OW23872   2.150   0.394   8.772 -0.2506 -0.2519 -0.6247
 4138SOL    HW123873   2.215   0.334   8.737  0.0719  0.2496 -0.8762
 4138SOL    HW223874   2.069   0.347   8.749 -0.1500 -1.2678  1.0333
 4139SOL     OW23875   4.591   0.108  17.360 -0.0943  0.5452 -0.4109
 4139SOL    HW123876   4.528   0.117  17.289 -0.2522 -1.6932 -0.5438
 4139SOL    HW223877   4.676   0.084  17.322  0.3309  1.2265  0.1082
 4140SOL     OW23878   4.212   4.212   0.140 -0.1407  0.7236  0.8814
 4140SOL    HW123879   4.248   4.295   0.173 -1.5094  0.9605  1.8122
 4140SOL    HW223880   4.240   4.161   0.216  0.8805 -1.5430 -1.0343
 4141SOL     OW23881   1.684   0.636  10.019  0.3792 -0.0659  0.5560
 4141SOL    HW123882   1.620   0.678   9.962  1.5250  1.2415  0.2304
 4141SOL    HW223883   1.716   0.561   9.968 -0.5083 -1.3973  1.9446
 4142SOL     OW23884   0.155   1.996   4.131 -0.5706  0.0027 -0.4108
 4142SOL    HW123885   0.068   2.006   4.170 -1.1747  0.5228 -1.9214
 4142SOL    HW223886   0.206   2.030   4.205 -0.9968  2.2824 -1.1658
 4143SOL     OW23887   2.220   3.956   6.296  0.3517  0.2335 -0.9659
 4143SOL    HW123888   2.129   3.962   6.270 -0.4299  0.4510  1.8363
 4143SOL    HW223889   2.213   3.872   6.341 -1.0843  0.9266  0.1143
 4144SOL     OW23890   4.408   0.179   3.974 -0.9973  0.3338  0.2828
 4144SOL    HW123891   4.362   0.263   3.982 -1.4271  0.1373 -0.2145
 4144SOL    HW223892   4.491   0.206   3.935 -0.4284  0.5099  1.5823
 4145SOL     OW23893   4.715   1.898  15.905  0.5615 -0.3618  0.9447
 4145SOL    HW123894   4.710   1.868  15.814  0.4838 -0.0509  0.8439
 4145SOL    HW223895   4.627   1.879  15.936 -0.1313  1.3611  0.0845
 4146SOL     OW23896   1.181   2.685   9.656  0.1619 -0.0781  0.4933
 4146SOL    HW123897   1.089   2.711   9.655  0.3423  0.3967 -3.6757
 4146SOL    HW223898   1.214   2.766   9.695  0.0276  0.5411 -0.6798
 4147SOL     OW23899   1.788   3.661   6.599  0.3790 -0.3942 -0.1381
 4147SOL    HW123900   1.767   3.571   6.627  0.9848 -0.7526 -0.8420
 4147SOL    HW223901   1.729   3.710   6.656 -0.2018 -1.6744  0.3607
 4148SOL     OW23902   1.442   0.109   7.604  1.0322  0.3242  0.2598
 4148SOL    HW123903   1.537   0.107   7.604  1.0147 -1.2499  0.2719
 4148SOL    HW223904   1.422   0.040   7.667  3.0988  1.2734  1.9418
 4149SOL     OW23905   3.007   0.841   5.350  0.0176 -0.1785 -0.2777
 4149SOL    HW123906   2.941   0.817   5.284 -0.3416  2.2011 -0.8057
 4149SOL    HW223907   3.026   0.760   5.396  1.1828  0.5722  0.5443
 4150SOL     OW23908   4.604   3.348  11.672  0.5091  0.0206  0.5727
 4150SOL    HW123909   4.635   3.281  11.733  0.9521  0.1397  0.4733
 4150SOL    HW223910   4.685   3.399  11.681  0.9118 -0.1810 -2.1100
 4151SOL     OW23911   2.283   3.475   0.991 -0.0770  0.4887 -0.0626
 4151SOL    HW123912   2.293   3.565   1.024 -0.0440  0.8335 -1.0252
 4151SOL    HW223913   2.350   3.474   0.923  0.6837  1.0064  0.6778
 4152SOL     OW23914   0.536   3.833   4.925  0.2893 -0.2174  0.6705
 4152SOL    HW123915   0.579   3.762   4.973  2.1604  0.4288 -0.0314
 4152SOL    HW223916   0.613   3.855   4.872  1.9300  1.2010  3.6510
 4153SOL     OW23917   1.933   0.184  15.666  0.2515  0.5037 -0.0032
 4153SOL    HW123918   1.955   0.135  15.586  1.8641  0.8727  0.1986
 4153SOL    HW223919   1.840   0.168  15.678 -0.4529  1.8444 -3.5513
 4154SOL     OW23920   1.738   4.534  14.861 -0.2286  0.4952 -0.0673
 4154SOL    HW123921   1.664   4.543  14.800 -0.3943 -2.0594 -0.2153
 4154SOL    HW223922   1.794   4.609  14.842 -0.3312  0.6645  0.2958
 4155SOL     OW23923   0.024   1.849   5.312  0.1226  0.2566 -0.4234
 4155SOL    HW123924   4.693   1.825   5.388  3.0468 -0.0021  1.5504
 4155SOL    HW223925   4.683   1.828   5.243 -0.8792  2.6556 -0.2123
 4156SOL     OW23926   0.468   4.052   3.187 -0.1404 -0.3443  0.4009
 4156SOL    HW123927   0.400   3.998   3.147  1.1034 -1.7219  0.1268
 4156SOL    HW223928   0.419   4.129   3.214 -1.5248 -0.6097 -1.4129
 4157SOL     OW23929   1.759   2.935   9.066 -0.0869  0.3850  0.6516
 4157SOL    HW123930   1.813   3.014   9.056  0.5641 -0.1257  0.1841
 4157SOL    HW223931   1.792   2.883   8.993  2.7831  2.1347  0.6983
 4158SOL     OW23932   1.252   0.178   4.772 -0.2653  0.6912 -0.6329
 4158SOL    HW123933   1.290   0.137   4.850 -1.2632  2.6151  0.8777
 4158SOL    HW223934   1.158   0.169   4.786 -0.2613  2.3594  0.5725
 4159SOL     OW23935   3.666   1.144  14.173 -0.3923 -0.0293  0.0240
 4159SOL    HW123936   3.754   1.137  14.137 -0.4077 -2.1000  0.3882
 4159SOL    HW223937   3.651   1.238  14.169 -0.0661  0.0231  0.0700
 4160SOL     OW23938   2.168   4.000  13.161  0.5845 -0.0669 -0.2029
 4160SOL    HW123939   2.231   3.938  13.124 -0.7371 -1.6336  0.1836
 4160SOL    HW223940   2.099   3.936  13.179  2.5801 -1.7427  1.4898
 4161SOL     OW23941   1.693   4.629   8.610  0.2140  0.1034 -0.3734
 4161SOL    HW123942   1.647   4.573   8.547  2.5682 -1.7459 -0.4594
 4161SOL    HW223943   1.717   4.562   8.674 -0.6073  0.7196  0.5667
 4162SOL     OW23944   4.298   1.624  14.121 -0.0594  0.5148  0.0447
 4162SOL    HW123945   4.377   1.665  14.086 -0.1628 -0.6360 -1.5683
 4162SOL    HW223946   4.284   1.680  14.196 -2.3981  0.1821 -0.1381
 4163SOL     OW23947   3.963   3.121   9.581 -0.3778 -0.9303  0.3237
 4163SOL    HW123948   3.943   3.213   9.565 -0.0868 -0.6690  1.4414
 4163SOL    HW223949   4.040   3.104   9.526  0.4659  0.6479  1.0058
 4164SOL     OW23950   2.371   3.108   3.487  0.2856  0.0268 -0.7323
 4164SOL    HW123951   2.423   3.162   3.546  2.6933 -0.1211 -2.7230
 4164SOL    HW223952   2.329   3.175   3.433 -1.1174 -1.3269 -1.3516
 4165SOL     OW23953   1.754   3.460   1.821 -0.4790 -0.2742  0.0777
 4165SOL    HW123954   1.691   3.417   1.880  0.1038  2.4024  2.6240
 4165SOL    HW223955   1.811   3.506   1.882 -0.3068 -0.8325  0.3316
 4166SOL     OW23956   1.817   3.840   2.605 -0.3688  0.3896 -0.0109
 4166SOL    HW123957   1.777   3.885   2.530 -1.1502 -2.3098 -1.2233
 4166SOL    HW223958   1.788   3.891   2.680 -2.2833 -1.5763  0.5960
 4167SOL     OW23959   4.191   2.248   1.457  0.1854 -0.1308  0.3268
 4167SOL    HW123960   4.105   2.263   1.418  1.2273  0.4910 -1.7323
 4167SOL    HW223961   4.238   2.300   1.391 -2.0069 -0.8525 -1.8297
 4168SOL     OW23962   0.633   4.457   5.617 -0.1404  0.3759  0.0956
 4168SOL    HW123963   0.578   4.532   5.640 -0.6242  0.4705 -1.3376
 4168SOL    HW223964   0.675   4.449   5.702 -1.6356 -0.0571  0.7883
 4169SOL     OW23965   3.786   1.406   0.898 -0.5217 -0.5528  0.3115
 4169SOL    HW123966   3.810   1.399   0.990 -0.9771  0.1058  0.4853
 4169SOL    HW223967   3.758   1.498   0.899  0.3830 -0.2621 -2.5009
 4170SOL     OW23968   1.784   3.432   5.003  0.3568 -0.0084 -0.3328
 4170SOL    HW123969   1.837   3.501   4.963  0.0859  1.1247  1.2401
 4170SOL    HW223970   1.842   3.397   5.071 -2.5382 -1.5589  1.3362
 4171SOL     OW23971   2.814   4.526   8.615  0.4873 -0.2534  0.3337
 4171SOL    HW123972   2.771   4.537   8.530  1.0207 -0.8849 -0.0179
 4171SOL    HW223973   2.765   4.464   8.668 -0.1348  0.7845  0.9862
 4172SOL     OW23974   2.793   2.689   5.571  0.1684 -0.4563  0.2403
 4172SOL    HW123975   2.848   2.711   5.496  0.5798 -3.0314 -0.2327
 4172SOL    HW223976   2.806   2.594   5.580  0.4704 -0.4720 -0.3371
 4173SOL     OW23977   1.898   1.776   1.985 -0.0115 -0.3914  0.0800
 4173SOL    HW123978   1.951   1.754   2.062  0.6976 -0.0954 -0.3228
 4173SOL    HW223979   1.885   1.870   1.995  0.2807 -0.3860  0.4238
 4174SOL     OW23980   4.558   3.153   8.440 -0.1809  0.0123 -0.6387
 4174SOL    HW123981   4.638   3.140   8.389  1.1090  0.8676  1.1403
 4174SOL    HW223982   4.606   3.158   8.523  0.6175 -2.1683 -0.9861
 4175SOL     OW23983   4.531   0.087  16.462  0.7537 -0.0974  0.3797
 4175SOL    HW123984   4.481   0.158  16.422 -0.9880 -1.5904 -0.0663
 4175SOL    HW223985   4.625   0.090  16.440  0.0918  0.7982 -2.3834
 4176SOL     OW23986   0.150   3.262   8.836 -0.2029 -0.2157  0.8033
 4176SOL    HW123987   0.212   3.227   8.900  1.9440  2.4280  0.1346
 4176SOL    HW223988   0.161   3.356   8.851 -1.3825  0.0797 -0.1513
 4177SOL     OW23989   4.515   1.724   2.328 -0.0017 -0.6472 -0.0468
 4177SOL    HW123990   4.453   1.706   2.398  0.0425 -1.3605 -0.1987
 4177SOL    HW223991   4.457   1.708   2.254  0.8802  0.3963 -0.9758
 4178SOL     OW23992   2.211   2.493  15.597  0.0398 -0.1590 -0.2775
 4178SOL    HW123993   2.246   2.506  15.685  0.7001 -1.2085 -0.3862
 4178SOL    HW223994   2.257   2.564  15.552 -1.0775  0.1140 -0.9840
 4179SOL     OW23995   0.545   3.049   5.179 -0.2160 -0.3041  0.6691
 4179SOL    HW123996   0.611   3.004   5.233  1.4454  0.8766 -0.3791
 4179SOL    HW223997   0.466   3.028   5.229  0.6314 -0.6760  1.8772
 4180SOL     OW23998   2.774   3.175  14.612 -0.1278 -0.0880 -0.5860
 4180SOL    HW123999   2.767   3.206  14.522  1.1152  0.6050 -0.4525
 4180SOL    HW224000   2.868   3.169  14.628 -0.3803  0.1754  1.0110
 4181SOL     OW24001   2.966   0.066   8.276 -0.4518 -0.1917 -0.1776
 4181SOL    HW124002   2.996   0.149   8.237  1.3476 -0.9280 -0.3681
 4181SOL    HW224003   3.031   4.719   8.263 -0.1289 -0.0396  0.5899
 4182SOL     OW24004   3.161   4.686   5.959 -0.2731 -0.4981 -0.2788
 4182SOL    HW124005   3.138   4.601   5.922 -1.0260 -1.2908  1.9877
 4182SOL    HW224006   3.227   4.664   6.025  1.0027  0.8790 -1.1001
 4183SOL     OW24007   2.492   2.070   6.457  0.7416 -0.6580  0.1173
 4183SOL    HW124008   2.563   2.132   6.474 -0.9123  1.2022  0.1903
 4183SOL    HW224009   2.416   2.126   6.447  0.0123 -1.6785 -0.1049
 4184SOL     OW24010   4.616   1.188   3.639  0.7333  0.1072 -1.0147
 4184SOL    HW124011   4.668   1.119   3.597  1.7172  0.9788 -1.2431
 4184SOL    HW224012   4.636   1.266   3.586  3.0019  1.5137  1.9130
 4185SOL     OW24013   0.648   2.355   4.325  0.2613 -0.2236 -0.1039
 4185SOL    HW124014   0.627   2.426   4.265 -1.1794 -1.1586 -0.7193
 4185SOL    HW224015   0.699   2.402   4.391  0.4868 -0.6514  0.0290
 4186SOL     OW24016   4.172   1.224   7.517  0.2675 -0.4261 -0.4176
 4186SOL    HW124017   4.109   1.157   7.542  1.4097 -0.6003  1.9521
 4186SOL    HW224018   4.211   1.196   7.434  1.1872 -0.4514  0.0197
 4187SOL     OW24019   0.534   1.708   3.305 -0.4004  0.3197  0.2969
 4187SOL    HW124020   0.463   1.756   3.264 -0.3256  0.6201  0.5176
 4187SOL    HW224021   0.546   1.641   3.237 -0.6862  0.5037  0.0668
 4188SOL     OW24022   4.072   1.833   5.137  0.0365 -0.5384 -0.0344
 4188SOL    HW124023   4.031   1.837   5.223  0.7499  0.4497  0.2556
 4188SOL    HW224024   4.103   1.742   5.132  0.8479 -0.1623 -1.7190
 4189SOL     OW24025   1.321   1.468   3.181 -0.0749  0.4731  0.6267
 4189SOL    HW124026   1.405   1.432   3.153 -1.7720 -0.5457 -3.1016
 4189SOL    HW224027   1.296   1.394   3.237  0.9077 -0.2637  0.0933
 4190SOL     OW24028   3.456   2.960   7.627  0.2417 -0.0330  0.2219
 4190SOL    HW124029   3.476   2.928   7.715  0.8924 -0.3134 -0.0227
 4190SOL    HW224030   3.401   2.890   7.592  0.2003  0.3314 -0.4339
 4191SOL     OW24031   1.768   4.026   8.901 -0.2582  0.1249  0.5470
 4191SOL    HW124032   1.773   4.082   8.978 -0.1410  1.5637 -0.5005
 4191SOL    HW224033   1.675   4.037   8.881 -0.3609 -0.8364  0.5010
 4192SOL     OW24034   4.552   1.455   5.023 -0.1859  0.7691  0.0532
 4192SOL    HW124035   4.573   1.398   4.950  1.0786  0.1366  0.9075
 4192SOL    HW224036   4.490   1.500   4.966 -1.3853 -1.3576 -0.3202
 4193SOL     OW24037   3.828   0.581   8.534  0.0992 -0.6566 -0.3476
 4193SOL    HW124038   3.841   0.625   8.618 -1.3482 -1.5917  0.3843
 4193SOL    HW224039   3.760   0.518   8.562  2.1584 -2.7175  0.0208
 4194SOL     OW24040   0.427   0.975  11.247 -0.3919  0.1553 -0.4589
 4194SOL    HW124041   0.494   0.985  11.315  1.0767 -2.0227 -1.5916
 4194SOL    HW224042   0.478   0.995  11.169  0.2338 -0.4960 -0.2114
 4195SOL     OW24043   1.925   4.311   2.877 -0.1187 -0.1188 -0.3103
 4195SOL    HW124044   1.958   4.346   2.960 -2.0327  0.6409  0.1228
 4195SOL    HW224045   1.871   4.385   2.850  0.0365 -0.7186 -2.2608
 4196SOL     OW24046   3.103   2.739  10.198  0.4977  0.3089  0.0614
 4196SOL    HW124047   3.122   2.775  10.285 -0.3965 -0.3144  0.5092
 4196SOL    HW224048   3.192   2.704  10.194 -0.0536 -1.1345  0.6338
 4197SOL     OW24049   3.009   0.706   1.004 -0.4318  0.4435  0.0923
 4197SOL    HW124050   2.972   0.790   0.977  0.4967  0.5600 -0.8011
 4197SOL    HW224051   3.015   0.719   1.098  1.0197 -1.3447  0.2391
 4198SOL     OW24052   3.280   2.050  14.445  0.5908 -0.2729  0.9736
 4198SOL    HW124053   3.285   2.111  14.519 -0.4961  2.7495 -1.4360
 4198SOL    HW224054   3.369   2.046  14.412  0.1926  0.8432 -0.2298
 4199SOL     OW24055   3.536   1.842   7.883  0.9761  0.4758 -0.3383
 4199SOL    HW124056   3.509   1.930   7.907 -3.5097 -1.5264  1.9838
 4199SOL    HW224057   3.631   1.839   7.891  1.0345 -0.7985 -1.4859
 4200SOL     OW24058   2.075   0.176   4.963 -0.0260  0.1765 -0.0548
 4200SOL    HW124059   2.013   0.105   4.984  2.1277 -1.3050  1.3809
 4200SOL    HW224060   2.018   0.220   4.901 -2.2995  0.2248  2.0303
 4201SOL     OW24061   2.283   1.974   4.603 -0.0196 -0.1364 -0.3130
 4201SOL    HW124062   2.299   1.898   4.659  1.5353 -0.2727 -0.9358
 4201SOL    HW224063   2.303   2.048   4.660  2.4943  0.2328 -1.6711
 4202SOL     OW24064   3.138   1.741  17.127  0.5130 -0.3327 -0.1657
 4202SOL    HW124065   3.176   1.827  17.147 -1.3558  0.7603 -1.3421
 4202SOL    HW224066   3.180   1.731  17.042  0.0868 -1.3049 -0.2547
 4203SOL     OW24067   3.269   4.506   1.500 -0.1301 -0.3424 -0.2024
 4203SOL    HW124068   3.260   4.544   1.412  0.9841  0.9673  0.2502
 4203SOL    HW224069   3.267   4.583   1.556 -1.2954  0.2158 -1.0101
 4204SOL     OW24070   0.195   3.348   5.609  0.3911 -0.3818 -0.4623
 4204SOL    HW124071   0.106   3.315   5.613 -0.5225  2.1993  0.3332
 4204SOL    HW224072   0.192   3.429   5.660 -0.7384 -0.7182 -0.0085
 4205SOL     OW24073   4.053   3.466   8.805  0.1338 -0.6926 -0.2145
 4205SOL    HW124074   4.100   3.543   8.772 -0.3638  0.6968  2.3110
 4205SOL    HW224075   3.973   3.505   8.840  0.5817  1.7366 -1.8848
 4206SOL     OW24076   3.639   1.124   5.786  0.1993 -0.4643  0.0157
 4206SOL    HW124077   3.556   1.120   5.833  0.0178  1.4224 -0.1249
 4206SOL    HW224078   3.643   1.219   5.771 -0.1683 -0.4287  0.1623
 4207SOL     OW24079   2.951   0.098   9.137 -1.0554  0.7141 -0.1810
 4207SOL    HW124080   2.947   0.050   9.054  0.0280 -1.9040  1.2834
 4207SOL    HW224081   2.908   0.030   9.189 -0.1848 -0.5522 -1.1191
 4208SOL     OW24082   4.471   2.585   8.485 -0.1874 -0.1275  0.0534
 4208SOL    HW124083   4.413   2.509   8.475  0.7866 -0.8994  0.2669
 4208SOL    HW224084   4.413   2.652   8.520  0.1888 -0.7644  1.9184
 4209SOL     OW24085   2.589   1.263   0.143  0.0646  0.1686 -0.4310
 4209SOL    HW124086   2.614   1.203   0.214 -1.3216  0.6420  0.4526
 4209SOL    HW224087   2.670   1.291   0.101 -0.3017 -1.1612 -2.0052
 4210SOL     OW24088   2.749   3.614   1.345  0.0282  0.4050  0.2515
 4210SOL    HW124089   2.762   3.633   1.437 -0.9888  1.2686  0.2165
 4210SOL    HW224090   2.840   3.629   1.322 -0.2555  0.1986 -1.0186
 4211SOL     OW24091   2.402   0.453  13.649  0.2473 -0.3757  0.5737
 4211SOL    HW124092   2.334   0.385  13.646  0.2041 -0.3188  0.2618
 4211SOL    HW224093   2.433   0.449  13.739  1.9435  0.8582  0.0361
 4212SOL     OW24094   1.615   1.966   2.976  0.4216  0.3599  0.6193
 4212SOL    HW124095   1.564   2.026   3.031  0.1792 -0.2795  1.0974
 4212SOL    HW224096   1.656   2.022   2.911 -0.2888  1.3003  0.9854
 4213SOL     OW24097   1.332   4.316   7.711  0.3791 -0.7741 -0.2996
 4213SOL    HW124098   1.305   4.307   7.803  2.4240 -1.1479  0.2522
 4213SOL    HW224099   1.258   4.274   7.667 -0.1177 -0.4124  0.1837
 4214SOL     OW24100   2.820   1.637   6.432 -0.3873 -0.2891  0.0936
 4214SOL    HW124101   2.803   1.725   6.399 -1.6006 -1.3313 -2.0441
 4214SOL    HW224102   2.906   1.649   6.473 -1.2062  1.0218  1.4185
 4215SOL     OW24103   1.403   0.355   7.351  0.1260  0.5980  0.1906
 4215SOL    HW124104   1.486   0.378   7.309 -0.4262  1.5822 -0.3776
 4215SOL    HW224105   1.424   0.391   7.437 -2.2472 -0.8359  1.3506
 4216SOL     OW24106   3.396   2.745   5.637 -0.1336  0.3584  0.0356
 4216SOL    HW124107   3.435   2.833   5.629  1.8487 -0.4697  0.6272
 4216SOL    HW224108   3.474   2.691   5.642  0.1970  1.0267  2.3502
 4217SOL     OW24109   4.361   3.909   8.090  0.6693  0.4542  0.6328
 4217SOL    HW124110   4.345   3.848   8.018 -1.7439 -1.6252  2.9332
 4217SOL    HW224111   4.269   3.932   8.101  0.9448  1.6694  0.4256
 4218SOL     OW24112   2.451   0.879   6.263 -0.0866  0.2988  0.4094
 4218SOL    HW124113   2.527   0.828   6.233 -2.3451 -1.9120 -1.5176
 4218SOL    HW224114   2.447   0.842   6.351  0.2936  3.1679  1.6155
 4219SOL     OW24115   0.863   3.856  16.977 -0.2740  0.6376 -0.3675
 4219SOL    HW124116   0.787   3.898  17.018 -1.7013 -0.9740 -1.3842
 4219SOL    HW224117   0.920   3.867  17.053  1.0692 -0.0730 -1.2758
 4220SOL     OW24118   2.251   1.263  17.307 -0.0931  0.3781  0.0236
 4220SOL    HW124119   2.326   1.296  17.356 -0.1026  0.7381 -0.2014
 4220SOL    HW224120   2.283   1.200  17.243 -3.2656 -0.2009 -1.0049
 4221SOL     OW24121   4.509   1.077   2.939 -0.0757 -0.4148  0.5346
 4221SOL    HW124122   4.484   1.040   2.854  1.9074 -1.1976  0.2958
 4221SOL    HW224123   4.510   1.001   2.997  0.0180 -0.7480  0.0965
 4222SOL     OW24124   2.016   1.544   2.965  0.1798 -0.4873 -0.2381
 4222SOL    HW124125   1.982   1.468   3.013 -0.4417 -0.4286 -0.5901
 4222SOL    HW224126   2.051   1.501   2.887 -1.1193 -0.6826 -0.7102
 4223SOL     OW24127   4.692   1.888   9.116  0.1401  0.1958  0.0277
 4223SOL    HW124128   4.671   1.858   9.204 -2.2110  2.8042  0.3543
 4223SOL    HW224129   4.620   1.942   9.082  0.0361 -0.4817 -0.8353
 4224SOL     OW24130   0.616   3.273   9.420  0.4364 -0.5191  0.0923
 4224SOL    HW124131   0.624   3.244   9.510 -2.9005 -1.3748  0.1212
 4224SOL    HW224132   0.708   3.288   9.395  0.3823  0.2647  0.3644
 4225SOL     OW24133   2.342   3.746  12.020 -0.9678 -0.2976 -0.2260
 4225SOL    HW124134   2.340   3.738  12.116 -1.5823 -0.1938 -0.2325
 4225SOL    HW224135   2.334   3.654  11.994  0.2357 -0.0119 -1.5993
 4226SOL     OW24136   1.378   1.559   8.421  0.1462 -0.0871 -0.5775
 4226SOL    HW124137   1.435   1.521   8.488 -1.3290 -0.5641  0.4137
 4226SOL    HW224138   1.405   1.651   8.426  0.8626 -0.2944 -0.6503
 4227SOL     OW24139   0.486   2.378  13.985 -0.3490 -0.0178  0.5225
 4227SOL    HW124140   0.507   2.367  13.893 -2.4547 -2.0653  0.2805
 4227SOL    HW224141   0.391   2.362  13.984 -0.0472 -1.8588  0.9281
 4228SOL     OW24142   4.318   4.138   5.821 -0.2914  0.3014 -0.3193
 4228SOL    HW124143   4.405   4.167   5.850 -1.2023  2.0301  0.6237
 4228SOL    HW224144   4.352   4.115   5.734  2.6584 -0.7217  1.0973
 4229SOL     OW24145   2.070   1.167   9.861  0.5714 -0.0098  0.1409
 4229SOL    HW124146   2.030   1.198   9.779 -1.6030  0.6345  1.4491
 4229SOL    HW224147   2.001   1.178   9.926 -1.9654  0.6961 -2.6565
 4230SOL     OW24148   4.000   1.176  12.053  0.0571 -0.2215  0.1689
 4230SOL    HW124149   4.006   1.217  11.967  0.2978 -0.4890  0.0560
 4230SOL    HW224150   3.906   1.160  12.039 -0.2426 -1.2624  3.3291
 4231SOL     OW24151   1.785   1.036   0.982  0.2680  0.1266 -0.8087
 4231SOL    HW124152   1.737   1.098   0.927  1.1534  1.7052  0.1952
 4231SOL    HW224153   1.724   1.036   1.056  0.9647  0.1654 -0.2397
 4232SOL     OW24154   4.060   1.390  10.245 -0.9328 -0.2383 -0.6419
 4232SOL    HW124155   4.138   1.372  10.296 -0.5228 -0.8450 -1.4986
 4232SOL    HW224156   3.998   1.320  10.268 -0.2707 -0.4260  0.5207
 4233SOL     OW24157   4.624   0.684   9.199  0.5440  0.0531  0.2316
 4233SOL    HW124158   4.559   0.660   9.265  0.6569 -1.1814 -0.1026
 4233SOL    HW224159   4.626   0.777   9.222 -0.2118  0.2239 -0.3767
 4234SOL     OW24160   1.481   1.275  12.396 -0.0208  0.2686  0.1503
 4234SOL    HW124161   1.440   1.362  12.402  3.5580  2.0348 -1.0418
 4234SOL    HW224162   1.412   1.225  12.439  1.2767 -0.5206  1.2835
 4235SOL     OW24163   2.455   1.318   6.608  0.1133 -0.2170  0.3657
 4235SOL    HW124164   2.487   1.408   6.615  1.0821 -0.6268  1.0763
 4235SOL    HW224165   2.425   1.323   6.517  1.9037 -0.8960 -0.2535
 4236SOL     OW24166   1.192   0.070   3.631 -0.0635  0.0391 -0.4213
 4236SOL    HW124167   1.156   0.048   3.545  0.8719  0.7888 -1.0097
 4236SOL    HW224168   1.128   0.035   3.692 -1.6168  0.8229 -1.6046
 4237SOL     OW24169   0.083   1.128  10.013  0.1492  0.4516 -0.0521
 4237SOL    HW124170   0.131   1.046  10.024 -1.2360 -0.3574 -0.1582
 4237SOL    HW224171   0.088   1.158  10.103 -0.2860 -1.6240  0.6550
 4238SOL     OW24172   1.941   3.847   1.637 -0.5965  0.7027 -0.0394
 4238SOL    HW124173   1.983   3.802   1.563  0.7225 -1.3061  1.9234
 4238SOL    HW224174   1.908   3.928   1.598 -2.0312  0.4699  0.7023
 4239SOL     OW24175   4.555   1.016  13.050 -0.0488 -0.7699  0.1999
 4239SOL    HW124176   4.527   1.085  13.112 -0.2580  1.5919 -2.5400
 4239SOL    HW224177   4.588   1.071  12.979 -0.8675  1.5062  1.5479
 4240SOL     OW24178   2.931   4.063   8.387  0.2036 -0.4480 -0.1906
 4240SOL    HW124179   2.949   4.084   8.479  1.2656 -4.3326  0.5036
 4240SOL    HW224180   2.974   4.135   8.341  0.9009  1.3443  3.2194
 4241SOL     OW24181   3.491   3.467   2.867 -0.0180 -0.8639 -0.4695
 4241SOL    HW124182   3.500   3.374   2.846 -0.2141 -0.5529 -1.9221
 4241SOL    HW224183   3.448   3.504   2.790 -0.0904 -1.8534 -0.8984
 4242SOL     OW24184   3.384   0.765   3.258  0.5184  0.2768  0.0872
 4242SOL    HW124185   3.346   0.851   3.273  0.3369 -0.0288  1.4027
 4242SOL    HW224186   3.474   0.789   3.235 -0.0665  3.6765  1.3776
 4243SOL     OW24187   1.603   4.311  16.998 -0.0967  0.6715  0.3662
 4243SOL    HW124188   1.575   4.368  17.070  1.9275  1.5830  0.4491
 4243SOL    HW224189   1.655   4.375  16.949  1.2181  1.0732  2.3013
 4244SOL     OW24190   2.649   1.408   2.517  0.4330 -0.2116  0.1893
 4244SOL    HW124191   2.570   1.399   2.464  0.3214  0.1140  0.2993
 4244SOL    HW224192   2.712   1.352   2.472  1.2815  0.7719  0.1547
 4245SOL     OW24193   1.607   0.784   6.858 -0.4624  0.3835 -0.8077
 4245SOL    HW124194   1.679   0.844   6.839  1.1325 -1.6861 -1.1599
 4245SOL    HW224195   1.594   0.737   6.775  0.1341 -0.5808 -0.3505
 4246SOL     OW24196   1.967   1.091  11.958  0.1373  0.5147 -0.5167
 4246SOL    HW124197   2.019   1.072  12.036 -1.1108  1.2750  0.4916
 4246SOL    HW224198   2.026   1.051  11.894  0.8876  0.0909  0.4484
 4247SOL     OW24199   0.091   2.607   9.764  0.2713 -0.2252  0.0864
 4247SOL    HW124200   0.172   2.655   9.777  1.3580 -1.5833 -1.6458
 4247SOL    HW224201   0.040   2.660   9.825  1.9271  0.9583  0.4401
 4248SOL     OW24202   0.300   2.082   7.823 -0.0997  0.1402  0.0153
 4248SOL    HW124203   0.278   2.160   7.873  2.0776  1.8103 -1.6285
 4248SOL    HW224204   0.286   2.017   7.893  1.7378  1.7152  1.8572
 4249SOL     OW24205   1.058   4.519   9.180 -0.8005  0.0758  0.4120
 4249SOL    HW124206   1.006   4.544   9.104  0.4102 -1.7979 -1.0130
 4249SOL    HW224207   0.989   4.466   9.220 -0.3761 -1.1713 -0.5362
 4250SOL     OW24208   1.058   4.368   7.399  0.6468 -0.8577  0.3008
 4250SOL    HW124209   1.072   4.302   7.468  0.5702 -0.6119  0.5528
 4250SOL    HW224210   1.089   4.449   7.441 -0.8107 -0.2834  0.2698
 4251SOL     OW24211   0.690   3.006  16.186  0.2308 -0.2251  0.2031
 4251SOL    HW124212   0.728   2.967  16.107 -1.6311 -0.7128 -0.4459
 4251SOL    HW224213   0.603   3.035  16.158  0.4471  1.2486  1.0616
 4252SOL     OW24214   0.469   3.155   3.487  0.3013 -0.0530  0.4635
 4252SOL    HW124215   0.407   3.200   3.544  0.3851 -0.1022  0.5930
 4252SOL    HW224216   0.553   3.184   3.523 -0.4238  3.2296 -0.5132
 4253SOL     OW24217   1.846   1.248   4.237 -0.2977 -0.0301 -0.0967
 4253SOL    HW124218   1.781   1.185   4.207  0.1974 -0.7436  0.3277
 4253SOL    HW224219   1.785   1.300   4.290  0.3697  1.6244 -0.9323
 4254SOL     OW24220   1.234   4.635  11.843  0.5540 -0.1300  0.1486
 4254SOL    HW124221   1.249   4.569  11.911 -0.5960  0.6491  1.1445
 4254SOL    HW224222   1.325   4.664  11.843  0.6689 -0.5112 -1.0591
 4255SOL     OW24223   3.066   0.639   7.895 -0.0257 -0.2497 -0.0338
 4255SOL    HW124224   3.050   0.575   7.825 -0.8328 -1.1412  0.9665
 4255SOL    HW224225   3.127   0.598   7.956  0.2223  0.4457  0.1752
 4256SOL     OW24226   2.877   0.189  14.044 -0.4758 -0.2989 -0.3169
 4256SOL    HW124227   2.784   0.180  14.023 -0.3578 -3.3175  0.4608
 4256SOL    HW224228   2.904   0.267  13.995  1.6961 -0.1199  1.1750
 4257SOL     OW24229   1.035   0.736  10.512 -0.9212  0.9229 -0.2231
 4257SOL    HW124230   0.951   0.782  10.504 -1.1950  0.3070 -0.9025
 4257SOL    HW224231   1.035   0.688  10.594 -1.8040  1.5660  0.1552
 4258SOL     OW24232   3.251   2.241   7.639  0.0874 -0.8276  0.0021
 4258SOL    HW124233   3.311   2.174   7.670 -0.9579 -1.0025  1.6954
 4258SOL    HW224234   3.314   2.293   7.589  0.3074  0.1204  1.2695
 4259SOL     OW24235   0.268   0.570  13.760 -0.2420  0.8008  0.2342
 4259SOL    HW124236   0.352   0.563  13.806 -0.3134 -0.0568  0.2200
 4259SOL    HW224237   0.238   0.656  13.791  1.3281  2.0820 -1.7780
 4260SOL     OW24238   2.267   1.383   6.353 -0.3275  0.1757  0.1845
 4260SOL    HW124239   2.303   1.301   6.319 -0.8974  0.0126 -0.0266
 4260SOL    HW224240   2.340   1.445   6.352 -1.2788  1.2533 -2.0925
 4261SOL     OW24241   0.180   2.236   7.301  0.6178 -0.1716 -0.5578
 4261SOL    HW124242   0.158   2.265   7.389  0.8531  2.0490 -1.2419
 4261SOL    HW224243   0.124   2.291   7.247  1.5705  0.9535 -0.3887
 4262SOL     OW24244   1.211   3.801   8.069 -0.0746  0.1512 -0.1633
 4262SOL    HW124245   1.238   3.758   7.988 -0.7130  0.5690 -0.5904
 4262SOL    HW224246   1.116   3.793   8.070 -0.3006  3.0704  0.3868
 4263SOL     OW24247   4.574   1.431   0.886 -0.5599 -0.4972  0.6495
 4263SOL    HW124248   4.542   1.458   0.801 -2.3471 -0.2773  1.3976
 4263SOL    HW224249   4.516   1.359   0.912  0.9861 -2.1114 -0.3400
 4264SOL     OW24250   2.481   0.917   9.481 -0.0766  0.4520 -0.4959
 4264SOL    HW124251   2.449   0.827   9.467 -0.5372  0.2997  1.5734
 4264SOL    HW224252   2.558   0.909   9.536  0.4267  1.3083 -1.0868
 4265SOL     OW24253   2.545   4.353   1.317 -0.6224  0.1475  0.0744
 4265SOL    HW124254   2.477   4.288   1.302  1.4338 -2.3682  1.7252
 4265SOL    HW224255   2.617   4.334   1.256  1.1810  0.7581  1.9985
 4266SOL     OW24256   1.744   1.722   2.422  0.0073  0.3631 -0.0518
 4266SOL    HW124257   1.679   1.790   2.405 -0.8394 -0.4711 -0.2147
 4266SOL    HW224258   1.778   1.748   2.508  0.4420 -0.0473 -0.0958
 4267SOL     OW24259   1.798   4.345   6.890  0.1531 -0.0494 -0.4676
 4267SOL    HW124260   1.792   4.320   6.798  0.4886 -1.0224 -0.2261
 4267SOL    HW224261   1.823   4.268   6.942 -1.3239  1.1516  2.0065
 4268SOL     OW24262   4.450   3.285   8.856 -0.4292 -0.1009  0.2564
 4268SOL    HW124263   4.491   3.218   8.801 -0.9634 -0.1078 -0.1274
 4268SOL    HW224264   4.361   3.254   8.871 -0.0238 -2.1469 -1.5628
 4269SOL     OW24265   4.690   1.967   8.806  0.3688 -0.5643  0.1121
 4269SOL    HW124266   0.031   2.026   8.845  1.4499 -2.1882  0.7779
 4269SOL    HW224267   4.694   1.999   8.716  0.8675 -0.9291 -0.0006
 4270SOL     OW24268   0.182   0.763  14.629  0.6588  0.0226  0.5780
 4270SOL    HW124269   0.198   0.822  14.554  0.4656 -0.5245  0.1054
 4270SOL    HW224270   0.125   0.700  14.586  2.8866 -0.1043 -2.2478
 4271SOL     OW24271   0.854   2.681   8.789  0.0566 -0.0896  0.4494
 4271SOL    HW124272   0.826   2.743   8.856  0.7162 -1.9052  2.4199
 4271SOL    HW224273   0.828   2.730   8.711 -2.2727 -0.2446  1.1136
 4272SOL     OW24274   0.891   0.424   6.427 -0.1705  0.1990  0.2850
 4272SOL    HW124275   0.877   0.426   6.332  1.1360  0.8818  0.1068
 4272SOL    HW224276   0.803   0.393   6.449 -0.1279 -0.8246 -1.0121
 4273SOL     OW24277   3.854   2.660  10.094  0.1698  0.1833  0.3245
 4273SOL    HW124278   3.828   2.734  10.038  0.6364  0.3647  0.3488
 4273SOL    HW224279   3.905   2.706  10.160 -0.6013  1.0359  0.3296
 4274SOL     OW24280   1.900   0.620   8.012 -1.0762  0.2524  0.5785
 4274SOL    HW124281   1.995   0.609   8.004 -0.9432  0.1316  2.2232
 4274SOL    HW224282   1.903   0.711   7.983  0.7341 -0.3627 -1.1826
 4275SOL     OW24283   1.335   1.946   5.136  0.0521  0.4843  0.0947
 4275SOL    HW124284   1.424   1.914   5.123 -0.6836 -1.0224 -1.1601
 4275SOL    HW224285   1.346   2.035   5.102  1.7747  0.4846  0.6798
 4276SOL     OW24286   2.307   4.214  12.998  0.7344 -0.5300 -0.7961
 4276SOL    HW124287   2.251   4.211  13.076  0.9004  1.1700 -0.5901
 4276SOL    HW224288   2.239   4.213  12.931 -1.3965  0.5622  1.3122
 4277SOL     OW24289   2.211   2.954  16.805 -0.4934 -0.3135 -0.5946
 4277SOL    HW124290   2.218   2.921  16.895  0.9510 -0.4277 -0.7527
 4277SOL    HW224291   2.276   2.904  16.755 -0.4562 -0.5711 -0.2944
 4278SOL     OW24292   2.810   3.785   2.145 -0.3783  0.2395 -0.5642
 4278SOL    HW124293   2.720   3.752   2.146 -0.6505  0.9801  1.0050
 4278SOL    HW224294   2.836   3.739   2.066 -0.5499  0.7912 -0.9416
 4279SOL     OW24295   2.011   0.865   4.104 -0.6492 -0.6672  0.4534
 4279SOL    HW124296   2.083   0.816   4.064  0.0585 -0.1267  1.0543
 4279SOL    HW224297   1.970   0.874   4.018  1.3439  0.5743 -0.3615
 4280SOL     OW24298   3.719   2.566   7.102 -1.2489  0.3058 -0.1136
 4280SOL    HW124299   3.751   2.545   7.190  2.0503  2.2012 -0.8771
 4280SOL    HW224300   3.741   2.486   7.053 -1.6464 -0.1536  0.4577
 4281SOL     OW24301   2.641   4.282   8.425  0.3797 -0.2315  0.6043
 4281SOL    HW124302   2.646   4.227   8.347  1.9590 -0.2966  0.7375
 4281SOL    HW224303   2.577   4.243   8.485  0.9882  2.3018  2.9415
 4282SOL     OW24304   2.546   1.236  17.095 -0.5127  0.5433 -0.6045
 4282SOL    HW124305   2.462   1.190  17.092 -1.1188  1.6001  0.2639
 4282SOL    HW224306   2.604   1.166  17.126 -0.4103  1.4071  1.1013
 4283SOL     OW24307   2.171   1.449   6.665  0.3284  0.2927  0.5099
 4283SOL    HW124308   2.173   1.490   6.752  1.0307 -0.2324  0.7375
 4283SOL    HW224309   2.105   1.507   6.627 -1.0216 -0.5147  1.6122
 4284SOL     OW24310   2.236   1.803   6.287 -0.1571 -0.4702 -0.2911
 4284SOL    HW124311   2.252   1.763   6.373 -2.0679 -0.4207  0.0829
 4284SOL    HW224312   2.247   1.892   6.321  0.9769 -0.1887 -1.4142
 4285SOL     OW24313   3.587   4.527  15.509  0.1202  0.0548 -0.1542
 4285SOL    HW124314   3.523   4.533  15.439  0.3939  2.1923 -0.2140
 4285SOL    HW224315   3.668   4.552  15.464  0.7160 -0.1070  0.8104
 4286SOL     OW24316   1.784   1.783   8.414  0.5075  0.1011  0.0405
 4286SOL    HW124317   1.791   1.850   8.482  0.3659 -0.7605  0.9009
 4286SOL    HW224318   1.690   1.773   8.401  0.8122 -1.0360 -1.3705
 4287SOL     OW24319   0.443   2.814   5.897  0.0878  0.1958 -0.3371
 4287SOL    HW124320   0.449   2.751   5.970 -1.8912  0.7849  0.3381
 4287SOL    HW224321   0.418   2.890   5.949  1.5129  1.3138 -1.2808
 4288SOL     OW24322   2.466   4.334   1.822 -0.5592  0.1205  0.5909
 4288SOL    HW124323   2.507   4.309   1.740  0.2283  0.1210  0.9830
 4288SOL    HW224324   2.401   4.264   1.831 -0.0363 -0.6346 -1.7302
 4289SOL     OW24325   3.058   3.204   5.814 -0.1357  0.5645 -0.0951
 4289SOL    HW124326   2.971   3.186   5.777 -0.5439  1.5008  0.3847
 4289SOL    HW224327   3.091   3.114   5.816  0.5812  0.8648  1.6117
 4290SOL     OW24328   3.403   0.235   7.469  0.1233 -0.6552  0.2311
 4290SOL    HW124329   3.403   0.321   7.510 -1.4448 -0.0266 -1.1030
 4290SOL    HW224330   3.449   0.253   7.387 -3.2609  0.8155 -1.3475
 4291SOL     OW24331   4.497   3.313   6.949  0.1184  0.0040  0.3360
 4291SOL    HW124332   4.516   3.361   7.030 -0.3086 -2.3943  1.8484
 4291SOL    HW224333   4.581   3.285   6.913  0.3139 -1.8835  2.2637
 4292SOL     OW24334   4.330   3.096  13.812  0.1652  0.3336 -0.3403
 4292SOL    HW124335   4.283   3.049  13.882 -0.1260  0.2012 -0.6246
 4292SOL    HW224336   4.363   3.171  13.862  3.6463 -0.8615 -0.8232
 4293SOL     OW24337   1.049   0.680   3.659 -0.3924 -0.1170 -0.4193
 4293SOL    HW124338   1.062   0.774   3.675  3.9168 -0.3947 -2.1842
 4293SOL    HW224339   1.017   0.683   3.569 -0.5871 -0.9506 -0.3728
 4294SOL     OW24340   2.449   3.165  14.063  0.2171 -0.3475 -0.4595
 4294SOL    HW124341   2.463   3.259  14.050 -0.3555 -0.4070 -1.5677
 4294SOL    HW224342   2.363   3.145  14.025 -0.7215  2.4397  0.1459
 4295SOL     OW24343   0.761   3.294   0.920  0.1518 -0.0357 -0.1073
 4295SOL    HW124344   0.835   3.268   0.866  0.0418 -0.3001 -0.1309
 4295SOL    HW224345   0.762   3.215   0.975  1.6980  0.9192  1.2332
 4296SOL     OW24346   3.444   4.201  11.187  0.1024  0.2452 -0.5603
 4296SOL    HW124347   3.442   4.250  11.268 -0.2632  0.0336 -0.4413
 4296SOL    HW224348   3.430   4.270  11.122 -2.3863  0.0728 -0.1978
 4297SOL     OW24349   0.874   3.357  14.670 -0.6919 -0.3492 -0.1002
 4297SOL    HW124350   0.812   3.359  14.743 -1.3564 -1.2824 -0.6459
 4297SOL    HW224351   0.830   3.428  14.622  1.3021 -0.9195 -2.7762
 4298SOL     OW24352   2.612   3.366   2.103  0.2638  0.0366  0.2486
 4298SOL    HW124353   2.581   3.393   2.189  0.3283  0.1848  0.2263
 4298SOL    HW224354   2.551   3.293   2.092 -1.5999  1.6711 -0.1393
 4299SOL     OW24355   0.388   2.193   8.724  0.1185 -0.3309  0.1047
 4299SOL    HW124356   0.443   2.260   8.683 -0.6165  1.7428  2.4885
 4299SOL    HW224357   0.322   2.246   8.770 -1.7970 -3.7330  1.2827
 4300SOL     OW24358   0.151   3.025   0.254 -0.0802 -0.3195 -0.1872
 4300SOL    HW124359   0.136   3.009   0.348 -0.8722 -0.3908 -0.3254
 4300SOL    HW224360   0.065   3.058   0.229  0.1062 -0.4604 -0.9853
 4301SOL     OW24361   1.164   2.778   3.163  0.4756 -0.4089 -0.6019
 4301SOL    HW124362   1.211   2.837   3.105  2.3121 -0.2004  1.0927
 4301SOL    HW224363   1.081   2.785   3.116 -1.2271  0.6559  2.5617
 4302SOL     OW24364   4.439   3.587  17.192  0.1337  0.2166 -0.5366
 4302SOL    HW124365   4.418   3.540  17.110  1.4181 -0.1057 -0.6771
 4302SOL    HW224366   4.350   3.609  17.220  1.1328  2.2988  0.9110
 4303SOL     OW24367   3.348   3.609   2.131 -0.4822  0.0871  0.1306
 4303SOL    HW124368   3.353   3.694   2.088  0.9029 -1.3465 -2.5747
 4303SOL    HW224369   3.253   3.602   2.130 -0.5418  0.8971  1.6404
 4304SOL     OW24370   0.903   1.070   2.421  0.0695  0.4530  0.2822
 4304SOL    HW124371   0.918   0.991   2.368 -1.9887  1.3879 -1.6541
 4304SOL    HW224372   0.813   1.054   2.450  0.7042 -2.8247  0.5211
 4305SOL     OW24373   2.799   2.786   2.200  0.1361 -0.2699 -0.6480
 4305SOL    HW124374   2.878   2.734   2.215  0.0892  0.1595  1.0543
 4305SOL    HW224375   2.731   2.721   2.182  0.3261  0.0017 -2.3464
 4306SOL     OW24376   2.128   1.052   3.231 -0.0327 -0.5888  0.1242
 4306SOL    HW124377   2.190   1.032   3.161 -1.3947 -1.4589 -0.8535
 4306SOL    HW224378   2.103   1.140   3.204  1.1040 -0.0511  0.8704
 4307SOL     OW24379   1.667   2.630   2.884  0.5331  0.4024  0.1870
 4307SOL    HW124380   1.723   2.629   2.961  0.5724 -1.4025  0.1274
 4307SOL    HW224381   1.594   2.591   2.931 -1.5503  2.5836 -1.2137
 4308SOL     OW24382   1.330   1.638   9.374 -0.6373 -0.1017  0.4847
 4308SOL    HW124383   1.254   1.681   9.333  0.7749 -0.6555 -2.7561
 4308SOL    HW224384   1.355   1.709   9.433  2.3677  0.5524 -1.5955
 4309SOL     OW24385   3.191   0.081   8.911  0.2263 -0.0842 -0.4966
 4309SOL    HW124386   3.158   0.005   8.959 -1.3221  1.1467  0.3708
 4309SOL    HW224387   3.124   0.102   8.847  0.6743  0.6721 -0.7191
 4310SOL     OW24388   0.752   2.333   6.159  0.3424 -0.1463  0.4566
 4310SOL    HW124389   0.756   2.321   6.254  3.0380 -1.0957  0.2096
 4310SOL    HW224390   0.770   2.243   6.131 -2.8188 -0.6674  0.0611
 4311SOL     OW24391   4.154   3.375   2.682 -0.0286  0.1513 -0.1058
 4311SOL    HW124392   4.086   3.440   2.702 -0.3770 -0.6236  1.1999
 4311SOL    HW224393   4.176   3.416   2.598 -1.1190  0.5387 -0.2116
 4312SOL     OW24394   4.094   2.873   3.748  0.2360 -0.6153  0.3754
 4312SOL    HW124395   4.103   2.914   3.834 -0.4435 -0.1573  0.2260
 4312SOL    HW224396   4.184   2.882   3.717  0.1270  0.1085  0.2790
 4313SOL     OW24397   0.315   0.910   1.313  0.1007  0.2334  0.1562
 4313SOL    HW124398   0.402   0.916   1.352  0.7371  1.3622 -1.4310
 4313SOL    HW224399   0.342   0.851   1.242 -0.5247 -1.0282  0.9678
 4314SOL     OW24400   2.513   4.193   2.357  0.1184  0.0938 -0.4473
 4314SOL    HW124401   2.438   4.137   2.333 -0.6862  1.3807 -0.9027
 4314SOL    HW224402   2.521   4.251   2.282  0.9808 -3.0710 -2.7895
 4315SOL     OW24403   0.835   3.900   3.058  0.0806  0.7484  0.0221
 4315SOL    HW124404   0.811   3.832   3.121 -1.2611 -0.9927 -2.3527
 4315SOL    HW224405   0.904   3.853   3.011  0.8585 -0.2071  2.0907
 4316SOL     OW24406   2.810   1.202   5.824  0.2380  0.3666 -0.0118
 4316SOL    HW124407   2.815   1.166   5.736 -0.8267  1.1559 -0.3913
 4316SOL    HW224408   2.847   1.127   5.871 -0.4711  1.1345  1.7789
 4317SOL     OW24409   2.701   0.119  11.719 -0.3192 -0.5763  0.4740
 4317SOL    HW124410   2.650   0.063  11.660  0.0494 -1.1332  0.6907
 4317SOL    HW224411   2.704   0.072  11.802  3.1360  0.7924  1.1154
 4318SOL     OW24412   3.832   0.367   3.934  0.0239 -0.1721 -0.7067
 4318SOL    HW124413   3.882   0.286   3.939  0.8967  0.4092  0.1343
 4318SOL    HW224414   3.757   0.336   3.884  0.9176 -1.8329 -1.0011
 4319SOL     OW24415   2.706   0.016   4.292  0.0079  0.3915 -0.0146
 4319SOL    HW124416   2.794   4.703   4.300 -0.6520 -1.4137 -0.7633
 4319SOL    HW224417   2.706   0.043   4.384 -1.2489  1.0978 -0.2237
 4320SOL     OW24418   2.326   3.635   4.695  0.1608 -0.6589 -1.0521
 4320SOL    HW124419   2.396   3.668   4.752 -0.8278 -0.4335  0.0277
 4320SOL    HW224420   2.349   3.542   4.693  2.8482 -0.0563  1.2680
 4321SOL     OW24421   3.597   0.306   2.430 -0.2488 -0.0007 -0.3532
 4321SOL    HW124422   3.604   0.402   2.435  1.6108 -0.1560 -0.0489
 4321SOL    HW224423   3.651   0.298   2.351  1.3091  2.2689  0.4473
 4322SOL     OW24424   2.783   1.625  16.751 -0.6175 -0.3337  0.2863
 4322SOL    HW124425   2.825   1.598  16.833 -0.8215  2.9987  1.4756
 4322SOL    HW224426   2.700   1.664  16.777  1.2831  3.3236  0.7959
 4323SOL     OW24427   4.514   1.953  17.024  0.2036 -0.6201  0.5531
 4323SOL    HW124428   4.442   1.958  17.087 -1.3913 -1.2810 -1.2173
 4323SOL    HW224429   4.486   2.022  16.964  0.0675 -0.0849  1.2289
 4324SOL     OW24430   3.164   3.222   6.383 -0.4576 -0.2593  0.3284
 4324SOL    HW124431   3.191   3.239   6.293  0.5712  2.5884  1.1801
 4324SOL    HW224432   3.086   3.277   6.391  1.1650  1.7153  2.7053
 4325SOL     OW24433   1.030   2.326   7.030 -0.2372 -0.0541 -0.0558
 4325SOL    HW124434   0.960   2.334   6.964  0.7662  1.6167 -0.9062
 4325SOL    HW224435   1.039   2.417   7.058 -2.1402  0.4828 -1.1312
 4326SOL     OW24436   3.485   1.335  14.877 -0.0452 -0.2862  0.0243
 4326SOL    HW124437   3.575   1.362  14.859  0.1646  0.0178  1.5302
 4326SOL    HW224438   3.441   1.394  14.816  1.7179  0.5403 -0.4348
 4327SOL     OW24439   0.109   0.614   6.430 -0.2471  0.7809  0.1737
 4327SOL    HW124440   0.078   0.681   6.369 -0.4031 -0.2926 -0.9489
 4327SOL    HW224441   0.203   0.634   6.428 -0.1981  0.5583  0.2734
 4328SOL     OW24442   0.089   4.463   9.538 -0.1162 -0.1313 -0.1720
 4328SOL    HW124443   0.067   4.556   9.548 -0.2993 -0.0503 -1.3162
 4328SOL    HW224444   0.053   4.430   9.620  0.3567  1.1943  0.5729
 4329SOL     OW24445   2.883   0.079   6.182 -0.2244  0.5111  0.0009
 4329SOL    HW124446   2.797   0.110   6.156 -1.0208 -0.0604  1.9582
 4329SOL    HW224447   2.938   0.128   6.120 -1.1510  0.3535 -0.9337
 4330SOL     OW24448   3.487   1.580   8.294 -0.6909  0.1979 -0.3092
 4330SOL    HW124449   3.418   1.544   8.238  0.1448 -1.3037 -0.3533
 4330SOL    HW224450   3.469   1.543   8.380  0.2786  1.6020  0.5014
 4331SOL     OW24451   1.019   3.983   6.872 -0.3324  0.1169  0.3673
 4331SOL    HW124452   1.000   4.030   6.791 -1.4748 -0.2096  0.4529
 4331SOL    HW224453   1.080   3.916   6.842 -2.2035 -0.8057 -1.3268
 4332SOL     OW24454   4.088   0.657   5.484 -0.0833  0.5117  0.1111
 4332SOL    HW124455   4.147   0.722   5.522  0.2918 -0.5489  1.3211
 4332SOL    HW224456   4.150   0.608   5.431  0.8410  0.1479  1.5194
 4333SOL     OW24457   3.888   4.482  12.224  0.3890 -0.4167  0.5975
 4333SOL    HW124458   3.828   4.423  12.271  0.5530  0.2770  1.6773
 4333SOL    HW224459   3.967   4.432  12.246  0.1812 -0.1060  2.0459
 4334SOL     OW24460   3.415   1.311   7.412 -0.2752 -0.1189 -0.0869
 4334SOL    HW124461   3.473   1.355   7.349 -0.9270  2.2836  1.0070
 4334SOL    HW224462   3.368   1.379   7.459 -0.2614  1.1445 -1.8825
 4335SOL     OW24463   2.631   1.806   5.220 -0.4853 -0.0313 -0.6642
 4335SOL    HW124464   2.634   1.875   5.287  1.2498 -2.1779  1.4370
 4335SOL    HW224465   2.683   1.847   5.151  1.3691 -2.4563 -0.6803
 4336SOL     OW24466   4.525   2.321   7.473  0.5483 -0.2841  0.0710
 4336SOL    HW124467   4.468   2.281   7.539  0.8576 -1.9967 -0.7026
 4336SOL    HW224468   4.548   2.241   7.426 -0.7271  1.2662 -3.1622
 4337SOL     OW24469   2.698   4.110  14.915  0.4698  0.8717  0.1817
 4337SOL    HW124470   2.719   4.203  14.915 -0.0811  0.9864  2.3124
 4337SOL    HW224471   2.789   4.079  14.913  0.1786 -0.0039  0.6194
 4338SOL     OW24472   1.608   2.019   8.523  0.1620 -0.3172 -0.5996
 4338SOL    HW124473   1.535   2.066   8.562  0.3526 -0.5083 -0.0192
 4338SOL    HW224474   1.685   2.055   8.566 -1.1469  2.2711 -0.4507
 4339SOL     OW24475   3.232   1.907   2.885 -0.4247 -0.2467 -0.6212
 4339SOL    HW124476   3.325   1.924   2.903  0.0275 -0.3837 -2.9493
 4339SOL    HW224477   3.234   1.816   2.855 -1.6608 -0.8994  1.2650
 4340SOL     OW24478   4.444   3.531   3.076 -0.1837  0.3117  0.1221
 4340SOL    HW124479   4.494   3.508   2.998 -0.6073  0.1518 -0.0993
 4340SOL    HW224480   4.366   3.478   3.061 -0.6671  0.9741  0.2690
 4341SOL     OW24481   4.411   0.325   5.340 -0.1781 -0.3327  0.2516
 4341SOL    HW124482   4.372   0.303   5.425  0.0969  2.6913  1.1375
 4341SOL    HW224483   4.500   0.294   5.357  0.7165  0.6365 -2.8256
 4342SOL     OW24484   1.607   2.652   1.663 -0.1490  0.0537  0.2805
 4342SOL    HW124485   1.513   2.666   1.654  0.0304  0.6832 -0.6192
 4342SOL    HW224486   1.624   2.621   1.574  0.7192  0.1958  0.3982
 4343SOL     OW24487   0.856   0.538   8.741  0.3046  0.0592  0.4755
 4343SOL    HW124488   0.789   0.524   8.808  1.8700  0.8925  2.2269
 4343SOL    HW224489   0.929   0.487   8.778 -0.9622 -2.2065 -0.1722
 4344SOL     OW24490   2.339   4.665   5.160 -0.1051 -0.1829  0.7983
 4344SOL    HW124491   2.336   4.723   5.084 -0.2277 -1.5719 -0.2471
 4344SOL    HW224492   2.433   4.654   5.171  0.0956  1.3405  0.5781
 4345SOL     OW24493   3.392   1.157   7.994  0.7877  0.7782 -0.0255
 4345SOL    HW124494   3.346   1.206   7.926 -0.9539 -0.6228  0.1429
 4345SOL    HW224495   3.480   1.187   7.971  1.2923 -2.2195 -1.9397
 4346SOL     OW24496   4.395   2.736  17.475  0.0583 -0.1551  0.3407
 4346SOL    HW124497   4.443   2.764  17.398 -0.9846  2.1568  0.5220
 4346SOL    HW224498   4.340   2.811  17.498  0.5295 -0.0101  1.0133
 4347SOL     OW24499   3.964   3.371   7.104 -0.0887 -0.3494  0.3644
 4347SOL    HW124500   3.937   3.403   7.190  2.5725 -0.6604  1.3336
 4347SOL    HW224501   3.885   3.399   7.058 -2.0351 -3.8393  1.4988
 4348SOL     OW24502   1.979   2.356   4.813 -0.0717  0.4040 -0.6088
 4348SOL    HW124503   2.017   2.302   4.882  1.9654  0.4548 -1.6920
 4348SOL    HW224504   1.886   2.337   4.829  0.7221 -3.5336 -0.7601
 4349SOL     OW24505   2.505   3.875   7.078 -0.2276 -0.0365  0.7624
 4349SOL    HW124506   2.437   3.932   7.115  0.0323  0.1238  0.9964
 4349SOL    HW224507   2.451   3.807   7.037 -0.1444 -0.5816  1.5566
 4350SOL     OW24508   3.460   2.348   6.519 -0.1056  0.2269  0.4722
 4350SOL    HW124509   3.413   2.377   6.441 -1.1749 -0.2439  0.9329
 4350SOL    HW224510   3.384   2.353   6.577 -1.0321 -1.0907 -0.6092
 4351SOL     OW24511   1.848   3.991  13.648 -0.1028 -0.0904  0.6778
 4351SOL    HW124512   1.779   3.925  13.637  0.4984 -0.5888 -0.1084
 4351SOL    HW224513   1.919   3.942  13.607 -1.0023 -0.7361 -0.1218
 4352SOL     OW24514   4.080   0.603   1.732 -0.1200 -0.5252 -0.1410
 4352SOL    HW124515   4.090   0.522   1.782 -0.1974  0.3283  1.2637
 4352SOL    HW224516   4.035   0.663   1.791 -0.8665 -2.5573  1.3470
 4353SOL     OW24517   1.948   0.484   6.548 -0.4000 -0.1729  0.4206
 4353SOL    HW124518   1.923   0.549   6.483 -0.5590 -0.3227  0.3320
 4353SOL    HW224519   1.945   0.530   6.632  2.2835  1.6668 -0.5280
 4354SOL     OW24520   3.146   3.018   6.573  0.1680 -0.3275  0.0517
 4354SOL    HW124521   3.164   3.089   6.511 -0.5273 -1.4382 -1.4215
 4354SOL    HW224522   3.205   2.953   6.536  0.7374 -0.3166  0.9472
 4355SOL     OW24523   0.328   4.153  11.648  0.3761 -0.3865  0.5260
 4355SOL    HW124524   0.325   4.214  11.575 -1.3426 -2.0240 -0.7740
 4355SOL    HW224525   0.377   4.082  11.608  0.1146 -0.1199 -0.2620
 4356SOL     OW24526   2.176   3.270   0.743  0.0134  0.0216  0.4476
 4356SOL    HW124527   2.235   3.195   0.733 -0.6607 -0.4050 -0.3593
 4356SOL    HW224528   2.165   3.276   0.838  0.2765 -2.2533  0.6174
 4357SOL     OW24529   0.013   0.464   4.478 -0.0475 -0.2378 -0.2349
 4357SOL    HW124530   0.079   0.436   4.414 -1.1537  0.1201 -1.5280
 4357SOL    HW224531   4.714   0.553   4.449  0.0519  0.0729  0.6462
 4358SOL     OW24532   4.582   2.629   7.800 -0.5252  0.0435 -0.0156
 4358SOL    HW124533   4.517   2.559   7.787 -1.4544  0.9874 -0.4223
 4358SOL    HW224534   4.540   2.676   7.872 -1.5869 -1.1498  0.1459
 4359SOL     OW24535   0.629   3.293   2.096 -0.0418 -0.3733 -0.4730
 4359SOL    HW124536   0.617   3.382   2.131 -1.7601 -0.1245 -1.6954
 4359SOL    HW224537   0.713   3.306   2.053  0.4508 -1.8629  0.0290
 4360SOL     OW24538   2.608   0.786   7.162 -0.4583 -0.5879 -0.1238
 4360SOL    HW124539   2.611   0.755   7.253  1.9706 -1.3048 -0.4450
 4360SOL    HW224540   2.647   0.710   7.119  0.2402 -0.3424  0.0723
 4361SOL     OW24541   4.356   2.624   2.934 -0.4170 -0.3615  0.3041
 4361SOL    HW124542   4.301   2.669   2.869  0.4181 -0.0402 -0.1803
 4361SOL    HW224543   4.386   2.701   2.982  2.2898 -0.8143 -0.6653
 4362SOL     OW24544   2.497   0.448  13.140  0.1898  0.0101  0.1913
 4362SOL    HW124545   2.560   0.513  13.169  0.5105  1.0782 -2.9244
 4362SOL    HW224546   2.451   0.427  13.222 -0.4652 -1.6234 -0.5834
 4363SOL     OW24547   2.091   2.264  15.499  0.1755  0.2502 -0.2847
 4363SOL    HW124548   2.165   2.204  15.515  0.7741  1.5047  1.5626
 4363SOL    HW224549   2.131   2.345  15.529 -0.3984  0.8978 -1.2663
 4364SOL     OW24550   3.722   2.984   1.218 -0.0471 -0.1714 -0.2278
 4364SOL    HW124551   3.683   2.898   1.231 -0.1109 -0.4809 -2.4401
 4364SOL    HW224552   3.814   2.965   1.236 -0.1788  0.3287  0.9729
 4365SOL     OW24553   3.028   1.721   5.010  0.0637 -0.4680 -0.0255
 4365SOL    HW124554   2.960   1.787   5.001 -0.3286 -1.0414 -1.1969
 4365SOL    HW224555   3.074   1.743   5.092  1.8531 -0.9894 -0.9015
 4366SOL     OW24556   0.166   3.741   3.054  0.3995  0.1879 -0.6444
 4366SOL    HW124557   0.135   3.753   3.144 -1.4064  2.3535 -1.5464
 4366SOL    HW224558   0.105   3.672   3.028 -0.3040  0.0966  1.2096
 4367SOL     OW24559   1.706   3.152   7.152  0.3036  0.0126  0.3523
 4367SOL    HW124560   1.786   3.189   7.114  0.5831 -2.3037 -1.3510
 4367SOL    HW224561   1.737   3.066   7.182  0.8607 -0.0687 -0.4454
 4368SOL     OW24562   2.415   4.577   4.496 -0.3105  0.2561  0.4683
 4368SOL    HW124563   2.446   4.494   4.532  1.8479 -0.5763 -3.3441
 4368SOL    HW224564   2.333   4.595   4.543 -1.8427  0.9624 -2.4618
 4369SOL     OW24565   3.828   2.706   2.976  0.1263  0.0188 -0.1227
 4369SOL    HW124566   3.899   2.767   2.957 -0.0569  1.1435  2.7477
 4369SOL    HW224567   3.883   2.644   3.024  0.3156  0.4570  0.2345
 4370SOL     OW24568   0.525   3.517   2.604 -0.0292 -0.8858  0.5292
 4370SOL    HW124569   0.604   3.470   2.578  0.0218  0.8759 -2.5486
 4370SOL    HW224570   0.463   3.451   2.575  0.4212 -0.9244 -0.3598
 4371SOL     OW24571   3.904   1.250  11.814  0.1983 -0.1959 -0.5308
 4371SOL    HW124572   3.897   1.181  11.748 -0.4675  0.9727 -1.6749
 4371SOL    HW224573   3.834   1.306  11.781  1.4105  2.2602  1.0754
 4372SOL     OW24574   4.351   2.499   2.685 -1.1768  0.0528 -0.2643
 4372SOL    HW124575   4.350   2.506   2.590  2.0445 -1.6080 -0.4355
 4372SOL    HW224576   4.373   2.589   2.710 -0.0751 -0.3345  0.1735
 4373SOL     OW24577   3.313   3.232   4.206 -0.1547 -0.3386 -0.3637
 4373SOL    HW124578   3.238   3.193   4.252  0.4169 -0.9411  0.0469
 4373SOL    HW224579   3.295   3.197   4.119  0.1186  0.9655 -0.9532
 4374SOL     OW24580   0.722   1.180   7.173 -0.1005  0.2990 -1.2739
 4374SOL    HW124581   0.652   1.218   7.121 -0.5427  3.0271  1.3627
 4374SOL    HW224582   0.719   1.239   7.247 -0.6059 -0.4891 -0.6656
 4375SOL     OW24583   3.434   2.406   7.501 -0.1670 -0.3672 -1.2015
 4375SOL    HW124584   3.519   2.447   7.482 -0.8962  1.5068 -0.4313
 4375SOL    HW224585   3.433   2.364   7.415 -2.4363  0.3933 -1.5457
 4376SOL     OW24586   3.605   4.597  10.623  0.3019  0.0046 -0.1095
 4376SOL    HW124587   3.677   4.659  10.610  1.6937 -2.2930 -3.2237
 4376SOL    HW224588   3.542   4.646  10.569  1.9467 -0.4624 -2.4314
 4377SOL     OW24589   3.734   3.128   6.159 -0.0479  0.3731  0.0160
 4377SOL    HW124590   3.771   3.104   6.074  1.3181 -0.6554  0.9060
 4377SOL    HW224591   3.693   3.214   6.148 -0.0779  0.1509 -1.5526
 4378SOL     OW24592   2.585   1.225  16.262  0.8351 -0.1680  0.4722
 4378SOL    HW124593   2.502   1.264  16.291 -0.6228 -2.1696 -0.9799
 4378SOL    HW224594   2.624   1.296  16.211 -0.2611  0.0124 -0.1090
 4379SOL     OW24595   0.185   1.110   8.250 -0.3247 -0.1460 -0.2839
 4379SOL    HW124596   0.181   1.204   8.228  0.6462  0.4647  2.1519
 4379SOL    HW224597   0.117   1.069   8.197 -0.8096  0.1958  0.0633
 4380SOL     OW24598   2.100   0.274   6.485  0.0806  0.6445 -0.0849
 4380SOL    HW124599   2.039   0.346   6.502  0.4624  1.3782 -1.7970
 4380SOL    HW224600   2.042   0.199   6.499 -0.6981  0.5131 -3.9650
 4381SOL     OW24601   2.717   2.675   4.543 -0.3452 -0.3856 -0.2138
 4381SOL    HW124602   2.707   2.585   4.512 -2.4717  0.5015 -2.0467
 4381SOL    HW224603   2.634   2.713   4.514  0.0616  0.7104  0.0308
 4382SOL     OW24604   0.433   1.330   7.638  0.2333 -0.3446  0.2018
 4382SOL    HW124605   0.407   1.404   7.694  1.3670  0.5324 -0.4187
 4382SOL    HW224606   0.368   1.331   7.568 -0.9275 -1.7181  1.2785
 4383SOL     OW24607   0.735   4.334  15.262 -0.3659  0.8199  0.1349
 4383SOL    HW124608   0.683   4.413  15.274 -0.1151  0.8136  1.2332
 4383SOL    HW224609   0.752   4.311  15.353  3.3234 -0.0608 -0.7465
 4384SOL     OW24610   2.527   2.859   2.510  0.3401 -0.0128 -0.2005
 4384SOL    HW124611   2.486   2.932   2.463 -0.9303  0.0909  1.0712
 4384SOL    HW224612   2.488   2.857   2.597  0.4549  0.6179 -0.1355
 4385SOL     OW24613   0.997   1.250   9.084  0.2650  0.2195  0.2772
 4385SOL    HW124614   0.969   1.284   9.169  1.9084  2.9031 -0.2272
 4385SOL    HW224615   0.925   1.193   9.059  0.7039  0.4981 -1.6279
 4386SOL     OW24616   1.234   4.042   1.782  0.0162 -0.1506 -0.3550
 4386SOL    HW124617   1.165   4.077   1.726  0.4633  1.8087  0.3498
 4386SOL    HW224618   1.231   3.954   1.744  0.1847 -0.0065 -0.7044
 4387SOL     OW24619   0.466   3.791   8.366 -0.6481 -0.0359  0.9777
 4387SOL    HW124620   0.411   3.792   8.288 -1.3993 -0.6741  1.5066
 4387SOL    HW224621   0.405   3.821   8.433  0.5294  1.9446  1.1836
 4388SOL     OW24622   0.902   2.988   3.650  1.1155 -0.7012  0.2644
 4388SOL    HW124623   0.892   3.069   3.600 -1.8815 -1.1129  0.1862
 4388SOL    HW224624   0.993   3.004   3.676  0.0440  1.3794  2.6468
 4389SOL     OW24625   1.758   1.448   4.471  1.1006  0.8655  0.1650
 4389SOL    HW124626   1.841   1.494   4.463  0.5263  1.7395 -0.8837
 4389SOL    HW224627   1.786   1.371   4.520 -0.6976  0.1589  0.1086
 4390SOL     OW24628   1.109   3.125  11.286  0.3629 -0.1378 -0.6082
 4390SOL    HW124629   1.189   3.141  11.335 -1.0312  0.9482  1.2845
 4390SOL    HW224630   1.142   3.133  11.196  0.0264 -3.0375 -1.0015
 4391SOL     OW24631   3.786   1.139  17.045 -0.0530  0.5127 -0.0950
 4391SOL    HW124632   3.862   1.081  17.035  1.0106  2.4832 -3.4310
 4391SOL    HW224633   3.761   1.120  17.135  1.2905 -2.2409 -0.3104
 4392SOL     OW24634   3.142   1.264   2.548  0.3623  0.4378 -0.2042
 4392SOL    HW124635   3.125   1.173   2.571 -1.0570 -0.0038 -3.0231
 4392SOL    HW224636   3.126   1.282   2.455  1.3844 -2.0048 -0.8582
 4393SOL     OW24637   1.977   3.138   7.478 -0.3298 -0.3669 -0.4764
 4393SOL    HW124638   2.036   3.092   7.539 -0.0056 -1.5022 -1.6288
 4393SOL    HW224639   1.959   3.216   7.530  0.4912 -0.9554  0.6989
 4394SOL     OW24640   0.940   2.935   9.917 -0.1524  0.4885  0.3119
 4394SOL    HW124641   1.024   2.981   9.915  0.9537 -1.4512  1.8189
 4394SOL    HW224642   0.943   2.902  10.006 -1.1798 -3.0601 -0.9657
 4395SOL     OW24643   0.756   0.189   8.029  0.0852 -0.0236 -0.1748
 4395SOL    HW124644   0.769   0.278   8.063 -1.5835  0.6752 -1.3677
 4395SOL    HW224645   0.768   0.219   7.939  0.8477 -1.0563 -0.4173
 4396SOL     OW24646   1.069   0.127   2.739  0.1052  0.0379  0.4153
 4396SOL    HW124647   0.984   0.148   2.778 -1.0002 -2.8476 -0.3851
 4396SOL    HW224648   1.111   0.212   2.732 -0.6568  0.4636  0.9808
 4397SOL     OW24649   1.610   0.416   2.736 -0.6564 -0.8643 -0.3067
 4397SOL    HW124650   1.675   0.441   2.670  0.8207 -0.2913  1.3742
 4397SOL    HW224651   1.659   0.338   2.762  2.1881  1.1976  0.4380
 4398SOL     OW24652   4.127   3.975  11.833  0.7807  0.6156  0.2004
 4398SOL    HW124653   4.066   4.047  11.820  1.5676  1.1090 -0.7330
 4398SOL    HW224654   4.122   3.935  11.746  0.7544 -0.1889  0.5710
 4399SOL     OW24655   2.537   1.567   8.662 -0.2965 -0.8083 -0.0185
 4399SOL    HW124656   2.581   1.515   8.595  1.0671  1.7583 -1.1035
 4399SOL    HW224657   2.493   1.498   8.711 -1.6607 -1.1278 -1.6696
 4400SOL     OW24658   1.627   1.483   4.778 -0.5887 -0.0096  0.3590
 4400SOL    HW124659   1.720   1.496   4.799  0.6112 -4.4731 -2.2255
 4400SOL    HW224660   1.603   1.572   4.752 -0.6149 -0.3949 -0.9261
 4401SOL     OW24661   1.336   2.413   6.962 -0.1712  0.3895 -0.1255
 4401SOL    HW124662   1.251   2.436   7.000 -0.4914 -1.3778  0.2628
 4401SOL    HW224663   1.307   2.360   6.888  0.3123  1.1001 -0.8233
 4402SOL     OW24664   4.511   2.841   7.957 -0.2248  0.2343 -0.4044
 4402SOL    HW124665   4.585   2.866   7.902 -0.7492  1.1307 -0.7145
 4402SOL    HW224666   4.537   2.856   8.047 -0.4738 -0.2898 -0.2466
 4403SOL     OW24667   1.629   3.589   2.751  0.0260 -0.6841  0.5471
 4403SOL    HW124668   1.703   3.639   2.784  0.6246 -1.0708 -0.2153
 4403SOL    HW224669   1.583   3.653   2.696 -1.3172 -1.7134  0.4701
 4404SOL     OW24670   1.249   3.677   0.347 -0.0351  0.0403  0.1441
 4404SOL    HW124671   1.183   3.743   0.365  0.9023  0.9101  0.4102
 4404SOL    HW224672   1.330   3.724   0.326 -0.2693 -0.1798 -1.1906
 4405SOL     OW24673   1.419   2.099   2.265 -0.1926 -0.5076 -0.5001
 4405SOL    HW124674   1.496   2.136   2.222  1.5451 -1.9018  1.3730
 4405SOL    HW224675   1.411   2.164   2.334  2.3999 -1.3292  0.5895
 4406SOL     OW24676   1.646   1.118  11.836  0.1794 -0.3188 -0.0145
 4406SOL    HW124677   1.632   1.024  11.843 -0.0415 -0.2835  0.0078
 4406SOL    HW224678   1.568   1.150  11.791  1.1456  2.3441  0.1574
 4407SOL     OW24679   0.537   1.960   7.800 -0.6503 -0.4914  0.5942
 4407SOL    HW124680   0.469   2.026   7.814  1.3756  1.4569  1.0685
 4407SOL    HW224681   0.524   1.931   7.709  0.3395 -1.4769  0.7753
 4408SOL     OW24682   2.594   4.501   9.313  0.2063 -0.0480 -0.1565
 4408SOL    HW124683   2.685   4.514   9.341  0.5828 -1.0528 -0.9280
 4408SOL    HW224684   2.547   4.504   9.396 -0.0602  0.7140 -0.3323
 4409SOL     OW24685   1.090   2.079   7.589  0.4370 -0.3102  0.5556
 4409SOL    HW124686   1.129   2.166   7.577 -1.2127  0.1865 -1.4394
 4409SOL    HW224687   1.108   2.067   7.682  0.1165 -0.2723  0.6257
 4410SOL     OW24688   4.372   1.486   9.067  0.4810 -0.1620 -0.2336
 4410SOL    HW124689   4.382   1.391   9.067 -0.4312 -0.2586 -0.6642
 4410SOL    HW224690   4.321   1.509   8.989  0.6304 -0.4642 -0.4197
 4411SOL     OW24691   1.130   4.548   1.391  0.0485 -0.4334 -0.3658
 4411SOL    HW124692   1.066   4.483   1.422  0.4166 -0.8234 -0.4243
 4411SOL    HW224693   1.082   4.584   1.316  1.7184  2.9378  0.1726
 4412SOL     OW24694   2.799   1.152  10.968 -0.2360  0.2792  0.0492
 4412SOL    HW124695   2.752   1.233  10.991 -1.9390 -0.8824  0.7109
 4412SOL    HW224696   2.882   1.188  10.939  0.1142  1.1173  2.0876
 4413SOL     OW24697   1.757   0.656   4.171  0.0606 -0.1764  0.1194
 4413SOL    HW124698   1.829   0.638   4.232  0.2023 -2.5772 -0.7355
 4413SOL    HW224699   1.776   0.597   4.098  0.5494  0.7388 -0.5010
 4414SOL     OW24700   4.542   2.944  15.333  0.0095 -0.7851  0.4467
 4414SOL    HW124701   4.631   2.980  15.338 -1.2445  2.0507  1.9925
 4414SOL    HW224702   4.524   2.949  15.239 -1.2556  0.7292  0.7704
 4415SOL     OW24703   0.995   1.055   6.146 -0.0831  0.1553  0.3801
 4415SOL    HW124704   0.945   1.039   6.066  1.2431  0.1560 -0.4547
 4415SOL    HW224705   1.025   1.143   6.123 -0.2897 -0.2694 -1.4708
 4416SOL     OW24706   0.303   4.400  16.230  0.2136 -0.1703  0.2108
 4416SOL    HW124707   0.325   4.407  16.323  1.7631  0.7623 -0.2385
 4416SOL    HW224708   0.207   4.409  16.226 -0.1467 -3.6894  1.3816
 4417SOL     OW24709   3.591   3.317  17.396 -0.0999  0.1363 -0.4652
 4417SOL    HW124710   3.528   3.294  17.328 -0.0306 -2.7213  0.4536
 4417SOL    HW224711   3.671   3.341  17.348  0.2820  1.4566  0.8077
 4418SOL     OW24712   1.498   4.095   1.940 -0.3664  0.1892  0.0722
 4418SOL    HW124713   1.433   4.060   1.879  0.8112 -4.0620  1.2126
 4418SOL    HW224714   1.539   4.168   1.893 -2.5412  1.8071  0.6986
 4419SOL     OW24715   4.490   3.720   6.560  0.0301  0.0420  0.0203
 4419SOL    HW124716   4.461   3.630   6.578  0.8850 -0.2879 -0.2522
 4419SOL    HW224717   4.451   3.736   6.474  0.2459 -1.4027 -0.3516
 4420SOL     OW24718   2.361   1.362  16.280  0.2895 -0.2033 -0.1383
 4420SOL    HW124719   2.336   1.433  16.339  2.5513 -0.7691  1.5137
 4420SOL    HW224720   2.279   1.334  16.239  0.4353 -0.1742 -0.4506
 4421SOL     OW24721   0.681   0.690   7.525 -0.1647  0.0756 -0.5417
 4421SOL    HW124722   0.672   0.775   7.569 -1.5915  0.8305 -2.3025
 4421SOL    HW224723   0.758   0.711   7.473 -1.8032  0.2397 -2.8754
 4422SOL     OW24724   1.737   4.526   6.573  0.1699  0.4203 -0.3312
 4422SOL    HW124725   1.703   4.460   6.512 -0.3044 -0.7308  1.1946
 4422SOL    HW224726   1.825   4.496   6.595  0.3038  1.3657  0.4123
 4423SOL     OW24727   4.503   0.220  12.031  0.0970  0.9520  0.0647
 4423SOL    HW124728   4.539   0.133  12.043 -3.5658 -0.7729 -1.3891
 4423SOL    HW224729   4.442   0.222  11.957  0.7081  1.1146 -0.4302
 4424SOL     OW24730   1.789   0.085   4.565 -0.2498 -0.2723  0.2422
 4424SOL    HW124731   1.747   0.170   4.547 -0.9094 -0.0281  2.9155
 4424SOL    HW224732   1.739   0.035   4.500 -2.0388 -0.9682  2.1596
 4425SOL     OW24733   3.021   3.493   2.604 -0.2884  0.8176 -0.3768
 4425SOL    HW124734   2.932   3.458   2.597 -0.0829 -0.0882  1.4282
 4425SOL    HW224735   3.050   3.513   2.515 -0.2297  0.1524 -0.5066
 4426SOL     OW24736   4.415   4.231   7.695 -0.1125  0.6639  0.1303
 4426SOL    HW124737   4.485   4.176   7.730  0.6676  2.6863  1.7300
 4426SOL    HW224738   4.468   4.307   7.670  1.0085  0.1135  0.8081
 4427SOL     OW24739   4.679   4.442   2.543  0.0839  0.1672  0.5126
 4427SOL    HW124740   4.666   4.481   2.630  0.3819 -0.3544  0.7889
 4427SOL    HW224741   4.638   4.508   2.488 -0.5680  0.4238  1.2994
 4428SOL     OW24742   2.344   0.709  11.078  0.0388  0.5137  0.0669
 4428SOL    HW124743   2.335   0.790  11.127  2.2730 -0.4154  2.0108
 4428SOL    HW224744   2.271   0.727  11.018 -0.4527  1.0982  0.8451
 4429SOL     OW24745   2.951   0.706   1.471 -0.0196  0.2292  0.3763
 4429SOL    HW124746   3.022   0.759   1.437  0.0278  0.4189  0.7654
 4429SOL    HW224747   2.911   0.678   1.389  0.6915 -0.9070  0.4320
 4430SOL     OW24748   1.857   4.010   4.700  0.2464  0.1071 -0.3197
 4430SOL    HW124749   1.809   3.939   4.744  1.1536 -0.2953  0.0090
 4430SOL    HW224750   1.801   4.088   4.706 -2.4287 -1.7540 -0.7860
 4431SOL     OW24751   1.350   0.632  16.038  0.5990 -0.0194 -0.3329
 4431SOL    HW124752   1.388   0.629  15.950  2.4358 -1.2990  0.4951
 4431SOL    HW224753   1.434   0.629  16.084 -0.4654 -0.7711  1.5323
 4432SOL     OW24754   1.521   3.468  14.775 -0.4976 -0.1026 -0.3550
 4432SOL    HW124755   1.589   3.528  14.804  0.5039 -1.6791  0.6004
 4432SOL    HW224756   1.515   3.407  14.849  0.2400 -1.6098 -1.5421
 4433SOL     OW24757   0.499   3.031   7.396  0.5809 -0.0934  0.1611
 4433SOL    HW124758   0.419   3.022   7.448  2.2437  0.1657  2.7633
 4433SOL    HW224759   0.530   2.943   7.373 -0.6865  0.4761 -3.6266
 4434SOL     OW24760   2.492   2.729   4.414 -0.0654  0.0572 -0.7038
 4434SOL    HW124761   2.469   2.805   4.361 -3.2381 -1.6266 -1.7110
 4434SOL    HW224762   2.527   2.679   4.340  2.0654 -2.0095  1.7023
 4435SOL     OW24763   4.532   4.118  11.400 -0.1038  0.4294  0.5543
 4435SOL    HW124764   4.511   4.201  11.358 -0.5145  1.4193  2.7634
 4435SOL    HW224765   4.612   4.096  11.351 -1.1734 -2.9780  0.2831
 4436SOL     OW24766   1.529   0.937   2.441  0.5678  0.3406 -0.0421
 4436SOL    HW124767   1.560   1.009   2.496  0.2136  0.4255  0.0402
 4436SOL    HW224768   1.569   0.968   2.359  1.7581  0.2424  0.4937
 4437SOL     OW24769   0.279   0.720   4.637  0.3745 -0.1055  0.1633
 4437SOL    HW124770   0.232   0.749   4.558  1.2459 -2.2167 -1.1311
 4437SOL    HW224771   0.280   0.803   4.685 -0.5774  0.2175 -0.3611
 4438SOL     OW24772   1.653   1.875   0.702 -0.1860  0.1720 -0.5073
 4438SOL    HW124773   1.597   1.951   0.718 -1.3415 -0.0764 -3.2890
 4438SOL    HW224774   1.711   1.902   0.631 -0.9807  0.6411 -0.9871
 4439SOL     OW24775   0.627   2.083   2.274 -0.4470 -0.2455  0.0487
 4439SOL    HW124776   0.665   1.996   2.264  0.5682 -0.1166  2.7930
 4439SOL    HW224777   0.698   2.142   2.302 -0.1478 -0.9605  0.7972
 4440SOL     OW24778   1.492   4.113   5.437 -0.2798 -0.0860 -0.4981
 4440SOL    HW124779   1.416   4.067   5.400 -0.4118 -0.0702 -0.2457
 4440SOL    HW224780   1.478   4.110   5.532 -0.5966 -2.0171 -0.6025
 4441SOL     OW24781   2.860   1.441   6.742 -0.2852  0.7494  0.1941
 4441SOL    HW124782   2.920   1.405   6.677  0.7672  1.1342  0.9477
 4441SOL    HW224783   2.854   1.368   6.805 -0.2334 -0.9655 -1.7942
 4442SOL     OW24784   0.502   4.545  14.841  0.6781  0.1724 -0.4802
 4442SOL    HW124785   0.541   4.522  14.925  0.2927  1.3522  0.0059
 4442SOL    HW224786   0.581   4.553  14.787  0.6638  0.3178 -0.4774
 4443SOL     OW24787   1.730   0.336  15.114 -0.2543 -0.2485  0.0959
 4443SOL    HW124788   1.751   0.315  15.205  0.1061  1.3555  0.3795
 4443SOL    HW224789   1.645   0.297  15.096 -0.1513  0.2054 -1.3576
 4444SOL     OW24790   0.424   2.363   4.556  0.0249  0.1463 -0.1907
 4444SOL    HW124791   0.418   2.366   4.652 -1.8826  2.4406 -0.3903
 4444SOL    HW224792   0.516   2.385   4.541 -0.0421  0.8094  0.3807
 4445SOL     OW24793   3.953   3.474   1.032  0.4574  0.0924 -0.3211
 4445SOL    HW124794   3.869   3.446   0.995 -0.8382  2.3584  0.9242
 4445SOL    HW224795   3.937   3.470   1.126 -0.2910 -0.8879 -0.4809
 4446SOL     OW24796   1.105   4.385  14.812  0.4243 -0.1327  0.0871
 4446SOL    HW124797   1.198   4.391  14.789  0.3689 -0.7836 -0.3215
 4446SOL    HW224798   1.097   4.465  14.863 -1.0260 -0.4404  0.3216
 4447SOL     OW24799   4.382   2.610   5.053  0.2605 -0.0038  0.1452
 4447SOL    HW124800   4.320   2.648   4.990 -0.6553 -2.4254 -0.4273
 4447SOL    HW224801   4.459   2.655   5.018 -0.4007 -0.6167 -2.1161
 4448SOL     OW24802   4.360   2.077   5.928  0.9712 -0.2380  0.1822
 4448SOL    HW124803   4.289   2.078   5.993 -0.2199  0.6549 -1.1275
 4448SOL    HW224804   4.306   2.064   5.849 -0.6928  2.2812  0.9054
 4449SOL     OW24805   1.968   4.425   6.652  0.0157 -0.4147 -0.5703
 4449SOL    HW124806   2.012   4.368   6.715  0.2243  1.4570  0.9343
 4449SOL    HW224807   2.029   4.410   6.579  0.2426 -0.6859 -0.3280
 4450SOL     OW24808   2.682   0.534   5.417  0.1395  0.1851 -0.1295
 4450SOL    HW124809   2.712   0.538   5.508 -1.3352  2.0976  0.2627
 4450SOL    HW224810   2.770   0.552   5.383 -0.5454  0.0904 -1.9310
 4451SOL     OW24811   0.440   3.610   4.343 -0.0846  0.4624  0.1503
 4451SOL    HW124812   0.375   3.607   4.413  1.4329 -2.4757  1.4171
 4451SOL    HW224813   0.517   3.646   4.388 -1.8450  0.3037  3.2856
 4452SOL     OW24814   0.666   4.216   2.168  0.3469 -0.4253 -0.3562
 4452SOL    HW124815   0.582   4.204   2.124  0.2017  2.8864 -0.9836
 4452SOL    HW224816   0.663   4.144   2.231  0.1093  0.7112  0.9188
 4453SOL     OW24817   4.671   1.917   2.379  0.5409  0.1013 -0.5215
 4453SOL    HW124818   4.620   1.848   2.337  3.1580 -1.5348 -0.9749
 4453SOL    HW224819   4.665   1.876   2.465  3.9745  1.2071  0.2541
 4454SOL     OW24820   1.110   0.724   0.857 -0.0939 -0.0191 -0.0613
 4454SOL    HW124821   1.180   0.772   0.901  0.7706 -0.6771 -0.7174
 4454SOL    HW224822   1.147   0.637   0.871  1.0420  0.6576  1.1253
 4455SOL     OW24823   1.468   3.347   5.634  0.0283 -0.7215 -0.0497
 4455SOL    HW124824   1.513   3.299   5.565 -1.1202  0.3265 -1.5258
 4455SOL    HW224825   1.486   3.293   5.711  0.6811  3.3552  2.6523
 4456SOL     OW24826   0.891   0.966   7.244 -0.0068 -0.7354  0.1941
 4456SOL    HW124827   0.832   1.040   7.258  1.5791  0.6002 -0.1094
 4456SOL    HW224828   0.889   0.965   7.148  0.0778 -2.5321  0.2059
 4457SOL     OW24829   1.653   4.557   3.502 -0.0229 -0.1384  0.4276
 4457SOL    HW124830   1.591   4.514   3.561  0.2273  0.2191  0.9441
 4457SOL    HW224831   1.739   4.550   3.544 -0.5728  2.4897  1.9533
 4458SOL     OW24832   3.161   3.851  16.684  0.3605  0.0405  0.3617
 4458SOL    HW124833   3.206   3.934  16.697  0.5330  0.0503 -0.3006
 4458SOL    HW224834   3.067   3.872  16.689  0.7959  2.2664 -0.7886
 4459SOL     OW24835   3.847   1.419   4.671 -0.2876  0.2454 -0.7519
 4459SOL    HW124836   3.884   1.452   4.588 -0.3797  0.6383 -0.6384
 4459SOL    HW224837   3.752   1.415   4.660 -0.2387 -0.8066 -0.7239
 4460SOL     OW24838   4.289   0.410   3.268 -0.2865 -0.1309  0.2456
 4460SOL    HW124839   4.231   0.403   3.193 -1.4112 -2.1315  1.3062
 4460SOL    HW224840   4.343   0.332   3.258  0.1604  0.4934 -2.2332
 4461SOL     OW24841   2.417   0.113   6.135 -0.2683  0.5984 -0.1839
 4461SOL    HW124842   2.378   0.195   6.164 -2.8906 -0.3157 -1.1208
 4461SOL    HW224843   2.347   0.048   6.141 -0.3837  0.7372 -0.0332
 4462SOL     OW24844   2.520   0.391   4.048 -0.0155 -0.1705 -0.3726
 4462SOL    HW124845   2.536   0.363   4.139  1.0208 -0.7871 -0.7393
 4462SOL    HW224846   2.460   0.324   4.016  0.4711 -1.7089  1.9162
 4463SOL     OW24847   0.787   2.678   2.322  0.2548 -0.1783  0.1715
 4463SOL    HW124848   0.810   2.590   2.294 -0.3871  0.1927 -1.5599
 4463SOL    HW224849   0.699   2.659   2.352 -0.1853  1.4462 -0.0701
 4464SOL     OW24850   2.757   2.347   2.504 -0.0161  0.4711 -0.7951
 4464SOL    HW124851   2.811   2.420   2.474  0.2095 -0.1446 -1.8616
 4464SOL    HW224852   2.729   2.313   2.419 -0.1016 -1.0343 -0.1643
 4465SOL     OW24853   2.343   2.627  12.131 -0.0816 -0.3470 -0.2188
 4465SOL    HW124854   2.367   2.634  12.039  1.6184  0.9938  0.3281
 4465SOL    HW224855   2.247   2.630  12.131 -0.0876 -0.5576 -0.1562
 4466SOL     OW24856   2.199   1.014   8.792 -0.4490  0.5947  0.0785
 4466SOL    HW124857   2.153   1.098   8.790 -1.5463 -0.0009  0.1544
 4466SOL    HW224858   2.234   1.025   8.880  0.0915  0.7390 -0.1540
 4467SOL     OW24859   0.307   2.266   7.000 -0.0207 -0.2220 -0.3736
 4467SOL    HW124860   0.352   2.233   7.079 -1.2634 -1.1923 -0.0708
 4467SOL    HW224861   0.247   2.326   7.042  0.0755 -1.0986  1.0361
 4468SOL     OW24862   3.718   1.766   4.608  0.5326 -0.9506 -0.4138
 4468SOL    HW124863   3.734   1.854   4.573 -0.4172 -1.3513 -1.8563
 4468SOL    HW224864   3.676   1.732   4.530  2.9816 -0.5186 -1.9312
 4469SOL     OW24865   1.536   0.660   4.338 -0.4369 -0.2180  0.1264
 4469SOL    HW124866   1.549   0.567   4.357 -0.6985 -0.6937 -1.9898
 4469SOL    HW224867   1.616   0.681   4.289 -0.7684  1.6331  0.4121
 4470SOL     OW24868   1.146   0.927   4.168  0.0123  0.4845 -0.1772
 4470SOL    HW124869   1.196   0.846   4.170 -0.0147  0.4667 -0.2479
 4470SOL    HW224870   1.067   0.877   4.149  0.1141 -0.4955  1.9361
 4471SOL     OW24871   4.413   4.625  15.320  0.0784  0.1013  0.8039
 4471SOL    HW124872   4.432   4.549  15.265 -0.9497 -0.0629  0.6816
 4471SOL    HW224873   4.356   4.681  15.267 -1.8338 -2.1374  0.5193
 4472SOL     OW24874   2.997   2.870   4.441  0.4569  0.0328 -0.3940
 4472SOL    HW124875   2.987   2.832   4.529 -0.6128 -0.1970 -0.6166
 4472SOL    HW224876   2.914   2.847   4.399 -0.9026  0.3591  2.0451
 4473SOL     OW24877   1.683   0.296  10.168  0.3902 -0.2729  0.0095
 4473SOL    HW124878   1.679   0.391  10.161 -2.3438 -0.4857 -1.0678
 4473SOL    HW224879   1.695   0.272  10.076 -3.1109 -1.1171 -0.2202
 4474SOL     OW24880   1.299   0.783  10.354  0.0037 -0.2444  0.4940
 4474SOL    HW124881   1.216   0.768  10.399 -0.1599 -1.5884 -0.2385
 4474SOL    HW224882   1.317   0.690  10.339 -0.1331 -0.1872  0.0065
 4475SOL     OW24883   2.836   4.058   6.540  0.5627  0.4103  0.1507
 4475SOL    HW124884   2.807   4.138   6.497 -1.0494  0.0338  0.5509
 4475SOL    HW224885   2.929   4.080   6.540  0.4787  0.7506  0.6812
 4476SOL     OW24886   2.215   0.865  15.699  0.1232 -0.7434  0.4721
 4476SOL    HW124887   2.279   0.904  15.759  1.1215 -2.1041  0.2979
 4476SOL    HW224888   2.193   0.931  15.634 -1.6819 -0.2600  1.5566
 4477SOL     OW24889   4.537   4.447  15.165  0.1201 -0.0038 -0.1115
 4477SOL    HW124890   4.632   4.462  15.161 -0.2151  1.4376 -2.2023
 4477SOL    HW224891   4.523   4.373  15.225 -0.0361  1.1228  1.2314
 4478SOL     OW24892   1.669   1.304   7.707 -0.6247  0.0207 -0.7326
 4478SOL    HW124893   1.640   1.317   7.798  0.2227 -1.3952 -0.2690
 4478SOL    HW224894   1.584   1.277   7.671 -1.2134 -0.2209  0.8014
 4479SOL     OW24895   2.231   2.032   0.221 -0.0381  0.2736  0.1751
 4479SOL    HW124896   2.182   2.110   0.250  1.0095  0.5472  1.2104
 4479SOL    HW224897   2.275   2.077   0.149  0.4554  1.8280  1.4445
 4480SOL     OW24898   3.356   4.258  13.758 -0.0557  0.6014 -0.3799
 4480SOL    HW124899   3.383   4.344  13.788  2.5423 -1.7020  3.8907
 4480SOL    HW224900   3.326   4.276  13.669  0.5577  0.9339 -0.5197
 4481SOL     OW24901   0.909   3.478   6.476 -0.0825  0.5012  0.0965
 4481SOL    HW124902   0.953   3.463   6.392 -1.0440  1.5476 -0.5985
 4481SOL    HW224903   0.977   3.520   6.530  1.8431 -1.0951 -1.0841
 4482SOL     OW24904   1.286   2.200   5.065  0.4707  0.1014 -0.2878
 4482SOL    HW124905   1.295   2.276   5.122 -0.2947  1.9339 -2.6197
 4482SOL    HW224906   1.204   2.219   5.019 -0.2107 -1.1891  0.3910
 4483SOL     OW24907   2.293   1.206   2.689  0.1023  0.2961 -0.6011
 4483SOL    HW124908   2.278   1.246   2.774 -1.1084  1.2791 -1.2709
 4483SOL    HW224909   2.207   1.223   2.651 -0.9625 -2.1028  0.7053
 4484SOL     OW24910   3.835   0.906  16.500 -0.1709 -0.4120 -0.1825
 4484SOL    HW124911   3.759   0.950  16.462 -1.0355 -1.8700 -0.1539
 4484SOL    HW224912   3.831   0.822  16.454  1.8006  0.3484 -1.7804
 4485SOL     OW24913   0.499   4.666   5.717 -0.1451  0.3728  0.0639
 4485SOL    HW124914   0.539   0.030   5.730 -0.5046  0.3292  1.5034
 4485SOL    HW224915   0.438   4.668   5.791 -1.3792  0.1793 -0.9558
 4486SOL     OW24916   4.398   1.926   5.209 -0.0726 -0.0413 -0.6378
 4486SOL    HW124917   4.466   1.965   5.154 -0.8918  2.0088 -0.1966
 4486SOL    HW224918   4.367   1.849   5.162 -1.8343 -0.4187  1.1314
 4487SOL     OW24919   3.827   3.671  11.865  0.2798  0.5460 -0.5863
 4487SOL    HW124920   3.815   3.760  11.834 -1.4475  0.4941 -0.0638
 4487SOL    HW224921   3.837   3.627  11.781  1.0375 -1.3824  0.5130
 4488SOL     OW24922   0.582   1.891  13.398  0.1601 -0.0197  0.6586
 4488SOL    HW124923   0.587   1.949  13.322 -0.6990  1.2012  1.5347
 4488SOL    HW224924   0.502   1.917  13.443 -0.7340  1.8819 -2.0385
 4489SOL     OW24925   0.191   0.544   2.079  0.9037 -0.0218 -0.3548
 4489SOL    HW124926   0.140   0.622   2.103 -1.0257 -1.7230  1.0991
 4489SOL    HW224927   0.275   0.588   2.065  1.1709 -0.0400  1.1700
 4490SOL     OW24928   4.409   2.811   7.564  0.6786 -0.0432  0.2206
 4490SOL    HW124929   4.417   2.774   7.652 -0.7127 -0.7357  0.0497
 4490SOL    HW224930   4.352   2.888   7.564 -0.5765 -0.9862  0.3952
 4491SOL     OW24931   3.981   3.929   2.436 -0.0716  0.0867 -0.3072
 4491SOL    HW124932   3.921   3.985   2.387  1.6663  0.8799 -1.5354
 4491SOL    HW224933   3.959   3.946   2.527 -2.2414 -1.3820 -0.5564
 4492SOL     OW24934   1.609   4.163   2.695  0.2413  0.1862 -0.7329
 4492SOL    HW124935   1.525   4.120   2.707  0.0664 -0.2644 -3.6515
 4492SOL    HW224936   1.667   4.113   2.753 -2.4753 -2.3950 -0.2521
 4493SOL     OW24937   1.252   0.111   8.369 -0.2770 -0.2308  0.1186
 4493SOL    HW124938   1.317   0.177   8.393  0.9882 -1.0604 -1.0188
 4493SOL    HW224939   1.245   0.059   8.450 -1.0476  1.2719  1.0093
 4494SOL     OW24940   2.307   4.697  12.306  0.5047  0.8705 -0.0844
 4494SOL    HW124941   2.257   0.018  12.375  1.1482 -1.0758  1.5977
 4494SOL    HW224942   2.267   4.717  12.221  0.3741 -0.3387 -0.3016
 4495SOL     OW24943   0.496   2.156   4.221  0.1085  0.1828  0.0802
 4495SOL    HW124944   0.555   2.202   4.281  2.0558 -2.9742  0.5860
 4495SOL    HW224945   0.421   2.131   4.276 -0.2819 -0.2028 -0.6320
 4496SOL     OW24946   2.169   0.521   7.973 -0.8271 -0.3161 -0.2915
 4496SOL    HW124947   2.105   0.465   7.929  1.3973 -2.3924 -0.8857
 4496SOL    HW224948   2.253   0.475   7.974 -1.2925 -1.1661 -0.6017
 4497SOL     OW24949   0.561   1.365  11.032  0.2503  0.2013  0.1373
 4497SOL    HW124950   0.581   1.376  10.939 -0.2362 -0.6960 -0.0683
 4497SOL    HW224951   0.587   1.452  11.062  1.2733  0.6754 -2.1276
 4498SOL     OW24952   0.478   2.423   3.254  0.0759 -0.3245 -0.5529
 4498SOL    HW124953   0.393   2.467   3.247 -0.8493 -2.3795 -1.9953
 4498SOL    HW224954   0.448   2.333   3.260 -0.3408 -0.0808  0.9506
 4499SOL     OW24955   2.560   2.295   3.448 -0.0436  0.2475  0.2971
 4499SOL    HW124956   2.498   2.262   3.383 -0.1553  0.4086  0.3228
 4499SOL    HW224957   2.631   2.230   3.441 -0.0785  0.3698 -1.1251
 4500SOL     OW24958   1.472   3.801   0.029 -0.4992  0.3736  0.4418
 4500SOL    HW124959   1.494   3.894   0.024 -1.9200  0.7410  0.8475
 4500SOL    HW224960   1.503   3.779   0.116 -1.7674 -0.5664  0.6682
 4501SOL     OW24961   3.675   4.315  15.920  0.0004  0.0450  0.3152
 4501SOL    HW124962   3.592   4.270  15.930 -0.0850 -0.3400 -2.1869
 4501SOL    HW224963   3.637   4.390  15.875  0.5612 -1.3363 -2.4559
 4502SOL     OW24964   1.830   2.667   7.833  0.5720 -1.0643 -0.2277
 4502SOL    HW124965   1.915   2.673   7.790 -0.8249 -1.4753 -3.0603
 4502SOL    HW224966   1.793   2.727   7.768 -0.1617  0.8876  1.9902
 4503SOL     OW24967   2.149   3.871   4.063  0.0351  0.2745 -0.2662
 4503SOL    HW124968   2.136   3.777   4.074 -0.4774  0.6090  2.2100
 4503SOL    HW224969   2.152   3.914   4.149 -1.0398  0.5130 -0.3417
 4504SOL     OW24970   2.246   4.146   1.835  0.7908  0.4880 -0.0390
 4504SOL    HW124971   2.204   4.165   1.750 -1.1654  2.5130  1.3844
 4504SOL    HW224972   2.175   4.173   1.893 -0.5734 -3.4537  0.1751
 4505SOL     OW24973   2.576   2.780   1.060  0.2179 -0.0607 -0.9356
 4505SOL    HW124974   2.506   2.837   1.092  1.5114 -0.2973  2.3298
 4505SOL    HW224975   2.606   2.845   0.996  0.3039 -0.6688 -1.5144
 4506SOL     OW24976   3.444   1.769   9.442  0.2854  0.0077 -0.2210
 4506SOL    HW124977   3.396   1.797   9.519 -0.2332  1.7537 -1.1844
 4506SOL    HW224978   3.474   1.846   9.394 -0.3396  0.3729 -0.0197
 4507SOL     OW24979   0.169   3.870  10.011  0.5171 -0.0639 -0.2161
 4507SOL    HW124980   0.247   3.816  10.002 -0.3974 -1.3305 -0.4434
 4507SOL    HW224981   0.119   3.831  10.082  1.0316  0.9590  0.7155
 4508SOL     OW24982   1.653   4.409   2.403 -0.7313  0.4870  0.8623
 4508SOL    HW124983   1.666   4.489   2.454 -1.9017 -0.0314  1.9764
 4508SOL    HW224984   1.712   4.430   2.330  1.1900  0.0554  2.3102
 4509SOL     OW24985   2.451   3.692   5.027  0.1371  0.1696 -0.4686
 4509SOL    HW124986   2.499   3.737   5.097  0.4027 -0.8931  0.0237
 4509SOL    HW224987   2.398   3.768   5.004 -2.1667 -1.3943 -0.2965
 4510SOL     OW24988   2.046   1.628  16.221  0.3186 -0.2811  0.3716
 4510SOL    HW124989   2.138   1.648  16.203 -0.4510  1.9147 -1.1436
 4510SOL    HW224990   2.054   1.534  16.235 -0.6955 -0.2032  1.4294
 4511SOL     OW24991   3.711   0.812   8.465  0.0536  0.1340  0.2614
 4511SOL    HW124992   3.758   0.730   8.479  0.9404  0.7906  1.0292
 4511SOL    HW224993   3.676   0.793   8.377 -0.5600  2.8133 -0.0830
 4512SOL     OW24994   0.601   0.644   5.002  0.2182  0.4523 -0.0949
 4512SOL    HW124995   0.558   0.568   4.961 -0.6133  1.2679 -0.7147
 4512SOL    HW224996   0.674   0.597   5.043  2.2093  2.8311 -0.9097
 4513SOL     OW24997   3.701   1.280   7.131 -0.0437  0.2772 -0.3845
 4513SOL    HW124998   3.754   1.325   7.196 -1.5008 -0.0795  1.0536
 4513SOL    HW224999   3.759   1.303   7.058  0.1769  1.0225  0.0265
 4514SOL     OW25000   0.855   4.593   5.258 -0.1393 -0.6121 -0.0657
 4514SOL    HW125001   0.881   4.685   5.260 -1.9078 -0.0448 -3.5136
 4514SOL    HW225002   0.763   4.601   5.234 -0.3610  0.2680  1.0413
 4515SOL     OW25003   0.678   0.918  17.649  0.1281 -0.3603  0.2460
 4515SOL    HW125004   0.727   0.868   0.020 -1.0212 -0.3019  1.1687
 4515SOL    HW225005   0.614   0.954   0.017  1.4041  0.3877  1.1404
 4516SOL     OW25006   3.052   1.229   8.624  0.6239  0.6380 -0.2810
 4516SOL    HW125007   3.124   1.167   8.633 -0.6897 -1.0893 -1.7018
 4516SOL    HW225008   3.047   1.237   8.529  0.4865  0.3095 -0.3005
 4517SOL     OW25009   0.664   1.426   8.686  0.2202 -0.4968 -0.5884
 4517SOL    HW125010   0.680   1.460   8.598  1.7277 -1.8315 -0.8458
 4517SOL    HW225011   0.610   1.496   8.720 -1.8164 -1.4903 -1.7968
 4518SOL     OW25012   2.233   2.193   2.259 -0.1640 -0.1813 -0.2728
 4518SOL    HW125013   2.200   2.210   2.347  0.7477  0.2112 -0.0094
 4518SOL    HW225014   2.217   2.099   2.257 -1.6516  0.0844 -1.1709
 4519SOL     OW25015   4.422   4.549   3.410  0.2655  0.1362  0.3106
 4519SOL    HW125016   4.502   4.594   3.382  0.8512 -0.9498  0.2454
 4519SOL    HW225017   4.444   4.484   3.477 -1.9903 -0.4882  0.4576
 4520SOL     OW25018   3.689   2.310   9.032 -0.1950  0.3973  0.2007
 4520SOL    HW125019   3.648   2.392   9.004  0.5994  0.9570  0.6728
 4520SOL    HW225020   3.665   2.259   8.955  1.1958  1.3041 -0.8254
 4521SOL     OW25021   4.467   2.492  11.663 -0.4772 -0.1264 -0.1612
 4521SOL    HW125022   4.549   2.451  11.690 -0.7800 -0.9410 -0.4648
 4521SOL    HW225023   4.480   2.492  11.568  0.4834 -1.7359 -0.0410
 4522SOL     OW25024   1.239   1.793  14.288  0.1152 -0.5484  0.2431
 4522SOL    HW125025   1.157   1.746  14.277 -0.7679  1.1114 -0.2346
 4522SOL    HW225026   1.232   1.818  14.381  1.3099  0.5044  0.0628
 4523SOL     OW25027   2.012   2.252   6.320 -0.3782 -0.3213  0.1308
 4523SOL    HW125028   2.046   2.265   6.409  2.0656  1.0505 -0.9897
 4523SOL    HW225029   1.936   2.197   6.338 -0.7994  0.2013 -0.0536
 4524SOL     OW25030   2.948   3.703   2.760  0.6193 -0.5349  0.0711
 4524SOL    HW125031   2.970   3.614   2.734 -4.0243 -1.1054 -1.9304
 4524SOL    HW225032   2.998   3.757   2.699 -0.7451  2.0091  1.1870
 4525SOL     OW25033   1.496   3.732   2.526 -0.4002  0.0815 -0.4353
 4525SOL    HW125034   1.428   3.708   2.464 -1.1090 -2.8074  1.4925
 4525SOL    HW225035   1.548   3.794   2.473  0.2217 -1.1291 -1.2454
 4526SOL     OW25036   0.812   2.882   8.979 -0.6542  0.0251 -0.4169
 4526SOL    HW125037   0.874   2.858   9.047 -0.5473  1.7413  0.1018
 4526SOL    HW225038   0.835   2.974   8.962  1.0119  0.1957  2.8302
 4527SOL     OW25039   0.443   0.729  15.714 -0.2456 -0.1277 -0.3506
 4527SOL    HW125040   0.364   0.678  15.695 -0.6592  0.3806  0.0242
 4527SOL    HW225041   0.488   0.733  15.629 -0.2358  1.0437 -0.2848
 4528SOL     OW25042   3.566   4.576   2.882 -0.0393  0.2546  0.1259
 4528SOL    HW125043   3.572   4.671   2.876 -2.9406  0.5980  2.6198
 4528SOL    HW225044   3.485   4.561   2.833  0.0675 -2.4732  0.7483
 4529SOL     OW25045   2.012   0.740   9.953 -0.1671 -0.4099  0.5572
 4529SOL    HW125046   1.948   0.795   9.907 -0.8315 -1.2349  0.4928
 4529SOL    HW225047   2.006   0.759  10.046 -0.6311 -1.2170  0.6903
 4530SOL     OW25048   1.961   1.895   6.411 -0.0453  0.3982  0.6637
 4530SOL    HW125049   1.947   1.801   6.424  0.4317  0.6531  3.0113
 4530SOL    HW225050   1.938   1.931   6.496 -0.1179 -0.5196  1.0306
 4531SOL     OW25051   1.300   2.517   7.876  0.5774  0.4219  0.1134
 4531SOL    HW125052   1.217   2.562   7.860  0.9046  1.2178  0.6472
 4531SOL    HW225053   1.318   2.534   7.969 -1.2568  3.1063 -0.0110
 4532SOL     OW25054   1.108   1.318   4.260 -0.4454  0.5798 -0.2221
 4532SOL    HW125055   1.043   1.389   4.264 -0.1506  0.7947  0.6477
 4532SOL    HW225056   1.165   1.344   4.188  1.7223 -0.0328  1.2842
 4533SOL     OW25057   3.109   3.293   1.825 -0.4307  0.3213 -0.1373
 4533SOL    HW125058   3.165   3.236   1.772 -1.0056 -0.4135  0.0464
 4533SOL    HW225059   3.170   3.285   1.898 -0.5369 -2.7693 -0.3528
 4534SOL     OW25060   0.889   3.785  15.214  0.1204 -0.0645 -0.4273
 4534SOL    HW125061   0.909   3.789  15.121  0.2183  1.3658 -0.3475
 4534SOL    HW225062   0.971   3.808  15.258 -0.7296  0.6780  0.7838
 4535SOL     OW25063   3.285   3.796   4.674  0.1797  0.0737 -0.0685
 4535SOL    HW125064   3.372   3.764   4.696  1.0274  1.1143 -1.9993
 4535SOL    HW225065   3.308   3.845   4.596  0.1482  1.7199  0.9673
 4536SOL     OW25066   0.100   3.345   0.366  0.0702  0.1167 -0.3897
 4536SOL    HW125067   0.161   3.272   0.372  1.0384  1.0371  0.8726
 4536SOL    HW225068   0.124   3.399   0.441 -0.5393 -0.4147  0.1943
 4537SOL     OW25069   0.190   2.390   1.641  0.2906 -0.2352 -0.6585
 4537SOL    HW125070   0.235   2.416   1.721 -0.4984 -0.8315 -0.0244
 4537SOL    HW225071   0.246   2.321   1.606  0.4008 -0.7874  0.6267
 4538SOL     OW25072   2.816   2.095   8.688  0.1331  0.3897 -0.1292
 4538SOL    HW125073   2.789   2.174   8.642 -1.2988  0.5853  1.0657
 4538SOL    HW225074   2.747   2.035   8.659  1.3082 -1.2566  0.4088
 4539SOL     OW25075   4.087   1.806  13.674 -0.1999 -0.0401  0.3912
 4539SOL    HW125076   4.028   1.821  13.600  0.9885 -0.2256 -0.5967
 4539SOL    HW225077   4.147   1.736  13.648  1.2592  1.1983  0.3896
 4540SOL     OW25078   2.974   4.065   3.087  0.6209 -0.6104 -0.4428
 4540SOL    HW125079   3.000   4.065   2.995 -0.0641 -1.5276 -0.6330
 4540SOL    HW225080   3.025   4.136   3.126 -2.0146  1.4765 -0.7746
 4541SOL     OW25081   3.185   2.279   8.850  0.1527  0.2747 -0.5030
 4541SOL    HW125082   3.226   2.342   8.791  2.3149  1.5297  2.2920
 4541SOL    HW225083   3.253   2.284   8.918 -1.0385  0.4299  0.6757
 4542SOL     OW25084   2.876   3.388   3.062  0.5680  0.0307 -0.0903
 4542SOL    HW125085   2.790   3.367   3.098  0.8388  2.0802  1.7398
 4542SOL    HW225086   2.838   3.416   2.978  0.8854  1.1438  0.1330
 4543SOL     OW25087   0.321   1.364   2.644 -0.1253 -0.3095  0.1463
 4543SOL    HW125088   0.298   1.272   2.630  2.2335 -0.9955  0.8749
 4543SOL    HW225089   0.387   1.384   2.579 -0.4277 -2.5563 -0.8542
 4544SOL     OW25090   0.505   2.659  13.171 -0.4759  0.1398  0.1359
 4544SOL    HW125091   0.588   2.686  13.133 -0.5512  0.3792  0.1381
 4544SOL    HW225092   0.447   2.667  13.095  1.0048 -0.8218 -1.0913
 4545SOL     OW25093   3.513   0.914   8.780 -0.4785  0.0734 -0.3934
 4545SOL    HW125094   3.590   0.857   8.780 -1.1520 -0.8366  0.9646
 4545SOL    HW225095   3.436   0.856   8.785  1.8558 -3.2010 -2.0326
 4546SOL     OW25096   1.254   4.646   3.901 -0.1650 -0.0936  0.1580
 4546SOL    HW125097   1.159   4.637   3.906 -0.3262  1.3271 -0.1882
 4546SOL    HW225098   1.266   4.572   3.842  0.2728  1.3065 -1.5227
 4547SOL     OW25099   3.058   0.534  15.844  0.2295 -0.3619  0.1791
 4547SOL    HW125100   3.043   0.573  15.758 -3.3560  1.3513  1.5730
 4547SOL    HW225101   2.976   0.554  15.890  0.7379  3.3811 -0.5339
 4548SOL     OW25102   3.190   2.326   3.142  0.1540  0.4640  0.0705
 4548SOL    HW125103   3.225   2.404   3.184  0.8869  0.5532 -0.7026
 4548SOL    HW225104   3.266   2.310   3.086  0.3175 -0.0685  0.4480
 4549SOL     OW25105   4.540   0.782   8.838  0.0910  0.5977  0.5897
 4549SOL    HW125106   4.499   0.795   8.752 -0.4381  2.0361  1.0593
 4549SOL    HW225107   4.508   0.855   8.891  0.1802  1.2823 -0.3098
 4550SOL     OW25108   1.421   0.435   3.513 -0.3314  0.0339 -0.1513
 4550SOL    HW125109   1.393   0.363   3.457 -3.3093 -0.8133  2.3972
 4550SOL    HW225110   1.383   0.509   3.465 -2.6788 -0.6115  0.6697
 4551SOL     OW25111   2.381   1.344   8.151 -0.3807 -0.2110  0.2582
 4551SOL    HW125112   2.343   1.380   8.071 -1.4207 -2.7360 -0.3917
 4551SOL    HW225113   2.328   1.264   8.155 -0.0969 -0.3283  1.6384
 4552SOL     OW25114   0.694   1.250  11.892  0.5126 -0.4011 -0.2926
 4552SOL    HW125115   0.740   1.324  11.852 -0.6131 -0.0669 -0.9692
 4552SOL    HW225116   0.773   1.213  11.931 -0.4378 -0.4580  1.5438
 4553SOL     OW25117   2.012   2.148  17.689 -0.0467  0.6267 -0.1216
 4553SOL    HW125118   2.040   2.188   0.077  0.5286 -0.1351  0.0538
 4553SOL    HW225119   2.013   2.054   0.009 -1.5236  0.3470 -1.9238
 4554SOL     OW25120   3.362   0.046   6.171 -0.1164  0.0815  0.0631
 4554SOL    HW125121   3.315   0.120   6.209 -1.4857 -0.2635 -0.9521
 4554SOL    HW225122   3.412   0.019   6.248  2.8567 -0.2015 -1.9732
 4555SOL     OW25123   2.324   0.573   2.790 -0.5623 -0.0306  0.4378
 4555SOL    HW125124   2.417   0.558   2.805 -0.3451 -0.1276 -1.0346
 4555SOL    HW225125   2.318   0.568   2.695  1.8124  1.8318  0.1788
 4556SOL     OW25126   3.440   2.492   8.117 -0.2673 -0.2202  0.0292
 4556SOL    HW125127   3.346   2.480   8.103 -0.2436 -0.8980  0.4636
 4556SOL    HW225128   3.463   2.542   8.039  2.0754 -0.3569  0.6144
 4557SOL     OW25129   3.181   3.954  15.182  0.4564 -0.2219 -0.1811
 4557SOL    HW125130   3.256   3.896  15.175  0.6431 -0.2089  1.6926
 4557SOL    HW225131   3.193   3.999  15.099  2.6925 -1.2073 -0.3754
 4558SOL     OW25132   1.049   4.018   2.015 -0.5448  0.3847  0.2017
 4558SOL    HW125133   1.098   4.011   1.933 -2.3629  0.6431 -0.9008
 4558SOL    HW225134   0.963   3.988   1.987 -0.7918  1.5448 -0.2613
 4559SOL     OW25135   0.464   0.664   7.896  0.7433 -0.3727  0.3702
 4559SOL    HW125136   0.532   0.600   7.920 -0.2975 -1.6505 -0.0908
 4559SOL    HW225137   0.514   0.745   7.902  1.5693 -1.0062  2.2740
 4560SOL     OW25138   3.418   4.187   6.334  0.1937  0.3419  0.0347
 4560SOL    HW125139   3.492   4.224   6.382  0.6232 -0.2650 -0.1658
 4560SOL    HW225140   3.346   4.238   6.372 -0.5220 -0.3080 -0.4584
 4561SOL     OW25141   4.402   3.682   7.226  0.6393 -0.1572 -0.4365
 4561SOL    HW125142   4.414   3.589   7.204 -1.1487 -0.7358  1.0027
 4561SOL    HW225143   4.360   3.675   7.312  0.4650  0.4336 -0.4795
 4562SOL     OW25144   0.820   1.784   8.396 -0.0062  0.3564  0.3450
 4562SOL    HW125145   0.827   1.736   8.313  1.4571  1.1880 -0.0065
 4562SOL    HW225146   0.724   1.788   8.403  0.2534  3.6454  1.7354
 4563SOL     OW25147   0.889   3.724  16.743 -0.1319 -0.3376 -0.3830
 4563SOL    HW125148   0.867   3.772  16.823  1.3378  0.5283 -0.4987
 4563SOL    HW225149   0.972   3.766  16.721 -0.9526  1.7953  0.5248
 4564SOL     OW25150   4.325   4.379   4.237  0.8365  0.2530  0.3045
 4564SOL    HW125151   4.328   4.290   4.273  0.1817  0.8129  1.7053
 4564SOL    HW225152   4.418   4.400   4.244  0.8989  0.9357 -2.3363
 4565SOL     OW25153   3.476   2.805   1.907 -0.4321  0.5855  0.4410
 4565SOL    HW125154   3.478   2.736   1.841  0.5424  0.4766  0.5837
 4565SOL    HW225155   3.537   2.780   1.977 -3.3113 -1.7311  2.0906
 4566SOL     OW25156   0.375   3.262  17.059 -0.2781 -0.2093 -0.3931
 4566SOL    HW125157   0.462   3.245  17.023 -0.0214 -1.5290  0.8655
 4566SOL    HW225158   0.400   3.253  17.151 -0.4458 -0.5325 -0.3782
 4567SOL     OW25159   1.848   0.606  15.321  0.6437 -0.1539  0.2846
 4567SOL    HW125160   1.819   0.614  15.412 -0.1408 -0.5805  0.0806
 4567SOL    HW225161   1.770   0.580  15.271  0.5351 -3.9081  2.3516
 4568SOL     OW25162   2.999   1.993  12.125 -0.0346  0.0867  0.3185
 4568SOL    HW125163   3.043   1.924  12.075  1.8787  1.8997 -0.5150
 4568SOL    HW225164   2.906   1.977  12.107 -0.1001  0.8420  0.0097
 4569SOL     OW25165   3.444   2.988   8.876  1.2824  0.0887 -0.0130
 4569SOL    HW125166   3.468   2.898   8.852  3.1814  0.4667  0.4358
 4569SOL    HW225167   3.472   2.996   8.967  0.6595 -0.3011  0.2118
 4570SOL     OW25168   3.776   1.031   6.762 -0.3584  0.3609 -0.3399
 4570SOL    HW125169   3.767   1.022   6.667 -0.7953  2.7697 -0.5296
 4570SOL    HW225170   3.699   0.978   6.783  1.8237 -1.5693  2.8405
 4571SOL     OW25171   3.416   4.448   0.844  0.2612  0.3536 -0.0983
 4571SOL    HW125172   3.449   4.487   0.764  1.0095 -2.2138 -1.0375
 4571SOL    HW225173   3.438   4.355   0.837 -0.2248  0.3313 -1.1834
 4572SOL     OW25174   3.184   0.401   5.220  0.0896  0.2265 -0.7290
 4572SOL    HW125175   3.111   0.459   5.199 -0.8163 -0.7403 -0.2327
 4572SOL    HW225176   3.124   0.329   5.240 -0.5888  0.6861 -1.1294
 4573SOL     OW25177   0.219   3.731   6.966 -0.0271  0.3391 -0.0018
 4573SOL    HW125178   0.223   3.805   7.026  2.6649  0.0042  0.2273
 4573SOL    HW225179   0.258   3.778   6.892  1.7877  0.8549  1.2984
 4574SOL     OW25180   1.124   4.476  16.441 -0.1251 -0.5319 -0.2050
 4574SOL    HW125181   1.175   4.433  16.510 -0.4579  1.4444  1.2906
 4574SOL    HW225182   1.177   4.547  16.404 -0.0079 -0.3647  0.2697
 4575SOL     OW25183   1.691   3.570   0.984  0.5257 -0.3356 -0.5588
 4575SOL    HW125184   1.743   3.537   1.057  0.0337 -1.2420 -0.6260
 4575SOL    HW225185   1.725   3.518   0.912 -0.2548  0.2988 -1.3869
 4576SOL     OW25186   1.496   2.791   3.110  0.0137 -0.1579 -0.3206
 4576SOL    HW125187   1.560   2.839   3.058  3.2894 -3.5744  0.6326
 4576SOL    HW225188   1.455   2.732   3.046  1.8943  0.2813 -1.9142
 4577SOL     OW25189   1.842   2.311   4.213  0.3093  0.0973 -0.0451
 4577SOL    HW125190   1.937   2.319   4.219  0.2943  1.6307 -2.1296
 4577SOL    HW225191   1.824   2.246   4.282 -0.0036  0.2068 -0.0243
 4578SOL     OW25192   3.907   1.793  15.291  0.1397 -0.1384 -0.2406
 4578SOL    HW125193   3.850   1.742  15.233 -0.3418  0.2128 -0.0757
 4578SOL    HW225194   3.964   1.832  15.224 -1.3256  2.6766  0.1423
 4579SOL     OW25195   2.792   0.699   4.303  0.4171  0.1739  0.3227
 4579SOL    HW125196   2.824   0.789   4.295 -1.0717  0.5811 -0.9229
 4579SOL    HW225197   2.768   0.678   4.213  0.9534 -0.6814  0.3793
 4580SOL     OW25198   2.253   2.656   9.707 -0.1171  0.1314  0.3537
 4580SOL    HW125199   2.313   2.627   9.776  0.6464 -1.9572 -1.1839
 4580SOL    HW225200   2.294   2.636   9.623 -0.6093  4.0010 -0.7963
 4581SOL     OW25201   0.997   2.945   2.027  0.3476  0.1755  0.7513
 4581SOL    HW125202   1.015   2.920   1.936  1.9321 -1.5243  1.5375
 4581SOL    HW225203   1.076   2.989   2.059 -0.7095  2.9622 -0.5185
 4582SOL     OW25204   1.565   4.551   2.146  0.5157  0.2949 -0.2423
 4582SOL    HW125205   1.591   4.500   2.069 -1.9344 -0.7024 -0.4200
 4582SOL    HW225206   1.489   4.502   2.178  1.2131 -0.6268 -0.0032
 4583SOL     OW25207   0.709   2.981   5.860  0.1010 -0.0934  0.3600
 4583SOL    HW125208   0.710   3.057   5.918  0.8155 -0.5396  0.9269
 4583SOL    HW225209   0.711   2.909   5.922  0.9355  1.1133  1.7336
 4584SOL     OW25210   2.049   4.069   2.748 -0.4110  0.3838 -0.0026
 4584SOL    HW125211   2.001   4.036   2.824  1.0641  0.5367  1.0109
 4584SOL    HW225212   1.990   4.142   2.731  1.1828  0.9650 -3.0097
 4585SOL     OW25213   1.264   4.710   0.754  0.9037  0.2481 -0.0556
 4585SOL    HW125214   1.180   4.669   0.731  1.4306 -2.2059  2.4714
 4585SOL    HW225215   1.322   4.679   0.684  2.4399  1.2343  0.7899
 4586SOL     OW25216   0.461   0.542  16.359  0.1170 -0.1263 -0.4255
 4586SOL    HW125217   0.528   0.537  16.291  1.7345  0.1974  1.1161
 4586SOL    HW225218   0.386   0.534  16.301 -0.0756 -0.1054 -0.1834
 4587SOL     OW25219   4.103   4.149  11.017 -0.3605  0.1463  0.3202
 4587SOL    HW125220   4.172   4.213  11.033 -0.0269  0.3448 -2.0053
 4587SOL    HW225221   4.031   4.203  10.983  0.0127 -0.0571 -0.7657
 4588SOL     OW25222   0.867   3.407  15.841  0.4363  0.6857  0.4463
 4588SOL    HW125223   0.791   3.373  15.889  0.0570 -1.7633 -1.8602
 4588SOL    HW225224   0.835   3.415  15.751 -1.2131  1.3347  1.0863
 4589SOL     OW25225   0.064   2.854  12.534  0.2181 -0.6235 -0.0982
 4589SOL    HW125226   0.133   2.798  12.500  2.0557  1.7425 -0.2650
 4589SOL    HW225227   0.099   2.937  12.566  0.2931 -0.3495 -0.8946
 4590SOL     OW25228   1.198   1.340   9.346 -0.0201 -0.0444 -0.0374
 4590SOL    HW125229   1.169   1.260   9.389  0.8335  0.0345  0.6841
 4590SOL    HW225230   1.127   1.363   9.285  0.6984  0.6554 -0.6036
 4591SOL     OW25231   4.412   4.373  12.440 -0.8084 -0.1621  0.4305
 4591SOL    HW125232   4.485   4.435  12.445 -1.7865  0.9502  0.9240
 4591SOL    HW225233   4.454   4.307  12.495  0.4408 -0.0576 -0.3996
 4592SOL     OW25234   0.426   0.711   1.775  0.5986 -0.1417 -0.3972
 4592SOL    HW125235   0.451   0.798   1.746  0.1593 -0.1733 -0.8742
 4592SOL    HW225236   0.426   0.716   1.871  0.9924  1.8433 -0.4966
 4593SOL     OW25237   0.362   3.230   9.530  0.4092 -0.0941  0.2331
 4593SOL    HW125238   0.445   3.273   9.509  1.8285 -3.2417 -0.4667
 4593SOL    HW225239   0.357   3.257   9.622  1.7974  0.9078  0.0161
 4594SOL     OW25240   3.153   3.552  15.022  0.6228 -0.0951 -1.0533
 4594SOL    HW125241   3.175   3.544  15.114 -1.2461  0.9443 -0.5277
 4594SOL    HW225242   3.241   3.542  14.987  0.6172  0.9200 -1.3729
 4595SOL     OW25243   2.660   3.012   6.197  0.3265  0.2618 -0.2205
 4595SOL    HW125244   2.662   2.974   6.109  0.5022 -2.1887  0.8448
 4595SOL    HW225245   2.569   3.039   6.209 -0.3018 -1.1795 -1.7361
 4596SOL     OW25246   0.316   3.999   9.721 -0.1106 -0.6039  0.3236
 4596SOL    HW125247   0.410   4.011   9.704 -0.6901  0.1671 -2.3825
 4596SOL    HW225248   0.320   3.985   9.815  0.0186  1.9337  0.7074
 4597SOL     OW25249   3.941   2.275   1.323  0.2427 -0.3182 -0.2427
 4597SOL    HW125250   3.964   2.239   1.237  2.3415  0.1930  0.1079
 4597SOL    HW225251   3.896   2.355   1.294  1.3460  0.9133  1.4961
 4598SOL     OW25252   4.686   2.116  17.230  0.0687  0.0688 -0.1416
 4598SOL    HW125253   0.006   2.053  17.289  0.9711  2.1267  1.4032
 4598SOL    HW225254   4.649   2.053  17.168  2.8874  0.2234 -1.9726
 4599SOL     OW25255   4.264   4.270  10.422  0.1506 -0.0139 -0.2713
 4599SOL    HW125256   4.213   4.261  10.502 -1.1502  1.0495 -0.9626
 4599SOL    HW225257   4.323   4.341  10.447  0.4812 -0.3687 -0.0493
 4600SOL     OW25258   1.825   3.989   9.835  0.2567  0.6533 -0.3114
 4600SOL    HW125259   1.841   3.958   9.924 -2.0464  0.1124 -0.0991
 4600SOL    HW225260   1.904   4.043   9.841 -0.3602  1.1881  2.6021
 4601SOL     OW25261   2.935   0.597  17.273  0.0996  0.3934  0.0643
 4601SOL    HW125262   2.965   0.583  17.363 -1.3459  1.0124  0.6218
 4601SOL    HW225263   3.016   0.585  17.222 -1.6733 -1.1742 -2.4052
 4602SOL     OW25264   3.054   2.630   3.810  0.2580 -0.3706 -0.3450
 4602SOL    HW125265   2.963   2.657   3.820 -0.0354 -1.6548  0.3513
 4602SOL    HW225266   3.085   2.721   3.814  0.7058 -0.5806  1.0342
 4603SOL     OW25267   2.725   0.872   9.610  0.1340  0.4298 -0.1176
 4603SOL    HW125268   2.784   0.800   9.588  2.8498  1.6692  3.1751
 4603SOL    HW225269   2.779   0.952   9.612  0.7274 -0.0003  1.2429
 4604SOL     OW25270   3.364   1.227  14.070 -0.2578 -0.2598 -0.0899
 4604SOL    HW125271   3.406   1.201  13.988  1.2297  0.1009  0.5572
 4604SOL    HW225272   3.414   1.305  14.095 -0.3513 -0.7170  1.5207
 4605SOL     OW25273   2.315   4.220   8.310  0.4354  0.0842  0.2140
 4605SOL    HW125274   2.338   4.165   8.234  0.2939  0.1586  0.1187
 4605SOL    HW225275   2.320   4.155   8.380  0.4756 -0.6084 -0.4244
 4606SOL     OW25276   0.036   2.605   3.807  0.3907  0.1861  0.2736
 4606SOL    HW125277   4.665   2.590   3.823 -0.0172  0.6750 -1.6308
 4606SOL    HW225278   0.038   2.556   3.725  1.2969  1.9414 -0.7450
 4607SOL     OW25279   1.691   3.911   7.505 -0.0060  0.1381 -0.0822
 4607SOL    HW125280   1.677   3.998   7.542  0.4141  0.0044  0.3936
 4607SOL    HW225281   1.673   3.862   7.586  2.3318  0.2020  0.4687
 4608SOL     OW25282   3.301   0.788   5.790  0.1030 -0.2806  0.0321
 4608SOL    HW125283   3.268   0.709   5.746  1.1053  0.1541 -1.4867
 4608SOL    HW225284   3.389   0.767   5.822 -0.1768 -1.1421  0.2524
 4609SOL     OW25285   4.154   1.673   7.290 -0.1524  0.0479  0.3501
 4609SOL    HW125286   4.176   1.754   7.335  1.5782 -1.1770  1.7149
 4609SOL    HW225287   4.129   1.619   7.365 -0.0388 -1.8041 -0.9298
 4610SOL     OW25288   1.536   3.760  12.424  0.2067 -0.4935 -0.3482
 4610SOL    HW125289   1.518   3.853  12.412  0.2185 -0.3689  0.6300
 4610SOL    HW225290   1.534   3.734  12.332  0.0466  0.6047 -0.6509
 4611SOL     OW25291   2.726   1.694  10.552 -0.2737 -0.1271  0.1453
 4611SOL    HW125292   2.670   1.647  10.490  1.0485 -0.9754 -0.4108
 4611SOL    HW225293   2.809   1.681  10.506  0.9096 -1.1713  2.5885
 4612SOL     OW25294   1.368   2.501   8.557  0.1297 -0.2357  0.0006
 4612SOL    HW125295   1.354   2.581   8.507  5.1749  1.2214  0.9228
 4612SOL    HW225296   1.287   2.469   8.597 -1.9054  0.2173 -3.7615
 4613SOL     OW25297   0.464   3.107  15.326 -0.7390  0.8312  0.2202
 4613SOL    HW125298   0.538   3.054  15.297 -1.3366  0.4489 -0.6247
 4613SOL    HW225299   0.397   3.048  15.291 -0.9230  0.2949  1.4616
 4614SOL     OW25300   0.303   0.001   8.519 -0.2446  0.5187  0.2509
 4614SOL    HW125301   0.370   0.043   8.465 -0.2494  0.4977  0.2287
 4614SOL    HW225302   0.348   4.644   8.547 -2.1911  0.0620  2.0190
 4615SOL     OW25303   4.115   0.883   8.487  0.3253  0.0318  0.0595
 4615SOL    HW125304   4.161   0.815   8.535  1.1532  1.6645  1.5831
 4615SOL    HW225305   4.175   0.894   8.413 -0.0068  0.7939 -0.1054
 4616SOL     OW25306   2.185   1.081   0.477  0.6464  0.8368  0.1836
 4616SOL    HW125307   2.125   1.042   0.540  1.5322 -0.1993  0.3714
 4616SOL    HW225308   2.140   1.154   0.433  0.8798  1.5442  1.1335
 4617SOL     OW25309   0.120   0.367  10.712  0.1935  0.2183  0.6920
 4617SOL    HW125310   0.074   0.451  10.713  0.8715  0.5909  0.4443
 4617SOL    HW225311   0.198   0.374  10.656 -0.9383  2.0213 -0.6530
 4618SOL     OW25312   0.550   2.410   3.809  0.2583  0.4646 -0.2919
 4618SOL    HW125313   0.636   2.392   3.772  0.8233  1.2523  0.6536
 4618SOL    HW225314   0.529   2.336   3.865  1.2876  1.2095  1.0931
 4619SOL     OW25315   4.143   4.299   9.071 -0.0961 -0.1282 -0.3101
 4619SOL    HW125316   4.214   4.362   9.079 -0.2966 -0.3710  3.3787
 4619SOL    HW225317   4.173   4.229   9.129  0.7571  0.5898  0.1065
 4620SOL     OW25318   1.288   1.116   3.777 -0.3724 -0.0869  0.0438
 4620SOL    HW125319   1.289   1.092   3.870 -0.4520 -0.1622  0.0252
 4620SOL    HW225320   1.305   1.210   3.783 -0.5935  0.0921 -2.1941
 4621SOL     OW25321   0.622   1.651   3.556  0.0821  0.6249 -0.2886
 4621SOL    HW125322   0.559   1.670   3.626 -0.7112 -0.3697 -0.7291
 4621SOL    HW225323   0.574   1.678   3.477  0.8213 -1.3459 -1.4310
 4622SOL     OW25324   0.202   1.236  15.939 -0.2294 -0.5225  0.7459
 4622SOL    HW125325   0.257   1.302  15.980 -0.5973 -0.7929  1.6854
 4622SOL    HW225326   0.248   1.226  15.856 -0.5226  1.0611  0.3928
 4623SOL     OW25327   3.527   1.302   3.341  0.2626 -0.0732 -0.0327
 4623SOL    HW125328   3.591   1.319   3.410  1.0017 -1.1339 -0.4493
 4623SOL    HW225329   3.584   1.266   3.272  1.1358 -0.5056  0.9136
 4624SOL     OW25330   1.312   2.503  11.758  0.1888 -0.2252  0.6184
 4624SOL    HW125331   1.338   2.516  11.850 -0.2955 -1.9195  0.9948
 4624SOL    HW225332   1.401   2.500  11.721  0.6930  0.4654  1.7714
 4625SOL     OW25333   3.650   1.317  16.924 -0.4496  0.0348  0.5245
 4625SOL    HW125334   3.665   1.286  16.835 -0.0904 -1.0006  0.9434
 4625SOL    HW225335   3.709   1.256  16.970 -1.5284 -0.2042  1.5818
 4626SOL     OW25336   2.070   4.203   4.153  0.2713  1.2617  0.4710
 4626SOL    HW125337   2.104   4.216   4.064 -1.4611  3.5161  0.1332
 4626SOL    HW225338   2.131   4.252   4.208 -0.7134 -0.1489  2.7747
 4627SOL     OW25339   0.656   2.873  16.423 -0.4682 -0.1970  0.2670
 4627SOL    HW125340   0.741   2.900  16.457 -0.5183  1.1930 -0.7041
 4627SOL    HW225341   0.655   2.918  16.338 -0.6288  0.1271  0.4431
 4628SOL     OW25342   2.817   3.648   5.498 -0.3208  0.0438  0.0586
 4628SOL    HW125343   2.873   3.699   5.556  0.7446  0.2450 -1.1482
 4628SOL    HW225344   2.730   3.688   5.502  0.7277  2.3670 -0.7927
 4629SOL     OW25345   3.869   0.064  13.063 -0.0690  0.3595  0.3922
 4629SOL    HW125346   3.809   4.712  13.066  0.3349 -0.0396 -1.6778
 4629SOL    HW225347   3.851   0.094  13.152 -0.4834  2.2389 -0.3157
 4630SOL     OW25348   2.722   1.655  11.082  0.5282 -0.2636 -0.1896
 4630SOL    HW125349   2.690   1.651  11.172  2.1469 -0.6141  0.3660
 4630SOL    HW225350   2.719   1.750  11.074  2.2966 -0.3394 -1.7481
 4631SOL     OW25351   1.712   1.345   7.158  0.0151  0.0809  0.9803
 4631SOL    HW125352   1.691   1.271   7.102 -1.9627 -0.0912  1.9604
 4631SOL    HW225353   1.801   1.323   7.186  1.3320  2.7790 -1.0680
 4632SOL     OW25354   0.900   3.285   2.045 -0.5857  0.2303 -0.7684
 4632SOL    HW125355   0.950   3.310   1.967  0.6032 -0.9810 -0.3861
 4632SOL    HW225356   0.920   3.192   2.047  2.4701  0.9064  0.2399
 4633SOL     OW25357   0.943   0.058   7.135  0.5440  0.2455 -0.4730
 4633SOL    HW125358   0.981   4.722   7.070  0.1517 -1.2914  0.7154
 4633SOL    HW225359   0.964   0.135   7.081  0.1188  0.7856  0.1322
 4634SOL     OW25360   4.390   2.136  16.880 -0.3050 -0.4022 -0.4269
 4634SOL    HW125361   4.318   2.148  16.818  0.4799  1.2771 -0.9942
 4634SOL    HW225362   4.400   2.229  16.899 -1.3114 -0.3315 -0.2666
 4635SOL     OW25363   4.353   2.216   7.232 -0.1385 -0.4176 -0.0065
 4635SOL    HW125364   4.322   2.287   7.288 -0.0590  0.0298 -0.5256
 4635SOL    HW225365   4.446   2.213   7.251  0.1898  0.3266 -1.4949
 4636SOL     OW25366   1.156   2.005  16.797  0.4479  0.4907 -0.4541
 4636SOL    HW125367   1.208   2.057  16.736  0.9809 -0.5820 -0.9258
 4636SOL    HW225368   1.207   1.926  16.815  0.1659  0.6404  1.0157
 4637SOL     OW25369   3.990   1.554   5.532  0.2180 -0.2641 -0.0702
 4637SOL    HW125370   4.071   1.520   5.492 -0.0816  0.2345 -1.1080
 4637SOL    HW225371   4.025   1.585   5.616  1.0879  0.2839 -0.6333
 4638SOL     OW25372   4.347   3.540   6.267  0.0201 -0.5182 -0.1135
 4638SOL    HW125373   4.368   3.500   6.351  1.3102 -1.6134 -0.9481
 4638SOL    HW225374   4.311   3.620   6.304 -1.7791 -1.0148 -0.7590
 4639SOL     OW25375   3.543   1.653  12.061  0.0669  0.3170  0.0108
 4639SOL    HW125376   3.637   1.632  12.055  0.3705  0.9213  2.7551
 4639SOL    HW225377   3.497   1.577  12.097  1.4262 -1.3672 -1.8022
 4640SOL     OW25378   4.516   2.285   3.725  0.1096 -0.0511 -0.0913
 4640SOL    HW125379   4.444   2.225   3.748  0.5482 -0.5972 -0.1425
 4640SOL    HW225380   4.575   2.291   3.800  1.4091 -1.4114 -1.0139
 4641SOL     OW25381   3.957   1.484   2.593 -0.5320 -0.7361  0.6707
 4641SOL    HW125382   3.999   1.524   2.669  0.7532  0.2824 -0.5811
 4641SOL    HW225383   4.033   1.458   2.542  1.9002 -0.0188  3.9205
 4642SOL     OW25384   3.709   3.963   7.808 -0.1186  0.2481 -0.2980
 4642SOL    HW125385   3.748   3.918   7.734 -1.6741 -0.2258 -0.8328
 4642SOL    HW225386   3.781   4.023   7.824 -1.9980  2.4024  0.0314
 4643SOL     OW25387   0.121   0.135   3.645 -0.5515 -0.3632  0.2087
 4643SOL    HW125388   0.056   0.105   3.582  0.2082 -1.6895  0.0468
 4643SOL    HW225389   0.209   0.127   3.607  0.4710 -0.1707  2.5337
 4644SOL     OW25390   2.875   3.654   1.907 -0.1449 -0.2047  0.2072
 4644SOL    HW125391   2.845   3.731   1.859 -0.9474  0.1329  1.2697
 4644SOL    HW225392   2.820   3.581   1.877 -1.5424  1.0338 -0.2300
 4645SOL     OW25393   4.134   1.934   6.903 -0.2557 -0.3289 -0.5500
 4645SOL    HW125394   4.217   1.887   6.888 -0.4944 -1.1082  0.5675
 4645SOL    HW225395   4.096   1.873   6.966  1.5039  1.7473  2.5181
 4646SOL     OW25396   4.332   4.273  11.028  0.2216  0.8658  0.4533
 4646SOL    HW125397   4.410   4.243  10.982  0.0663 -0.7956  1.2643
 4646SOL    HW225398   4.336   4.217  11.106  2.0803 -0.4275 -0.5814
 4647SOL     OW25399   3.901   3.161  12.763  0.7085  0.2760 -0.5590
 4647SOL    HW125400   3.854   3.086  12.800  0.6462  0.4411 -0.2940
 4647SOL    HW225401   3.828   3.223  12.752  0.8003  0.5977  0.5330
 4648SOL     OW25402   0.789   2.728   6.813  0.1318  0.0456 -0.0230
 4648SOL    HW125403   0.805   2.798   6.749 -1.8441 -0.1679 -0.7440
 4648SOL    HW225404   0.877   2.691   6.816  0.3777  0.9282  3.0750
 4649SOL     OW25405   2.784   2.811  15.778 -0.4560  0.3426 -0.5708
 4649SOL    HW125406   2.841   2.754  15.831  1.9110  2.2219 -1.0925
 4649SOL    HW225407   2.848   2.868  15.735 -0.0595  0.7490  0.5513
 4650SOL     OW25408   2.740   2.588  11.341 -0.5778 -0.2971 -0.0542
 4650SOL    HW125409   2.724   2.643  11.417  1.2307 -0.3267  0.3370
 4650SOL    HW225410   2.693   2.632  11.270 -0.0216 -1.0196 -0.8743
 4651SOL     OW25411   1.218   2.337   7.533  0.0167  0.2680  0.2418
 4651SOL    HW125412   1.191   2.429   7.527  0.3892  0.2851 -1.0563
 4651SOL    HW225413   1.284   2.326   7.466  1.6999  1.1446  1.7626
 4652SOL     OW25414   4.600   0.074   1.089  0.1652  0.7339  0.0407
 4652SOL    HW125415   4.557   0.061   1.005  0.4717 -1.0864  0.1458
 4652SOL    HW225416   4.553   0.011   1.144 -0.6194  0.4632 -0.9377
 4653SOL     OW25417   1.456   2.976   5.296  0.3368  0.4980  0.4594
 4653SOL    HW125418   1.511   2.900   5.276 -0.1935 -0.1626  1.5565
 4653SOL    HW225419   1.455   3.016   5.209 -0.2174  0.1946  0.3276
 4654SOL     OW25420   0.718   2.366   1.039  0.5328  0.0334  0.5357
 4654SOL    HW125421   0.698   2.459   1.045 -0.1105  0.0057 -1.2533
 4654SOL    HW225422   0.797   2.371   0.984 -1.0933  1.7319 -1.6238
 4655SOL     OW25423   4.158   3.345  12.644  0.0564  0.1610  0.2659
 4655SOL    HW125424   4.089   3.365  12.581 -0.3596  1.5726  1.1969
 4655SOL    HW225425   4.112   3.346  12.728  0.6587  1.2933  0.5850
 4656SOL     OW25426   1.438   0.226   2.473 -0.1002  0.3247  0.4081
 4656SOL    HW125427   1.433   0.162   2.402  0.9287 -1.1919  1.7214
 4656SOL    HW225428   1.515   0.270   2.436 -0.1354  1.2160  1.4015
 4657SOL     OW25429   2.764   2.191  13.410  0.3193 -0.2939 -0.6090
 4657SOL    HW125430   2.762   2.245  13.331 -0.9891  0.3087 -0.1554
 4657SOL    HW225431   2.826   2.242  13.462  0.8812 -0.7193 -0.8649
 4658SOL     OW25432   2.671   1.306   9.627 -0.5563  0.3414 -0.2374
 4658SOL    HW125433   2.626   1.283   9.708 -2.4228 -0.8952 -1.6386
 4658SOL    HW225434   2.610   1.266   9.566  1.1295 -0.1651 -1.5763
 4659SOL     OW25435   0.772   0.703   2.306 -0.6120 -0.7991 -0.0157
 4659SOL    HW125436   0.815   0.633   2.354  2.0382  0.3089 -0.7456
 4659SOL    HW225437   0.845   0.749   2.265  0.0308 -0.1718  1.8372
 4660SOL     OW25438   0.550   3.328   8.249  0.1616  0.4251  0.4259
 4660SOL    HW125439   0.527   3.327   8.342 -1.2536 -1.3139  0.0675
 4660SOL    HW225440   0.641   3.355   8.241 -0.5488  2.8714  0.4873
 4661SOL     OW25441   4.257   1.034  10.495 -0.0850  0.4584  0.1632
 4661SOL    HW125442   4.234   1.124  10.517 -0.2751  0.5975 -0.6099
 4661SOL    HW225443   4.185   0.991  10.542 -1.0580  1.3719 -0.5112
 4662SOL     OW25444   3.506   1.961   8.800 -0.2936 -0.0213 -0.2197
 4662SOL    HW125445   3.447   1.923   8.735  2.1278 -2.0300 -1.2089
 4662SOL    HW225446   3.544   1.882   8.838 -1.9521 -1.2354 -1.0788
 4663SOL     OW25447   0.388   3.349   7.625  0.1853  0.2987  0.2258
 4663SOL    HW125448   0.471   3.307   7.600  0.5386  0.7059  0.6991
 4663SOL    HW225449   0.378   3.409   7.552 -0.0713  2.3800  1.9768
 4664SOL     OW25450   2.135   1.963   3.736 -0.4025 -0.0289  0.4123
 4664SOL    HW125451   2.067   1.936   3.797  0.3777 -1.1151  0.7841
 4664SOL    HW225452   2.088   1.960   3.652 -2.5145 -1.2609  1.6638
 4665SOL     OW25453   3.821   1.722  13.101  0.2051 -0.1283  0.1301
 4665SOL    HW125454   3.802   1.650  13.162  0.1505  0.9123  1.3562
 4665SOL    HW225455   3.874   1.671  13.041 -2.9717 -3.5834  0.2425
 4666SOL     OW25456   1.108   1.723   0.539 -0.3211 -0.4071  0.1939
 4666SOL    HW125457   1.146   1.656   0.482 -1.4808  0.5952 -1.7272
 4666SOL    HW225458   1.024   1.743   0.498 -0.2416 -0.5749 -0.0493
 4667SOL     OW25459   3.662   2.648   5.708 -0.0524 -0.3702  0.1607
 4667SOL    HW125460   3.661   2.570   5.653  0.4315 -0.5040  0.3375
 4667SOL    HW225461   3.708   2.708   5.650 -1.6914 -1.6839 -2.4882
 4668SOL     OW25462   4.111   3.579   2.066  0.0141  0.1310  0.2149
 4668SOL    HW125463   4.194   3.615   2.096  0.1530  1.8914 -2.3450
 4668SOL    HW225464   4.045   3.601   2.132  1.2556 -1.9761  2.1744
 4669SOL     OW25465   0.279   1.965  17.240  0.1999 -0.2857 -0.5087
 4669SOL    HW125466   0.237   1.889  17.201  0.7807 -0.1978 -1.3044
 4669SOL    HW225467   0.292   2.025  17.166 -1.7256  1.4072  0.5116
 4670SOL     OW25468   2.342   0.069   4.890 -0.0201  0.1014  0.2015
 4670SOL    HW125469   2.371   4.711   4.848  4.3583  2.1991 -0.7235
 4670SOL    HW225470   2.255   0.082   4.851 -0.1544 -0.0717  0.4495
 4671SOL     OW25471   0.315   1.596   7.419  0.5032  0.2601 -0.4530
 4671SOL    HW125472   0.367   1.531   7.371 -1.2858 -0.8517 -0.9080
 4671SOL    HW225473   0.262   1.536   7.472 -1.5295  1.5123 -1.0963
 4672SOL     OW25474   2.012   4.248   5.939  0.2916 -0.1476 -0.3227
 4672SOL    HW125475   1.935   4.193   5.927  0.8862 -1.2082  0.7899
 4672SOL    HW225476   1.962   4.326   5.962  0.5324 -0.3488  0.8693
 4673SOL     OW25477   3.133   4.332   6.307  0.0765 -0.3871  0.3474
 4673SOL    HW125478   3.066   4.400   6.315  0.1043 -0.5075  1.6209
 4673SOL    HW225479   3.152   4.340   6.214 -2.0919 -2.4442 -0.2613
 4674SOL     OW25480   1.122   4.367   4.081 -0.5014 -0.7163  0.0770
 4674SOL    HW125481   1.174   4.433   4.126  3.1408 -1.8393 -2.4742
 4674SOL    HW225482   1.185   4.298   4.058  0.0260  0.2073 -1.2266
 4675SOL     OW25483   2.814   3.375   5.366 -0.2073  0.0345 -0.1696
 4675SOL    HW125484   2.723   3.359   5.341 -0.5948 -0.9369  1.8843
 4675SOL    HW225485   2.802   3.420   5.450  1.4763 -0.6921  0.4589
 4676SOL     OW25486   3.944   3.312  16.529 -0.4656  0.6351 -0.4548
 4676SOL    HW125487   3.977   3.285  16.443 -0.1656 -0.9280  0.1510
 4676SOL    HW225488   3.916   3.229  16.568 -0.1630 -0.6626 -3.0336
 4677SOL     OW25489   0.487   2.344  12.620 -0.2892 -0.4774 -0.4085
 4677SOL    HW125490   0.399   2.355  12.655  0.4682  3.4059  0.2030
 4677SOL    HW225491   0.544   2.340  12.697 -0.7829 -0.2291 -0.0402
 4678SOL     OW25492   4.642   2.735   1.650  0.0884  0.1344  0.1737
 4678SOL    HW125493   4.638   2.708   1.741 -3.6931 -0.5034 -0.1755
 4678SOL    HW225494   0.014   2.735   1.646  0.0781  0.7325 -0.2713
 4679SOL     OW25495   0.905   0.665   7.788  0.4165 -0.2387 -0.2587
 4679SOL    HW125496   0.965   0.735   7.815 -0.8085  0.4758  0.5978
 4679SOL    HW225497   0.867   0.698   7.707 -0.1418  0.1705  0.1667
 4680SOL     OW25498   4.189   0.201   8.243 -0.0668 -0.3497 -0.3843
 4680SOL    HW125499   4.164   0.169   8.156 -1.8111 -2.2321  0.7890
 4680SOL    HW225500   4.250   0.267   8.211 -0.4005  0.2357  0.2106
 4681SOL     OW25501   0.591   0.886   7.924  0.0679 -0.2848  0.4784
 4681SOL    HW125502   0.656   0.948   7.957  0.2017  1.2869 -2.7118
 4681SOL    HW225503   0.515   0.917   7.972  0.5690 -0.5112  1.4075
 4682SOL     OW25504   4.679   0.165   4.806 -0.1115  0.2837 -0.3963
 4682SOL    HW125505   0.028   0.155   4.868 -1.0305  3.6677  1.2460
 4682SOL    HW225506   4.608   0.109   4.836  1.0478 -0.4966  0.8743
 4683SOL     OW25507   4.688   3.485  16.895  0.4587  0.6481  0.0615
 4683SOL    HW125508   0.032   3.418  16.907  0.4216  0.4649 -0.7116
 4683SOL    HW225509   0.013   3.562  16.865  4.1324 -1.8726 -0.4760
 4684SOL     OW25510   0.595   2.701   8.437  0.4208 -0.0500 -0.7035
 4684SOL    HW125511   0.664   2.693   8.371 -0.3562 -0.9557 -1.4222
 4684SOL    HW225512   0.635   2.755   8.505  0.7829  0.5512 -1.3883
 4685SOL     OW25513   1.159   2.509   4.725  0.7792  0.3341 -0.4234
 4685SOL    HW125514   1.229   2.449   4.702 -0.5635 -1.8152  1.0801
 4685SOL    HW225515   1.087   2.456   4.692  0.1257 -0.1588  1.7471
 4686SOL     OW25516   3.539   3.004   8.541  0.2835  0.5025 -0.3227
 4686SOL    HW125517   3.495   2.928   8.502  0.8311  0.7921 -1.4938
 4686SOL    HW225518   3.622   2.966   8.568 -1.3245 -1.8037  1.4219
 4687SOL     OW25519   2.817   0.766   7.952  0.1436 -0.0969 -0.1095
 4687SOL    HW125520   2.832   0.837   8.014 -0.0548 -0.3406  0.2131
 4687SOL    HW225521   2.906   0.732   7.943  0.8893  1.6690  0.5319
 4688SOL     OW25522   2.929   3.659   3.201  0.1836 -0.6717 -0.1289
 4688SOL    HW125523   2.898   3.569   3.191 -1.2344 -0.1655 -0.3554
 4688SOL    HW225524   3.023   3.647   3.193  0.2680  0.3580 -0.6660
 4689SOL     OW25525   3.640   4.250  10.871 -0.0893  0.3005 -0.7172
 4689SOL    HW125526   3.575   4.300  10.920 -1.7814 -0.9476 -1.6543
 4689SOL    HW225527   3.604   4.259  10.782 -0.8667  1.4448 -0.2874
 4690SOL     OW25528   3.752   0.591  11.781 -0.0386 -0.0521  0.4924
 4690SOL    HW125529   3.812   0.580  11.855  0.4265 -1.4816 -0.0895
 4690SOL    HW225530   3.756   0.687  11.779 -0.6038 -0.0053  2.0611
 4691SOL     OW25531   3.059   2.770   1.815  0.1903  0.4881  0.5086
 4691SOL    HW125532   3.089   2.752   1.726  0.4061  0.2642  0.6247
 4691SOL    HW225533   3.064   2.683   1.855  2.0007  0.2768 -0.1578
 4692SOL     OW25534   3.595   3.392  11.166  0.2483 -0.4686 -0.6866
 4692SOL    HW125535   3.527   3.334  11.201  0.2117 -1.0030 -1.6216
 4692SOL    HW225536   3.656   3.323  11.138  1.5515 -0.1346  1.3218
 4693SOL     OW25537   3.337   2.844   6.482  0.1755 -0.0863  0.0869
 4693SOL    HW125538   3.399   2.787   6.527 -0.0620 -0.7695 -0.4402
 4693SOL    HW225539   3.270   2.782   6.453  1.5550 -1.4399 -0.2550
 4694SOL     OW25540   1.374   0.988   9.606  0.1948  0.2156 -0.0021
 4694SOL    HW125541   1.432   0.969   9.533  1.3650  0.7541  0.7888
 4694SOL    HW225542   1.409   1.066   9.648 -2.0042  1.7891 -1.0839
 4695SOL     OW25543   0.028   0.999   2.744  0.5717  0.6249  0.4790
 4695SOL    HW125544   4.656   0.991   2.753  0.3769  2.9096  0.4760
 4695SOL    HW225545   0.039   1.034   2.833  1.9394  3.5216 -0.8259
 4696SOL     OW25546   3.270   2.217   5.200  0.5869 -0.1500  0.1837
 4696SOL    HW125547   3.227   2.296   5.169 -0.8241 -0.9891  0.0060
 4696SOL    HW225548   3.271   2.225   5.296 -0.5321 -0.5829  0.2390
 4697SOL     OW25549   3.827   1.925   0.122  0.6740  0.2221 -0.1832
 4697SOL    HW125550   3.777   1.866   0.064  0.1532  1.3258 -0.8672
 4697SOL    HW225551   3.877   1.969   0.053  1.2197  0.7587  0.5540
 4698SOL     OW25552   3.231   0.654   4.920 -0.3233 -0.3475  0.3959
 4698SOL    HW125553   3.292   0.725   4.901 -0.1253 -0.8654 -0.8817
 4698SOL    HW225554   3.281   0.618   4.994 -0.7774 -0.8620  0.4563
 4699SOL     OW25555   1.581   1.580   6.889 -0.1416 -0.2155 -0.1009
 4699SOL    HW125556   1.518   1.612   6.954 -0.4237 -0.7480 -0.1143
 4699SOL    HW225557   1.526   1.576   6.812 -1.4476 -0.7347  0.8566
 4700SOL     OW25558   0.677   3.509  10.821 -0.4861 -0.0805 -0.2521
 4700SOL    HW125559   0.650   3.418  10.833 -1.1958  0.5120  2.5702
 4700SOL    HW225560   0.768   3.489  10.797 -0.1323 -0.6973  1.6158
 4701SOL     OW25561   3.858   4.125   8.669 -0.2895 -0.0204 -0.1273
 4701SOL    HW125562   3.853   4.218   8.693  1.4524  0.1594 -0.4572
 4701SOL    HW225563   3.790   4.091   8.727  0.6800 -0.9736  0.4518
 4702SOL     OW25564   3.097   1.948   8.871  0.0572  0.2425  0.0162
 4702SOL    HW125565   3.155   1.874   8.855  2.2985  1.7600  1.1135
 4702SOL    HW225566   3.038   1.904   8.933 -0.2351 -0.1919 -0.5727
 4703SOL     OW25567   2.581   0.711   9.819  0.2544  0.8859 -0.0872
 4703SOL    HW125568   2.651   0.750   9.768  0.7104 -1.5022 -1.3248
 4703SOL    HW225569   2.572   0.777   9.887 -0.9699  0.6055  0.0337
 4704SOL     OW25570   1.258   1.046   1.925 -0.0211 -0.5349 -0.0328
 4704SOL    HW125571   1.303   0.965   1.948 -0.8375 -0.6557  1.0923
 4704SOL    HW225572   1.310   1.108   1.977  0.2649 -0.5255 -0.3223
 4705SOL     OW25573   0.984   3.182   7.259  0.4546 -0.2107  0.0004
 4705SOL    HW125574   0.901   3.142   7.235  0.8603  0.0688 -1.8957
 4705SOL    HW225575   1.026   3.103   7.292 -1.9789 -0.9424  1.3055
 4706SOL     OW25576   0.774   4.686   2.047 -0.1512  0.8967  0.1653
 4706SOL    HW125577   0.804   4.595   2.057 -0.2098  1.1062  2.3747
 4706SOL    HW225578   0.688   4.682   2.088 -1.4668 -1.2453 -2.7755
 4707SOL     OW25579   0.844   2.558   8.047 -0.0998 -0.0951 -0.4878
 4707SOL    HW125580   0.825   2.622   8.116  0.8482  2.7774 -2.8655
 4707SOL    HW225581   0.925   2.520   8.078  0.4762  2.5262  1.2525
 4708SOL     OW25582   2.450   0.083  10.865  0.1303 -0.0218 -0.4296
 4708SOL    HW125583   2.443   0.033  10.947 -1.1302  2.5694  1.0374
 4708SOL    HW225584   2.405   0.162  10.894 -1.1241 -0.5510 -0.9125
 4709SOL     OW25585   3.703   0.316   6.694 -0.3917 -0.5082  0.2683
 4709SOL    HW125586   3.760   0.378   6.649 -0.4585  0.8003  1.9929
 4709SOL    HW225587   3.713   0.359   6.779  1.7278 -1.4829  0.5129
 4710SOL     OW25588   2.611   1.479   8.110  0.7085 -0.8710  0.0672
 4710SOL    HW125589   2.647   1.394   8.086  2.0093 -0.0957 -0.7494
 4710SOL    HW225590   2.521   1.452   8.128  0.6977 -1.0399 -0.2258
 4711SOL     OW25591   4.509   0.677   2.140 -0.1617 -1.0571 -0.1349
 4711SOL    HW125592   4.593   0.700   2.179 -1.1141  1.3348  0.4647
 4711SOL    HW225593   4.467   0.630   2.213  0.5615  0.8424  1.4835
 4712SOL     OW25594   0.325   4.316  12.412  0.5380  0.2357 -0.1527
 4712SOL    HW125595   0.272   4.270  12.347 -0.4252 -0.3628  1.0585
 4712SOL    HW225596   0.269   4.366  12.472  1.7370  1.7922 -0.3355
 4713SOL     OW25597   2.963   4.392   6.992  0.1101 -0.0435  0.5751
 4713SOL    HW125598   2.983   4.306   7.029  1.2295  0.1873  0.5078
 4713SOL    HW225599   2.875   4.383   6.957 -0.1551 -0.3818  1.3281
 4714SOL     OW25600   1.932   0.877   1.829 -0.0998 -0.4575 -0.0065
 4714SOL    HW125601   1.892   0.822   1.762 -1.0480 -0.8236  0.8536
 4714SOL    HW225602   1.981   0.809   1.876  1.8061  1.1237  0.3103
 4715SOL     OW25603   3.551   1.192   7.592 -0.3254 -0.1947 -0.5669
 4715SOL    HW125604   3.549   1.273   7.643 -1.4228  0.0955 -1.0815
 4715SOL    HW225605   3.507   1.223   7.513  0.1062  2.5040  0.2578
 4716SOL     OW25606   1.334   4.116   2.306  0.0871 -0.0334 -0.1228
 4716SOL    HW125607   1.349   4.175   2.380  0.2911  1.8843 -1.7036
 4716SOL    HW225608   1.279   4.051   2.348  0.9567 -0.4632  0.3614
 4717SOL     OW25609   3.412   2.785  15.423  0.0738 -0.0080  0.0124
 4717SOL    HW125610   3.374   2.744  15.345 -1.3409  1.0619  0.1348
 4717SOL    HW225611   3.420   2.707  15.477  0.0790 -0.2841 -0.3858
 4718SOL     OW25612   2.930   3.400   1.170  0.8202 -0.4530 -0.3160
 4718SOL    HW125613   2.863   3.379   1.236  1.0762  0.3527  0.1981
 4718SOL    HW225614   3.008   3.422   1.220  0.5862  0.3564 -0.3072
 4719SOL     OW25615   3.833   0.274   5.323 -0.5736  0.3405 -0.3860
 4719SOL    HW125616   3.782   0.195   5.303 -0.9000  0.6224 -0.6782
 4719SOL    HW225617   3.810   0.336   5.253  0.3466 -1.3304 -2.1707
 4720SOL     OW25618   3.679   3.543   7.512 -0.1542  0.4757 -0.5876
 4720SOL    HW125619   3.684   3.621   7.567 -0.8060  1.3750 -1.7920
 4720SOL    HW225620   3.704   3.582   7.428 -1.7833  3.8384  0.5059
 4721SOL     OW25621   1.779   2.369   8.079  0.2497  0.1941 -0.2555
 4721SOL    HW125622   1.872   2.347   8.080  0.7132  1.9901 -2.3315
 4721SOL    HW225623   1.736   2.288   8.051  1.8060 -0.8529  0.3865
 4722SOL     OW25624   2.908   3.320  17.021 -0.0137  0.3878 -0.1255
 4722SOL    HW125625   2.845   3.356  17.084  1.5799 -1.6608  2.6483
 4722SOL    HW225626   2.861   3.302  16.940 -2.6912  3.8348  0.6513
 4723SOL     OW25627   3.536   0.512   2.977 -0.2246 -0.2378 -0.0805
 4723SOL    HW125628   3.609   0.453   2.960  0.8240  1.2161 -0.5942
 4723SOL    HW225629   3.521   0.550   2.890 -1.3662 -1.3860 -0.3927
 4724SOL     OW25630   4.475   2.168  13.356  0.1777  0.1253 -0.3930
 4724SOL    HW125631   4.388   2.136  13.335 -0.1985  0.4976  0.5891
 4724SOL    HW225632   4.483   2.239  13.292 -0.2468  0.2773 -0.2751
 4725SOL     OW25633   2.765   1.711  14.616 -0.0347 -0.3361 -0.4822
 4725SOL    HW125634   2.711   1.790  14.618 -1.0880 -1.0466 -0.8033
 4725SOL    HW225635   2.701   1.644  14.641  1.5806 -1.5629  0.3749
 4726SOL     OW25636   3.472   1.038  13.732  0.2221  0.1609 -0.0227
 4726SOL    HW125637   3.495   1.122  13.772 -0.2558 -0.8711  2.4393
 4726SOL    HW225638   3.378   1.048  13.714  0.5066  0.3079 -1.4037
 4727SOL     OW25639   4.374   1.126   5.422 -0.4315 -0.4796 -0.2382
 4727SOL    HW125640   4.353   1.054   5.363 -1.2964  0.8331 -1.5309
 4727SOL    HW225641   4.419   1.182   5.358 -1.2408  1.4513  0.8621
 4728SOL     OW25642   4.184   3.393   9.490  0.5831  0.0229 -0.1223
 4728SOL    HW125643   4.260   3.408   9.546 -1.1124 -0.3764  2.2758
 4728SOL    HW225644   4.119   3.402   9.559  1.0246  4.9616 -0.3659
 4729SOL     OW25645   3.562   2.190  11.851  0.0266  0.0985  0.0136
 4729SOL    HW125646   3.512   2.109  11.839  0.2672  0.1463 -1.3030
 4729SOL    HW225647   3.571   2.224  11.761  0.3911  0.6589  0.2601
 4730SOL     OW25648   0.196   1.208   8.901 -0.4008  0.2843 -0.2869
 4730SOL    HW125649   0.206   1.114   8.883 -0.0145 -0.0921  1.9481
 4730SOL    HW225650   0.101   1.211   8.886 -0.0758  1.7487 -1.9871
 4731SOL     OW25651   4.379   2.722   3.279 -0.2446  0.3122 -0.5750
 4731SOL    HW125652   4.427   2.764   3.351 -1.8644  2.1138 -0.5370
 4731SOL    HW225653   4.423   2.746   3.198  1.5815  3.3281  1.2859
 4732SOL     OW25654   0.975   1.137   8.515 -0.1110 -0.3829  0.4534
 4732SOL    HW125655   0.908   1.150   8.583 -0.1811 -0.7650  0.4539
 4732SOL    HW225656   0.917   1.103   8.447 -0.3437  1.3486 -0.2277
 4733SOL     OW25657   2.022   2.087  12.735  0.1252  0.1860  0.6068
 4733SOL    HW125658   2.103   2.116  12.778 -0.3285 -1.0860  2.3244
 4733SOL    HW225659   1.993   2.019  12.796 -2.1620  0.8224  0.2178
 4734SOL     OW25660   1.134   1.184   1.146  0.4273 -0.3905  0.0166
 4734SOL    HW125661   1.174   1.220   1.225  0.0281 -2.0550  0.9857
 4734SOL    HW225662   1.160   1.092   1.151  1.8212  0.0101 -0.1242
 4735SOL     OW25663   1.517   2.211   3.464  0.0067 -0.0471 -0.1451
 4735SOL    HW125664   1.460   2.287   3.470 -2.5025 -1.9563  0.3725
 4735SOL    HW225665   1.490   2.167   3.545 -0.6298 -1.3755 -1.0775
 4736SOL     OW25666   1.442   0.972  14.328  0.2127 -0.5434 -0.1165
 4736SOL    HW125667   1.479   0.950  14.413  1.8388 -0.4779 -0.8093
 4736SOL    HW225668   1.357   1.003  14.360 -0.4624 -0.0272 -2.4146
 4737SOL     OW25669   4.602   4.702   7.936 -0.1434 -0.3686  0.4956
 4737SOL    HW125670   4.605   0.070   7.905  1.0966  0.3102  2.5531
 4737SOL    HW225671   4.603   4.711   8.032 -3.9589  2.7177  0.2515
 4738SOL     OW25672   0.612   4.644   8.517  0.1205  0.6964 -0.2222
 4738SOL    HW125673   0.560   4.563   8.518  1.4162 -0.1523 -1.1903
 4738SOL    HW225674   0.675   4.637   8.446 -0.5180 -0.2145 -0.7072
 4739SOL     OW25675   4.522   0.351   6.285  0.1888 -0.4452 -0.2125
 4739SOL    HW125676   4.494   0.368   6.195  1.6964  0.8903 -0.4171
 4739SOL    HW225677   4.444   0.309   6.323  0.3706  0.3739  1.0495
 4740SOL     OW25678   1.418   2.303   3.865 -0.3632  0.4198 -0.0779
 4740SOL    HW125679   1.445   2.388   3.830 -2.8437  0.4861 -1.8130
 4740SOL    HW225680   1.380   2.326   3.950  0.1574  1.0216 -0.0069
 4741SOL     OW25681   3.510   2.211   5.510  0.4200  0.0204  0.1436
 4741SOL    HW125682   3.562   2.271   5.458  0.4849  0.1447  0.3497
 4741SOL    HW225683   3.420   2.231   5.486  0.8187  2.2920  0.5381
 4742SOL     OW25684   4.437   0.354   7.377 -0.0774  0.4241 -0.0299
 4742SOL    HW125685   4.497   0.426   7.356  0.7436 -0.9010 -2.2336
 4742SOL    HW225686   4.496   0.279   7.385  0.4158  0.5211 -2.8387
 4743SOL     OW25687   4.253   1.513   6.767  0.0149  0.6054  0.5943
 4743SOL    HW125688   4.257   1.450   6.695 -0.6901 -0.1162  1.1855
 4743SOL    HW225689   4.235   1.593   6.718 -2.1761 -1.3373 -1.7623
 4744SOL     OW25690   1.756   2.034   7.019 -0.2335  0.2270 -0.0222
 4744SOL    HW125691   1.696   2.044   6.946  0.1084 -1.5386 -0.5425
 4744SOL    HW225692   1.769   1.939   7.007 -2.2813 -0.1006  0.4015
 4745SOL     OW25693   2.738   4.571   3.216  0.5221  0.3562 -0.2871
 4745SOL    HW125694   2.743   4.638   3.284 -1.1026  0.4106 -0.2364
 4745SOL    HW225695   2.659   4.592   3.167 -0.3239 -1.1210  0.4796
 4746SOL     OW25696   1.635   1.052  14.095  1.2228  0.1284 -0.1716
 4746SOL    HW125697   1.650   0.990  14.023 -1.9195 -1.0265  0.1656
 4746SOL    HW225698   1.552   1.022  14.132  1.4162 -0.2849 -0.0764
 4747SOL     OW25699   1.050   1.513  12.256 -0.1944 -0.0676  0.3331
 4747SOL    HW125700   1.092   1.517  12.342 -2.8643 -2.5181  1.7581
 4747SOL    HW225701   1.017   1.601  12.239 -1.9300 -0.5707  1.1346
 4748SOL     OW25702   1.121   0.935   9.552  0.0726 -0.2563 -0.1632
 4748SOL    HW125703   1.076   1.010   9.513  2.1498  2.1929  2.2001
 4748SOL    HW225704   1.208   0.962   9.580 -0.7140  1.4120  0.6865
 4749SOL     OW25705   0.245   0.781   6.790  0.0743  0.0194 -0.0242
 4749SOL    HW125706   0.271   0.864   6.750  0.6301  0.6455  1.6619
 4749SOL    HW225707   0.294   0.719   6.736 -0.1603 -1.8811  1.9597
 4750SOL     OW25708   3.950   2.005   1.713  0.1900  0.0030 -0.2792
 4750SOL    HW125709   3.961   1.932   1.652  1.7012 -0.1341  0.1700
 4750SOL    HW225710   3.894   1.956   1.774  1.9891  0.1599  1.4708
 4751SOL     OW25711   3.405   1.614   5.661  0.0074  0.2926 -0.1648
 4751SOL    HW125712   3.325   1.638   5.615  0.8175  0.4857 -1.4915
 4751SOL    HW225713   3.448   1.574   5.586 -0.3832 -0.4056 -0.0177
 4752SOL     OW25714   3.487   3.046   8.075 -0.1083  0.1729  0.7581
 4752SOL    HW125715   3.560   3.007   8.027 -2.0175 -0.4941 -1.6029
 4752SOL    HW225716   3.539   3.100   8.135  0.5562 -0.8066  1.0715
 4753SOL     OW25717   3.571   3.201   1.244 -0.3820  1.2677  0.4199
 4753SOL    HW125718   3.586   3.218   1.337  1.5491  0.4275  0.2630
 4753SOL    HW225719   3.612   3.115   1.232 -0.8271  1.2560 -0.9444
 4754SOL     OW25720   2.540   0.360   5.745 -0.1965  0.2026  0.2660
 4754SOL    HW125721   2.481   0.335   5.674 -0.8040 -0.6961  1.0959
 4754SOL    HW225722   2.577   0.276   5.771 -0.6129 -0.7978 -2.4023
 4755SOL     OW25723   3.338   1.641  13.646  0.4177 -0.3544 -0.0674
 4755SOL    HW125724   3.271   1.648  13.579 -2.4189 -1.3369  2.6962
 4755SOL    HW225725   3.321   1.703  13.718 -1.6357 -0.1547 -0.7431
 4756SOL     OW25726   0.588   3.075  17.020  0.2285  0.2888  0.5180
 4756SOL    HW125727   0.591   2.996  16.965 -1.8378  1.6190 -1.5062
 4756SOL    HW225728   0.597   3.036  17.107  2.6502  2.4648  1.2403
 4757SOL     OW25729   2.238   2.760   1.877  0.0697  0.0474  0.8572
 4757SOL    HW125730   2.310   2.812   1.842 -0.7981 -1.3446 -2.9288
 4757SOL    HW225731   2.289   2.707   1.939  0.2819 -0.6529  0.0936
 4758SOL     OW25732   1.998   4.618   4.472  0.7395  0.0173 -0.3041
 4758SOL    HW125733   1.916   4.658   4.500  0.2633  1.4045 -3.6814
 4758SOL    HW225734   1.994   4.634   4.377  0.1369 -0.7490 -0.4118
 4759SOL     OW25735   3.571   2.365   8.306  0.0735 -0.3978 -1.0406
 4759SOL    HW125736   3.561   2.274   8.275 -1.2826 -0.0175 -1.7343
 4759SOL    HW225737   3.508   2.394   8.240 -1.9479 -0.9285  0.6698
 4760SOL     OW25738   3.884   1.006  15.692 -0.1948 -0.0099  0.7843
 4760SOL    HW125739   3.853   1.084  15.738 -2.2691 -0.8476  0.8367
 4760SOL    HW225740   3.891   1.033  15.601 -2.3482 -0.2996  0.5221
 4761SOL     OW25741   3.337   1.861   8.546 -0.2883  0.1831  0.3428
 4761SOL    HW125742   3.422   1.820   8.528 -0.7401 -1.0098  0.9885
 4761SOL    HW225743   3.264   1.801   8.534  1.4179 -1.9046  0.4719
 4762SOL     OW25744   3.953   1.302   6.536  0.3409  0.2391 -0.3433
 4762SOL    HW125745   3.937   1.395   6.525  3.0213  0.8993  1.5039
 4762SOL    HW225746   3.996   1.309   6.621 -0.3129  1.9012 -0.1640
 4763SOL     OW25747   2.793   1.050   0.730  0.2718 -0.2448  0.0944
 4763SOL    HW125748   2.717   1.100   0.700  1.3364  1.2579 -0.0955
 4763SOL    HW225749   2.847   1.059   0.651 -0.4195 -0.0222 -0.3545
 4764SOL     OW25750   2.670   0.299   4.596 -0.1857 -0.3193  0.4360
 4764SOL    HW125751   2.578   0.296   4.622 -0.3877  1.4783 -0.0811
 4764SOL    HW225752   2.702   0.366   4.656  0.7053  0.8844 -1.3969
 4765SOL     OW25753   1.925   4.662   4.902 -0.3352 -0.3060  0.0382
 4765SOL    HW125754   1.835   4.661   4.936 -0.1788 -0.7771  0.4380
 4765SOL    HW225755   1.911   4.604   4.827 -1.7109  0.2004 -0.1015
 4766SOL     OW25756   1.438   2.869   2.022 -0.6893 -0.4160 -0.1166
 4766SOL    HW125757   1.414   2.904   1.936 -0.3992  2.2356  0.8668
 4766SOL    HW225758   1.533   2.855   2.023 -0.5277  0.5162 -2.1308
 4767SOL     OW25759   1.807   2.653   6.726 -0.2860  0.3981  0.1182
 4767SOL    HW125760   1.756   2.675   6.804 -0.5038 -2.7458  0.8364
 4767SOL    HW225761   1.737   2.642   6.662  0.6776 -3.4749 -0.2793
 4768SOL     OW25762   0.003   1.608  11.579  0.3642 -0.1636 -0.1441
 4768SOL    HW125763   4.672   1.529  11.586 -0.0741  0.0951 -0.5730
 4768SOL    HW225764   0.010   1.627  11.485  2.1448 -0.0090  0.0246
 4769SOL     OW25765   1.813   0.007   3.321  0.1218  0.2052 -0.0875
 4769SOL    HW125766   1.789   0.002   3.228 -2.5813  0.8314  0.5714
 4769SOL    HW225767   1.742   4.675   3.356 -0.9855  1.0372 -1.0221
 4770SOL     OW25768   1.419   0.198   7.065  0.3642 -0.0377 -0.0370
 4770SOL    HW125769   1.395   0.280   7.108 -0.3835  0.4043 -1.3101
 4770SOL    HW225770   1.444   0.156   7.148  0.6213  1.2690  0.5486
 4771SOL     OW25771   4.550   4.114   7.165 -0.0927  0.4766  0.4702
 4771SOL    HW125772   4.486   4.144   7.230  0.0148 -1.5278  1.4960
 4771SOL    HW225773   4.495   4.051   7.117 -0.4060  0.1675  1.2289
 4772SOL     OW25774   3.864   3.477  16.750 -0.0196 -0.6735 -0.7466
 4772SOL    HW125775   3.905   3.556  16.714  0.9910 -0.0309  1.7588
 4772SOL    HW225776   3.870   3.419  16.675  0.4785 -2.1235  0.4087
 4773SOL     OW25777   4.332   3.750  12.031  0.4170 -0.4101  0.1077
 4773SOL    HW125778   4.265   3.682  12.029 -2.6804  2.5555  2.2721
 4773SOL    HW225779   4.361   3.765  11.941  4.2545  2.1144  1.7713
 4774SOL     OW25780   1.511   1.275   4.149  0.1784 -0.5933  0.4910
 4774SOL    HW125781   1.508   1.237   4.237 -2.4202  0.9644  1.0651
 4774SOL    HW225782   1.531   1.365   4.174  1.0608 -0.1877 -1.6878
 4775SOL     OW25783   2.085   4.691   0.723  0.4846 -0.4956 -0.1750
 4775SOL    HW125784   2.163   0.011   0.757  0.2727 -1.4713  1.5235
 4775SOL    HW225785   2.016   0.035   0.720  1.6832  0.8147  1.4915
 4776SOL     OW25786   1.921   3.859  10.098 -0.0237  0.0267  0.4534
 4776SOL    HW125787   1.883   3.789  10.152  0.9579 -0.2310  0.8083
 4776SOL    HW225788   1.956   3.912  10.170  2.6412 -0.0135 -0.8242
 4777SOL     OW25789   0.937   4.241   8.199  0.0038  0.2802 -0.1065
 4777SOL    HW125790   0.949   4.160   8.249  0.2699  0.3559 -0.0443
 4777SOL    HW225791   1.007   4.300   8.228  0.9297 -1.1878  0.6756
 4778SOL     OW25792   0.124   4.436   2.335  0.8508  0.1142  0.2834
 4778SOL    HW125793   0.062   4.404   2.401  0.7716 -0.5423 -0.1020
 4778SOL    HW225794   0.174   4.495   2.391 -0.5571  1.7503 -0.1843
 4779SOL     OW25795   0.242   2.869   5.173  0.1599  0.2788  0.6282
 4779SOL    HW125796   0.196   2.786   5.182  0.6026  0.0656  0.9005
 4779SOL    HW225797   0.320   2.855   5.227 -0.5175 -0.7407  1.3206
 4780SOL     OW25798   0.522   4.435   1.646  0.3630  0.3677 -0.5554
 4780SOL    HW125799   0.497   4.492   1.573  1.2545 -1.4143 -2.2821
 4780SOL    HW225800   0.612   4.464   1.631  1.1003 -1.0035  1.3405
 4781SOL     OW25801   2.191   0.333   5.298 -0.3221  0.3852  0.2651
 4781SOL    HW125802   2.132   0.376   5.360 -3.5289 -0.9790 -1.7865
 4781SOL    HW225803   2.269   0.388   5.304  0.3535 -0.2887 -2.3129
 4782SOL     OW25804   1.404   2.079   3.679 -0.2094  0.0717 -0.5987
 4782SOL    HW125805   1.395   2.147   3.746 -0.8471  1.3049 -1.9388
 4782SOL    HW225806   1.337   2.021   3.715 -0.3503  0.0301 -0.9270
 4783SOL     OW25807   0.678   1.127   3.082 -0.7572  0.1258 -0.0731
 4783SOL    HW125808   0.616   1.136   3.010  1.3738  1.3625 -1.7817
 4783SOL    HW225809   0.666   1.032   3.082 -2.1452  0.3023 -0.5696
 4784SOL     OW25810   0.725   3.038  10.688  0.1256 -0.0733  0.1109
 4784SOL    HW125811   0.686   3.114  10.731  0.2663 -0.8260  1.5717
 4784SOL    HW225812   0.683   2.963  10.730 -0.1265 -0.9662 -1.7429
 4785SOL     OW25813   0.633   1.007  17.399  0.6326  0.3095  0.1308
 4785SOL    HW125814   0.658   1.000  17.492  0.1992 -1.8298  0.0956
 4785SOL    HW225815   0.558   1.066  17.409  0.8847  0.2884  2.2852
 4786SOL     OW25816   0.019   2.732   5.427 -0.0259  0.1260  0.1108
 4786SOL    HW125817   0.026   2.827   5.415 -0.1744 -0.0559 -1.4331
 4786SOL    HW225818   0.035   2.716   5.520 -1.1971 -0.5407  0.1878
 4787SOL     OW25819   0.888   3.861  12.977  0.1998 -0.4355 -0.0281
 4787SOL    HW125820   0.794   3.847  12.988  0.3699 -0.0993  1.8256
 4787SOL    HW225821   0.885   3.909  12.894 -2.2651  1.1149  0.9549
 4788SOL     OW25822   3.429   3.653  13.430  0.0911 -0.1217  0.4852
 4788SOL    HW125823   3.521   3.656  13.405 -0.5177  0.6287 -1.6616
 4788SOL    HW225824   3.441   3.631  13.523  1.2252  2.0331  0.8626
 4789SOL     OW25825   1.704   2.264   6.127  0.6559 -0.5685 -0.2760
 4789SOL    HW125826   1.763   2.190   6.146  0.4439 -0.4193  0.9859
 4789SOL    HW225827   1.666   2.269   6.215 -0.0003 -1.3336 -0.5140
 4790SOL     OW25828   2.970   3.366  12.056  0.1059  0.1340 -0.3382
 4790SOL    HW125829   2.946   3.379  11.964  1.0683  1.0561 -0.4584
 4790SOL    HW225830   3.030   3.292  12.052 -1.5582 -1.2058 -0.6042
 4791SOL     OW25831   4.137   0.165   2.888 -0.4037  0.0545 -0.3075
 4791SOL    HW125832   4.180   0.183   2.804  3.3436  1.0180  1.7927
 4791SOL    HW225833   4.077   0.095   2.865 -1.9930  1.3213 -0.0024
 4792SOL     OW25834   4.538   2.123   5.092  0.1726  0.3719 -0.6344
 4792SOL    HW125835   4.627   2.156   5.078  1.3136 -2.3084  0.2977
 4792SOL    HW225836   4.503   2.142   5.005 -0.7623 -0.7357 -0.4961
 4793SOL     OW25837   4.075   1.809   7.824 -0.5431  0.1551  0.3091
 4793SOL    HW125838   4.020   1.848   7.755 -1.5345 -0.7122  0.6076
 4793SOL    HW225839   4.062   1.714   7.823  2.4561 -0.2483 -0.9816
 4794SOL     OW25840   4.309   3.716   5.687 -0.6485 -0.5813  0.0900
 4794SOL    HW125841   4.397   3.711   5.724 -0.3946 -1.0648 -0.5766
 4794SOL    HW225842   4.271   3.746   5.770 -0.8522  1.1416 -0.6230
 4795SOL     OW25843   4.650   2.300   6.431  0.1433 -0.8174 -0.2582
 4795SOL    HW125844   0.022   2.307   6.421  0.2831 -1.2937  0.7143
 4795SOL    HW225845   4.640   2.328   6.522  2.5629  2.5291 -1.0509
 4796SOL     OW25846   0.798   1.582   6.341 -0.3854 -0.4873  0.2343
 4796SOL    HW125847   0.878   1.627   6.369 -1.5635  1.0372  1.2002
 4796SOL    HW225848   0.734   1.636   6.388 -2.1980 -1.3953 -1.2184
 4797SOL     OW25849   3.497   2.215   0.932 -0.0431 -0.4390  0.0077
 4797SOL    HW125850   3.483   2.206   1.026  0.6890 -1.8156 -0.0102
 4797SOL    HW225851   3.408   2.195   0.905 -0.4165  0.8877  0.2500
 4798SOL     OW25852   1.722   0.623   3.512 -0.2964 -0.6661  0.3447
 4798SOL    HW125853   1.666   0.695   3.542 -0.7503 -0.1595 -1.6953
 4798SOL    HW225854   1.689   0.545   3.556  0.6399  0.2729  2.7108
 4799SOL     OW25855   0.844   2.077   6.775 -0.2855  0.6429 -0.5345
 4799SOL    HW125856   0.851   2.172   6.788  2.4759  0.4334 -0.5717
 4799SOL    HW225857   0.935   2.057   6.752 -1.2885 -0.4765 -3.5232
 4800SOL     OW25858   3.070   4.207   4.844  0.5944 -0.2811 -0.5253
 4800SOL    HW125859   2.991   4.153   4.852 -0.8480  1.4681 -2.9996
 4800SOL    HW225860   3.064   4.236   4.753 -0.3394 -2.2844 -1.1045
 4801SOL     OW25861   1.274   2.561   9.066  0.6634  0.1650  0.6517
 4801SOL    HW125862   1.251   2.469   9.075  1.3263  0.0589  1.3097
 4801SOL    HW225863   1.370   2.564   9.071  0.6661  1.1245  0.0172
 4802SOL     OW25864   4.497   1.596   7.997 -0.2148 -0.2923  0.1833
 4802SOL    HW125865   4.550   1.576   7.920  0.2318 -1.3488  0.7715
 4802SOL    HW225866   4.453   1.677   7.970 -1.8426 -0.7111  1.5683
 4803SOL     OW25867   3.824   2.203  11.687  0.4350 -0.3992  0.6688
 4803SOL    HW125868   3.766   2.278  11.700 -0.2043 -0.8613  0.4796
 4803SOL    HW225869   3.885   2.222  11.758  1.2316 -0.5814  0.0250
 4804SOL     OW25870   3.197   2.891   1.559 -0.0565 -0.4340 -0.1181
 4804SOL    HW125871   3.292   2.903   1.552 -0.1006  0.7581  1.3570
 4804SOL    HW225872   3.190   2.807   1.514  1.7358 -1.2156  1.0455
 4805SOL     OW25873   3.588   0.956   6.090 -0.1774 -0.1731 -0.1026
 4805SOL    HW125874   3.671   0.996   6.063 -0.7241  1.3673  0.4837
 4805SOL    HW225875   3.543   0.974   6.007  0.3538 -1.0383 -0.5815
 4806SOL     OW25876   1.144   2.892  13.249 -0.2673 -0.3472 -0.0361
 4806SOL    HW125877   1.157   2.985  13.269 -0.0043 -0.1315 -1.2241
 4806SOL    HW225878   1.221   2.857  13.294 -0.6035  0.0577  0.8594
 4807SOL     OW25879   3.747   0.110   3.511  0.2741  0.2370 -0.5358
 4807SOL    HW125880   3.824   0.166   3.510  1.8681 -2.0123 -2.3388
 4807SOL    HW225881   3.724   0.099   3.418 -0.6814  0.2815 -0.3096
 4808SOL     OW25882   3.405   1.630  11.787  0.5736  0.4126  0.8370
 4808SOL    HW125883   3.381   1.612  11.878 -0.9659  2.2129  0.7868
 4808SOL    HW225884   3.478   1.568  11.775  0.2268 -0.4057  3.0841
 4809SOL     OW25885   2.156   3.250  10.749  0.6677 -0.1967 -0.2375
 4809SOL    HW125886   2.061   3.263  10.757  0.4927 -2.2060  1.0257
 4809SOL    HW225887   2.183   3.325  10.801 -0.6384 -0.0702  0.2619
 4810SOL     OW25888   3.985   3.231   5.613  0.1168  0.2742 -0.3044
 4810SOL    HW125889   3.899   3.193   5.592  0.1885  0.5226 -1.0334
 4810SOL    HW225890   3.988   3.303   5.551 -1.0031  1.5748  1.1414
 4811SOL     OW25891   3.974   4.498   8.628  0.1019 -0.9185 -0.1268
 4811SOL    HW125892   3.954   4.541   8.711 -1.7855 -0.3105 -0.9070
 4811SOL    HW225893   4.057   4.544   8.614 -1.0202  0.9509 -0.5992
 4812SOL     OW25894   1.437   3.077   3.396 -0.1563  0.9667 -0.2493
 4812SOL    HW125895   1.376   3.027   3.342 -1.1672 -0.5089  2.2749
 4812SOL    HW225896   1.517   3.054   3.348 -0.6231  0.2918 -0.7018
 4813SOL     OW25897   2.379   2.482   3.251  0.1619 -0.2550 -0.3335
 4813SOL    HW125898   2.431   2.406   3.226  2.6336  0.1610  3.5083
 4813SOL    HW225899   2.454   2.532   3.284  0.8427 -1.5756  0.1278
 4814SOL     OW25900   0.665   1.602   6.920 -0.0411 -0.1219 -0.5021
 4814SOL    HW125901   0.716   1.533   6.878  0.3437  0.5634 -1.1499
 4814SOL    HW225902   0.698   1.594   7.009  1.5348 -1.0680 -1.1748
 4815SOL     OW25903   0.068   0.249  17.025 -0.3851  0.3074  0.1878
 4815SOL    HW125904   0.069   0.154  17.041 -0.5975  0.1006 -1.0414
 4815SOL    HW225905   0.163   0.261  17.028 -0.0203 -2.3818 -0.6849
 4816SOL     OW25906   1.438   1.276   6.981 -0.2124  0.0194  0.5494
 4816SOL    HW125907   1.489   1.357   6.984  0.2372 -0.3195  2.0420
 4816SOL    HW225908   1.350   1.312   6.978 -0.4215 -0.6235 -0.9060
 4817SOL     OW25909   0.127   3.217   5.925 -0.1733  1.0745 -0.2193
 4817SOL    HW125910   0.107   3.307   5.952  1.3867  0.3808  3.2584
 4817SOL    HW225911   0.062   3.189   5.861 -0.0326  0.1880  0.0263
 4818SOL     OW25912   0.272   2.660   1.254  0.4495 -0.0518  0.6134
 4818SOL    HW125913   0.204   2.594   1.268  1.0698 -1.0692 -1.1687
 4818SOL    HW225914   0.271   2.664   1.158 -0.7152 -2.2009  0.5364
 4819SOL     OW25915   2.966   3.012   7.189 -0.1611 -0.1044  0.1782
 4819SOL    HW125916   3.060   3.018   7.208 -0.0087 -3.9572  0.7143
 4819SOL    HW225917   2.944   3.104   7.199  0.4421  0.2213 -1.4722
 4820SOL     OW25918   4.117   2.756   3.276 -0.1620  0.8239 -0.2894
 4820SOL    HW125919   4.089   2.714   3.194 -2.1763  1.4678  0.0607
 4820SOL    HW225920   4.212   2.751   3.280 -0.2184 -0.2418 -0.5128
 4821SOL     OW25921   3.316   3.127   1.746  0.3051 -0.0739 -0.1512
 4821SOL    HW125922   3.362   3.045   1.766  1.3348  0.5946  0.1998
 4821SOL    HW225923   3.271   3.096   1.667  0.5843 -0.3481 -0.2019
 4822SOL     OW25924   2.041   2.802   7.645 -0.2112 -0.0769 -0.0709
 4822SOL    HW125925   2.021   2.767   7.559  0.9689 -2.1294  0.5097
 4822SOL    HW225926   2.122   2.848   7.620 -0.4089  0.6207  0.5669
 4823SOL     OW25927   1.603   0.998  11.036 -0.6472 -0.0614  0.6366
 4823SOL    HW125928   1.575   1.089  11.031 -1.2706 -0.3680 -1.5479
 4823SOL    HW225929   1.697   1.012  11.021 -0.8541 -1.2942 -1.7630
 4824SOL     OW25930   2.378   0.375  12.906  0.3086  0.0769 -0.1264
 4824SOL    HW125931   2.432   0.297  12.920  0.9732  0.4505 -0.5845
 4824SOL    HW225932   2.387   0.413  12.993  1.9409 -0.9955  0.1775
 4825SOL     OW25933   2.595   3.306   1.216  0.3050 -0.2953 -0.3277
 4825SOL    HW125934   2.652   3.233   1.242  1.9782  1.9783  2.3975
 4825SOL    HW225935   2.646   3.355   1.151 -2.8227  0.5938 -2.1200
 4826SOL     OW25936   1.599   3.898   4.828 -0.1146 -0.0572 -0.1204
 4826SOL    HW125937   1.557   3.923   4.745  0.4455  0.2026 -0.3241
 4826SOL    HW225938   1.557   3.955   4.892  0.4268 -1.9865  1.9630
 4827SOL     OW25939   2.888   1.070   1.156 -0.6951 -0.8553  0.2078
 4827SOL    HW125940   2.979   1.040   1.163  0.4832  3.0265  1.4848
 4827SOL    HW225941   2.845   1.009   1.096 -2.3888  1.6584 -1.1283
 4828SOL     OW25942   2.691   4.321   7.126  0.1409 -0.8112 -0.0950
 4828SOL    HW125943   2.728   4.366   7.202  0.3254  0.5538 -0.9947
 4828SOL    HW225944   2.604   4.360   7.135  1.5637  2.3243  0.3020
 4829SOL     OW25945   0.219   3.843   7.227 -0.0381  0.0410 -0.5698
 4829SOL    HW125946   0.140   3.803   7.265  0.7772  0.2325  1.3499
 4829SOL    HW225947   0.180   3.929   7.217  0.4589  0.3828  0.4215
 4830SOL     OW25948   2.200   1.894  11.772 -0.7431 -0.3065 -0.0037
 4830SOL    HW125949   2.181   1.861  11.860  1.9715 -2.0663 -0.0716
 4830SOL    HW225950   2.293   1.874  11.764 -1.3255 -1.9285 -2.8200
 4831SOL     OW25951   3.807   4.549  11.970  0.2308  0.1553 -0.2691
 4831SOL    HW125952   3.823   4.541  12.064  1.2834 -0.2832 -0.4800
 4831SOL    HW225953   3.842   4.636  11.952  0.4994  0.2406  0.6711
 4832SOL     OW25954   0.512   1.236   4.757  0.2669  0.3466 -0.0972
 4832SOL    HW125955   0.468   1.283   4.828  0.4819 -2.1645  1.7118
 4832SOL    HW225956   0.435   1.235   4.700  0.8192  0.2975 -0.8421
 4833SOL     OW25957   0.550   3.183  12.671  0.0662  0.6622  0.6473
 4833SOL    HW125958   0.553   3.157  12.579  2.6214  2.6541  0.1763
 4833SOL    HW225959   0.474   3.241  12.673 -1.4366 -1.2674  0.0318
 4834SOL     OW25960   0.794   3.088   7.699  0.0861 -0.4733 -0.6475
 4834SOL    HW125961   0.872   3.140   7.716  0.9427 -2.1491  0.5567
 4834SOL    HW225962   0.749   3.131   7.627 -1.9696  2.2343  2.2515
 4835SOL     OW25963   3.037   0.193   3.511 -0.5164 -0.5509  0.4222
 4835SOL    HW125964   3.082   0.163   3.433 -1.8089  0.0434 -0.5483
 4835SOL    HW225965   3.053   0.112   3.559 -0.8385  1.0886  3.3194
 4836SOL     OW25966   0.529   2.179   3.943 -0.4174  0.0467  0.3831
 4836SOL    HW125967   0.613   2.135   3.930 -0.6148 -0.1763 -0.1477
 4836SOL    HW225968   0.525   2.176   4.039 -2.1594  0.7050  0.3223
 4837SOL     OW25969   3.783   2.936   5.123 -0.7082 -0.6357 -0.2195
 4837SOL    HW125970   3.765   2.848   5.089 -0.0140 -0.5328 -0.8428
 4837SOL    HW225971   3.720   2.930   5.195 -1.9440  2.3991 -1.0354
 4838SOL     OW25972   3.356   2.013   0.161 -0.6457  1.2470  0.5876
 4838SOL    HW125973   3.444   1.980   0.178  1.4896  3.5777 -5.9456
 4838SOL    HW225974   3.306   1.935   0.187 -0.0207  0.6565  0.0207
 4839SOL     OW25975   1.855   2.508  12.769  0.1870  0.1880 -0.1659
 4839SOL    HW125976   1.829   2.416  12.773 -2.8729  1.0446  0.1009
 4839SOL    HW225977   1.944   2.501  12.801 -0.3449 -1.0476  1.0458
 4840SOL     OW25978   0.462   3.462   6.582 -0.2398 -0.2001  0.1850
 4840SOL    HW125979   0.408   3.521   6.634  1.5695 -0.2702  2.1080
 4840SOL    HW225980   0.489   3.393   6.642  1.7723  0.4481  0.0281
 4841SOL     OW25981   0.330   0.353   3.934 -0.4385  0.3937  0.4274
 4841SOL    HW125982   0.400   0.378   3.994 -0.9539  1.7559  0.4693
 4841SOL    HW225983   0.303   0.269   3.971 -0.2194  0.2967  0.3662
 4842SOL     OW25984   2.931   3.803  15.872  0.0732  0.0642  0.3959
 4842SOL    HW125985   2.992   3.847  15.813  0.7866  2.5522  2.9817
 4842SOL    HW225986   2.937   3.871  15.939 -1.1409 -0.8055  1.3954
 4843SOL     OW25987   1.200   1.844   4.099 -0.1673 -0.8731  0.0770
 4843SOL    HW125988   1.161   1.918   4.053  1.2187 -0.7278 -0.8689
 4843SOL    HW225989   1.124   1.821   4.152 -0.2934 -0.9065 -0.1170
 4844SOL     OW25990   1.387   0.329   8.574  0.5118 -0.0980  0.3505
 4844SOL    HW125991   1.358   0.413   8.609 -0.7758 -0.0312 -0.8963
 4844SOL    HW225992   1.319   0.271   8.609 -0.7701  1.2408  0.0669
 4845SOL     OW25993   0.273   0.585   0.721 -0.0474 -0.1881  0.2792
 4845SOL    HW125994   0.287   0.660   0.779 -0.6135 -1.6636  2.3071
 4845SOL    HW225995   0.189   0.561   0.760  0.5231  0.7175  2.0287
 4846SOL     OW25996   1.358   1.164   5.208  0.2948  0.4957 -0.1550
 4846SOL    HW125997   1.280   1.142   5.158 -0.6011  3.1728  0.0369
 4846SOL    HW225998   1.376   1.242   5.155 -1.7058 -1.0236 -3.0548
 4847SOL     OW25999   2.278   0.036   6.748  0.5510 -0.1612 -0.0973
 4847SOL    HW126000   2.202   4.719   6.704  0.7731  0.4733 -1.0478
 4847SOL    HW226001   2.336   0.061   6.676  0.3676  2.1228  0.5605
 4848SOL     OW26002   0.757   0.447   8.215  0.6534 -0.2659  0.6494
 4848SOL    HW126003   0.799   0.525   8.179  0.5334 -0.4647  0.0852
 4848SOL    HW226004   0.680   0.485   8.257  0.5619 -2.1250  2.1702
 4849SOL     OW26005   1.343   3.192  11.412  0.1771 -0.4379  0.1748
 4849SOL    HW126006   1.414   3.230  11.464 -0.6179 -1.8462  2.2664
 4849SOL    HW226007   1.360   3.225  11.324 -1.7229 -0.0666 -0.0613
 4850SOL     OW26008   0.340   0.676   5.134 -0.1140 -0.0540  0.6721
 4850SOL    HW126009   0.429   0.713   5.133 -0.7093  1.4825  3.0247
 4850SOL    HW226010   0.281   0.751   5.142 -0.6902 -0.3323 -0.9738
 4851SOL     OW26011   2.928   0.045   5.665  0.0458  0.0780  0.3189
 4851SOL    HW126012   2.993   4.697   5.663  1.1270  1.1262 -1.8993
 4851SOL    HW226013   2.891   0.030   5.752  1.2179  1.0395  0.9915
 4852SOL     OW26014   1.314   3.946   7.063  0.3168  0.4163  0.5938
 4852SOL    HW126015   1.384   3.932   7.126  0.6677  0.0819  0.1293
 4852SOL    HW226016   1.288   3.855   7.052  0.6500  0.3075  0.6886
 4853SOL     OW26017   3.741   1.482  10.509 -0.9538  0.4709  0.0106
 4853SOL    HW126018   3.833   1.473  10.530 -1.0715 -2.1158 -0.6315
 4853SOL    HW226019   3.707   1.393  10.510 -1.7820  0.7645 -0.8938
 4854SOL     OW26020   3.898   2.736  12.010 -0.1985  0.0674 -0.3995
 4854SOL    HW126021   3.861   2.648  12.012 -0.5146  0.1721 -2.0308
 4854SOL    HW226022   3.911   2.735  11.915 -1.5414 -0.8856 -0.5706
 4855SOL     OW26023   2.646   2.750   8.631 -0.0563  0.5229 -0.0168
 4855SOL    HW126024   2.607   2.664   8.641  0.3680  0.3503  0.1647
 4855SOL    HW226025   2.690   2.765   8.715 -0.1112  1.1224 -0.0964
 4856SOL     OW26026   1.768   0.588   8.217 -0.4868 -0.4771  0.1564
 4856SOL    HW126027   1.694   0.539   8.180  0.5653 -0.5061 -1.9418
 4856SOL    HW226028   1.829   0.602   8.145 -1.6152  0.6101 -0.5841
 4857SOL     OW26029   0.831   2.327   4.052 -0.4977  0.1890 -0.1764
 4857SOL    HW126030   0.882   2.396   4.094 -0.8540  1.5047 -1.9179
 4857SOL    HW226031   0.766   2.300   4.117 -0.5783 -1.4788 -0.9528
 4858SOL     OW26032   1.721   1.780  17.446 -0.1685 -0.6540  0.0466
 4858SOL    HW126033   1.646   1.805  17.499 -0.8211 -2.1926 -0.1443
 4858SOL    HW226034   1.765   1.726  17.511  1.6227 -0.4282 -0.9597
 4859SOL     OW26035   3.937   1.584   6.544 -0.1617 -0.2295  0.0969
 4859SOL    HW126036   3.882   1.626   6.477  0.5933  0.4886 -0.0624
 4859SOL    HW226037   4.023   1.621   6.526 -0.6913  1.4863  1.0980
 4860SOL     OW26038   1.123   3.082   7.006  0.3807 -0.7932  0.2270
 4860SOL    HW126039   1.084   3.160   6.968  2.1499 -0.9201 -1.8318
 4860SOL    HW226040   1.155   3.118   7.089  0.5769 -0.6502  0.0865
 4861SOL     OW26041   4.314   1.363   0.663  0.2906  0.0772 -0.2791
 4861SOL    HW126042   4.298   1.335   0.573  0.4737 -0.5788 -0.1096
 4861SOL    HW226043   4.303   1.276   0.702 -0.5811  0.8077  1.1217
 4862SOL     OW26044   0.953   0.992  10.084  0.1156  0.1849  0.3345
 4862SOL    HW126045   0.976   1.033  10.167  3.4585  0.1033 -0.5648
 4862SOL    HW226046   0.889   0.925  10.110 -1.9411  1.1805 -2.2020
 4863SOL     OW26047   3.992   1.391  14.207 -0.2612 -0.0041  0.2866
 4863SOL    HW126048   4.065   1.393  14.145 -0.1421 -0.8609  0.3986
 4863SOL    HW226049   3.968   1.479  14.237 -0.2800 -0.2660  1.0374
 4864SOL     OW26050   3.516   2.048   1.724  0.2866  0.3507 -0.0951
 4864SOL    HW126051   3.432   2.018   1.689  0.9923 -0.9456 -0.6697
 4864SOL    HW226052   3.519   2.008   1.811  1.2111 -0.4377 -0.4854
 4865SOL     OW26053   0.161   1.837   0.124  0.3451 -0.6799  0.2888
 4865SOL    HW126054   0.194   1.760   0.079 -0.0781 -1.8635  2.0089
 4865SOL    HW226055   0.122   1.884   0.050  0.8186 -1.1552 -0.2551
 4866SOL     OW26056   4.116   4.064  11.443  0.2534  0.5052  0.3938
 4866SOL    HW126057   4.021   4.055  11.438  0.3359 -1.5044  2.5373
 4866SOL    HW226058   4.136   3.974  11.468  1.1544  0.4013 -0.7489
 4867SOL     OW26059   0.483   3.681  16.200 -0.1164  0.2457  0.3785
 4867SOL    HW126060   0.405   3.707  16.151 -1.0085 -0.1334  1.6130
 4867SOL    HW226061   0.531   3.764  16.201 -1.8596  1.2638 -0.3143
 4868SOL     OW26062   4.636   0.292  14.809 -0.0346 -0.0982 -0.2023
 4868SOL    HW126063   4.633   0.211  14.758 -1.2239  1.0588 -1.9874
 4868SOL    HW226064   4.661   0.352  14.739 -0.5519  0.4066  0.0444
 4869SOL     OW26065   2.041   1.535   7.348  0.0942 -0.2061  0.2698
 4869SOL    HW126066   2.088   1.575   7.421 -0.0090 -1.3633  0.9678
 4869SOL    HW226067   2.040   1.602   7.279  2.6132 -0.7970 -0.3445
 4870SOL     OW26068   0.237   0.147   6.338 -0.4387 -0.5894  0.8698
 4870SOL    HW126069   0.150   0.169   6.371 -0.1106  0.0119  1.3285
 4870SOL    HW226070   0.280   0.232   6.350 -1.9933  0.0101  2.1171
 4871SOL     OW26071   2.931   2.398  11.341 -0.3800  0.5804 -0.8494
 4871SOL    HW126072   2.947   2.369  11.431 -1.1695 -1.4360 -1.3491
 4871SOL    HW226073   2.886   2.481  11.354 -1.1967 -0.2416  1.4974
 4872SOL     OW26074   0.784   2.022   5.036  0.3298  0.2950  0.7527
 4872SOL    HW126075   0.801   1.999   4.944  0.6617  2.9470  0.1505
 4872SOL    HW226076   0.794   1.934   5.074  0.1242 -0.3603 -0.6937
 4873SOL     OW26077   2.159   1.399   9.202  0.0644  0.1586  0.3987
 4873SOL    HW126078   2.188   1.490   9.215 -1.1639  0.3263  2.0379
 4873SOL    HW226079   2.204   1.351   9.271  0.1752 -0.2140  0.0640
 4874SOL     OW26080   0.782   0.482  10.205 -0.0210 -0.1611 -0.3667
 4874SOL    HW126081   0.866   0.447  10.235  0.2766  1.5376  0.7999
 4874SOL    HW226082   0.741   0.502  10.289  0.1625 -0.8213 -0.1189
 4875SOL     OW26083   3.620   0.141   9.643  0.6722 -0.7617  0.8323
 4875SOL    HW126084   3.639   0.098   9.560 -0.7562  1.7164 -0.7995
 4875SOL    HW226085   3.655   0.228   9.622  1.4935 -1.2015  0.3716
 4876SOL     OW26086   3.018   0.608   5.512  0.5082  0.4524  0.1025
 4876SOL    HW126087   3.108   0.580   5.529  0.0887  0.1173  1.8166
 4876SOL    HW226088   2.962   0.534   5.537  3.3635 -1.3435  1.0881
 4877SOL     OW26089   0.120   1.693   2.345 -0.0766  0.2388  0.0159
 4877SOL    HW126090   0.040   1.650   2.377  1.4961 -1.0257  2.2286
 4877SOL    HW226091   0.119   1.761   2.412 -0.4627 -0.1742  0.4320
 4878SOL     OW26092   4.213   4.256  10.711 -0.3991 -0.1816  0.1191
 4878SOL    HW126093   4.143   4.240  10.775 -0.9312  0.7831 -0.2121
 4878SOL    HW226094   4.292   4.275  10.761  1.1954  1.0774 -2.9043
 4879SOL     OW26095   2.280   3.414  17.115 -0.3931  0.0181  0.1667
 4879SOL    HW126096   2.206   3.452  17.069  0.0039  0.0229 -0.4694
 4879SOL    HW226097   2.253   3.420  17.206  2.1800  0.2105  0.9347
 4880SOL     OW26098   0.752   2.283   3.336  0.2873  0.1523  0.1671
 4880SOL    HW126099   0.792   2.353   3.285  0.3697 -0.4358 -0.5739
 4880SOL    HW226100   0.759   2.225   3.260 -1.7459 -0.0953  0.1804
 4881SOL     OW26101   4.201   4.613   8.539 -0.2488 -0.8548 -0.0325
 4881SOL    HW126102   4.184   4.706   8.523  0.6255 -1.0293 -2.0211
 4881SOL    HW226103   4.237   4.592   8.453 -1.2054  2.4364 -1.2476
 4882SOL     OW26104   4.532   4.091  15.562  0.4859 -0.2297  0.6016
 4882SOL    HW126105   4.480   4.011  15.564 -0.5095  0.4634  1.7802
 4882SOL    HW226106   4.465   4.155  15.584  0.3460 -0.1807  0.0482
 4883SOL     OW26107   3.958   1.591   8.981 -0.6992  0.3128 -0.9873
 4883SOL    HW126108   3.916   1.597   9.067  3.4713 -1.8252  1.1922
 4883SOL    HW226109   3.906   1.661   8.941 -0.8097 -1.0192 -3.1466
 4884SOL     OW26110   0.132   0.446   8.705  0.0909 -0.1893  0.0604
 4884SOL    HW126111   0.212   0.399   8.681  2.1865  3.7512 -0.5014
 4884SOL    HW226112   0.088   0.385   8.765  1.4795  0.5926  1.8751
 4885SOL     OW26113   2.488   2.971   8.677 -0.2955  0.1281 -0.3792
 4885SOL    HW126114   2.554   3.013   8.621  0.7060 -0.3231  0.4604
 4885SOL    HW226115   2.526   2.883   8.680 -0.0295  0.2296 -0.7315
 4886SOL     OW26116   3.304   0.606  16.424 -0.1646 -0.1918  0.2081
 4886SOL    HW126117   3.385   0.601  16.372 -0.6780  3.0371 -0.9262
 4886SOL    HW226118   3.258   0.526  16.399  0.2038 -0.1671 -0.5638
 4887SOL     OW26119   3.647   1.038  17.659 -0.2373  0.5013 -0.5815
 4887SOL    HW126120   3.635   0.969   0.031  1.3403 -1.0681 -1.9201
 4887SOL    HW226121   3.633   0.991  17.577  1.6809 -0.6540 -0.2585
 4888SOL     OW26122   1.813   0.961   3.473 -0.3503 -0.4278 -0.2235
 4888SOL    HW126123   1.850   1.049   3.467  0.8076 -0.8938  0.0668
 4888SOL    HW226124   1.722   0.983   3.494 -0.3212 -0.3048 -0.2288
 4889SOL     OW26125   4.074   0.974  12.580 -0.2329  0.4180  0.6095
 4889SOL    HW126126   4.100   1.012  12.664  2.0577  1.2365 -0.4869
 4889SOL    HW226127   3.982   0.957  12.602  0.0299 -1.2703  0.3548
 4890SOL     OW26128   3.718   3.550   7.814  0.3062 -0.5078 -0.0582
 4890SOL    HW126129   3.809   3.523   7.802  0.4374  0.3768 -1.1268
 4890SOL    HW226130   3.679   3.475   7.857 -0.0947  0.3923  1.1369
 4891SOL     OW26131   2.638   1.611   2.726 -0.3131  0.2258 -0.7491
 4891SOL    HW126132   2.639   1.689   2.671 -0.9485  1.1048  0.4909
 4891SOL    HW226133   2.714   1.559   2.700 -1.9890 -1.0158 -3.2436
 4892SOL     OW26134   3.856   4.147   4.716 -0.6095 -0.4846 -0.0966
 4892SOL    HW126135   3.816   4.221   4.761  1.1229  0.4763 -0.1478
 4892SOL    HW226136   3.862   4.180   4.627  0.8699 -1.1449 -0.2514
 4893SOL     OW26137   1.420   3.712   8.853  0.3877 -0.0695 -0.1111
 4893SOL    HW126138   1.390   3.763   8.778  0.0312  0.8198  0.6242
 4893SOL    HW226139   1.514   3.727   8.837  0.2568 -0.3045 -1.1034
 4894SOL     OW26140   1.535   3.399  16.703  0.0185 -0.2337 -0.9205
 4894SOL    HW126141   1.465   3.442  16.653 -0.1915 -0.0712 -0.4851
 4894SOL    HW226142   1.612   3.434  16.659 -0.9626 -1.0027 -3.2861
 4895SOL     OW26143   3.493   0.434   7.034 -0.2836  0.3950  0.6036
 4895SOL    HW126144   3.413   0.411   6.986  0.2169 -2.6689  1.2872
 4895SOL    HW226145   3.537   0.490   6.970  0.1548  0.8249  1.2883
 4896SOL     OW26146   3.489   1.468   2.254 -0.0691 -0.1773  0.2025
 4896SOL    HW126147   3.434   1.423   2.319  1.9283 -1.0043  1.3372
 4896SOL    HW226148   3.540   1.531   2.305  0.0413 -0.3168  0.2651
 4897SOL     OW26149   2.539   2.043   8.286 -0.1571  0.3899 -0.0150
 4897SOL    HW126150   2.495   1.967   8.323 -2.6673  1.3379 -1.0519
 4897SOL    HW226151   2.488   2.113   8.327 -0.4437 -1.2583  2.4412
 4898SOL     OW26152   3.597   0.205   3.759  0.2030 -0.3054  0.2764
 4898SOL    HW126153   3.523   0.246   3.716  0.7121  0.0221 -0.2868
 4898SOL    HW226154   3.648   0.186   3.680 -0.0947 -0.2707  0.0795
 4899SOL     OW26155   0.720   1.220   6.568  0.3196 -0.0263  0.2499
 4899SOL    HW126156   0.650   1.271   6.527  0.3551 -0.3952 -0.2724
 4899SOL    HW226157   0.743   1.162   6.495  2.3829  1.9295 -0.6634
 4900SOL     OW26158   3.667   4.303   9.350 -0.6492 -0.7058  0.0889
 4900SOL    HW126159   3.759   4.277   9.356  0.3641  2.9287  0.1702
 4900SOL    HW226160   3.653   4.313   9.444 -0.1818 -0.6084  0.1465
 4901SOL     OW26161   0.394   2.657   7.882 -0.1725  0.0650 -0.1944
 4901SOL    HW126162   0.479   2.669   7.839  0.3046 -0.0134  0.7250
 4901SOL    HW226163   0.416   2.692   7.968 -3.4763  2.8817 -0.5178
 4902SOL     OW26164   4.325   4.406   0.304  0.1005 -0.9817 -0.2458
 4902SOL    HW126165   4.326   4.423   0.398  0.4418  0.3720 -0.4912
 4902SOL    HW226166   4.413   4.369   0.300  0.0513 -1.1449  0.1911
 4903SOL     OW26167   3.354   1.229   5.598 -0.4157 -0.0928  0.2104
 4903SOL    HW126168   3.311   1.145   5.588  3.7262 -1.9911 -1.5279
 4903SOL    HW226169   3.357   1.239   5.694  1.0303 -0.3231  0.1976
 4904SOL     OW26170   3.037   3.676   4.638  0.2611  0.6222 -0.8163
 4904SOL    HW126171   3.002   3.655   4.725 -2.7914  0.7092 -2.0296
 4904SOL    HW226172   3.125   3.707   4.657  0.5786 -0.5540 -0.4094
 4905SOL     OW26173   2.984   0.426   6.373  0.4986  0.0762  0.4551
 4905SOL    HW126174   2.900   0.444   6.330  0.8887 -0.5475 -0.5882
 4905SOL    HW226175   3.040   0.465   6.306  0.7273 -0.9381  0.0438
 4906SOL     OW26176   0.272   1.945   8.670 -0.3430 -0.4754  0.5095
 4906SOL    HW126177   0.285   2.039   8.681 -0.9254 -0.2237 -1.0881
 4906SOL    HW226178   0.183   1.945   8.635 -0.2394  2.0062  0.2486
 4907SOL     OW26179   1.313   0.665   8.045 -0.4388  0.1258  0.4674
 4907SOL    HW126180   1.223   0.635   8.050 -0.5136 -0.0737 -2.4226
 4907SOL    HW226181   1.339   0.614   7.969 -0.3172  3.6613 -1.8824
 4908SOL     OW26182   3.237   1.745   6.002 -0.6615  0.1807  0.9231
 4908SOL    HW126183   3.193   1.692   6.069 -1.4994 -1.0822 -0.6143
 4908SOL    HW226184   3.279   1.809   6.059 -0.1439  1.5441 -0.9921
 4909SOL     OW26185   3.589   0.340  10.219  0.1084 -0.4752  0.1470
 4909SOL    HW126186   3.632   0.422  10.197 -0.2281 -0.8856 -2.0265
 4909SOL    HW226187   3.628   0.307  10.300 -0.3069  0.8650  0.8933
 4910SOL     OW26188   1.738   0.482   3.268 -0.3429  0.4736  0.0900
 4910SOL    HW126189   1.747   0.523   3.354 -1.3042  1.5116 -0.3049
 4910SOL    HW226190   1.819   0.503   3.221 -0.6306  0.6485 -0.3316
 4911SOL     OW26191   0.868   4.699   7.801 -0.6752 -0.4871 -0.2298
 4911SOL    HW126192   0.848   4.690   7.894 -0.1407  0.2963 -0.0358
 4911SOL    HW226193   0.949   4.648   7.793  1.3703  2.3748  2.3032
 4912SOL     OW26194   4.320   0.425  16.093  0.1995  0.4310 -0.1042
 4912SOL    HW126195   4.276   0.413  16.008  1.7722 -0.9843 -0.7170
 4912SOL    HW226196   4.303   0.514  16.123 -3.4776  0.1102 -1.2377
 4913SOL     OW26197   1.926   2.369   3.240 -0.2001 -0.2882 -0.3131
 4913SOL    HW126198   1.856   2.304   3.246 -2.4494  2.2093  0.6154
 4913SOL    HW226199   1.955   2.375   3.149 -0.5649 -2.6370 -0.5850
 4914SOL     OW26200   1.000   2.168   4.428 -0.0285  0.3216 -0.3114
 4914SOL    HW126201   1.016   2.262   4.437 -0.7619  0.1392  2.7492
 4914SOL    HW226202   1.056   2.151   4.352  0.4234  2.2699 -0.4232
 4915SOL     OW26203   1.205   0.800  10.880 -0.5055  0.0830 -0.5252
 4915SOL    HW126204   1.294   0.778  10.853  0.1276  1.1225  0.7138
 4915SOL    HW226205   1.213   0.840  10.966  2.3620 -1.3405 -0.1464
 4916SOL     OW26206   1.081   1.227  10.961  0.0785  0.0730 -0.6670
 4916SOL    HW126207   1.033   1.186  11.033 -1.2834  1.5383 -0.7385
 4916SOL    HW226208   1.173   1.216  10.982  0.0389  0.4921 -0.2618
 4917SOL     OW26209   2.207   0.104  12.060 -0.6560  0.2894 -0.0220
 4917SOL    HW126210   2.212   0.192  12.096  2.2283  1.1327 -2.5102
 4917SOL    HW226211   2.233   0.127  11.971 -2.3071 -0.8116 -0.8020
 4918SOL     OW26212   1.066   4.407   5.075  0.3073 -0.0189 -0.2909
 4918SOL    HW126213   0.982   4.379   5.111  1.1492 -0.8733  1.0364
 4918SOL    HW226214   1.123   4.385   5.148 -0.6609  1.8417  1.0260
 4919SOL     OW26215   3.378   4.279   4.471 -0.2477 -0.5242 -0.4551
 4919SOL    HW126216   3.435   4.222   4.522 -0.5054 -0.2979  0.0931
 4919SOL    HW226217   3.412   4.253   4.386  2.3754  2.6900 -0.4008
 4920SOL     OW26218   3.285   1.588  10.925 -0.3807  0.3607  0.5013
 4920SOL    HW126219   3.300   1.499  10.957  0.4352  0.7923  1.3099
 4920SOL    HW226220   3.322   1.640  10.997 -0.0701  1.1648 -0.2394
 4921SOL     OW26221   1.273   0.326   6.112 -0.7316 -0.1700 -0.6160
 4921SOL    HW126222   1.200   0.276   6.075  0.1604  0.4091 -3.2123
 4921SOL    HW226223   1.354   0.283   6.086 -0.1165  1.6010 -1.7085
 4922SOL     OW26224   3.221   0.026  13.236 -0.0820 -0.1508 -0.4481
 4922SOL    HW126225   3.248   4.721  13.149 -2.1148 -0.3416 -1.0293
 4922SOL    HW226226   3.284   4.701  13.289  0.2709 -2.3151 -2.8101
 4923SOL     OW26227   1.797   0.302  12.447 -0.3911  0.2872 -0.0559
 4923SOL    HW126228   1.723   0.363  12.439 -0.1527  0.8834  2.1716
 4923SOL    HW226229   1.745   0.223  12.441 -0.5370  0.2368  1.8938
 4924SOL     OW26230   0.915   1.901  13.415 -0.1665  0.2027 -0.1924
 4924SOL    HW126231   0.894   1.987  13.377  0.9290  0.3558 -0.4548
 4924SOL    HW226232   0.957   1.866  13.336  1.2212  3.5295 -0.9313
 4925SOL     OW26233   0.611   1.771   6.493  0.1843  0.2579  0.0681
 4925SOL    HW126234   0.540   1.725   6.538 -0.2878  1.7551  0.8326
 4925SOL    HW226235   0.560   1.813   6.424 -0.8036 -1.9292 -0.5333
 4926SOL     OW26236   0.677   0.779   4.514 -0.4625 -0.4359  0.6736
 4926SOL    HW126237   0.602   0.833   4.488 -0.0799  0.2982  1.0772
 4926SOL    HW226238   0.743   0.837   4.478 -0.3772 -0.5177  0.6983
 4927SOL     OW26239   1.811   2.241   8.694  0.2952  0.5762 -0.7980
 4927SOL    HW126240   1.839   2.267   8.781 -0.6700 -0.0540 -0.3034
 4927SOL    HW226241   1.748   2.305   8.659  0.9179  1.2868 -0.6207
 4928SOL     OW26242   2.420   0.030   9.321 -0.2078 -0.4456 -0.0702
 4928SOL    HW126243   2.392   4.699   9.247  0.3395 -0.2200 -0.4397
 4928SOL    HW226244   2.421   0.114   9.274 -1.0922  1.5918  3.6004
 4929SOL     OW26245   2.217   4.201   3.904 -0.1581  0.1741  0.2364
 4929SOL    HW126246   2.132   4.193   3.861  0.6460  1.6426 -1.6193
 4929SOL    HW226247   2.241   4.109   3.904  2.3956  0.8349 -1.5125
 4930SOL     OW26248   0.977   2.148   8.749 -0.6012  0.6672  0.1435
 4930SOL    HW126249   0.915   2.221   8.740 -1.7773 -0.3076  0.3602
 4930SOL    HW226250   0.979   2.109   8.662  0.8606  0.6282  0.1854
 4931SOL     OW26251   2.710   3.539  14.488  0.0768 -0.2361 -0.1363
 4931SOL    HW126252   2.720   3.462  14.431 -0.7537 -1.7115  1.6869
 4931SOL    HW226253   2.713   3.501  14.576  0.1441 -2.3660 -1.0503
 4932SOL     OW26254   1.691   0.417   5.723  0.0150 -0.0068 -0.4683
 4932SOL    HW126255   1.684   0.441   5.816  2.8699  1.1906 -0.5552
 4932SOL    HW226256   1.655   0.492   5.677 -3.0189 -0.8233  0.5945
 4933SOL     OW26257   0.972   2.467   7.334  0.2012  0.0123 -0.2253
 4933SOL    HW126258   0.998   2.531   7.268  0.7785  0.2851  0.2639
 4933SOL    HW226259   0.925   2.530   7.388 -0.1717 -1.7059  1.4739
 4934SOL     OW26260   3.326   3.541   1.533  0.3223 -0.6312 -0.3781
 4934SOL    HW126261   3.337   3.613   1.595 -0.1417 -0.1057 -0.9067
 4934SOL    HW226262   3.363   3.486   1.602  0.7763 -0.0950 -0.1929
 4935SOL     OW26263   0.021   4.350   4.825  0.0125 -0.0934  0.0337
 4935SOL    HW126264   4.694   4.270   4.842  1.0329 -0.9436 -1.0277
 4935SOL    HW226265   0.089   4.320   4.766 -0.4588 -0.3406 -0.3814
 4936SOL     OW26266   1.207   2.930  10.028  0.1129 -0.1392 -0.0482
 4936SOL    HW126267   1.288   2.898  10.067 -0.7684 -1.8412  0.3754
 4936SOL    HW226268   1.141   2.904  10.092  0.0114 -1.4442 -0.6817
 4937SOL     OW26269   2.977   0.531   7.267  0.4643 -0.1878  0.2300
 4937SOL    HW126270   3.058   0.481   7.256  1.5469  1.9367 -1.2980
 4937SOL    HW226271   3.022   0.608   7.302 -0.3424 -0.2412  1.4125
 4938SOL     OW26272   0.782   1.448   6.755  0.8291  0.2722 -0.1328
 4938SOL    HW126273   0.860   1.392   6.752 -0.3587 -1.4545  1.3486
 4938SOL    HW226274   0.733   1.405   6.685  1.9170  0.5948 -1.0891
 4939SOL     OW26275   2.371   0.335   3.621  0.9444  0.7335  0.3156
 4939SOL    HW126276   2.362   0.335   3.526  2.3252  0.0835  0.1942
 4939SOL    HW226277   2.337   0.422   3.642  1.7034  0.9427  0.6644
 4940SOL     OW26278   1.220   3.187  11.051  0.1383 -0.0064  0.3723
 4940SOL    HW126279   1.219   3.271  11.005  0.2003  0.4075  1.1188
 4940SOL    HW226280   1.211   3.124  10.980 -1.5220  0.5355  0.1066
 4941SOL     OW26281   2.314   0.757  10.207 -0.1759  0.0882 -0.3475
 4941SOL    HW126282   2.297   0.831  10.149 -2.1392  1.7762  2.3884
 4941SOL    HW226283   2.348   0.693  10.145 -2.2996  0.0384 -1.4487
 4942SOL     OW26284   4.499   2.299   7.843 -0.7733  0.1319 -0.0066
 4942SOL    HW126285   4.451   2.300   7.925 -1.0439 -2.3776 -0.1194
 4942SOL    HW226286   4.436   2.355   7.798 -1.2388  1.2058  2.0215
 4943SOL     OW26287   2.725   2.308   2.248 -0.1536 -0.3807  0.0410
 4943SOL    HW126288   2.656   2.346   2.193 -2.7055 -1.9394  2.0989
 4943SOL    HW226289   2.801   2.301   2.191 -1.1021 -0.6308 -1.1827
 4944SOL     OW26290   0.022   2.991   1.845 -0.7817 -0.1788 -0.0451
 4944SOL    HW126291   0.034   2.941   1.764 -1.1524  0.2914 -0.3881
 4944SOL    HW226292   0.079   3.063   1.820  0.0598 -0.2806  1.5820
 4945SOL     OW26293   0.901   3.983   1.306  0.8305  0.1756  0.9414
 4945SOL    HW126294   0.991   3.958   1.285  0.2782 -1.6578  0.7472
 4945SOL    HW226295   0.921   4.076   1.317  2.3216 -0.3325  2.5082
 4946SOL     OW26296   1.872   4.692   1.238  0.0750 -0.1882  0.0933
 4946SOL    HW126297   1.879   4.703   1.332  0.2407 -0.2863  0.0930
 4946SOL    HW226298   1.780   4.707   1.217  0.3226 -0.2914 -1.1071
 4947SOL     OW26299   3.461   4.011  10.951 -0.3947 -0.2710  0.2616
 4947SOL    HW126300   3.378   4.035  10.910  1.0591  0.7767 -2.1028
 4947SOL    HW226301   3.457   3.917  10.937  0.9846 -0.0431 -1.6638
 4948SOL     OW26302   1.355   1.090   4.022  0.2394 -0.4976  0.4485
 4948SOL    HW126303   1.297   1.047   4.085  1.9842 -1.4975  1.3897
 4948SOL    HW226304   1.393   1.163   4.071 -1.6856 -1.8067  3.8639
 4949SOL     OW26305   4.353   1.096  11.472 -0.1932 -0.5014  0.4907
 4949SOL    HW126306   4.292   1.083  11.544 -1.6030 -1.3151 -0.8453
 4949SOL    HW226307   4.424   1.140  11.519 -0.7640  1.3284 -0.3770
 4950SOL     OW26308   1.616   1.114   8.730  0.3192  0.0945 -0.1245
 4950SOL    HW126309   1.657   1.168   8.662  0.5046 -0.7009 -0.6475
 4950SOL    HW226310   1.661   1.030   8.721 -0.0538 -0.1425  0.2305
 4951SOL     OW26311   4.200   1.078  12.366  0.4141  0.1650  0.6911
 4951SOL    HW126312   4.181   1.166  12.397 -2.6189 -0.7674  1.5295
 4951SOL    HW226313   4.179   1.032  12.447 -0.6806 -0.0282  0.2999
 4952SOL     OW26314   4.546   3.278  10.117 -0.7643 -0.3259 -0.2671
 4952SOL    HW126315   4.482   3.335  10.075  0.7112  0.5598 -1.3132
 4952SOL    HW226316   4.630   3.325  10.122 -1.5749  1.1767 -0.9612
 4953SOL     OW26317   0.619   3.487   6.886 -0.1635 -0.4691  0.0548
 4953SOL    HW126318   0.653   3.555   6.828 -1.8133  0.4999  0.2309
 4953SOL    HW226319   0.638   3.528   6.971  2.0855  0.2987 -0.8019
 4954SOL     OW26320   0.887   2.127   2.490 -0.0859  0.2778  0.1509
 4954SOL    HW126321   0.848   2.213   2.506  0.0340  0.3902 -0.1418
 4954SOL    HW226322   0.973   2.150   2.524  0.9796 -0.2467 -2.1481
 4955SOL     OW26323   0.068   2.631   6.599 -0.3109  0.3919 -0.3844
 4955SOL    HW126324   0.123   2.706   6.624 -0.7662  0.4750  0.3958
 4955SOL    HW226325   4.717   2.690   6.581 -0.4140  0.3846  0.0081
 4956SOL     OW26326   0.346   1.128   5.630 -0.2847  0.4037 -0.2339
 4956SOL    HW126327   0.427   1.117   5.580 -0.7015 -1.3316 -0.5290
 4956SOL    HW226328   0.308   1.197   5.576 -1.5719  0.4359  0.7354
 4957SOL     OW26329   3.977   3.967  10.477  0.2203  0.5291  0.0260
 4957SOL    HW126330   3.918   3.977  10.552 -0.0979 -0.6019 -0.0692
 4957SOL    HW226331   3.987   4.061  10.466  0.4643  0.7252  1.8976
 4958SOL     OW26332   2.965   2.359   6.884 -0.5596  0.2252 -0.2807
 4958SOL    HW126333   2.936   2.444   6.852  0.7179  0.0635 -1.8909
 4958SOL    HW226334   3.037   2.334   6.825  0.4362 -0.2772  1.1367
 4959SOL     OW26335   0.272   1.202  15.322  0.4018 -0.4967  0.9106
 4959SOL    HW126336   0.329   1.278  15.323 -0.5375  0.2491 -1.3953
 4959SOL    HW226337   0.330   1.151  15.265 -1.8193 -1.5130 -0.4749
 4960SOL     OW26338   2.209   3.492   3.079  0.1403 -0.4496  0.3952
 4960SOL    HW126339   2.265   3.529   3.147  1.3456 -1.7496  0.1059
 4960SOL    HW226340   2.194   3.565   3.019  0.6024 -0.4095  0.3310
 4961SOL     OW26341   2.839   0.726   0.712 -0.2277 -0.2529 -0.0015
 4961SOL    HW126342   2.845   0.819   0.691 -1.6366 -0.4259 -1.1572
 4961SOL    HW226343   2.878   0.686   0.634 -0.4423 -1.2701  0.4151
 4962SOL     OW26344   4.590   3.170   2.519 -0.0664  0.1074 -0.1607
 4962SOL    HW126345   4.618   3.085   2.486 -0.2587  0.4868 -1.2978
 4962SOL    HW226346   4.657   3.225   2.477 -0.6688  2.3630  1.8298
 4963SOL     OW26347   1.302   3.402  10.905  0.2984 -0.3536 -0.0389
 4963SOL    HW126348   1.390   3.368  10.923 -0.6746 -1.1578  3.2500
 4963SOL    HW226349   1.308   3.434  10.815  0.5140 -0.6507 -0.1310
 4964SOL     OW26350   1.102   0.959  13.354  0.0164 -0.3172  0.0541
 4964SOL    HW126351   1.024   0.972  13.409 -1.3270  1.7571 -2.3127
 4964SOL    HW226352   1.113   1.047  13.317 -1.0080  0.0551  0.6144
 4965SOL     OW26353   4.565   1.602  11.980 -0.8783  0.0255 -0.0458
 4965SOL    HW126354   4.523   1.657  12.045  0.7536  1.7846 -0.4961
 4965SOL    HW226355   4.536   1.653  11.904 -0.4059 -0.0866 -0.2998
 4966SOL     OW26356   3.280   3.153   9.094  0.1762 -0.1037  0.5946
 4966SOL    HW126357   3.207   3.096   9.069 -0.7735  0.2814  2.5147
 4966SOL    HW226358   3.247   3.239   9.070  1.1549  0.3085  0.7161
 4967SOL     OW26359   2.996   2.572   2.244 -0.5449 -0.4920 -0.1268
 4967SOL    HW126360   3.047   2.495   2.217 -1.4566 -0.4602 -1.8847
 4967SOL    HW226361   3.070   2.628   2.268 -0.3863  0.2751 -2.4435
 4968SOL     OW26362   0.884   2.473   3.137  0.3085  0.3361 -0.5796
 4968SOL    HW126363   0.896   2.549   3.194  0.5453  0.4031 -0.7239
 4968SOL    HW226364   0.949   2.494   3.070  2.5483 -0.2956  1.3892
 4969SOL     OW26365   2.816   3.568   6.184  0.4071 -0.2170  0.6602
 4969SOL    HW126366   2.882   3.531   6.126 -1.8762  0.6375 -2.4874
 4969SOL    HW226367   2.853   3.646   6.225  0.1925 -1.0982  2.5699
 4970SOL     OW26368   0.857   1.169  13.988  0.3517  0.7557  0.1621
 4970SOL    HW126369   0.779   1.224  13.975  0.1189  0.2709 -0.4809
 4970SOL    HW226370   0.921   1.239  13.974 -0.8054  1.6548 -0.6674
 4971SOL     OW26371   3.988   4.293  16.821 -0.1015  0.6076  0.1874
 4971SOL    HW126372   3.934   4.276  16.743  0.5861  0.9497 -0.3694
 4971SOL    HW226373   3.949   4.226  16.877 -0.0469  0.3312 -0.0991
 4972SOL     OW26374   0.840   0.099   5.978  0.4412  0.3660 -0.4576
 4972SOL    HW126375   0.757   0.121   6.021 -0.0280 -2.8612  0.2534
 4972SOL    HW226376   0.851   0.007   6.004 -0.2974  0.1190 -1.0331
 4973SOL     OW26377   1.941   2.028   3.984  0.0846 -0.4993 -0.2431
 4973SOL    HW126378   1.985   2.097   3.934 -0.8442  0.1400 -0.1848
 4973SOL    HW226379   1.881   2.089   4.027  0.7161  1.7701 -2.5905
 4974SOL     OW26380   1.187   2.343   8.731  0.1867 -0.1676  0.2031
 4974SOL    HW126381   1.144   2.429   8.733 -1.0943 -0.8935  3.5304
 4974SOL    HW226382   1.130   2.285   8.780 -0.5602  0.6052  0.2576
 4975SOL     OW26383   2.411   2.752   6.534 -0.2498  0.3782 -0.2871
 4975SOL    HW126384   2.342   2.777   6.472 -1.1480 -2.7186 -0.5699
 4975SOL    HW226385   2.485   2.809   6.515  0.4922 -1.1625 -1.9777
 4976SOL     OW26386   4.618   2.494   8.277 -0.0022 -0.6278 -1.0398
 4976SOL    HW126387   4.560   2.516   8.350 -0.0031  3.4269 -2.2747
 4976SOL    HW226388   4.697   2.540   8.307  0.9771 -3.0470  0.1097
 4977SOL     OW26389   1.485   2.685   8.042 -0.6017  0.1935 -0.3012
 4977SOL    HW126390   1.475   2.603   8.092  3.6277 -0.1806 -0.1450
 4977SOL    HW226391   1.544   2.647   7.976 -0.6731  0.4188 -0.4927
 4978SOL     OW26392   2.650   0.592   3.543 -0.1325  0.2877  0.3687
 4978SOL    HW126393   2.630   0.524   3.478  0.8271  0.1643  0.1974
 4978SOL    HW226394   2.691   0.655   3.484 -0.4681 -0.1423 -0.3330
 4979SOL     OW26395   0.247   4.218   3.310 -0.2808  0.1570 -0.0406
 4979SOL    HW126396   0.163   4.181   3.337 -1.1108  2.4427  0.4484
 4979SOL    HW226397   0.218   4.277   3.240  1.3774 -0.3121 -1.1328
 4980SOL     OW26398   0.833   4.677  15.242 -0.0725 -0.5440  0.3868
 4980SOL    HW126399   0.868   0.002  15.318 -0.0746 -1.5038  0.9973
 4980SOL    HW226400   0.751   4.642  15.279  0.5971 -1.1661  1.2752
 4981SOL     OW26401   1.632   4.500   1.625 -0.2023  0.3091  0.1757
 4981SOL    HW126402   1.577   4.483   1.549 -0.1422  0.4454  0.1012
 4981SOL    HW226403   1.578   4.544   1.690  0.4699  1.6647 -0.1810
 4982SOL     OW26404   2.763   2.470   4.021 -0.2746  0.1843 -0.0558
 4982SOL    HW126405   2.788   2.549   3.974  1.3284 -0.9408 -1.0854
 4982SOL    HW226406   2.709   2.422   3.958 -1.7156 -0.3645  1.5913
 4983SOL     OW26407   3.993   2.759   0.994 -0.0206 -0.2680  0.6060
 4983SOL    HW126408   4.066   2.776   0.935 -0.8512 -0.1966 -0.3958
 4983SOL    HW226409   4.019   2.669   1.015 -1.9882 -1.3825 -1.7209
 4984SOL     OW26410   0.693   4.025   8.827  0.3604 -0.6945  0.5680
 4984SOL    HW126411   0.700   3.988   8.739  1.9359 -1.6586  1.1042
 4984SOL    HW226412   0.781   4.062   8.836 -0.2116  1.1570 -1.1955
 4985SOL     OW26413   4.347   2.594   2.414  0.0886  0.1817  0.2561
 4985SOL    HW126414   4.253   2.613   2.413 -0.5753 -3.2007 -3.8446
 4985SOL    HW226415   4.363   2.530   2.345  1.7546  0.8663  0.0245
 4986SOL     OW26416   1.192   1.121  14.052  0.4495 -0.2942  0.6076
 4986SOL    HW126417   1.170   1.041  14.006  0.0558 -0.2060  0.6486
 4986SOL    HW226418   1.204   1.185  13.981  0.8364 -0.2176  0.7418
 4987SOL     OW26419   4.019   3.349   4.492 -0.0747 -0.1603  0.1355
 4987SOL    HW126420   3.962   3.289   4.539  1.5830 -2.5945 -0.9696
 4987SOL    HW226421   4.105   3.310   4.511 -1.5846 -2.9923  1.1789
 4988SOL     OW26422   3.125   0.867  14.105  0.1693  0.6310  0.3049
 4988SOL    HW126423   3.050   0.900  14.055  0.7864 -0.0883 -1.1046
 4988SOL    HW226424   3.107   0.884  14.197  0.8603 -3.1197  1.1408
 4989SOL     OW26425   2.907   3.328   3.379  0.2598  0.0640 -0.2533
 4989SOL    HW126426   2.963   3.399   3.412  0.3310 -0.7001  1.2686
 4989SOL    HW226427   2.846   3.308   3.450  1.8962 -1.6863  0.6562
 4990SOL     OW26428   4.064   1.978   7.457 -0.5648  0.0665 -0.7224
 4990SOL    HW126429   4.010   1.972   7.536  0.0914 -0.6042 -0.3288
 4990SOL    HW226430   4.014   2.030   7.394 -0.9134  0.1130 -0.4094
 4991SOL     OW26431   0.056   3.358   4.601 -0.4162  0.0097 -0.5586
 4991SOL    HW126432   0.038   3.307   4.680 -1.9247  1.2677 -0.1029
 4991SOL    HW226433   0.033   3.447   4.628  2.3034  1.5983 -3.5349
 4992SOL     OW26434   2.126   4.554  10.271  0.0675  0.2811 -0.1348
 4992SOL    HW126435   2.179   4.631  10.295 -0.7480  0.7028  0.2951
 4992SOL    HW226436   2.145   4.484  10.333 -0.9762 -2.5907 -3.0781
 4993SOL     OW26437   2.941   0.923   2.891 -0.1012 -0.0581 -0.1934
 4993SOL    HW126438   2.996   0.871   2.833 -1.2771 -0.8320 -0.5973
 4993SOL    HW226439   3.000   0.987   2.932 -1.1095  2.0124 -1.9336
 4994SOL     OW26440   0.969   3.787   7.234  0.3114  0.2249  0.0702
 4994SOL    HW126441   0.934   3.863   7.280  0.3156 -0.0199  0.4826
 4994SOL    HW226442   0.943   3.809   7.145  0.3559  0.9764  0.2426
 4995SOL     OW26443   1.572   3.925   3.399 -0.7787 -0.1024 -0.3151
 4995SOL    HW126444   1.637   3.855   3.412 -0.9988  0.2721  2.6590
 4995SOL    HW226445   1.623   4.006   3.403 -3.0533  1.2699  0.6735
 4996SOL     OW26446   4.526   4.161   0.898 -0.6590  0.0381  0.5997
 4996SOL    HW126447   4.513   4.255   0.887  1.7960  0.4665  1.4764
 4996SOL    HW226448   4.574   4.133   0.820 -1.4721 -0.6488  0.3437
 4997SOL     OW26449   4.656   4.647  10.648  0.2316 -0.3048  0.2225
 4997SOL    HW126450   4.571   4.606  10.633 -0.2534  1.1640 -1.0691
 4997SOL    HW226451   4.704   4.611  10.573 -0.7923 -3.7597  1.2400
 4998SOL     OW26452   0.090   0.590   2.863 -0.4140  0.0254 -0.7163
 4998SOL    HW126453   0.071   0.619   2.952 -3.7574  0.2023 -1.4827
 4998SOL    HW226454   0.007   0.567   2.822 -1.1789 -0.0504  0.8754
 4999SOL     OW26455   1.692   1.860   4.445  0.2057 -0.2369  0.0631
 4999SOL    HW126456   1.680   1.796   4.515  1.7998 -1.2163 -0.5637
 4999SOL    HW226457   1.601   1.888   4.442 -0.3456 -1.5774  3.5285
 5000SOL     OW26458   0.638   4.259   9.001 -0.6355 -0.4246  0.0286
 5000SOL    HW126459   0.676   4.247   8.914 -2.1554  2.1161 -0.9759
 5000SOL    HW226460   0.560   4.204   8.993 -1.3862  1.0540 -2.7382
 5001SOL     OW26461   4.335   2.544   5.644  0.2735  0.2209 -1.0271
 5001SOL    HW126462   4.274   2.529   5.716  0.2860  0.8307 -0.8823
 5001SOL    HW226463   4.358   2.637   5.655 -1.0702  0.9100 -3.9871
 5002SOL     OW26464   3.020   1.956   0.265 -0.0546 -0.4061  0.1337
 5002SOL    HW126465   2.930   1.922   0.261 -0.3794  0.4740  0.1358
 5002SOL    HW226466   2.991   2.030   0.212 -0.4399 -0.1003  0.7815
 5003SOL     OW26467   4.430   0.609   0.507  0.5531 -0.2355  0.1782
 5003SOL    HW126468   4.395   0.545   0.444  2.7402 -1.7800  0.5287
 5003SOL    HW226469   4.522   0.605   0.480 -0.9159 -1.3924 -4.6954
 5004SOL     OW26470   2.725   3.499   0.300 -0.5136 -0.1097 -0.0283
 5004SOL    HW126471   2.796   3.454   0.255 -1.1103 -0.0490 -1.0412
 5004SOL    HW226472   2.763   3.509   0.387  1.7814  0.6901 -1.1324
 5005SOL     OW26473   1.149   2.681   2.087 -1.4141  0.0128  0.2836
 5005SOL    HW126474   1.195   2.711   2.165  0.8486 -0.8559 -0.7318
 5005SOL    HW226475   1.102   2.763   2.076 -1.2443 -0.2670 -2.3456
 5006SOL     OW26476   1.697   3.070   3.311 -0.0421  0.7994 -0.2195
 5006SOL    HW126477   1.715   3.142   3.372 -0.9776  1.2362 -0.4618
 5006SOL    HW226478   1.747   3.110   3.240  0.9436  0.9593  0.5652
 5007SOL     OW26479   1.110   0.564   5.769  0.2510 -0.6362  1.0570
 5007SOL    HW126480   1.195   0.545   5.728  1.1410  3.6401  0.9537
 5007SOL    HW226481   1.121   0.651   5.805 -0.2857  0.4820 -1.4717
 5008SOL     OW26482   1.759   2.189   3.375  0.1298  0.3932 -0.2902
 5008SOL    HW126483   1.785   2.229   3.458 -2.4744  0.6865  0.4019
 5008SOL    HW226484   1.664   2.193   3.388  0.2966  2.3215  0.3120
 5009SOL     OW26485   4.257   4.609   2.694  0.5067  0.1273  0.4194
 5009SOL    HW126486   4.169   4.579   2.716  0.8412 -0.3131  1.1497
 5009SOL    HW226487   4.253   4.604   2.599  2.4647  1.0626  0.2860
 5010SOL     OW26488   2.858   4.067   0.538  0.6702  0.0479  0.3008
 5010SOL    HW126489   2.922   4.023   0.481  0.3689 -0.5140  0.3896
 5010SOL    HW226490   2.923   4.108   0.595  1.3774 -0.2981 -0.2386
 5011SOL     OW26491   0.411   0.187   7.841 -0.3040 -0.2394 -0.1303
 5011SOL    HW126492   0.431   0.162   7.931 -2.2141 -1.7640 -0.1394
 5011SOL    HW226493   0.379   0.277   7.852  1.7243  0.1771  2.2544
 5012SOL     OW26494   3.688   3.409   2.234  0.1553  0.8919  0.6091
 5012SOL    HW126495   3.759   3.366   2.186  0.4635 -0.7862  2.5152
 5012SOL    HW226496   3.712   3.501   2.224  0.2498  0.6504 -1.2314
 5013SOL     OW26497   3.277   1.710  16.905 -0.0123 -0.9619  0.4209
 5013SOL    HW126498   3.363   1.751  16.901 -0.5931  0.2469  0.5162
 5013SOL    HW226499   3.311   1.626  16.935 -0.3114 -1.5204 -0.7948
 5014SOL     OW26500   2.730   4.245  13.547  0.7564  0.6100 -0.0016
 5014SOL    HW126501   2.812   4.195  13.548 -0.3214 -1.1190  2.5074
 5014SOL    HW226502   2.705   4.232  13.456  1.8911  0.3589 -0.2710
 5015SOL     OW26503   3.053   3.138   8.866  0.8650 -0.2405  0.4782
 5015SOL    HW126504   3.009   3.086   8.799  1.8297  0.4875 -0.7225
 5015SOL    HW226505   3.068   3.067   8.927 -0.2694 -1.9226 -1.2012
 5016SOL     OW26506   3.914   0.762   8.144  0.1854 -0.8402  0.0571
 5016SOL    HW126507   3.820   0.748   8.155  0.2077  0.3800  1.6812
 5016SOL    HW226508   3.952   0.680   8.177  0.2546 -0.0606  1.8612
 5017SOL     OW26509   0.208   0.237   4.365 -0.0001 -0.4242 -0.2065
 5017SOL    HW126510   0.142   0.193   4.419 -1.3203  2.7534  0.7820
 5017SOL    HW226511   0.276   0.170   4.375  0.9989  0.8171  1.3640
 5018SOL     OW26512   2.422   3.565   5.374 -0.2704 -0.1270  0.0619
 5018SOL    HW126513   2.469   3.630   5.426  0.5103  0.5941 -1.5552
 5018SOL    HW226514   2.367   3.620   5.318  1.9710  3.3834  1.3637
 5019SOL     OW26515   3.696   3.151  16.820 -0.2684  0.1347 -0.3179
 5019SOL    HW126516   3.642   3.118  16.748 -0.7795  0.4414 -0.0754
 5019SOL    HW226517   3.645   3.127  16.898  0.4658  2.2966  0.8447
 5020SOL     OW26518   3.780   1.847   8.339  0.2839  0.2745 -0.0174
 5020SOL    HW126519   3.812   1.762   8.368  0.1526  0.6697  1.3089
 5020SOL    HW226520   3.833   1.851   8.260 -1.1045  0.8235 -0.9308
 5021SOL     OW26521   4.565   0.047  16.745 -0.4660 -0.5025 -0.7809
 5021SOL    HW126522   4.482   0.019  16.783 -0.5550  0.9883  0.0881
 5021SOL    HW226523   4.541   0.069  16.655  0.8760  0.3102 -0.9500
 5022SOL     OW26524   3.484   3.308  16.375  0.3578 -0.2150 -0.4355
 5022SOL    HW126525   3.557   3.247  16.367  1.2132  0.2886  3.7297
 5022SOL    HW226526   3.440   3.310  16.290  0.2788 -0.8012 -0.4087
 5023SOL     OW26527   3.391   4.582   7.295 -0.0466  0.1795  0.6250
 5023SOL    HW126528   3.446   4.621   7.227 -2.0631 -1.1465 -1.7213
 5023SOL    HW226529   3.314   4.537   7.261 -0.7393  0.2152  2.1479
 5024SOL     OW26530   4.261   0.833   0.606  0.2807  0.3735 -0.1883
 5024SOL    HW126531   4.173   0.801   0.583 -0.4931  0.5087  2.6658
 5024SOL    HW226532   4.308   0.755   0.577  1.8467  0.9425  0.8820
 5025SOL     OW26533   0.113   1.566   5.562  0.2387  0.4222  0.1563
 5025SOL    HW126534   0.106   1.651   5.519  4.1835  0.1682 -0.9604
 5025SOL    HW226535   0.202   1.533   5.549 -0.5862 -1.3026 -1.1658
 5026SOL     OW26536   1.293   1.272  12.957  0.0462 -0.1220 -0.1635
 5026SOL    HW126537   1.217   1.218  12.981 -0.7480  1.1277  0.0974
 5026SOL    HW226538   1.256   1.355  12.926 -0.8891 -0.5186 -0.1178
 5027SOL     OW26539   1.794   3.823   7.986 -0.4138 -0.4626 -0.3830
 5027SOL    HW126540   1.741   3.798   8.063  0.7350  1.5375  1.0633
 5027SOL    HW226541   1.877   3.857   8.019 -0.2043 -1.4061  0.0733
 5028SOL     OW26542   3.249   1.496   5.829 -0.0194  0.2110  0.4432
 5028SOL    HW126543   3.326   1.523   5.780 -1.1876 -1.2320 -2.1821
 5028SOL    HW226544   3.241   1.572   5.887 -0.1614  1.2789 -0.9619
 5029SOL     OW26545   1.251   4.320   7.989 -0.3634  0.5362  0.1920
 5029SOL    HW126546   1.300   4.401   8.004  0.6222 -0.0833  0.3574
 5029SOL    HW226547   1.254   4.275   8.074  1.2284 -1.1157 -0.7352
 5030SOL     OW26548   2.726   1.294   5.364  0.0163 -0.4932 -0.0062
 5030SOL    HW126549   2.683   1.378   5.345  2.8391  0.5196 -1.9142
 5030SOL    HW226550   2.779   1.275   5.287  0.3188  0.6672 -0.0943
 5031SOL     OW26551   1.635   2.495   4.154  0.1006 -0.2452  0.1207
 5031SOL    HW126552   1.713   2.438   4.159  0.4032 -0.0317 -1.9706
 5031SOL    HW226553   1.678   2.558   4.096 -0.6925  1.1984  1.1119
 5032SOL     OW26554   0.760   1.615  10.728 -0.4196  0.2828  0.4213
 5032SOL    HW126555   0.682   1.583  10.682 -0.5133 -0.3050  0.9851
 5032SOL    HW226556   0.806   1.660  10.657 -1.4669 -1.3570 -1.3005
 5033SOL     OW26557   2.461   1.544  14.970  0.0416  0.4750  0.9802
 5033SOL    HW126558   2.369   1.560  14.949  0.6605  2.6881 -0.0006
 5033SOL    HW226559   2.505   1.629  14.965 -1.8624  1.4890  1.3466
 5034SOL     OW26560   3.355   1.921   6.144  0.2692  0.3690  0.2432
 5034SOL    HW126561   3.317   2.008   6.157 -1.3594 -0.0250 -1.8930
 5034SOL    HW226562   3.383   1.899   6.232  1.7056 -0.0329 -0.3153
 5035SOL     OW26563   1.319   3.729   7.814 -0.4417  0.1543  0.3010
 5035SOL    HW126564   1.255   3.777   7.763 -2.2789 -0.2409  2.2470
 5035SOL    HW226565   1.389   3.795   7.813 -0.4820  0.2202  1.6267
 5036SOL     OW26566   0.128   4.167  14.037 -0.2787 -0.7740  0.3073
 5036SOL    HW126567   0.210   4.166  14.086  1.2868 -0.7873 -2.3549
 5036SOL    HW226568   0.092   4.243  14.083  0.0715  0.4379 -1.4462
 5037SOL     OW26569   2.968   0.585   8.267  0.8013  0.5646 -0.1209
 5037SOL    HW126570   2.889   0.624   8.229 -1.2662 -1.8961  1.6736
 5037SOL    HW226571   2.941   0.584   8.359  1.2629 -3.6209 -0.0255
 5038SOL     OW26572   3.097   4.272   8.301  0.1771 -0.2222  0.5232
 5038SOL    HW126573   3.172   4.241   8.250 -1.7497 -1.5339 -1.5029
 5038SOL    HW226574   3.054   4.323   8.233  0.2322  2.1874  2.2976
 5039SOL     OW26575   0.543   1.774   5.858  0.3150  0.2873 -0.2325
 5039SOL    HW126576   0.599   1.756   5.934 -1.0021  0.4210  0.7695
 5039SOL    HW226577   0.600   1.765   5.782 -0.0232 -1.0513 -0.3337
 5040SOL     OW26578   0.315   3.282   7.867 -0.0266  0.2160  0.6502
 5040SOL    HW126579   0.331   3.304   7.775  0.7124 -1.7472  0.3221
 5040SOL    HW226580   0.375   3.342   7.912 -1.5956  1.3229  1.2820
 5041SOL     OW26581   4.032   1.001  17.063  0.1873  0.6193 -0.1746
 5041SOL    HW126582   3.999   0.924  17.109  1.6381  0.8233  1.2108
 5041SOL    HW226583   4.095   1.033  17.127 -1.3184  1.8551  0.6840
 5042SOL     OW26584   0.062   2.215  16.476 -0.2289 -0.2465 -0.3143
 5042SOL    HW126585   0.073   2.255  16.390 -0.2773  0.9393  0.2279
 5042SOL    HW226586   0.109   2.269  16.539  1.4182 -0.4729 -1.3410
 5043SOL     OW26587   1.430   3.700   4.178  0.1347 -0.5674 -0.1693
 5043SOL    HW126588   1.513   3.715   4.133 -0.9014  2.7620 -1.0413
 5043SOL    HW226589   1.466   3.704   4.267  1.0074 -0.1045 -0.5447
 5044SOL     OW26590   3.119   2.904   3.858 -0.0679 -0.4994 -0.1423
 5044SOL    HW126591   3.196   2.949   3.825 -0.5350  1.4365  1.4769
 5044SOL    HW226592   3.056   2.968   3.824 -0.0352  0.2961  1.3357
 5045SOL     OW26593   0.342   4.149   8.043 -0.7577  0.0796  0.0927
 5045SOL    HW126594   0.337   4.198   8.125  0.8118 -2.0026  1.4398
 5045SOL    HW226595   0.371   4.213   7.978  0.4807 -0.8230 -0.2528
 5046SOL     OW26596   0.522   4.648  16.703  0.3606  0.6173 -0.1625
 5046SOL    HW126597   0.461   4.703  16.654 -1.0629 -0.7813 -0.0001
 5046SOL    HW226598   0.468   4.630  16.780  1.9155 -0.5307  0.6636
 5047SOL     OW26599   0.338   3.592   9.251 -0.0858 -0.1825 -0.2178
 5047SOL    HW126600   0.366   3.501   9.254  1.3479  0.2107 -2.0989
 5047SOL    HW226601   0.401   3.642   9.303 -0.6080  1.6627 -1.3682
 5048SOL     OW26602   0.605   0.532   4.058  0.3945  0.2040 -0.1739
 5048SOL    HW126603   0.559   0.489   4.129 -0.3741 -1.2598 -1.5732
 5048SOL    HW226604   0.593   0.626   4.074  2.1999  0.2440  1.0578
 5049SOL     OW26605   2.577   1.941  14.696  0.2200  0.2013  0.0575
 5049SOL    HW126606   2.486   1.916  14.678 -0.3078  2.3834 -0.3123
 5049SOL    HW226607   2.577   2.029  14.733  3.0797 -0.2543  1.1053
 5050SOL     OW26608   3.324   4.387   3.120 -0.3156  0.3201  0.6250
 5050SOL    HW126609   3.336   4.339   3.037 -3.8829  0.0870  0.2125
 5050SOL    HW226610   3.251   4.338   3.158 -0.5782 -0.8887 -1.4279
 5051SOL     OW26611   2.709   3.456   1.845 -0.5919  0.6828  0.0482
 5051SOL    HW126612   2.615   3.471   1.853 -0.6314  1.4599 -2.0236
 5051SOL    HW226613   2.713   3.380   1.903 -2.0125  0.2941 -0.3727
 5052SOL     OW26614   3.421   0.469   7.616  0.1616  0.8280  0.0911
 5052SOL    HW126615   3.426   0.412   7.693 -0.6595  2.0658  1.0522
 5052SOL    HW226616   3.387   0.550   7.654  0.3865  0.6182  0.7453
 5053SOL     OW26617   2.663   3.430   2.870 -0.6411 -0.5096  0.3774
 5053SOL    HW126618   2.575   3.393   2.875 -0.0582 -1.5622  2.8304
 5053SOL    HW226619   2.639   3.523   2.871  0.0594 -0.3165 -0.8783
 5054SOL     OW26620   2.451   1.317  12.273  0.2951  0.4232  0.2299
 5054SOL    HW126621   2.477   1.379  12.205  1.6120 -0.0003  0.3351
 5054SOL    HW226622   2.495   1.344  12.354 -0.4555  1.0827  0.4111
 5055SOL     OW26623   2.884   0.591   3.340  0.3999 -0.6959  0.0658
 5055SOL    HW126624   2.891   0.685   3.326  0.2897 -0.4928  1.3562
 5055SOL    HW226625   2.920   0.556   3.258 -0.0861 -1.9731  0.3927
 5056SOL     OW26626   4.302   2.192   8.674 -0.2242 -0.1053 -0.3144
 5056SOL    HW126627   4.245   2.256   8.632  0.4740  0.7423  0.0435
 5056SOL    HW226628   4.379   2.186   8.617  0.0185  2.0699 -0.1896
 5057SOL     OW26629   4.265   2.798   8.521  0.1298 -0.0276 -0.9531
 5057SOL    HW126630   4.176   2.816   8.549  1.2469 -0.7470  3.0283
 5057SOL    HW226631   4.303   2.873   8.567  0.8111  0.2694 -1.9786
 5058SOL     OW26632   4.716   0.184  15.635  0.1278 -0.5735 -0.5561
 5058SOL    HW126633   0.073   0.225  15.670 -2.2042  1.3971  2.4427
 5058SOL    HW226634   0.011   0.091  15.647  0.2721 -0.5173 -0.3273
 5059SOL     OW26635   1.335   1.887   8.670  0.3068  0.5988 -0.2062
 5059SOL    HW126636   1.424   1.852   8.668  0.3186  0.4490  2.9695
 5059SOL    HW226637   1.290   1.805   8.691 -1.7128  1.8133  0.2010
 5060SOL     OW26638   3.030   0.211   5.974 -0.0234  0.0466 -0.4683
 5060SOL    HW126639   3.076   0.130   5.949 -0.2741 -0.4898  0.7815
 5060SOL    HW226640   3.101   0.271   5.951  0.7321 -0.9214 -0.6848
 5061SOL     OW26641   1.120   2.619   4.399 -0.0480 -0.4907 -0.2610
 5061SOL    HW126642   1.101   2.713   4.396 -1.2516 -0.8044 -2.3245
 5061SOL    HW226643   1.153   2.595   4.486  1.9608 -0.0907 -0.9156
 5062SOL     OW26644   4.076   4.483   4.696  0.2270  0.3717  0.0439
 5062SOL    HW126645   4.084   4.391   4.669  0.4067  0.3240  0.2622
 5062SOL    HW226646   4.044   4.528   4.617 -1.0479 -1.5135 -0.5341
 5063SOL     OW26647   3.409   3.293   2.259  0.2710  0.3715 -0.0067
 5063SOL    HW126648   3.493   3.326   2.227  0.6560  0.6012  1.2419
 5063SOL    HW226649   3.388   3.233   2.188 -1.0904  0.8314  0.0047
 5064SOL     OW26650   0.550   1.449  11.489  0.1037  0.1248  0.3756
 5064SOL    HW126651   0.545   1.532  11.442  0.1805 -0.7564 -1.2014
 5064SOL    HW226652   0.459   1.422  11.503 -0.4361  2.5862  1.4819
 5065SOL     OW26653   0.564   3.570   2.180  0.2075  0.0253  0.5769
 5065SOL    HW126654   0.618   3.631   2.229 -2.1263  1.1465  1.7507
 5065SOL    HW226655   0.476   3.593   2.212  0.6671  2.8998 -0.1837
 5066SOL     OW26656   2.831   0.243  10.017  0.3109  0.0488 -0.2133
 5066SOL    HW126657   2.755   0.263  10.072  0.3374 -0.9478  0.1951
 5066SOL    HW226658   2.780   0.213   9.942 -1.0197 -0.3557  0.8562
 5067SOL     OW26659   4.374   0.177   6.481 -0.0342 -0.2300  0.3007
 5067SOL    HW126660   4.465   0.154   6.460  1.1620 -1.1547  6.5665
 5067SOL    HW226661   4.346   0.085   6.481  0.5261 -0.3954  1.5592
 5068SOL     OW26662   1.197   1.906   3.776 -0.0992 -0.7815  0.0509
 5068SOL    HW126663   1.156   1.820   3.781  0.2822 -0.9539  0.1923
 5068SOL    HW226664   1.155   1.945   3.699  0.2232 -0.1212  0.2094
 5069SOL     OW26665   0.867   4.595  10.187  0.1737  0.5128  0.1149
 5069SOL    HW126666   0.811   4.524  10.158  1.6675 -0.1340 -1.2076
 5069SOL    HW226667   0.898   4.623  10.101 -0.4483 -1.2442 -0.6893
 5070SOL     OW26668   2.053   1.667   4.372 -0.2364 -0.7330 -0.4526
 5070SOL    HW126669   2.115   1.620   4.317  0.6656 -1.5109  1.2016
 5070SOL    HW226670   2.080   1.637   4.459 -2.2125 -2.5310 -0.4732
 5071SOL     OW26671   1.351   2.079   2.814  0.3527 -0.2231  0.5589
 5071SOL    HW126672   1.323   2.130   2.890  0.3838  1.0974 -0.3333
 5071SOL    HW226673   1.389   2.151   2.765  2.4307 -2.3526 -0.9863
 5072SOL     OW26674   1.238   2.675   6.103 -0.1421  0.4089 -0.4990
 5072SOL    HW126675   1.193   2.655   6.185  0.3625  0.8582 -0.1075
 5072SOL    HW226676   1.183   2.635   6.036  0.4163 -1.6786  0.3160
 5073SOL     OW26677   1.849   2.756   5.906 -0.1036 -0.3133 -0.5300
 5073SOL    HW126678   1.797   2.678   5.888 -0.5273 -0.0032 -0.6492
 5073SOL    HW226679   1.810   2.795   5.984 -0.7206 -1.5443 -0.2378
 5074SOL     OW26680   4.172   3.823   4.911  0.2277 -0.4502  0.0466
 5074SOL    HW126681   4.218   3.749   4.951 -0.6282 -1.0483 -0.0829
 5074SOL    HW226682   4.178   3.803   4.818  2.1095  2.4551 -0.4306
 5075SOL     OW26683   0.461   4.364   2.675 -0.5964 -0.6168  0.3588
 5075SOL    HW126684   0.555   4.385   2.672 -0.7842 -0.0104 -1.5001
 5075SOL    HW226685   0.438   4.392   2.764 -2.9070  0.0661 -0.4692
 5076SOL     OW26686   2.506   0.896   2.139  0.0888 -0.2332 -0.1485
 5076SOL    HW126687   2.508   0.886   2.044 -0.6942  0.6440 -0.2557
 5076SOL    HW226688   2.562   0.970   2.160 -0.2852  0.1418 -0.4739
 5077SOL     OW26689   0.901   0.074   3.302 -0.2143 -0.1119 -0.1829
 5077SOL    HW126690   0.831   0.096   3.363  1.4364  1.2346  1.2219
 5077SOL    HW226691   0.981   0.112   3.339  0.0612  0.0632 -0.9414
 5078SOL     OW26692   0.101   3.006   6.104  0.3853 -0.7979  0.1128
 5078SOL    HW126693   0.118   3.070   6.035  0.8574  0.0545  1.0356
 5078SOL    HW226694   0.121   3.069   6.172  3.3414 -0.2588 -1.2541
 5079SOL     OW26695   3.170   0.283  13.182  0.7526 -0.1208  0.1808
 5079SOL    HW126696   3.199   0.206  13.231  0.2199  0.5836  1.5957
 5079SOL    HW226697   3.224   0.263  13.105 -0.5601 -1.5522 -0.3667
 5080SOL     OW26698   3.070   0.063   2.794 -0.2261 -0.6600  0.1545
 5080SOL    HW126699   3.018   0.133   2.756 -1.5005  0.2960  3.7407
 5080SOL    HW226700   3.120   0.113   2.859 -2.2993  1.7011 -0.0903
 5081SOL     OW26701   0.065   3.684   3.307 -0.5511 -0.3973  0.1818
 5081SOL    HW126702   4.696   3.671   3.330 -0.3130 -1.3022  0.6226
 5081SOL    HW226703   0.095   3.748   3.372 -0.6884 -1.4804  1.3031
 5082SOL     OW26704   0.355   2.023   7.404  0.1158  0.1957  0.0109
 5082SOL    HW126705   0.280   2.072   7.372 -0.0895  1.1199  1.9287
 5082SOL    HW226706   0.386   2.078   7.476 -0.6872  0.3991  0.1922
 5083SOL     OW26707   3.094   3.947   2.094 -0.4263 -0.6659  0.2909
 5083SOL    HW126708   3.085   3.861   2.135 -1.3851 -0.6018  0.2190
 5083SOL    HW226709   3.186   3.969   2.106  0.0734 -0.7045 -3.3301
 5084SOL     OW26710   3.690   0.425  12.104  0.2263 -0.5090 -0.0184
 5084SOL    HW126711   3.783   0.445  12.107 -0.7496  3.9581  0.2479
 5084SOL    HW226712   3.654   0.512  12.090 -0.8394 -1.3978 -2.8055
 5085SOL     OW26713   0.806   0.293  17.491 -0.2065  0.4016  0.4793
 5085SOL    HW126714   0.860   0.321  17.565 -0.7192 -0.1981  1.0704
 5085SOL    HW226715   0.805   0.366  17.428 -0.7899 -1.2105 -1.3874
 5086SOL     OW26716   4.263   3.177   1.890  0.1856  0.3045 -0.0995
 5086SOL    HW126717   4.328   3.111   1.865 -1.7291 -1.6058 -0.0786
 5086SOL    HW226718   4.302   3.261   1.865 -1.5907  2.0205  2.9583
 5087SOL     OW26719   2.306   1.356  14.207 -0.5409 -0.8868  0.0151
 5087SOL    HW126720   2.344   1.335  14.122 -1.0777 -1.3337 -0.1107
 5087SOL    HW226721   2.306   1.274  14.257  0.4557 -0.8767  0.0317
 5088SOL     OW26722   4.448   3.823  11.767 -0.1188  0.1336  0.2034
 5088SOL    HW126723   4.535   3.864  11.771 -0.6436  1.2560 -0.0617
 5088SOL    HW226724   4.406   3.893  11.717 -2.6601  0.5619  2.9306
 5089SOL     OW26725   3.846   0.897   5.778 -0.0670 -0.3811 -0.3571
 5089SOL    HW126726   3.932   0.871   5.810  0.0489 -1.2784 -1.4080
 5089SOL    HW226727   3.866   0.904   5.685  2.4809  1.7195  0.3760
 5090SOL     OW26728   3.727   2.735   4.164  0.5586  0.4566  0.1399
 5090SOL    HW126729   3.803   2.788   4.188  0.5429 -0.1437  1.5437
 5090SOL    HW226730   3.760   2.703   4.080 -3.6723  0.0167 -1.3121
 5091SOL     OW26731   1.980   1.646   3.808 -0.0886 -0.4286 -0.3037
 5091SOL    HW126732   1.922   1.704   3.759  0.6002  0.9228  0.4913
 5091SOL    HW226733   1.989   1.692   3.891  0.0915 -1.6589  0.3708
 5092SOL     OW26734   2.655   2.946   3.624  0.0846  0.0858  0.0514
 5092SOL    HW126735   2.670   2.894   3.702 -1.4901 -0.8841 -0.3023
 5092SOL    HW226736   2.560   2.938   3.611 -0.1326  1.5359  0.7359
 5093SOL     OW26737   4.525   1.237   9.100  0.4778 -0.4183 -0.2853
 5093SOL    HW126738   4.507   1.264   9.190 -3.0850 -0.5869 -0.9233
 5093SOL    HW226739   4.618   1.223   9.115  0.4078  0.8253  1.3255
 5094SOL     OW26740   1.625   0.111   3.836 -0.1268  0.1632 -0.3314
 5094SOL    HW126741   1.603   0.203   3.848 -1.2438 -0.3571  1.6756
 5094SOL    HW226742   1.577   0.090   3.755 -2.4480  2.3117  0.4866
 5095SOL     OW26743   0.049   0.567   0.880 -0.3660 -0.0102  0.6070
 5095SOL    HW126744   0.026   0.621   0.956 -0.5717  0.7820 -0.0249
 5095SOL    HW226745   4.686   0.578   0.840 -0.0830  0.6975  0.1925
 5096SOL     OW26746   3.217   1.796  11.696 -0.7909  1.0050  0.4167
 5096SOL    HW126747   3.290   1.742  11.725 -1.6565  0.0504  0.7961
 5096SOL    HW226748   3.145   1.733  11.698  0.1593 -0.0206  1.4738
 5097SOL     OW26749   2.019   2.300   5.564  0.2760 -0.3361  0.2604
 5097SOL    HW126750   2.087   2.234   5.580 -1.3549 -2.0244  0.2363
 5097SOL    HW226751   1.962   2.243   5.513  1.8300 -1.1978 -0.4866
 5098SOL     OW26752   0.130   4.136   7.793  0.0447  0.3110  0.0407
 5098SOL    HW126753   0.058   4.125   7.731 -0.6160  1.3885  0.6211
 5098SOL    HW226754   0.084   4.150   7.876 -1.5555 -2.1047 -0.4328
 5099SOL     OW26755   4.645   1.567   4.592 -0.8795  0.1859  0.5687
 5099SOL    HW126756   4.674   1.640   4.538 -2.4215  0.1875 -0.2406
 5099SOL    HW226757   4.582   1.622   4.639 -1.9978 -1.5030  1.0654
 5100SOL     OW26758   1.522   0.162  16.801 -0.3288  0.1774  0.0729
 5100SOL    HW126759   1.447   0.135  16.854  1.2488 -1.0660  1.6555
 5100SOL    HW226760   1.593   0.106  16.833 -0.5536  0.7394  1.5380
 5101SOL     OW26761   2.491   3.847  10.977  0.3888  0.3029 -0.4275
 5101SOL    HW126762   2.519   3.912  10.912 -2.2255  0.2347 -1.6230
 5101SOL    HW226763   2.510   3.886  11.062 -2.5454  2.5269 -0.8383
 5102SOL     OW26764   2.117   2.321  14.100 -0.0305  0.5483  0.0123
 5102SOL    HW126765   2.040   2.378  14.108 -0.8767 -0.6101  0.0352
 5102SOL    HW226766   2.117   2.263  14.176  0.9610  1.9088  1.0389
 5103SOL     OW26767   3.321   1.046   6.888  0.0157 -0.1454  0.0764
 5103SOL    HW126768   3.374   1.083   6.958  1.6629 -1.0834 -0.6660
 5103SOL    HW226769   3.237   1.030   6.932  0.0693 -2.3813 -0.5898
 5104SOL     OW26770   1.794   1.203   4.586 -0.1807 -0.5990 -0.1119
 5104SOL    HW126771   1.806   1.115   4.551 -3.4627 -1.5085  1.0373
 5104SOL    HW226772   1.873   1.224   4.636 -0.3043  1.0457 -0.5873
 5105SOL     OW26773   4.585   0.876   3.120  0.3591  0.1252 -0.3143
 5105SOL    HW126774   4.668   0.828   3.117  0.0698 -0.1993 -4.0648
 5105SOL    HW226775   4.601   0.929   3.198 -2.1934  0.4348  0.0070
 5106SOL     OW26776   1.779   1.728   8.861  0.1465 -0.1972 -0.4026
 5106SOL    HW126777   1.768   1.823   8.849  0.1616  0.0064  1.2945
 5106SOL    HW226778   1.845   1.724   8.930 -1.9594  1.3552  1.7188
 5107SOL     OW26779   2.629   2.829   6.958  0.9600 -0.1076 -0.0755
 5107SOL    HW126780   2.560   2.842   7.023 -0.7949  1.4144 -2.2638
 5107SOL    HW226781   2.699   2.881   6.999  1.3272 -0.4097 -0.3192
 5108SOL     OW26782   2.495   1.370   4.025 -0.1314 -0.1008  0.1417
 5108SOL    HW126783   2.513   1.281   4.054  0.1420 -0.1148 -0.0689
 5108SOL    HW226784   2.581   1.406   4.047 -0.8063  0.7749  1.3297
 5109SOL     OW26785   3.850   3.961   3.405  0.6564 -0.3992 -0.3575
 5109SOL    HW126786   3.933   3.943   3.450  0.0034 -0.6031  0.7548
 5109SOL    HW226787   3.788   3.972   3.477 -0.6738  0.4167 -1.6258
 5110SOL     OW26788   3.195   4.059   1.491  0.2472 -0.7977 -0.0279
 5110SOL    HW126789   3.250   4.119   1.441 -2.4346  0.6824 -1.1865
 5110SOL    HW226790   3.242   4.066   1.574  0.5266 -1.8304 -0.0984
 5111SOL     OW26791   2.005   3.600   1.051  0.3838  0.3339 -0.2457
 5111SOL    HW126792   2.090   3.558   1.046 -0.6821 -1.4778 -3.6099
 5111SOL    HW226793   1.993   3.621   0.958 -0.9900 -2.6698 -0.7492
 5112SOL     OW26794   1.127   2.505  15.552  0.3948 -0.1717  0.0417
 5112SOL    HW126795   1.190   2.535  15.486 -0.4970  2.0514  0.2011
 5112SOL    HW226796   1.158   2.415  15.561  1.6705  0.1965 -0.6187
 5113SOL     OW26797   4.174   0.396   6.449  0.0159 -0.7665 -0.6627
 5113SOL    HW126798   4.216   0.311   6.455 -0.4913 -0.9780 -0.1046
 5113SOL    HW226799   4.222   0.432   6.523 -0.9093  1.0915 -0.9620
 5114SOL     OW26800   0.202   1.425   3.225 -0.0430  0.2282  0.2687
 5114SOL    HW126801   0.209   1.511   3.183  1.5596 -0.1999 -0.3101
 5114SOL    HW226802   0.127   1.397   3.172  0.4988 -2.2357  0.8392
 5115SOL     OW26803   2.950   2.379   8.652 -0.1966  0.1632 -0.0017
 5115SOL    HW126804   2.879   2.375   8.587  0.1403  2.2708 -0.5136
 5115SOL    HW226805   2.984   2.468   8.637 -2.0458  0.9575  0.5005
 5116SOL     OW26806   0.065   3.183   3.782 -0.0062 -0.4693  0.0130
 5116SOL    HW126807   4.703   3.141   3.795  0.2261 -1.4371 -1.7026
 5116SOL    HW226808   0.122   3.120   3.827  0.9265  2.1739  2.5739
 5117SOL     OW26809   2.009   1.244   2.651  0.2545 -0.6315  0.0532
 5117SOL    HW126810   1.971   1.161   2.622  0.7092 -1.4635  1.8721
 5117SOL    HW226811   1.984   1.246   2.743 -0.3084 -0.5633 -0.0979
 5118SOL     OW26812   1.272   3.457  17.657 -0.4555 -0.5946  0.2135
 5118SOL    HW126813   1.302   3.475   0.053 -0.6785  1.5617 -0.1404
 5118SOL    HW226814   1.209   3.388  17.674  0.3839 -1.0163  1.6369
 5119SOL     OW26815   4.034   3.944   4.516  0.0962  0.0708 -0.0716
 5119SOL    HW126816   4.067   4.031   4.495  0.8169 -0.9053 -2.8654
 5119SOL    HW226817   4.109   3.912   4.566  0.9063 -0.0617 -1.3743
 5120SOL     OW26818   4.157   3.668   6.652 -0.2548  0.4085  0.3651
 5120SOL    HW126819   4.101   3.631   6.584 -0.6210  1.5898  0.0224
 5120SOL    HW226820   4.180   3.597   6.712 -1.4944 -0.0839  0.2679
 5121SOL     OW26821   4.176   3.492   7.016  0.8132 -0.3386  0.6752
 5121SOL    HW126822   4.108   3.437   7.054  1.4675  1.5239  4.4375
 5121SOL    HW226823   4.136   3.575   7.040  0.3343  0.1972 -1.8974
 5122SOL     OW26824   3.910   2.671   3.949  0.2894 -0.2211  0.0638
 5122SOL    HW126825   3.935   2.607   3.883  0.3661  1.2542 -1.3242
 5122SOL    HW226826   3.988   2.724   3.963  0.6014 -0.4814 -0.7234
 5123SOL     OW26827   3.750   0.237   1.068 -0.2530  0.5007  0.2675
 5123SOL    HW126828   3.690   0.250   1.142 -0.9313 -0.6137 -0.0884
 5123SOL    HW226829   3.688   0.219   0.997  1.8470  0.6019 -1.5921
 5124SOL     OW26830   0.142   0.951   5.481 -0.0774  0.3048  0.1843
 5124SOL    HW126831   0.177   0.867   5.510  1.1986  0.2183 -1.6114
 5124SOL    HW226832   0.172   1.004   5.555  0.8879 -1.8104  1.3180
 5125SOL     OW26833   1.084   1.084   8.807 -0.3481 -0.4748  0.0986
 5125SOL    HW126834   1.061   1.148   8.874 -0.5982 -1.6705  1.1542
 5125SOL    HW226835   1.034   1.010   8.842  2.3246 -2.1295  0.4412
 5126SOL     OW26836   1.093   4.515  12.433 -0.6890  0.0721  0.0243
 5126SOL    HW126837   1.029   4.472  12.375  1.0343  0.2970 -2.0162
 5126SOL    HW226838   1.033   4.578  12.472 -1.1103 -0.0674 -0.3904
 5127SOL     OW26839   2.668   4.256  11.835  0.3362  0.2362 -0.6686
 5127SOL    HW126840   2.726   4.194  11.879 -2.7985 -2.1337  0.1858
 5127SOL    HW226841   2.582   4.222  11.863 -0.6600  2.5789 -0.9127
 5128SOL     OW26842   3.084   1.809   7.281 -0.1435  0.3904  0.5446
 5128SOL    HW126843   3.034   1.742   7.327  2.2242 -1.2819  0.7252
 5128SOL    HW226844   3.114   1.765   7.201 -2.0318  1.2071 -0.6124
 5129SOL     OW26845   0.079   1.137  14.547  0.4430 -0.3287  0.0309
 5129SOL    HW126846   0.104   1.062  14.492 -1.7658 -0.1812 -1.1473
 5129SOL    HW226847   0.134   1.206  14.510 -0.8473 -0.2394 -1.7051
 5130SOL     OW26848   3.968   0.846   3.558  0.3306  0.2752  0.0827
 5130SOL    HW126849   4.007   0.890   3.634  0.5052 -0.2100  0.2740
 5130SOL    HW226850   4.003   0.760   3.583  2.1938  1.1922  0.6258
 5131SOL     OW26851   4.238   1.103   1.205  0.0543  0.3187 -0.0052
 5131SOL    HW126852   4.171   1.041   1.175 -0.2309  0.9064 -0.5726
 5131SOL    HW226853   4.315   1.050   1.180 -0.7977 -0.5503 -0.7952
 5132SOL     OW26854   3.007   3.691   2.362 -0.3824  0.6547  0.2185
 5132SOL    HW126855   2.952   3.755   2.318 -0.4380  1.7883  1.9318
 5132SOL    HW226856   2.957   3.609   2.361 -2.9793  2.2970 -2.4077
 5133SOL     OW26857   3.720   2.533   5.444  0.0871 -0.0490 -1.4400
 5133SOL    HW126858   3.645   2.516   5.386  0.0745  1.8195 -1.9857
 5133SOL    HW226859   3.761   2.609   5.403  3.0482 -1.3753 -0.9536
 5134SOL     OW26860   2.249   0.685   9.529 -0.1259 -0.3248  0.3992
 5134SOL    HW126861   2.261   0.690   9.624 -1.2401 -0.8844  0.5672
 5134SOL    HW226862   2.154   0.683   9.534 -0.1230  0.5270  0.8328
 5135SOL     OW26863   0.499   4.403  13.089 -0.2616  0.5425  0.6846
 5135SOL    HW126864   0.503   4.320  13.136 -2.4515 -1.3499 -2.4595
 5135SOL    HW226865   0.583   4.446  13.104  1.3188 -2.5126  0.6447
 5136SOL     OW26866   2.619   3.809  12.122  0.3528 -0.0676  0.5971
 5136SOL    HW126867   2.616   3.767  12.036 -0.4419 -2.1657  1.6505
 5136SOL    HW226868   2.551   3.762  12.170 -0.4560  1.2031  0.7011
 5137SOL     OW26869   3.373   3.978   3.025 -0.3819 -0.2670  0.0677
 5137SOL    HW126870   3.396   3.998   3.116 -0.0566  0.4174 -0.1680
 5137SOL    HW226871   3.460   3.948   2.995 -0.1851  0.3920 -0.0067
 5138SOL     OW26872   0.935   1.310  12.091 -0.5175  0.0661 -0.4518
 5138SOL    HW126873   0.999   1.239  12.087 -0.9104 -0.2699 -0.7727
 5138SOL    HW226874   0.962   1.368  12.162 -1.0771 -0.2857  0.0538
 5139SOL     OW26875   0.178   0.452  16.038  0.0452 -0.3011  0.0370
 5139SOL    HW126876   0.135   0.405  16.110 -0.1409  0.9197  0.7195
 5139SOL    HW226877   0.099   0.491  15.999  1.5806  0.7145 -2.0232
 5140SOL     OW26878   4.429   1.174   9.553  0.5921  0.1736 -0.8453
 5140SOL    HW126879   4.367   1.208   9.617  0.7666  0.7963 -1.0039
 5140SOL    HW226880   4.447   1.094   9.602  2.1426  1.6140  0.9428
 5141SOL     OW26881   4.720   1.840   6.077 -0.4566 -0.9339 -0.4326
 5141SOL    HW126882   4.688   1.833   5.987  0.9380 -3.4832 -0.7372
 5141SOL    HW226883   4.642   1.825   6.131 -0.7723  2.7383  0.1252
 5142SOL     OW26884   1.208   1.515  12.841 -0.5604  0.0679 -0.4920
 5142SOL    HW126885   1.201   1.593  12.897 -3.2463  0.7906 -1.8101
 5142SOL    HW226886   1.273   1.531  12.773 -1.3517 -1.5590 -1.6197
 5143SOL     OW26887   2.301   2.281   8.192 -0.2132 -0.1257 -0.0641
 5143SOL    HW126888   2.332   2.249   8.276 -0.6320  0.4303  0.3039
 5143SOL    HW226889   2.390   2.288   8.157  0.2033  1.3682  1.3189
 5144SOL     OW26890   3.821   4.087  11.407  0.2201 -0.3627 -0.2145
 5144SOL    HW126891   3.794   4.096  11.499 -0.0895 -1.1343 -0.2274
 5144SOL    HW226892   3.834   4.181  11.394 -0.1337 -0.4646 -1.2831
 5145SOL     OW26893   4.462   1.076   4.727 -0.1796 -0.0734 -0.5171
 5145SOL    HW126894   4.380   1.027   4.735  0.5826 -0.9534  1.6847
 5145SOL    HW226895   4.503   1.024   4.658 -1.6310 -0.0881 -1.3762
 5146SOL     OW26896   4.032   0.581   4.980 -0.1286 -0.4629  0.3046
 5146SOL    HW126897   4.091   0.508   4.962 -1.5345 -1.3078 -0.8989
 5146SOL    HW226898   3.952   0.529   4.985  1.8598 -3.3278  2.1434
 5147SOL     OW26899   2.377   3.414  12.074 -0.0088  0.1308 -0.6378
 5147SOL    HW126900   2.310   3.351  12.047  1.7032 -1.0512 -2.1118
 5147SOL    HW226901   2.353   3.437  12.164 -0.2295  0.9301 -0.8999
 5148SOL     OW26902   4.322   4.275  15.693  0.0970  0.3034  0.3888
 5148SOL    HW126903   4.313   4.328  15.614  1.4623  0.6703  0.4778
 5148SOL    HW226904   4.382   4.331  15.742 -0.3475  1.6434 -0.6137
 5149SOL     OW26905   4.721   4.085   6.433  0.3211  0.5485  0.7941
 5149SOL    HW126906   0.005   4.075   6.528 -2.8276 -0.3395  0.9177
 5149SOL    HW226907   0.090   4.098   6.409  0.3996 -1.7332 -0.1180
 5150SOL     OW26908   4.269   0.950   1.945 -0.5826 -0.6377 -0.3107
 5150SOL    HW126909   4.317   0.874   1.911  0.8683 -1.0134  2.5665
 5150SOL    HW226910   4.209   0.959   1.871  0.4234 -1.3487 -1.2145
 5151SOL     OW26911   1.368   2.018   7.060 -0.2283  0.2455 -0.0139
 5151SOL    HW126912   1.350   1.924   7.060 -0.7914  0.3610 -0.7501
 5151SOL    HW226913   1.332   2.047   7.144 -0.5808 -1.4979  0.4396
 5152SOL     OW26914   1.082   1.419   8.108  0.1570 -0.4505  0.4261
 5152SOL    HW126915   1.170   1.451   8.130 -0.4877  3.0854 -2.0425
 5152SOL    HW226916   1.033   1.476   8.168  0.3270  1.3198 -1.1181
 5153SOL     OW26917   4.232   1.247   2.767 -0.5646 -0.5063  0.1313
 5153SOL    HW126918   4.267   1.297   2.692 -1.3786 -0.3692 -0.1523
 5153SOL    HW226919   4.233   1.157   2.737 -1.3825  0.2071 -2.0429
 5154SOL     OW26920   2.426   2.589   7.157  0.2527  0.2295 -0.7603
 5154SOL    HW126921   2.366   2.543   7.099  1.1195  0.1392 -1.5840
 5154SOL    HW226922   2.491   2.521   7.175  0.9439  0.5986 -1.8922
 5155SOL     OW26923   3.058   3.984   7.413  0.2211 -0.6133  0.0828
 5155SOL    HW126924   3.103   4.067   7.394  0.6110 -0.6252  0.9858
 5155SOL    HW226925   3.000   4.012   7.484 -0.3808  1.0044 -1.0333
 5156SOL     OW26926   4.665   0.793   4.753  0.4498  0.2684  0.4155
 5156SOL    HW126927   4.585   0.785   4.804 -0.4100  1.4335 -0.7415
 5156SOL    HW226928   4.717   0.720   4.787 -1.7168 -1.8954 -0.9447
 5157SOL     OW26929   2.147   2.402   1.832  0.4066  0.0590  0.0528
 5157SOL    HW126930   2.223   2.366   1.785 -0.2291  0.3642 -1.2083
 5157SOL    HW226931   2.190   2.412   1.917  0.1119  1.3556  0.0483
 5158SOL     OW26932   0.059   2.302   3.329  0.0602 -0.0138  0.2847
 5158SOL    HW126933   0.070   2.356   3.251 -0.0287  1.0237  0.9916
 5158SOL    HW226934   0.082   2.210   3.312 -0.3121 -0.4800  2.2604
 5159SOL     OW26935   3.556   1.412   6.126  0.1906 -0.3006  0.3161
 5159SOL    HW126936   3.474   1.362   6.117 -0.2991  0.9928 -2.3726
 5159SOL    HW226937   3.577   1.416   6.032  0.8833 -0.1392  0.4818
 5160SOL     OW26938   4.075   3.923   8.126  0.5378  0.2002  0.3169
 5160SOL    HW126939   3.982   3.931   8.147  0.1548 -1.0593 -0.8978
 5160SOL    HW226940   4.102   3.877   8.206  0.6086 -0.5791 -0.1457
 5161SOL     OW26941   4.587   2.268   2.130  0.1494  0.7662  0.3279
 5161SOL    HW126942   4.561   2.180   2.158  0.7467  0.6758  0.5786
 5161SOL    HW226943   4.650   2.257   2.059 -0.4356  3.7347 -0.6803
 5162SOL     OW26944   3.151   0.195   8.620  0.3372  0.1706  0.5899
 5162SOL    HW126945   3.211   0.152   8.559  0.4190 -0.0958  0.8625
 5162SOL    HW226946   3.086   0.238   8.564  1.7025  0.1582 -1.0274
 5163SOL     OW26947   0.614   2.125   1.206  0.5178 -0.5312  0.1147
 5163SOL    HW126948   0.699   2.162   1.229 -0.7309  1.5461  1.3630
 5163SOL    HW226949   0.558   2.202   1.201  0.7717 -0.3575 -0.0444
 5164SOL     OW26950   1.015   0.508  16.754  0.3164  0.8801 -0.1866
 5164SOL    HW126951   1.055   0.552  16.829 -1.4163  0.0835  1.1955
 5164SOL    HW226952   0.945   0.567  16.725 -0.2673 -0.3964 -1.3394
 5165SOL     OW26953   2.652   2.041  11.290 -0.1208  0.0354 -0.8173
 5165SOL    HW126954   2.713   1.997  11.232  0.4808 -0.1676 -0.0372
 5165SOL    HW226955   2.570   2.025  11.243 -0.2077 -1.5793 -0.1041
 5166SOL     OW26956   4.312   3.246  16.153  0.2813  0.6895 -0.2382
 5166SOL    HW126957   4.234   3.264  16.100  0.6986 -0.4116 -1.2101
 5166SOL    HW226958   4.341   3.337  16.164  0.6962  0.2859  2.1376
 5167SOL     OW26959   1.271   2.909   2.323 -0.1128 -0.2738 -0.1618
 5167SOL    HW126960   1.243   2.977   2.262 -0.2295  0.1851  0.4054
 5167SOL    HW226961   1.188   2.867   2.348  0.0645 -0.3170  0.3570
 5168SOL     OW26962   2.318   4.014   2.272 -0.4695 -0.6280  0.1666
 5168SOL    HW126963   2.262   3.936   2.269 -0.6735 -0.5575  2.3602
 5168SOL    HW226964   2.339   4.013   2.179 -0.3682 -0.7507  0.1901
 5169SOL     OW26965   1.132   3.450   8.269 -0.0798 -0.0287 -0.3743
 5169SOL    HW126966   1.196   3.402   8.216  0.0889 -1.5746  1.2412
 5169SOL    HW226967   1.171   3.532   8.299 -0.3023 -0.5155  1.2410
 5170SOL     OW26968   3.935   1.985   3.700  0.0704 -0.4312 -0.2153
 5170SOL    HW126969   3.869   2.015   3.638 -2.3627 -0.6830  2.2439
 5170SOL    HW226970   3.973   1.913   3.649 -0.3656 -0.0290 -1.1066
 5171SOL     OW26971   3.411   4.490   0.022  0.4438  0.2007 -0.1065
 5171SOL    HW126972   3.358   4.474   0.099  1.5662  1.4500  0.9312
 5171SOL    HW226973   3.426   4.585   0.015  1.6018  0.0805  0.7127
 5172SOL     OW26974   3.667   2.667   1.213  0.1366 -0.1492 -0.1074
 5172SOL    HW126975   3.700   2.588   1.171 -0.2377 -0.2184 -0.2662
 5172SOL    HW226976   3.579   2.642   1.240 -0.6201  2.8640  0.2729
 5173SOL     OW26977   1.527   1.300   2.608  0.1119 -0.2419  0.0364
 5173SOL    HW126978   1.554   1.334   2.694  0.9256 -0.5357 -0.1058
 5173SOL    HW226979   1.537   1.382   2.560  3.3790  0.4475  1.8476
 5174SOL     OW26980   3.080   3.465   4.081  0.3387  0.2245  0.3757
 5174SOL    HW126981   3.046   3.421   4.159 -2.8290 -1.8956 -2.1950
 5174SOL    HW226982   3.051   3.410   4.008 -1.0157 -0.8972  1.7533
 5175SOL     OW26983   0.860   2.056   0.950 -0.1713  0.5267 -0.7217
 5175SOL    HW126984   0.868   2.146   0.918 -2.3580  0.4841 -1.3575
 5175SOL    HW226985   0.823   2.081   1.034 -0.6018  0.2582 -0.8353
 5176SOL     OW26986   4.588   0.840  15.195 -0.1213 -0.3422  0.2361
 5176SOL    HW126987   4.508   0.845  15.142 -0.5910  3.3187  1.3116
 5176SOL    HW226988   4.656   0.809  15.136  0.9083 -2.3200  2.4645
 5177SOL     OW26989   1.789   0.242   6.743  0.2111 -0.6711 -0.6434
 5177SOL    HW126990   1.762   0.290   6.821  0.0942 -0.9518 -0.5127
 5177SOL    HW226991   1.749   0.156   6.752  0.1370 -0.6259 -0.5385
 5178SOL     OW26992   1.999   3.448  16.719 -0.3756 -0.0490  0.9877
 5178SOL    HW126993   2.091   3.436  16.741  0.0033 -0.3787 -0.7542
 5178SOL    HW226994   1.969   3.475  16.806  0.3155 -2.4418  1.9545
 5179SOL     OW26995   3.949   3.898   7.404  0.5275 -0.2982 -0.2273
 5179SOL    HW126996   3.966   3.970   7.342 -0.7155  0.9509  0.8721
 5179SOL    HW226997   3.857   3.883   7.381  0.7100 -1.2315 -0.3460
 5180SOL     OW26998   0.045   1.128  16.159 -0.0700 -0.5551  0.1687
 5180SOL    HW126999   0.121   1.085  16.197  0.0077  1.2976  2.1490
 5180SOL    HW227000   0.081   1.214  16.135  0.5296 -0.3138  1.9413
 5181SOL     OW27001   0.467   0.909   3.374  0.6561 -0.2792  0.1372
 5181SOL    HW127002   0.421   0.992   3.383  1.9340  0.4098  0.2492
 5181SOL    HW227003   0.402   0.860   3.425 -1.6693  2.9285  0.2545
 5182SOL     OW27004   2.544   0.180   8.235 -0.2121 -0.3856 -0.4320
 5182SOL    HW127005   2.604   0.168   8.309  0.3579  0.0029 -0.8342
 5182SOL    HW227006   2.609   0.160   8.169 -0.2549 -2.3188  0.1044
 5183SOL     OW27007   2.204   2.984  12.222 -0.4855  0.4351  0.7759
 5183SOL    HW127008   2.218   2.980  12.127 -2.1156  1.0445  0.5199
 5183SOL    HW227009   2.122   3.032  12.234  2.1926  4.2840  3.5506
 5184SOL     OW27010   1.343   4.387   5.602 -0.3535  0.4282  0.8111
 5184SOL    HW127011   1.303   4.466   5.564 -1.6571 -0.3058  0.6407
 5184SOL    HW227012   1.265   4.343   5.637 -0.3268  0.2990  0.7078
 5185SOL     OW27013   2.277   1.547  16.433 -0.7291  0.3832 -0.0040
 5185SOL    HW127014   2.325   1.627  16.457  0.4687 -0.4668  0.4568
 5185SOL    HW227015   2.205   1.554  16.496  0.5153  1.3006  1.3324
 5186SOL     OW27016   3.599   0.704   5.405  0.4180  0.6351  0.0839
 5186SOL    HW127017   3.609   0.625   5.458  0.7714 -0.5833 -1.7970
 5186SOL    HW227018   3.594   0.777   5.468 -0.5977  1.1411 -0.5920
 5187SOL     OW27019   0.718   4.712   3.978  1.3527  0.3624 -0.1087
 5187SOL    HW127020   0.756   4.699   4.065  1.1587 -1.4087 -0.2690
 5187SOL    HW227021   0.722   0.084   3.970  0.2510  0.6103  2.6063
 5188SOL     OW27022   3.411   0.042   4.734 -0.4569  0.7134  0.1409
 5188SOL    HW127023   3.357   0.059   4.658 -0.2292 -0.3494 -0.2569
 5188SOL    HW227024   3.347   4.712   4.782 -1.3485  1.2749 -0.4293
 5189SOL     OW27025   1.388   2.971   6.929 -0.0131  0.3170 -0.2070
 5189SOL    HW127026   1.321   3.039   6.924  0.1927  0.5018 -0.4580
 5189SOL    HW227027   1.375   2.955   7.023 -0.9333 -0.9334 -0.5401
 5190SOL     OW27028   2.892   0.334   7.463 -0.3984 -0.5898 -0.6154
 5190SOL    HW127029   2.901   0.398   7.393  0.1967  0.5646  0.5286
 5190SOL    HW227030   2.838   0.264   7.426 -2.1229 -0.5487  1.8040
 5191SOL     OW27031   3.316   1.452   2.465  0.1535 -0.1184 -0.0439
 5191SOL    HW127032   3.263   1.381   2.502 -0.8912 -0.0677 -1.4484
 5191SOL    HW227033   3.381   1.473   2.531 -0.1999  2.7831 -0.6249
 5192SOL     OW27034   3.486   2.285   4.256 -0.2035  0.0193 -0.4104
 5192SOL    HW127035   3.460   2.218   4.318  0.3252  1.7573  1.7149
 5192SOL    HW227036   3.443   2.258   4.175  0.7572 -0.8264 -0.6372
 5193SOL     OW27037   1.988   1.303   6.919  0.2378 -0.1058 -0.4127
 5193SOL    HW127038   1.932   1.375   6.892  0.3894 -0.2337 -1.0552
 5193SOL    HW227039   2.070   1.345   6.942 -0.2530  0.8658 -0.4573
 5194SOL     OW27040   0.599   0.864   5.239  0.7243  0.1170  0.0766
 5194SOL    HW127041   0.639   0.819   5.164 -1.4559 -2.0891  0.2242
 5194SOL    HW227042   0.621   0.952   5.212 -1.8024  0.1886 -1.7317
 5195SOL     OW27043   4.146   1.195   4.648  0.1881  0.2872 -0.1999
 5195SOL    HW127044   4.174   1.120   4.701  0.8854  0.7660  0.1081
 5195SOL    HW227045   4.074   1.150   4.604  0.9652 -1.1600  0.0156
 5196SOL     OW27046   1.461   0.634   9.381 -0.1653  0.6175  0.0639
 5196SOL    HW127047   1.475   0.725   9.408 -0.5773  0.0409  2.1713
 5196SOL    HW227048   1.370   0.643   9.351  0.6437  3.9825 -1.3741
 5197SOL     OW27049   3.084   0.023   2.436 -0.6414 -0.1726 -0.0964
 5197SOL    HW127050   3.067   4.656   2.463  0.5810 -0.6724 -0.9701
 5197SOL    HW227051   3.157   0.042   2.496 -2.1217  1.3235  1.2094
 5198SOL     OW27052   0.361   3.637  17.222 -0.0378 -0.7454  0.0579
 5198SOL    HW127053   0.455   3.619  17.230  0.3925  0.8311 -1.3584
 5198SOL    HW227054   0.325   3.572  17.282  1.4608 -2.0554 -0.4569
 5199SOL     OW27055   3.260   3.632   6.320 -0.2048  0.0806 -0.4456
 5199SOL    HW127056   3.200   3.598   6.387  1.0608  0.9579  1.1423
 5199SOL    HW227057   3.195   3.693   6.286 -0.5975 -0.9316 -1.4962
 5200SOL     OW27058   1.032   3.852   5.542 -0.7462 -0.0308  0.5324
 5200SOL    HW127059   1.045   3.851   5.447  2.8144 -2.4393  1.0578
 5200SOL    HW227060   1.104   3.791   5.560 -1.1537 -0.9783 -1.0121
 5201SOL     OW27061   1.246   2.056   8.439 -0.2832  0.2455 -0.2491
 5201SOL    HW127062   1.237   2.008   8.521 -3.9433 -0.7383 -1.2442
 5201SOL    HW227063   1.298   1.986   8.399  0.4323 -0.1067  1.3071
 5202SOL     OW27064   1.792   4.010   0.152  0.5226 -0.4641 -0.3495
 5202SOL    HW127065   1.708   4.010   0.107  0.1667 -0.8222  0.3159
 5202SOL    HW227066   1.759   3.993   0.240 -2.8583  1.5117 -1.2309
 5203SOL     OW27067   2.903   4.475  11.982  0.2430  0.6486 -0.2177
 5203SOL    HW127068   2.938   4.406  11.925 -3.1812  0.2400 -1.8432
 5203SOL    HW227069   2.962   4.549  11.976  0.3289  0.5223 -1.0090
 5204SOL     OW27070   0.693   2.746   0.148  0.0474  0.2984 -0.0906
 5204SOL    HW127071   0.705   2.661   0.106  3.0730  0.4453  0.4907
 5204SOL    HW227072   0.610   2.772   0.108  0.9931  0.2548 -2.0813
 5205SOL     OW27073   0.758   4.451   9.112 -0.2111 -0.4211 -0.1924
 5205SOL    HW127074   0.720   4.379   9.062  0.1308 -2.6147  2.6613
 5205SOL    HW227075   0.684   4.468   9.171  0.4153  0.7815  0.2518
 5206SOL     OW27076   0.501   4.555   7.004 -0.3612 -0.0459  0.4746
 5206SOL    HW127077   0.547   4.573   6.921 -0.1010  2.5314  1.1973
 5206SOL    HW227078   0.572   4.533   7.064 -1.2316  0.2015  1.5779
 5207SOL     OW27079   3.518   2.950   2.569 -0.1961  0.7699 -0.5557
 5207SOL    HW127080   3.526   2.855   2.567  1.4692  0.9120  0.1109
 5207SOL    HW227081   3.424   2.971   2.571 -0.1031  0.9387  1.3930
 5208SOL     OW27082   4.330   0.778   8.339 -0.1676  0.5020  0.1153
 5208SOL    HW127083   4.395   0.786   8.269  0.7438 -0.5786  0.8431
 5208SOL    HW227084   4.292   0.693   8.317 -0.8830  0.5259  1.2622
 5209SOL     OW27085   4.298   0.417   3.942  0.0720  0.3171  0.1042
 5209SOL    HW127086   4.355   0.494   3.938 -0.2447  0.6573  2.5528
 5209SOL    HW227087   4.211   0.456   3.937  0.3052  0.8032 -0.1508
 5210SOL     OW27088   0.334   1.608   7.775 -0.5237  0.2293  0.5152
 5210SOL    HW127089   0.407   1.671   7.772 -0.3097  0.0079  1.1310
 5210SOL    HW227090   0.269   1.641   7.713  0.2873 -0.9266 -0.9505
 5211SOL     OW27091   2.775   2.806   1.777  0.0809 -0.5963  0.4192
 5211SOL    HW127092   2.763   2.801   1.683  1.3945 -1.7365  0.3017
 5211SOL    HW227093   2.869   2.788   1.777  0.5055  1.6506 -0.3066
 5212SOL     OW27094   1.536   3.917  14.621 -0.2464 -0.5946 -0.4122
 5212SOL    HW127095   1.605   3.853  14.636  1.4274  0.6559 -2.6819
 5212SOL    HW227096   1.578   3.989  14.574 -2.4611  0.4877 -0.7228
 5213SOL     OW27097   3.023   2.387   5.529  0.1626  0.3487  0.0410
 5213SOL    HW127098   2.937   2.366   5.566 -0.3715  2.9491  0.2723
 5213SOL    HW227099   3.003   2.429   5.446 -0.9424  0.9129  0.5930
 5214SOL     OW27100   3.868   2.004   2.305 -0.0324  0.0828  0.3034
 5214SOL    HW127101   3.902   1.915   2.310  1.3208  0.6442  1.2039
 5214SOL    HW227102   3.938   2.049   2.353 -0.3596  0.6752  0.2259
 5215SOL     OW27103   3.580   0.801   0.059 -0.3952 -0.0924 -0.5312
 5215SOL    HW127104   3.555   0.746   0.133 -1.4324  0.4947 -0.4415
 5215SOL    HW227105   3.623   0.731   0.010 -0.2293 -1.1257  1.1280
 5216SOL     OW27106   0.754   0.009  14.779  0.3675  0.0711  0.5827
 5216SOL    HW127107   0.666   0.047  14.788 -0.1415 -0.9261 -0.2132
 5216SOL    HW227108   0.811   0.085  14.767 -0.2623  0.4401 -0.1065
 5217SOL     OW27109   4.297   3.877   4.650 -0.4096  0.0062  0.7153
 5217SOL    HW127110   4.343   3.832   4.579  0.0904 -0.6562  1.4692
 5217SOL    HW227111   4.353   3.950   4.676 -1.2172  0.4631  1.1962
 5218SOL     OW27112   1.534   2.950   4.234  0.0196 -0.6631 -0.1131
 5218SOL    HW127113   1.530   2.998   4.317 -0.0408 -1.9080  0.6121
 5218SOL    HW227114   1.463   2.992   4.187 -0.3367 -1.0861  0.0409
 5219SOL     OW27115   1.933   0.372   1.496 -0.7246 -0.1242  0.1205
 5219SOL    HW127116   2.009   0.329   1.535 -1.0077 -0.5277  0.2234
 5219SOL    HW227117   1.966   0.452   1.456 -0.6753 -0.8485 -1.3214
 5220SOL     OW27118   4.258   1.486   9.479 -0.1980  0.2338  0.1941
 5220SOL    HW127119   4.266   1.557   9.543  0.1606  1.3006 -1.0285
 5220SOL    HW227120   4.310   1.420   9.524  0.6815 -0.5292 -1.9516
 5221SOL     OW27121   1.501   3.769   0.324  0.4482  0.8328 -0.7512
 5221SOL    HW127122   1.571   3.704   0.320 -0.5950 -0.2976 -0.3335
 5221SOL    HW227123   1.552   3.843   0.358  0.8377  1.1476 -2.0026
 5222SOL     OW27124   3.852   1.643  15.507 -0.0247  0.2590  0.3506
 5222SOL    HW127125   3.885   1.708  15.445  0.2737 -0.1502  0.0771
 5222SOL    HW227126   3.828   1.577  15.442  1.1133  0.6747 -0.5006
 5223SOL     OW27127   0.966   3.715   8.045  0.1761  0.2053  0.1668
 5223SOL    HW127128   0.919   3.690   8.124 -1.4620 -2.3943 -1.6293
 5223SOL    HW227129   0.895   3.758   7.996  0.0722  1.0562  1.0651
 5224SOL     OW27130   1.693   4.085  13.326  0.6046  0.3491 -0.4306
 5224SOL    HW127131   1.688   4.002  13.374  0.5994  0.6880  0.1621
 5224SOL    HW227132   1.695   4.151  13.396 -0.2591  1.3509 -1.3383
 5225SOL     OW27133   3.378   4.458  10.203 -0.0042  0.2295 -0.0845
 5225SOL    HW127134   3.322   4.383  10.223  1.5639 -0.3695  2.0128
 5225SOL    HW227135   3.438   4.422  10.138  1.3913 -1.0000  1.8836
 5226SOL     OW27136   2.547   3.732  15.012 -0.1679 -0.5413  0.1921
 5226SOL    HW127137   2.526   3.747  14.919 -0.8645  0.6425  0.5526
 5226SOL    HW227138   2.513   3.813  15.048  0.5251 -0.6695  1.1191
 5227SOL     OW27139   0.803   0.202   8.597  0.3103  0.2764 -0.0444
 5227SOL    HW127140   0.772   0.284   8.560  0.6385 -0.2932 -1.5763
 5227SOL    HW227141   0.802   0.148   8.518 -0.8574  0.5053 -0.1836
 5228SOL     OW27142   1.698   4.713   6.751  0.3885 -0.5343 -0.0042
 5228SOL    HW127143   1.712   4.655   6.677 -2.9992 -1.4529  0.0542
 5228SOL    HW227144   1.605   4.692   6.756  0.5061 -0.7328  1.6451
 5229SOL     OW27145   2.888   2.050   6.728  0.3005  0.6825 -0.0275
 5229SOL    HW127146   2.942   2.036   6.805  0.4771 -1.5553 -0.5319
 5229SOL    HW227147   2.952   2.043   6.657  0.9951  0.8074  0.5840
 5230SOL     OW27148   2.520   0.736   9.188  0.0660  0.8090  0.2611
 5230SOL    HW127149   2.606   0.726   9.229  0.3038 -1.1509 -0.7149
 5230SOL    HW227150   2.465   0.668   9.228  0.0371  0.4561 -0.3863
 5231SOL     OW27151   1.548   3.059   7.413  0.2405 -0.6017  0.6282
 5231SOL    HW127152   1.545   3.154   7.405  2.5623 -0.6061 -0.2748
 5231SOL    HW227153   1.635   3.037   7.382 -0.2262  1.4709 -2.1991
 5232SOL     OW27154   0.036   2.014   8.547 -0.5774 -0.3140 -0.2119
 5232SOL    HW127155   0.081   2.097   8.536  0.8683 -0.8923  1.2580
 5232SOL    HW227156   4.721   1.997   8.461 -0.4109 -0.1274 -0.3214
 5233SOL     OW27157   1.822   1.493  16.579 -0.5643 -0.1605  0.0420
 5233SOL    HW127158   1.838   1.488  16.484  1.3379  1.3235  0.2738
 5233SOL    HW227159   1.900   1.446  16.609 -0.0646  0.5013 -0.2075
 5234SOL     OW27160   2.970   3.213   0.614 -0.3856  0.6553  0.0275
 5234SOL    HW127161   3.000   3.253   0.533  1.0645 -1.2134 -0.3649
 5234SOL    HW227162   2.880   3.245   0.619 -0.4822  0.2230  1.3338
 5235SOL     OW27163   2.052   2.792   3.494  0.2521 -0.1485 -0.1815
 5235SOL    HW127164   2.014   2.704   3.493 -1.6701  0.6904 -1.6909
 5235SOL    HW227165   2.081   2.816   3.406  2.7910 -1.1625  0.3773
 5236SOL     OW27166   4.025   3.131   0.844 -0.5459  0.7779 -0.4156
 5236SOL    HW127167   4.048   3.206   0.788  2.2823 -1.0940 -1.7560
 5236SOL    HW227168   3.932   3.135   0.866 -0.9909 -0.8157 -2.0253
 5237SOL     OW27169   4.671   3.012   4.208  0.0064  0.0005 -0.0230
 5237SOL    HW127170   0.006   3.086   4.225 -0.8210  0.4792  0.7712
 5237SOL    HW227171   4.633   3.005   4.296 -0.7892 -2.1121 -0.5541
 5238SOL     OW27172   2.221   0.948   9.311  0.0161 -0.1556  0.4122
 5238SOL    HW127173   2.264   0.911   9.388  2.3992  0.4043 -0.6646
 5238SOL    HW227174   2.194   1.031   9.349 -0.1081  0.7190 -1.5950
 5239SOL     OW27175   2.655   2.885   8.355  0.3194 -0.0445  0.1053
 5239SOL    HW127176   2.644   2.841   8.439 -0.1236  0.2317  0.1898
 5239SOL    HW227177   2.740   2.924   8.373  0.7279 -0.6850 -0.4277
 5240SOL     OW27178   3.878   1.032   8.462  1.1376 -0.0759  0.1214
 5240SOL    HW127179   3.816   0.960   8.465  0.5990  0.4890  2.2379
 5240SOL    HW227180   3.948   0.982   8.505 -1.4955 -1.5724  2.6641
 5241SOL     OW27181   2.359   0.562   9.296  0.2169 -0.2444 -0.0934
 5241SOL    HW127182   2.311   0.595   9.371 -0.6076 -1.3046 -0.1598
 5241SOL    HW227183   2.310   0.481   9.284  1.6107 -1.2558  1.0578
 5242SOL     OW27184   4.483   0.251   9.331  0.2914  0.2038 -0.3896
 5242SOL    HW127185   4.502   0.338   9.297 -1.2341  0.3388 -0.9311
 5242SOL    HW227186   4.459   0.201   9.253  1.6652 -2.6331  1.0147
 5243SOL     OW27187   2.478   1.663  17.278  0.2804 -0.4881  1.0993
 5243SOL    HW127188   2.398   1.653  17.227  1.2909 -2.1379 -0.1946
 5243SOL    HW227189   2.436   1.697  17.357 -0.7490 -0.3052  0.4672
 5244SOL     OW27190   3.361   3.937   5.117 -0.3067  0.2550 -0.0523
 5244SOL    HW127191   3.439   3.920   5.064  0.1907 -1.7851  1.3432
 5244SOL    HW227192   3.296   3.900   5.058 -0.7454  1.9121 -0.5991
 5245SOL     OW27193   0.226   3.301  16.164 -0.0093 -0.0047  0.6006
 5245SOL    HW127194   0.188   3.299  16.252 -1.1346  2.0365  0.1367
 5245SOL    HW227195   0.154   3.289  16.102 -0.2055  0.7996  0.6787
 5246SOL     OW27196   3.424   3.354   1.695  0.0380  0.0994  0.7311
 5246SOL    HW127197   3.403   3.261   1.706 -1.1237  0.3792  0.9012
 5246SOL    HW227198   3.407   3.384   1.784 -1.4263  0.6981  0.2463
 5247SOL     OW27199   2.445   0.820   3.493 -0.3179  0.5600  0.1706
 5247SOL    HW127200   2.526   0.812   3.443 -0.7175 -2.4441 -0.0018
 5247SOL    HW227201   2.482   0.798   3.578  2.3490 -1.8817 -1.6386
 5248SOL     OW27202   3.343   0.797   3.750 -0.3823  0.2305 -0.5620
 5248SOL    HW127203   3.358   0.884   3.785 -0.0431  0.4873 -1.3358
 5248SOL    HW227204   3.419   0.781   3.694 -0.3224 -1.3319 -0.0399
 5249SOL     OW27205   1.037   2.529   2.529  0.4086 -0.3728  0.6257
 5249SOL    HW127206   0.961   2.476   2.552  2.1918 -2.3310  2.0900
 5249SOL    HW227207   1.016   2.565   2.443  1.0818 -1.5288 -0.0249
 5250SOL     OW27208   0.181   4.567  17.454  0.0850  0.2647  0.0423
 5250SOL    HW127209   0.206   4.540  17.542  1.5666  4.7167  1.0285
 5250SOL    HW227210   0.226   4.503  17.400 -0.3065  0.0697 -0.0542
 5251SOL     OW27211   2.971   0.644  15.595  0.1803  0.2372  0.3844
 5251SOL    HW127212   2.923   0.635  15.512  0.3433  1.0050  0.2055
 5251SOL    HW227213   2.977   0.739  15.599 -0.0009  0.3043 -0.8247
 5252SOL     OW27214   4.688   3.138   1.326 -0.3820  0.4421 -0.2316
 5252SOL    HW127215   4.630   3.212   1.340  0.4490  0.9862  0.3920
 5252SOL    HW227216   4.629   3.068   1.355 -1.0493  1.7577  1.5808
 5253SOL     OW27217   3.151   2.764   8.805  0.3334  0.1482 -0.6213
 5253SOL    HW127218   3.083   2.718   8.854 -0.1228  2.2896  0.7333
 5253SOL    HW227219   3.223   2.761   8.867  0.6311 -0.3897 -0.9933
 5254SOL     OW27220   1.461   1.732   3.215  0.1540 -0.2565  0.2452
 5254SOL    HW127221   1.449   1.639   3.196 -0.0777 -0.2730  0.4799
 5254SOL    HW227222   1.457   1.746   3.309 -1.1548  0.6206  0.0639
 5255SOL     OW27223   2.774   3.490   7.668 -0.2722 -0.1740  0.2312
 5255SOL    HW127224   2.869   3.479   7.680 -0.1725  0.8951  0.4128
 5255SOL    HW227225   2.743   3.400   7.679  1.6054 -0.5483  2.4161
 5256SOL     OW27226   2.376   1.765   1.686  0.0515 -0.5204 -0.6468
 5256SOL    HW127227   2.359   1.854   1.719  0.3595 -1.4101  1.9476
 5256SOL    HW227228   2.411   1.783   1.599  3.2378  0.4778  0.8358
 5257SOL     OW27229   2.671   2.182   5.030 -0.4456  0.2681  0.2718
 5257SOL    HW127230   2.703   2.143   5.112  2.0193  2.4497  0.3512
 5257SOL    HW227231   2.591   2.134   5.012  0.4372 -0.0202 -2.9084
 5258SOL     OW27232   4.450   4.502   1.653  0.3876  0.0547  0.5529
 5258SOL    HW127233   4.517   4.504   1.721  0.5110 -0.0694  0.4367
 5258SOL    HW227234   4.480   4.572   1.595 -0.9280  0.1082 -0.0713
 5259SOL     OW27235   3.484   2.536   1.009  0.2974 -0.1510  0.4596
 5259SOL    HW127236   3.476   2.444   1.035 -0.0681 -0.9958 -2.5869
 5259SOL    HW227237   3.573   2.568   1.023  0.4099  1.1567 -3.2115
 5260SOL     OW27238   0.419   2.873   5.372  0.3168  0.0634 -0.2164
 5260SOL    HW127239   0.374   2.924   5.439 -2.5851 -2.0428 -0.6005
 5260SOL    HW227240   0.474   2.816   5.426 -1.3985 -1.0728  0.3103
 5261SOL     OW27241   4.438   0.328   8.107  0.4577 -0.5726  0.0501
 5261SOL    HW127242   4.506   0.328   8.039 -1.0003  2.2599 -1.4004
 5261SOL    HW227243   4.495   0.339   8.183  1.5583 -0.3341 -0.7946
 5262SOL     OW27244   3.167   1.028   5.655  0.1251 -0.0256 -0.2481
 5262SOL    HW127245   3.201   0.943   5.685  2.6468  0.7009 -1.0288
 5262SOL    HW227246   3.073   1.017   5.647  0.4757 -2.3752 -1.1169
 5263SOL     OW27247   4.027   2.825  10.269 -0.1869 -0.2712  0.0787
 5263SOL    HW127248   4.094   2.764  10.302  1.8463  1.5133 -0.7337
 5263SOL    HW227249   4.059   2.857  10.185 -3.1629  0.6426 -0.6801
 5264SOL     OW27250   2.355   3.482  10.608  0.1910 -0.1963 -0.3692
 5264SOL    HW127251   2.432   3.464  10.554  0.1827  2.1573 -1.1506
 5264SOL    HW227252   2.380   3.444  10.692  0.6417 -0.3700 -0.5833
 5265SOL     OW27253   1.472   2.511   2.245  0.0605 -0.2014 -0.2908
 5265SOL    HW127254   1.470   2.415   2.254 -1.4294 -0.1599 -0.1587
 5265SOL    HW227255   1.561   2.525   2.277  0.1038 -3.1110  0.8829
 5266SOL     OW27256   3.093   3.941   8.153 -0.1048 -0.7953  0.4166
 5266SOL    HW127257   3.040   3.935   8.233  0.2908 -0.6947  0.6843
 5266SOL    HW227258   3.023   3.939   8.087 -0.3258  1.1002  0.5878
 5267SOL     OW27259   3.468   4.695   7.517  0.5032 -0.5533 -0.4127
 5267SOL    HW127260   3.446   0.065   7.511  1.5330 -0.2125  0.9072
 5267SOL    HW227261   3.430   4.663   7.435 -1.3414  2.2394 -0.6368
 5268SOL     OW27262   1.153   2.892   3.905 -0.7836  0.3843 -0.0360
 5268SOL    HW127263   1.229   2.838   3.887 -0.3258  1.5964 -1.6935
 5268SOL    HW227264   1.167   2.971   3.852  2.1365 -0.6389 -0.7921
 5269SOL     OW27265   0.055   4.530   4.501 -1.0942  0.4407 -0.3320
 5269SOL    HW127266   0.096   4.449   4.530 -1.2904  0.4019 -0.1597
 5269SOL    HW227267   0.021   4.523   4.412 -0.9204 -0.7598 -0.3001
 5270SOL     OW27268   0.667   2.271  10.647  0.0329 -0.1101 -0.7015
 5270SOL    HW127269   0.715   2.253  10.566  3.4749  1.3484  1.0274
 5270SOL    HW227270   0.688   2.197  10.704 -4.2812 -1.5554 -0.9925
 5271SOL     OW27271   1.914   2.430  16.926  0.2045 -0.3100 -0.1290
 5271SOL    HW127272   1.923   2.520  16.895  1.3683 -1.0789 -2.0233
 5271SOL    HW227273   1.818   2.430  16.934  0.3114  0.3474  1.1964
 5272SOL     OW27274   1.410   4.117   3.051 -0.2149 -0.2542 -0.7907
 5272SOL    HW127275   1.501   4.122   3.080 -0.6657  0.9546  0.3738
 5272SOL    HW227276   1.358   4.170   3.112 -1.8683 -3.5042  0.6666
 5273SOL     OW27277   0.497   3.373   5.920  0.2071  0.1748  0.1570
 5273SOL    HW127278   0.575   3.417   5.886  1.0758  0.4411  2.4847
 5273SOL    HW227279   0.439   3.448   5.913 -2.3881 -1.7735  0.7350
 5274SOL     OW27280   3.189   3.449   4.785  0.4766  0.5021  0.5733
 5274SOL    HW127281   3.220   3.433   4.695  1.3629  0.7560  0.8318
 5274SOL    HW227282   3.265   3.409   4.827  0.2852  2.0911  2.4137
 5275SOL     OW27283   4.318   2.589  15.280 -0.0336  0.1662 -0.0138
 5275SOL    HW127284   4.297   2.644  15.205 -0.0882 -0.0145 -0.1313
 5275SOL    HW227285   4.229   2.587  15.316  0.5031 -1.0720  1.2403
 5276SOL     OW27286   2.870   1.775   6.004 -0.0077  0.2829 -0.1716
 5276SOL    HW127287   2.814   1.698   5.996 -0.4276  0.5168  0.5409
 5276SOL    HW227288   2.927   1.766   5.927  0.0331 -0.0896 -0.0975
 5277SOL     OW27289   0.144   1.914   1.657 -0.1284  0.1933 -0.6600
 5277SOL    HW127290   0.217   1.896   1.717 -2.4328  0.1912  2.1065
 5277SOL    HW227291   0.098   1.968   1.720  1.4586  1.4777 -0.5984
 5278SOL     OW27292   0.573   2.604   2.478  0.0799 -0.0647  0.1954
 5278SOL    HW127293   0.500   2.563   2.431 -1.5015  1.4758  1.3382
 5278SOL    HW227294   0.537   2.611   2.566  0.0286 -0.0832  0.1759
 5279SOL     OW27295   2.611   0.262   1.951  0.0584  0.0683 -0.1922
 5279SOL    HW127296   2.681   0.327   1.955 -0.1004  0.0847  2.5328
 5279SOL    HW227297   2.652   0.205   1.886 -1.4280  0.3113 -1.3411
 5280SOL     OW27298   2.677   3.146   4.759  0.1872  0.0126 -0.2622
 5280SOL    HW127299   2.708   3.223   4.806 -0.5971 -0.8466  1.7115
 5280SOL    HW227300   2.583   3.162   4.764 -0.1416 -2.0546  0.2605
 5281SOL     OW27301   1.731   1.842  13.679  0.0058 -0.1687 -0.1435
 5281SOL    HW127302   1.727   1.865  13.772  0.5526 -1.5101  0.2097
 5281SOL    HW227303   1.707   1.750  13.690 -2.0488  0.4490  0.6396
 5282SOL     OW27304   0.412   1.393  16.067  0.4754  0.2228 -0.4211
 5282SOL    HW127305   0.416   1.471  16.011  1.2104 -0.3984 -1.2401
 5282SOL    HW227306   0.435   1.421  16.156  0.2629 -0.9443 -0.0024
 5283SOL     OW27307   4.188   2.063   5.098  0.0256 -0.2670 -0.2271
 5283SOL    HW127308   4.278   2.038   5.121 -0.1342 -1.5635 -0.9869
 5283SOL    HW227309   4.139   1.982   5.114 -1.6144  0.2386 -2.6488
 5284SOL     OW27310   1.966   1.132   5.208 -0.1597 -0.1583 -0.0050
 5284SOL    HW127311   2.057   1.148   5.186 -0.6323 -0.0951 -1.8757
 5284SOL    HW227312   1.974   1.038   5.226 -0.0831 -0.8116 -3.5749
 5285SOL     OW27313   2.034   1.084  17.420  0.8417 -0.1276 -0.1793
 5285SOL    HW127314   2.098   1.123  17.361 -0.9323  3.3617  0.2023
 5285SOL    HW227315   2.064   1.128  17.500  0.1798  0.0284 -0.0156
 5286SOL     OW27316   4.709   2.136  16.824 -0.0858 -0.4183 -0.2748
 5286SOL    HW127317   0.017   2.058  16.870  1.0459  0.2540  0.1022
 5286SOL    HW227318   0.034   2.207  16.865 -0.0040 -0.6921  0.1020
 5287SOL     OW27319   4.262   3.865   0.952 -0.2154 -0.6395  0.0457
 5287SOL    HW127320   4.238   3.957   0.940 -1.7819 -1.2750 -1.8439
 5287SOL    HW227321   4.349   3.869   0.912 -0.0521  0.7259  0.5666
 5288SOL     OW27322   3.717   3.938  11.707 -0.0759  0.3292  0.5482
 5288SOL    HW127323   3.738   4.028  11.732  2.6447  0.1352 -0.9883
 5288SOL    HW227324   3.677   3.940  11.621 -1.5242 -2.1389  1.1788
 5289SOL     OW27325   0.054   4.101  11.622  0.0951 -0.0148  0.1914
 5289SOL    HW127326   0.043   4.037  11.552 -0.2646  1.2425 -0.9091
 5289SOL    HW227327   0.149   4.108  11.613  0.2556 -1.0069  1.1418
 5290SOL     OW27328   2.881   2.979   6.943 -0.2543 -0.8820 -0.4639
 5290SOL    HW127329   2.969   2.975   6.906 -0.4201  2.4286 -1.1351
 5290SOL    HW227330   2.909   2.969   7.035 -1.3888 -0.6414 -0.0983
 5291SOL     OW27331   0.049   2.321   4.613  0.6711 -0.4090 -0.4585
 5291SOL    HW127332   0.050   2.226   4.623 -1.8214 -0.4048 -0.1817
 5291SOL    HW227333   0.104   2.326   4.534  0.5612  0.9020 -0.4510
 5292SOL     OW27334   3.245   0.500   8.608 -0.4860 -0.4397  0.6752
 5292SOL    HW127335   3.226   0.406   8.616 -0.2501 -0.5175  0.3262
 5292SOL    HW227336   3.169   0.538   8.564  0.6455  1.8760  0.7110
 5293SOL     OW27337   1.154   0.071   7.943 -0.0966  0.0476  0.2653
 5293SOL    HW127338   1.239   0.075   7.988  0.6155 -1.2262 -0.9712
 5293SOL    HW227339   1.155   0.001   7.877 -2.0903  1.2062 -1.0008
 5294SOL     OW27340   4.364   3.453   6.559 -0.0694  0.2424 -0.0047
 5294SOL    HW127341   4.351   3.411   6.644  0.0053  0.2284 -0.0006
 5294SOL    HW227342   4.274   3.463   6.528 -0.0349 -3.0384 -1.1842
 5295SOL     OW27343   1.994   4.668  15.806 -0.3247 -0.0295  0.2583
 5295SOL    HW127344   1.944   0.024  15.783 -0.2609 -0.9971 -3.3012
 5295SOL    HW227345   2.048   4.692  15.882  2.0534 -1.6489 -0.9162
 5296SOL     OW27346   2.414   1.429  11.131 -0.4589  0.0101  0.2650
 5296SOL    HW127347   2.346   1.494  11.118 -0.5157 -0.1826 -0.4134
 5296SOL    HW227348   2.435   1.450  11.222 -0.5387  2.8359 -0.3893
 5297SOL     OW27349   0.797   1.430   5.758 -0.0744  0.1074 -0.0020
 5297SOL    HW127350   0.808   1.348   5.709  2.0180  1.3409 -1.6022
 5297SOL    HW227351   0.740   1.398   5.828  0.9574 -2.0689 -0.1485
 5298SOL     OW27352   3.435   3.531   5.609 -0.0506 -0.2417 -0.1526
 5298SOL    HW127353   3.381   3.565   5.538 -0.4675 -0.2213  0.1827
 5298SOL    HW227354   3.404   3.583   5.683 -1.3023  0.2576 -1.0267
 5299SOL     OW27355   4.621   1.804   1.252 -0.0345  0.4654 -0.3322
 5299SOL    HW127356   4.588   1.886   1.214 -1.7444 -0.0247  0.0957
 5299SOL    HW227357   4.598   1.745   1.181  1.4311 -1.6299  0.9441
 5300SOL     OW27358   3.218   1.966   4.849  0.7520  0.0231  0.5329
 5300SOL    HW127359   3.158   2.037   4.871  2.3579  0.6072  3.0818
 5300SOL    HW227360   3.276   1.961   4.925 -0.0331  0.8215  1.1929
 5301SOL     OW27361   4.517   4.085   8.241  0.5660 -0.0414  0.0578
 5301SOL    HW127362   4.456   4.025   8.198  2.1256 -1.3930 -0.2438
 5301SOL    HW227363   4.502   4.062   8.333  1.0556  1.1754  0.4497
 5302SOL     OW27364   1.015   0.456   9.522  0.4510 -0.1463 -0.1064
 5302SOL    HW127365   0.983   0.379   9.475 -1.1432  0.2021  0.4234
 5302SOL    HW227366   0.997   0.425   9.611  1.3296  2.5918  1.0344
 5303SOL     OW27367   2.422   2.045   5.018 -0.0094 -0.2245 -0.5262
 5303SOL    HW127368   2.338   2.013   5.050 -0.4026 -0.1978 -1.5233
 5303SOL    HW227369   2.444   1.970   4.961 -0.0115 -1.3184  0.9176
 5304SOL     OW27370   4.554   3.799   5.797  0.2799  0.3852 -0.3725
 5304SOL    HW127371   4.578   3.878   5.748  0.0213  1.2064  0.8408
 5304SOL    HW227372   4.636   3.765   5.834 -0.1267 -0.6142 -0.3940
 5305SOL     OW27373   4.429   1.720  10.990 -0.2197  0.0543  0.0614
 5305SOL    HW127374   4.358   1.759  11.042 -0.4896 -1.5476  0.8988
 5305SOL    HW227375   4.498   1.735  11.055  0.1535 -0.8796 -0.1285
 5306SOL     OW27376   3.118   0.695   3.912 -0.1112  0.0824 -0.6583
 5306SOL    HW127377   3.208   0.709   3.883  0.1766 -1.4720 -0.5026
 5306SOL    HW227378   3.088   0.608   3.886 -1.4494  0.5599 -0.6986
 5307SOL     OW27379   1.815   3.427  13.838  1.1465  0.3043 -0.0588
 5307SOL    HW127380   1.730   3.381  13.834 -0.1312  2.7488 -0.6266
 5307SOL    HW227381   1.828   3.439  13.932  4.5488 -0.9628 -0.3927
 5308SOL     OW27382   4.079   4.370   5.253  0.0426  0.5178  0.1943
 5308SOL    HW127383   4.111   4.448   5.299  1.6505 -0.2062  0.2870
 5308SOL    HW227384   4.054   4.327   5.335 -1.0039 -1.7102 -1.2902
 5309SOL     OW27385   0.880   2.328   7.882 -0.0625  0.2372  0.0580
 5309SOL    HW127386   0.927   2.278   7.950 -1.3927  1.5443  1.9534
 5309SOL    HW227387   0.864   2.402   7.940 -1.1210 -0.0744  0.1573
 5310SOL     OW27388   1.265   1.592   4.691  0.1006  0.0407 -0.3458
 5310SOL    HW127389   1.348   1.633   4.716  0.6450 -1.3928  0.2095
 5310SOL    HW227390   1.197   1.629   4.748  0.2299 -0.0469 -0.1329
 5311SOL     OW27391   4.036   1.837   3.212 -0.1724 -0.3505 -0.5115
 5311SOL    HW127392   4.082   1.920   3.217 -1.4624  0.3907 -0.9750
 5311SOL    HW227393   4.104   1.769   3.213  0.7165  0.5484 -0.0261
 5312SOL     OW27394   2.819   4.274   4.715 -0.4553  0.3126  0.2400
 5312SOL    HW127395   2.770   4.268   4.632  0.1766  1.6524 -0.2295
 5312SOL    HW227396   2.860   4.360   4.707 -0.7265  0.4200  0.0007
 5313SOL     OW27397   2.236   4.334   3.043 -0.2800 -0.5319  0.4546
 5313SOL    HW127398   2.220   4.286   2.962  1.0580 -0.0104 -0.1178
 5313SOL    HW227399   2.325   4.308   3.066  0.8335  1.2016 -1.9453
 5314SOL     OW27400   3.472   4.232  13.336 -0.0874 -0.3874 -0.3170
 5314SOL    HW127401   3.485   4.167  13.267 -1.9327  0.1153 -1.1356
 5314SOL    HW227402   3.511   4.308  13.294 -2.3644  0.8685 -0.1575
 5315SOL     OW27403   1.498   1.896   7.412 -0.0628 -0.3076 -0.1061
 5315SOL    HW127404   1.541   1.974   7.377 -2.1957  0.5376 -0.8956
 5315SOL    HW227405   1.478   1.920   7.503  0.3054 -0.4705  0.0168
 5316SOL     OW27406   3.994   0.305  14.770  0.5939 -0.1466 -1.1599
 5316SOL    HW127407   4.065   0.269  14.824 -2.1505 -0.1448  2.5111
 5316SOL    HW227408   4.049   0.321  14.694  0.4511  1.7863 -0.8429
 5317SOL     OW27409   0.086   0.760   8.850  0.3605 -0.0337  0.1247
 5317SOL    HW127410   4.715   0.776   8.854  0.3067 -0.0269 -1.0575
 5317SOL    HW227411   0.080   0.721   8.763 -1.3703 -1.4602  0.8892
 5318SOL     OW27412   2.604   1.548   6.668 -0.2971 -0.4422 -0.3167
 5318SOL    HW127413   2.594   1.625   6.612  0.2158 -0.5145 -0.5126
 5318SOL    HW227414   2.697   1.538   6.688 -0.8629  0.3223  2.6551
 5319SOL     OW27415   0.021   2.939   7.876 -0.3215 -0.3357 -0.0248
 5319SOL    HW127416   0.089   2.934   7.944 -0.9702 -1.9325  0.4994
 5319SOL    HW227417   0.064   2.910   7.795 -0.1798 -0.7501  0.2005
 5320SOL     OW27418   1.602   2.584   2.577  0.3988 -0.1763  0.2719
 5320SOL    HW127419   1.660   2.586   2.501  0.8395 -1.2493  0.5830
 5320SOL    HW227420   1.659   2.609   2.649 -1.7087  1.7313  1.2505
 5321SOL     OW27421   3.164   2.621  15.647 -0.1037  0.3314 -0.2953
 5321SOL    HW127422   3.234   2.642  15.709 -1.4408 -0.2576  1.4076
 5321SOL    HW227423   3.121   2.701  15.617  0.4839  1.0470  0.7504
 5322SOL     OW27424   3.091   2.133   8.559  0.1387 -0.2672  0.8185
 5322SOL    HW127425   3.032   2.186   8.506  1.5148 -0.1285 -0.5843
 5322SOL    HW227426   3.180   2.139   8.525 -0.4104 -0.7150 -0.7056
 5323SOL     OW27427   3.495   3.564   4.601  0.2278 -0.5283 -0.0344
 5323SOL    HW127428   3.584   3.559   4.567  0.0331  0.8604 -0.7299
 5323SOL    HW227429   3.491   3.486   4.657  0.7643  0.2386  1.0572
 5324SOL     OW27430   0.249   0.654   7.383 -0.1875 -0.1489  0.3325
 5324SOL    HW127431   0.240   0.648   7.288 -0.4791  0.1114  0.3425
 5324SOL    HW227432   0.298   0.736   7.389  1.1942 -1.0166  0.9622
 5325SOL     OW27433   2.606   2.548   3.031  0.4455  0.2467 -0.3201
 5325SOL    HW127434   2.667   2.550   2.957 -1.8163  1.8920 -2.1051
 5325SOL    HW227435   2.529   2.495   3.010 -0.6726  1.8807 -0.2873
 5326SOL     OW27436   0.273   0.943   8.902  0.6165  0.4977  0.7396
 5326SOL    HW127437   0.341   0.892   8.858  0.4756 -0.2352  1.3600
 5326SOL    HW227438   0.199   0.883   8.889  1.3717 -0.2303 -0.1251
 5327SOL     OW27439   3.159   3.748   3.007  0.4991 -0.1809  0.4189
 5327SOL    HW127440   3.072   3.782   3.027 -0.4143 -1.8915 -0.6452
 5327SOL    HW227441   3.203   3.831   2.986 -2.4578  0.7320 -2.2171
 5328SOL     OW27442   1.430   1.176  14.882 -0.2879  0.0131 -0.2640
 5328SOL    HW127443   1.430   1.219  14.797  1.5187  1.1352  0.3154
 5328SOL    HW227444   1.337   1.169  14.904 -0.2908  2.2105  0.4389
 5329SOL     OW27445   0.616   1.703   8.729 -0.2661  0.7430 -0.1062
 5329SOL    HW127446   0.568   1.764   8.786 -0.2121  1.1315 -0.4744
 5329SOL    HW227447   0.582   1.719   8.641 -0.0062  0.9843 -0.1634
 5330SOL     OW27448   4.243   1.720   6.589 -0.3881  0.1172 -0.4511
 5330SOL    HW127449   4.281   1.796   6.631 -0.3802 -0.5240  0.6928
 5330SOL    HW227450   4.206   1.745   6.504 -0.1411 -2.8600 -1.4565
 5331SOL     OW27451   2.779   4.148  12.215  0.2661  0.3828  0.1656
 5331SOL    HW127452   2.762   4.093  12.139 -1.8594  3.0633 -1.2992
 5331SOL    HW227453   2.813   4.089  12.283 -1.5811 -1.3031 -0.3729
 5332SOL     OW27454   3.355   0.064  11.461 -0.0663  0.4589  0.2909
 5332SOL    HW127455   3.276   0.047  11.410  0.5991 -0.6775 -0.3612
 5332SOL    HW227456   3.352   4.719  11.529 -0.4196 -1.3729 -1.5757
 5333SOL     OW27457   4.664   1.777   0.529 -0.3993  0.0294 -0.0245
 5333SOL    HW127458   4.600   1.722   0.574 -0.5797 -0.6761 -1.1474
 5333SOL    HW227459   0.003   1.707   0.506 -0.1188  0.1738  0.2969
 5334SOL     OW27460   3.255   4.583   3.295 -0.0854 -0.3296  0.2194
 5334SOL    HW127461   3.266   4.512   3.232  2.2778 -1.5108  1.9239
 5334SOL    HW227462   3.273   4.537   3.378  2.1347  0.9766  0.4686
 5335SOL     OW27463   3.834   2.318   6.733  0.4158  0.1300  0.6065
 5335SOL    HW127464   3.871   2.230   6.735  1.2350  0.4637 -0.5030
 5335SOL    HW227465   3.807   2.323   6.825  0.1720  3.1195  0.3594
 5336SOL     OW27466   4.701   4.017   1.260 -0.1554 -0.7316 -0.2639
 5336SOL    HW127467   4.715   4.006   1.354 -1.4920  1.0834  0.1567
 5336SOL    HW227468   4.616   3.975   1.251  0.9316 -2.3596 -3.0343
 5337SOL     OW27469   3.970   2.493   9.395  0.1104 -0.2356  0.8585
 5337SOL    HW127470   4.023   2.463   9.321 -0.2802  0.9495  0.1133
 5337SOL    HW227471   3.941   2.409   9.430  0.3695 -0.1871  1.1884
 5338SOL     OW27472   4.644   3.637   2.220  0.0326  0.4975  0.3443
 5338SOL    HW127473   4.699   3.704   2.179 -0.2532 -0.1889 -1.1712
 5338SOL    HW227474   4.707   3.580   2.263  1.5578  2.0399  0.1806
 5339SOL     OW27475   1.891   0.887   7.392  0.3342  0.0460 -0.1629
 5339SOL    HW127476   1.801   0.920   7.394  0.7635  1.4371 -4.8392
 5339SOL    HW227477   1.926   0.924   7.473  1.6896  0.9005 -1.1484
 5340SOL     OW27478   3.547   1.443   0.450  0.2269 -0.1890  0.2444
 5340SOL    HW127479   3.490   1.426   0.526  0.0233 -0.2387  0.0804
 5340SOL    HW227480   3.632   1.411   0.481  0.8347  0.6622 -0.5665
 5341SOL     OW27481   0.342   0.879   2.531  0.8977 -0.0002 -0.5140
 5341SOL    HW127482   0.413   0.841   2.583 -0.5879 -0.4751  1.1426
 5341SOL    HW227483   0.373   0.860   2.442 -0.0449  0.2714 -0.8962
 5342SOL     OW27484   3.155   1.614   3.012  0.1984 -0.1352 -0.6318
 5342SOL    HW127485   3.100   1.540   2.987  1.8481 -1.1460 -1.2830
 5342SOL    HW227486   3.241   1.574   3.023  0.4049  0.7628  0.9364
 5343SOL     OW27487   0.863   1.639   2.123 -0.1244  0.0651  0.3911
 5343SOL    HW127488   0.886   1.567   2.065 -1.1181  0.0206  0.0449
 5343SOL    HW227489   0.951   1.644   2.160  0.2496 -0.6262 -0.4153
 5344SOL     OW27490   2.589   3.633  17.666  0.0505 -0.7534 -0.8016
 5344SOL    HW127491   2.682   3.653  17.656  0.1608 -1.0573 -0.3771
 5344SOL    HW227492   2.550   3.712  17.628  0.6652 -0.4186 -0.7421
 5345SOL     OW27493   4.513   4.604   2.400  0.2910 -0.2352  0.2916
 5345SOL    HW127494   4.427   4.571   2.374  1.0438 -0.8116 -1.4561
 5345SOL    HW227495   4.487   4.682   2.450  0.4282  1.2826 -2.0433
 5346SOL     OW27496   0.995   2.380  16.435 -0.8589  0.1785  0.0784
 5346SOL    HW127497   0.996   2.437  16.512  0.5371 -0.7223  0.7337
 5346SOL    HW227498   0.927   2.431  16.391 -0.2905 -0.1073 -1.1171
 5347SOL     OW27499   4.123   4.206   4.797 -0.4708  0.5934 -0.4666
 5347SOL    HW127500   4.032   4.177   4.810  0.0436 -1.0518 -0.4788
 5347SOL    HW227501   4.155   4.195   4.886 -0.3257 -1.1796 -0.7240
 5348SOL     OW27502   2.745   3.523  12.212  0.4536 -0.4670 -0.1193
 5348SOL    HW127503   2.773   3.614  12.213 -0.1236 -0.2890  0.3939
 5348SOL    HW227504   2.822   3.480  12.175  0.0885 -1.0276 -0.2293
 5349SOL     OW27505   1.944   2.016  14.914  1.0415  0.1612  0.5719
 5349SOL    HW127506   1.966   1.936  14.961 -1.7396  0.1294  1.7886
 5349SOL    HW227507   1.851   2.015  14.937  0.7231  0.7919 -0.6732
 5350SOL     OW27508   2.307   1.663  16.100  0.0012 -0.2638 -0.1285
 5350SOL    HW127509   2.388   1.701  16.068  1.3135 -0.2163  3.2439
 5350SOL    HW227510   2.273   1.618  16.023 -0.3054  0.4952 -0.4429
 5351SOL     OW27511   1.107   1.248   2.479  0.3405  0.0933 -0.1047
 5351SOL    HW127512   1.065   1.334   2.487  0.4545  0.3931 -2.7871
 5351SOL    HW227513   1.031   1.191   2.487  0.5094 -0.2153 -0.7232
 5352SOL     OW27514   1.730   2.224   3.047 -0.1436  0.7871 -0.1578
 5352SOL    HW127515   1.804   2.169   3.022 -1.6463 -1.1011 -0.4699
 5352SOL    HW227516   1.671   2.167   3.096 -0.5472  0.7954 -0.6241
 5353SOL     OW27517   1.599   2.054   4.116  0.7342  0.1131  0.4013
 5353SOL    HW127518   1.587   1.999   4.039 -0.7561  0.0721  0.6562
 5353SOL    HW227519   1.625   2.141   4.088 -1.2566  0.2918 -0.8417
 5354SOL     OW27520   4.684   2.242   2.481 -0.4230 -0.4061 -0.2290
 5354SOL    HW127521   4.634   2.165   2.452  0.4094 -0.8515 -0.4959
 5354SOL    HW227522   0.053   2.219   2.495  0.2613  0.7576 -2.7650
 5355SOL     OW27523   1.641   3.625   1.594  0.4522  0.3164  0.6662
 5355SOL    HW127524   1.688   3.568   1.655  0.9687  0.2550  0.2105
 5355SOL    HW227525   1.579   3.664   1.656 -1.1675 -1.7339  0.3072
 5356SOL     OW27526   1.160   1.923   2.267 -0.2963  0.0851 -0.2643
 5356SOL    HW127527   1.245   1.967   2.269 -1.8078  3.0471  0.3330
 5356SOL    HW227528   1.110   1.978   2.206  1.1621  1.7106  0.0046
 5357SOL     OW27529   2.121   3.411   4.242  0.3564 -0.7833 -0.3365
 5357SOL    HW127530   2.058   3.343   4.218  0.2001 -0.6521 -0.3061
 5357SOL    HW227531   2.082   3.491   4.205  0.3489  0.5195  2.4880
 5358SOL     OW27532   4.097   0.163  12.074  0.1546  0.0330 -0.0537
 5358SOL    HW127533   4.131   0.099  12.137  0.8399 -2.8617 -3.3423
 5358SOL    HW227534   4.169   0.153  12.011  0.7335  1.3608  0.3918
 5359SOL     OW27535   4.100   4.087   2.665  0.4995 -0.2459  0.1610
 5359SOL    HW127536   4.174   4.147   2.664  1.3493 -1.3043 -0.6842
 5359SOL    HW227537   4.140   4.003   2.689  0.8485 -0.9250 -2.7661
 5360SOL     OW27538   4.038   1.723   2.311  0.3967 -0.3254 -0.0828
 5360SOL    HW127539   4.123   1.766   2.301  0.4477 -0.9769 -2.3336
 5360SOL    HW227540   4.047   1.654   2.377 -0.0920  1.9762  2.3830
 5361SOL     OW27541   3.059   3.205   7.601 -0.0561  0.2159 -0.0135
 5361SOL    HW127542   3.132   3.161   7.644 -0.7620  0.7921  1.7419
 5361SOL    HW227543   3.067   3.295   7.632 -0.5304  0.5868 -0.9652
 5362SOL     OW27544   1.070   1.326   6.364 -0.1127  0.3406 -0.1030
 5362SOL    HW127545   1.083   1.354   6.274  2.1571 -2.8932 -0.7763
 5362SOL    HW227546   1.135   1.256   6.370 -0.5269  0.0111  0.6139
 5363SOL     OW27547   0.858   0.515   0.222  0.0583 -0.5990  0.3239
 5363SOL    HW127548   0.902   0.481   0.300  0.7755  0.3636  0.3425
 5363SOL    HW227549   0.767   0.496   0.243 -0.2197 -0.7355 -1.0542
 5364SOL     OW27550   0.755   0.418   5.402  0.1159 -0.1407  0.1346
 5364SOL    HW127551   0.728   0.508   5.419 -0.0068  0.2616 -2.1729
 5364SOL    HW227552   0.845   0.426   5.433  0.4506  0.0427 -0.8664
 5365SOL     OW27553   0.125   2.885  13.227  0.2046  0.0859  0.1497
 5365SOL    HW127554   0.074   2.940  13.167 -1.3330  0.3180  1.6671
 5365SOL    HW227555   0.183   2.946  13.272  0.7587 -0.2225 -0.1513
 5366SOL     OW27556   2.743   1.256  14.339  0.2413 -0.6370  0.2548
 5366SOL    HW127557   2.732   1.351  14.341  1.4853 -0.5161  1.2653
 5366SOL    HW227558   2.831   1.249  14.302 -0.5441  0.6573 -1.8379
 5367SOL     OW27559   2.528   4.670  15.137 -0.1978  0.2005 -0.3285
 5367SOL    HW127560   2.496   0.029  15.099 -2.9434 -1.6673 -2.1187
 5367SOL    HW227561   2.466   4.645  15.206 -1.4010  1.5059 -0.9322
 5368SOL     OW27562   0.346   3.208   9.016  0.1272 -0.5905 -0.0619
 5368SOL    HW127563   0.318   3.117   9.027 -1.9652 -0.4631 -4.2091
 5368SOL    HW227564   0.437   3.196   9.041 -0.1966 -0.2213  1.3007
 5369SOL     OW27565   0.723   3.385   2.468 -0.4310 -0.2203  0.0703
 5369SOL    HW127566   0.750   3.422   2.385 -3.2740  0.7050 -0.4508
 5369SOL    HW227567   0.748   3.298   2.437 -0.9185 -0.0462 -0.8224
 5370SOL     OW27568   3.057   3.249   5.390 -0.4321 -0.0301 -0.8720
 5370SOL    HW127569   3.097   3.202   5.463 -1.6835  1.4452  0.7694
 5370SOL    HW227570   2.975   3.290   5.418 -1.0157  0.4793 -3.3241
 5371SOL     OW27571   1.437   1.910  13.084  0.5159 -0.2941  0.2528
 5371SOL    HW127572   1.492   1.955  13.019 -0.1887 -0.9481 -0.8080
 5371SOL    HW227573   1.446   1.972  13.156  1.1924  2.0323 -1.8326
 5372SOL     OW27574   4.241   4.268  16.927  0.4256 -0.5220 -0.1502
 5372SOL    HW127575   4.275   4.352  16.898  1.4735 -0.8253  0.1995
 5372SOL    HW227576   4.151   4.281  16.895  1.2746  0.5964 -2.0301
 5373SOL     OW27577   4.497   4.312  10.768 -0.2229 -0.5468 -0.0106
 5373SOL    HW127578   4.501   4.301  10.673  2.8860  1.6013 -0.1265
 5373SOL    HW227579   4.576   4.266  10.795  1.5239  1.3641 -1.8459
 5374SOL     OW27580   2.765   0.750   4.836  0.4867 -0.0135  0.4582
 5374SOL    HW127581   2.834   0.797   4.790  0.5596  0.3869  0.9694
 5374SOL    HW227582   2.793   0.742   4.927  0.2995 -0.1358  0.5050
 5375SOL     OW27583   4.093   3.972  16.759  0.1234 -0.4050 -0.2407
 5375SOL    HW127584   4.127   4.057  16.733  0.3839  0.0122  1.4119
 5375SOL    HW227585   4.017   3.991  16.814 -0.4687  1.9917 -1.9331
 5376SOL     OW27586   3.829   2.319   5.926  0.3855  0.1307  0.5442
 5376SOL    HW127587   3.836   2.412   5.907  0.1073 -0.1176 -0.7698
 5376SOL    HW227588   3.746   2.328   5.971 -0.6100 -0.6841 -1.1219
 5377SOL     OW27589   3.456   1.501  16.947 -0.1795  0.4184 -0.5884
 5377SOL    HW127590   3.511   1.422  16.940  0.6695  0.8546  1.2379
 5377SOL    HW227591   3.507   1.558  16.889  0.4965 -2.2420 -2.6339
 5378SOL     OW27592   1.452   4.124   6.259 -0.6048 -0.1040 -0.2176
 5378SOL    HW127593   1.506   4.062   6.210 -0.7722 -0.8207  0.5229
 5378SOL    HW227594   1.418   4.070   6.329  0.1734  1.0278  1.0443
 5379SOL     OW27595   2.446   4.509   8.223 -0.0828  0.2952 -0.2224
 5379SOL    HW127596   2.378   4.566   8.258 -1.5321 -1.6474  0.1103
 5379SOL    HW227597   2.422   4.419   8.245  0.1406  0.8034  2.1099
 5380SOL     OW27598   2.401   2.394   2.893  0.6333 -0.5951  0.5969
 5380SOL    HW127599   2.401   2.307   2.934  2.6912  0.6783  3.2721
 5380SOL    HW227600   2.446   2.378   2.810 -0.6322 -0.7549 -0.0634
 5381SOL     OW27601   2.581   2.832   3.131 -0.1951  0.3278 -0.4201
 5381SOL    HW127602   2.496   2.834   3.175 -0.2706 -2.1736 -0.4772
 5381SOL    HW227603   2.592   2.737   3.123  2.4513  0.6131 -0.3655
 5382SOL     OW27604   0.251   2.437   7.657  0.5119  0.2948  0.2282
 5382SOL    HW127605   0.321   2.410   7.716  1.6617  3.7908  0.4454
 5382SOL    HW227606   0.189   2.457   7.727  1.0201 -0.2851  0.8424
 5383SOL     OW27607   1.503   4.652   2.898 -0.8440  0.1998  0.2588
 5383SOL    HW127608   1.484   4.702   2.818 -4.9611  0.8597  1.6041
 5383SOL    HW227609   1.423   4.644   2.950 -0.5178  1.1604  0.8993
 5384SOL     OW27610   2.851   4.615  17.170  0.2455 -0.2439 -0.1475
 5384SOL    HW127611   2.812   4.686  17.220  0.9892  0.0614  0.0084
 5384SOL    HW227612   2.862   4.662  17.087 -1.3676  1.9132  0.8451
 5385SOL     OW27613   3.455   2.068   8.014  0.1784  0.3289 -0.4977
 5385SOL    HW127614   3.488   2.145   7.968 -1.4970  0.9567 -0.6368
 5385SOL    HW227615   3.370   2.091   8.050  0.2662 -0.3157  0.1096
 5386SOL     OW27616   3.148   4.112  12.360 -0.4221 -0.4039  0.4346
 5386SOL    HW127617   3.106   4.194  12.334 -0.0694 -0.0137  1.0849
 5386SOL    HW227618   3.130   4.053  12.287 -1.5437  0.7210 -0.1963
 5387SOL     OW27619   4.667   1.408   7.726 -0.1002  0.3186 -0.6102
 5387SOL    HW127620   4.595   1.450   7.679  0.8744  2.2828 -0.3466
 5387SOL    HW227621   4.625   1.324   7.745  1.4109 -0.9512 -2.8825
 5388SOL     OW27622   1.091   1.336  13.874  0.4840 -0.1647  0.0788
 5388SOL    HW127623   1.134   1.404  13.926  0.0260 -0.4553  0.8426
 5388SOL    HW227624   1.077   1.374  13.787  2.3299 -0.4236 -0.3339
 5389SOL     OW27625   3.797   4.369   3.455 -0.2217  0.0706 -0.3333
 5389SOL    HW127626   3.822   4.318   3.378 -0.1721  1.2822 -1.1211
 5389SOL    HW227627   3.819   4.307   3.525 -0.5364  1.8489  1.3286
 5390SOL     OW27628   3.307   0.070   8.396 -0.5346 -0.7278  0.6949
 5390SOL    HW127629   3.384   0.015   8.387 -1.1639 -1.2865 -1.3245
 5390SOL    HW227630   3.237   0.005   8.404 -2.0913  0.9577  0.9641
 5391SOL     OW27631   3.275   1.532   4.198 -0.7815 -0.4091 -0.2154
 5391SOL    HW127632   3.221   1.609   4.216  1.7839  1.9725 -2.7604
 5391SOL    HW227633   3.361   1.575   4.201 -0.8373 -0.2613 -0.7087
 5392SOL     OW27634   0.856   1.131   4.148 -0.6987 -0.6244 -0.3813
 5392SOL    HW127635   0.939   1.172   4.173 -1.0544 -0.4026  0.4331
 5392SOL    HW227636   0.791   1.201   4.133 -2.1350 -2.1154 -1.0992
 5393SOL     OW27637   2.443   0.418   7.394 -0.0332 -0.5001  0.4530
 5393SOL    HW127638   2.405   0.421   7.482  0.3074  0.3171  0.5687
 5393SOL    HW227639   2.465   0.325   7.381 -1.7596 -0.4890 -2.4976
 5394SOL     OW27640   2.692   2.352   8.279 -0.1863  0.1807  0.8445
 5394SOL    HW127641   2.714   2.411   8.208  0.8496 -2.1725 -0.7865
 5394SOL    HW227642   2.620   2.307   8.234  0.2601 -0.2253  0.5404
 5395SOL     OW27643   3.580   1.794  13.206  0.3346  0.1852 -0.1286
 5395SOL    HW127644   3.669   1.784  13.172  0.1839  1.0673 -0.7730
 5395SOL    HW227645   3.580   1.721  13.268 -1.7343  1.2105  1.0698
 5396SOL     OW27646   1.670   2.584   3.533 -0.5057 -0.2428 -0.3466
 5396SOL    HW127647   1.663   2.670   3.492 -1.3522 -0.8542 -1.4598
 5396SOL    HW227648   1.589   2.538   3.515 -1.0197  0.1740  0.9207
 5397SOL     OW27649   1.170   1.567  14.022  0.0983  0.5249 -0.5015
 5397SOL    HW127650   1.132   1.614  14.096 -0.1770  0.4749 -0.6080
 5397SOL    HW227651   1.179   1.632  13.952 -0.0908  0.9088 -0.1670
 5398SOL     OW27652   1.869   0.084   3.704  0.0092 -0.2994 -0.1821
 5398SOL    HW127653   1.916   0.021   3.758  1.4650  0.1100 -0.9773
 5398SOL    HW227654   1.794   0.111   3.757  1.5782 -0.6006  2.1959
 5399SOL     OW27655   2.874   2.666  12.912  0.3975 -0.5170  1.2662
 5399SOL    HW127656   2.804   2.680  12.848  0.0875 -2.2330  1.2341
 5399SOL    HW227657   2.919   2.750  12.913  1.0159 -0.7559 -2.9407
 5400SOL     OW27658   1.615   2.144   0.830  0.1538 -0.3702 -0.1804
 5400SOL    HW127659   1.543   2.185   0.877  0.6090 -0.2710  0.4225
 5400SOL    HW227660   1.679   2.216   0.828 -0.6004  0.3460  1.4642
 5401SOL     OW27661   3.879   2.545   4.461 -0.0403 -0.5757  0.0240
 5401SOL    HW127662   3.896   2.618   4.402  0.7594 -0.6875  0.1197
 5401SOL    HW227663   3.960   2.493   4.458 -0.3347 -0.8777 -2.8264
 5402SOL     OW27664   3.878   3.416   4.219 -0.3416  1.2682  0.3495
 5402SOL    HW127665   3.862   3.322   4.212  2.6240  0.8907 -1.3254
 5402SOL    HW227666   3.918   3.428   4.305 -2.1537 -2.8185  1.7653
 5403SOL     OW27667   2.362   3.385   4.672 -0.0468 -0.1847  0.0927
 5403SOL    HW127668   2.357   3.314   4.608  0.3287  0.2455 -0.4056
 5403SOL    HW227669   2.398   3.342   4.749  1.0725  0.9124  0.1714
 5404SOL     OW27670   1.400   1.976   5.559  0.5095  0.4068 -0.1616
 5404SOL    HW127671   1.375   1.953   5.648 -0.1421 -1.5116 -0.8375
 5404SOL    HW227672   1.474   2.036   5.569  0.1998  0.9007 -0.7553
 5405SOL     OW27673   1.799   4.649   7.805  0.3831 -1.0328 -0.3565
 5405SOL    HW127674   1.744   4.713   7.849  0.2070 -2.3804  1.3952
 5405SOL    HW227675   1.835   4.606   7.883 -0.8145 -0.9160  0.2596
 5406SOL     OW27676   3.504   2.354   2.234 -0.0067  0.0962  0.3361
 5406SOL    HW127677   3.533   2.334   2.145 -0.2535  0.2940  0.2138
 5406SOL    HW227678   3.549   2.437   2.247  0.0565  0.3187 -1.3701
 5407SOL     OW27679   0.029   0.242  12.886 -0.3591 -0.2859 -0.1109
 5407SOL    HW127680   0.075   0.323  12.863 -0.3580  0.2485  1.7776
 5407SOL    HW227681   0.041   0.232  12.981 -1.2094  1.2985  0.1678
 5408SOL     OW27682   3.412   1.574   3.626  0.0857 -0.4998  0.7308
 5408SOL    HW127683   3.321   1.549   3.644  0.2106 -0.7879  0.9721
 5408SOL    HW227684   3.402   1.668   3.615 -1.5247 -0.5347  1.8396
 5409SOL     OW27685   4.411   1.557   5.403 -0.0543 -0.4352 -0.4368
 5409SOL    HW127686   4.411   1.480   5.346  0.5451  0.4619 -1.6446
 5409SOL    HW227687   4.499   1.559   5.439  0.8060 -1.5533 -2.5374
 5410SOL     OW27688   0.772   4.191  12.777 -0.2833 -0.3158  0.0042
 5410SOL    HW127689   0.722   4.271  12.759  1.6669  1.4800  2.7116
 5410SOL    HW227690   0.856   4.203  12.732  1.4873 -3.6283  2.4389
 5411SOL     OW27691   1.886   2.837   5.054 -0.0357  0.3089  0.0174
 5411SOL    HW127692   1.866   2.746   5.035 -0.9195  0.1813  1.5319
 5411SOL    HW227693   1.799   2.864   5.024  0.2735  1.3043  0.0129
 5412SOL     OW27694   3.285   1.446   3.344  0.6274  0.1520 -0.4489
 5412SOL    HW127695   3.281   1.465   3.250 -1.2778 -1.5903 -0.7061
 5412SOL    HW227696   3.367   1.397   3.351 -1.3560 -2.8623  1.2494
 5413SOL     OW27697   1.053   2.086   3.632 -0.4317 -0.6045 -0.4206
 5413SOL    HW127698   1.069   2.180   3.623  1.5386 -0.8013  1.1384
 5413SOL    HW227699   1.075   2.065   3.541  0.3302  0.3561 -0.4657
 5414SOL     OW27700   2.721   2.478  16.446  0.8104 -0.1424 -0.4461
 5414SOL    HW127701   2.803   2.469  16.494  0.4296  2.2477  0.6149
 5414SOL    HW227702   2.670   2.414  16.496  1.8006  0.0965  0.8699
 5415SOL     OW27703   1.065   4.130  12.695  0.0616  0.4846  0.2969
 5415SOL    HW127704   0.996   4.064  12.685 -0.4621  1.1296 -0.3499
 5415SOL    HW227705   1.144   4.077  12.698  0.3990  1.0351  1.0770
 5416SOL     OW27706   4.384   3.778   8.611  0.0691  0.1763 -0.0323
 5416SOL    HW127707   4.363   3.865   8.576 -0.8294 -0.2480 -0.5535
 5416SOL    HW227708   4.470   3.793   8.651  0.3236 -1.0940 -0.1127
 5417SOL     OW27709   3.688   4.395   4.792  0.2964  0.2777 -0.8093
 5417SOL    HW127710   3.726   4.458   4.731 -1.1481 -0.2329 -2.2418
 5417SOL    HW227711   3.693   4.447   4.872  0.2088 -1.5115  0.3656
 5418SOL     OW27712   1.320   0.688   9.997  0.6306 -0.0168  0.0913
 5418SOL    HW127713   1.289   0.773   9.965  1.2991  0.2603  0.1986
 5418SOL    HW227714   1.372   0.659   9.922  0.1833 -0.5244 -0.0287
 5419SOL     OW27715   4.102   4.045   6.286 -0.1627 -0.1384  0.1993
 5419SOL    HW127716   4.049   4.037   6.207  0.8476 -0.0055 -0.4777
 5419SOL    HW227717   4.038   4.065   6.355  0.4814 -0.1029  0.7937
 5420SOL     OW27718   4.255   2.082  14.522 -0.0352  0.0603 -0.1875
 5420SOL    HW127719   4.289   1.999  14.489  0.8697  1.0861 -1.8314
 5420SOL    HW227720   4.201   2.123  14.454  0.1474  1.0642  0.2630
 5421SOL     OW27721   2.286   0.321  10.460  1.0398 -0.4184 -0.0451
 5421SOL    HW127722   2.215   0.382  10.439  1.3315 -0.1295 -0.1876
 5421SOL    HW227723   2.335   0.368  10.527  1.6410 -1.4981  0.2853
 5422SOL     OW27724   1.928   0.328   8.156 -0.1675  0.2046  0.0231
 5422SOL    HW127725   1.841   0.360   8.128 -0.5770 -1.1552 -0.2424
 5422SOL    HW227726   1.943   0.393   8.226  1.0726  0.0066 -0.0650
 5423SOL     OW27727   2.502   1.076   5.473 -0.6821  0.0001  0.1364
 5423SOL    HW127728   2.504   1.088   5.378 -2.2147 -1.2047 -0.0405
 5423SOL    HW227729   2.579   1.023   5.495 -0.8416 -1.4980 -2.9357
 5424SOL     OW27730   4.464   0.168  15.793  0.0949  0.1972  0.1974
 5424SOL    HW127731   4.466   0.096  15.729 -1.5347 -0.9322  1.4290
 5424SOL    HW227732   4.521   0.227  15.743  1.6236 -0.8121  0.7503
 5425SOL     OW27733   0.454   1.810   7.520 -0.0390 -0.2866  0.0474
 5425SOL    HW127734   0.411   1.888   7.484  0.8286 -0.9941 -2.5142
 5425SOL    HW227735   0.410   1.743   7.467 -0.3663  0.1420 -0.2244
 5426SOL     OW27736   1.268   0.025  13.443  0.0224  0.5461  0.2202
 5426SOL    HW127737   1.263   4.652  13.451  2.0956  0.3409 -0.8590
 5426SOL    HW227738   1.296   0.034  13.352 -3.2850 -1.0410 -0.9544
 5427SOL     OW27739   3.302   0.968   2.352 -0.0745 -0.0636  0.1221
 5427SOL    HW127740   3.390   0.957   2.314  0.1691  2.5783 -0.0559
 5427SOL    HW227741   3.322   0.983   2.444  4.0032  1.0735 -0.9150
 5428SOL     OW27742   2.396   0.193   2.952  0.2265  0.2822  0.2853
 5428SOL    HW127743   2.322   0.253   2.946 -0.0088  0.2903  3.5343
 5428SOL    HW227744   2.460   0.226   2.889 -1.2433  0.9539 -0.8649
 5429SOL     OW27745   1.736   0.999  16.574 -0.6003 -0.0841 -0.1618
 5429SOL    HW127746   1.752   0.912  16.610 -1.5528 -0.1377  0.1296
 5429SOL    HW227747   1.651   0.994  16.530 -0.2504 -1.9309 -0.6187
 5430SOL     OW27748   4.208   3.982   6.879  0.3183  0.1376  0.5917
 5430SOL    HW127749   4.245   3.970   6.966  2.5768  2.3255 -0.0521
 5430SOL    HW227750   4.148   4.054   6.898  0.2393  0.0904  0.5227
 5431SOL     OW27751   4.422   4.678   7.588  0.4295  0.1610 -0.3192
 5431SOL    HW127752   4.385   4.697   7.674  3.1560 -0.7495  1.0452
 5431SOL    HW227753   4.469   0.035   7.565  0.2531  0.5924  0.8295
 5432SOL     OW27754   0.192   3.786   1.781  0.0889  0.5766  0.3363
 5432SOL    HW127755   0.237   3.787   1.865 -0.2073 -2.2503  0.5254
 5432SOL    HW227756   0.243   3.716   1.741 -2.1878 -0.1849 -1.2284
 5433SOL     OW27757   0.039   4.435   8.581  0.5632  0.1081  0.3202
 5433SOL    HW127758   4.714   4.489   8.519  0.9661  0.3568  0.2227
 5433SOL    HW227759   0.023   4.483   8.662  1.2785  0.0920  0.4775
 5434SOL     OW27760   1.840   2.395   9.909  0.1687  0.5610  0.1218
 5434SOL    HW127761   1.819   2.421   9.820  0.6669 -3.0278 -1.0516
 5434SOL    HW227762   1.787   2.316   9.923 -0.2997  0.7143 -0.7880
 5435SOL     OW27763   0.012   4.193  15.982  0.2259 -0.0657 -0.5381
 5435SOL    HW127764   0.046   4.141  16.055  2.1545 -0.9518 -2.0465
 5435SOL    HW227765   0.012   4.140  15.902  3.2132 -3.2549  1.5690
 5436SOL     OW27766   2.425   4.089   8.104 -0.0449 -0.1526 -0.3423
 5436SOL    HW127767   2.463   4.012   8.147  0.1180  0.3759  0.4559
 5436SOL    HW227768   2.505   4.135   8.077  1.2135 -1.1513  1.6154
 5437SOL     OW27769   2.693   2.780  12.737  0.3299 -0.1270 -0.4248
 5437SOL    HW127770   2.638   2.848  12.776  0.5783  0.7876 -1.6838
 5437SOL    HW227771   2.723   2.819  12.655  2.6320 -0.1930  0.3887
 5438SOL     OW27772   1.543   3.800   6.704 -0.7743  0.4177  0.4589
 5438SOL    HW127773   1.537   3.813   6.799  0.4642 -0.8027  0.6987
 5438SOL    HW227774   1.489   3.725   6.680  1.3793 -1.2580  0.8291
 5439SOL     OW27775   0.536   3.812   3.247  0.4502 -0.5811  0.2113
 5439SOL    HW127776   0.534   3.906   3.226  2.6573 -0.1314  1.9373
 5439SOL    HW227777   0.478   3.806   3.322 -2.0976  1.1726 -1.6246
 5440SOL     OW27778   0.612   0.588  10.397 -0.0903 -0.2673 -0.3151
 5440SOL    HW127779   0.536   0.593  10.455  1.6644  1.9739  1.8215
 5440SOL    HW227780   0.574   0.628  10.319 -1.0680 -1.4349 -0.4259
 5441SOL     OW27781   1.986   2.908   6.528  0.1243 -0.3543 -0.0407
 5441SOL    HW127782   2.045   2.854   6.581  0.4873 -0.5031 -0.5999
 5441SOL    HW227783   1.946   2.843   6.471  1.7498 -0.8194 -0.6483
 5442SOL     OW27784   2.818   0.605   8.496 -0.4231  0.5918 -0.8232
 5442SOL    HW127785   2.742   0.557   8.529 -0.6425  0.1605 -1.9355
 5442SOL    HW227786   2.784   0.693   8.484 -2.2869  0.0920  0.8523
 5443SOL     OW27787   1.208   1.037  11.474 -0.3134 -0.3541  0.6107
 5443SOL    HW127788   1.234   0.947  11.453 -0.6096 -0.5392  1.0606
 5443SOL    HW227789   1.254   1.088  11.407  2.2402 -0.7078  2.0819
 5444SOL     OW27790   0.206   2.530   3.290 -0.1028  0.0244  0.0521
 5444SOL    HW127791   0.266   2.599   3.319 -0.1360  0.5829 -1.2084
 5444SOL    HW227792   0.186   2.493   3.376 -0.3992 -0.3276 -0.1705
 5445SOL     OW27793   2.471   2.183   3.224  0.3857 -0.3081  0.4142
 5445SOL    HW127794   2.541   2.119   3.213  0.9710  0.4074 -0.0983
 5445SOL    HW227795   2.425   2.167   3.141  0.8681 -1.8830  0.4603
 5446SOL     OW27796   4.260   1.363   4.893  0.0418 -0.1016  0.1854
 5446SOL    HW127797   4.187   1.417   4.862  1.4248  1.3638 -0.5055
 5446SOL    HW227798   4.299   1.319   4.818 -0.7239 -2.0224  0.9010
 5447SOL     OW27799   1.051   3.350   1.817 -0.3164 -0.3513  0.1972
 5447SOL    HW127800   1.059   3.443   1.797  0.5532 -0.7469 -1.3058
 5447SOL    HW227801   1.030   3.313   1.731 -0.5202 -0.2646  0.2083
 5448SOL     OW27802   3.260   0.299  11.257  0.7775  0.2299  0.3252
 5448SOL    HW127803   3.327   0.297  11.325  0.6871  1.3689  0.4542
 5448SOL    HW227804   3.184   0.297  11.316  0.4649 -0.7282 -0.1134
 5449SOL     OW27805   0.734   2.937   2.149 -0.3108  0.0462 -0.2335
 5449SOL    HW127806   0.806   2.922   2.088 -1.3789 -0.3335 -1.4235
 5449SOL    HW227807   0.721   2.856   2.199 -1.0259  0.7766  0.7517
 5450SOL     OW27808   0.549   1.228  13.214  0.5761 -0.2145 -0.2285
 5450SOL    HW127809   0.490   1.154  13.198  0.1659 -0.1204  0.8195
 5450SOL    HW227810   0.499   1.297  13.257 -0.7047 -1.2130 -0.1043
 5451SOL     OW27811   0.717   0.763   2.834  0.5511  0.9746  0.2556
 5451SOL    HW127812   0.807   0.757   2.866  0.2283  0.8877  1.1528
 5451SOL    HW227813   0.668   0.803   2.906 -2.8976 -3.7331  0.5420
 5452SOL     OW27814   2.055   0.645  15.646 -0.0304  0.0860  0.0793
 5452SOL    HW127815   2.108   0.576  15.605 -3.9662 -2.6915 -0.3264
 5452SOL    HW227816   2.129   0.706  15.649  1.9063 -2.2523  0.4586
 5453SOL     OW27817   1.856   3.933   9.343 -0.1488  0.6936  0.3071
 5453SOL    HW127818   1.883   3.841   9.354  0.3871  0.5932 -1.8839
 5453SOL    HW227819   1.918   3.975   9.402  0.9484 -0.1929 -0.2284
 5454SOL     OW27820   1.420   3.344   1.290 -0.6657  0.4049 -0.0937
 5454SOL    HW127821   1.481   3.418   1.288  0.1030 -0.2298 -0.2379
 5454SOL    HW227822   1.477   3.269   1.274 -0.2802  0.4224  1.1779
 5455SOL     OW27823   3.991   0.233   4.944 -0.0842 -0.6026  0.3590
 5455SOL    HW127824   3.922   0.167   4.952 -1.6799  0.9246 -0.6493
 5455SOL    HW227825   3.975   0.280   5.026 -2.8116 -1.3115  0.2526
 5456SOL     OW27826   1.258   4.315   6.862 -0.2789  0.2988 -0.2512
 5456SOL    HW127827   1.172   4.340   6.828 -1.1297 -1.4168  0.6166
 5456SOL    HW227828   1.305   4.396   6.881  0.3566 -0.6420  2.1883
 5457SOL     OW27829   2.901   4.427   0.025  0.6538 -0.4736  0.3152
 5457SOL    HW127830   2.976   4.457  17.667  0.6246 -0.5994  0.1984
 5457SOL    HW227831   2.949   4.400   0.103  0.8221  0.0094  0.3805
 5458SOL     OW27832   4.502   3.802  12.686 -0.4605  0.3831  0.2990
 5458SOL    HW127833   4.434   3.858  12.723  0.4157  1.0563  0.8993
 5458SOL    HW227834   4.480   3.714  12.717  0.9790  0.2828  1.0460
 5459SOL     OW27835   0.870   4.006   2.579 -0.0479 -0.3592  0.2018
 5459SOL    HW127836   0.826   4.070   2.524  1.1573 -0.4907 -0.8987
 5459SOL    HW227837   0.830   4.018   2.665  0.3121  1.5349  0.0907
 5460SOL     OW27838   1.995   0.747   6.045  0.7903  0.3142 -0.3054
 5460SOL    HW127839   2.037   0.719   6.127 -0.0047  2.6128  0.9069
 5460SOL    HW227840   2.031   0.681   5.986  0.3533  1.2406 -1.6004
 5461SOL     OW27841   0.899   0.938   6.975 -0.1607 -0.4782  0.3771
 5461SOL    HW127842   0.813   0.896   6.968 -0.9206  0.7598  2.4269
 5461SOL    HW227843   0.913   0.974   6.887  2.3204 -3.8479 -0.6306
 5462SOL     OW27844   1.773   3.639   0.226 -0.2205  0.0501 -0.3503
 5462SOL    HW127845   1.833   3.592   0.284 -2.1064 -0.7983  0.9008
 5462SOL    HW227846   1.814   3.725   0.217  1.6490 -0.9905 -1.9550
 5463SOL     OW27847   4.093   2.534   3.449  0.2242 -0.1173 -0.1911
 5463SOL    HW127848   4.052   2.620   3.444  0.0595 -0.1466  0.5106
 5463SOL    HW227849   4.022   2.471   3.439  0.2046 -0.2203  0.5303
 5464SOL     OW27850   3.745   3.414   3.785 -0.2726  0.7183  0.1881
 5464SOL    HW127851   3.809   3.467   3.831  0.3082  0.2983 -0.1433
 5464SOL    HW227852   3.736   3.344   3.849  1.2413  0.4462  0.0854
 5465SOL     OW27853   3.383   0.614   3.489  0.4429 -0.0666  0.3774
 5465SOL    HW127854   3.395   0.658   3.404  0.1228 -1.1810 -0.2403
 5465SOL    HW227855   3.289   0.597   3.484  0.8768 -1.4257 -2.9369
 5466SOL     OW27856   4.591   0.497   6.499 -0.3360 -0.1556 -0.0940
 5466SOL    HW127857   4.545   0.451   6.429 -2.3381  0.3607  0.8546
 5466SOL    HW227858   4.679   0.496   6.463 -1.7189 -1.0829 -3.4113
 5467SOL     OW27859   1.224   2.352   6.683 -0.4808  0.6193  0.0153
 5467SOL    HW127860   1.294   2.305   6.637 -1.8335 -0.6744 -0.7063
 5467SOL    HW227861   1.189   2.284   6.740 -0.0040 -0.4920 -1.0061
 5468SOL     OW27862   3.275   0.570   5.602 -0.1708 -0.1795  0.0223
 5468SOL    HW127863   3.297   0.494   5.548 -1.0631  0.4094 -1.1683
 5468SOL    HW227864   3.307   0.643   5.549 -0.2406 -0.1404  0.0330
 5469SOL     OW27865   3.904   2.136   4.902  0.1539 -0.1031  0.2086
 5469SOL    HW127866   3.991   2.110   4.932  0.5896 -0.2053 -1.1329
 5469SOL    HW227867   3.850   2.089   4.966  1.2451 -2.9134 -0.9149
 5470SOL     OW27868   1.600   0.506   4.733 -0.7765 -0.3653  0.2102
 5470SOL    HW127869   1.691   0.532   4.736 -1.0957  0.9513 -1.9552
 5470SOL    HW227870   1.553   0.588   4.748 -0.8785 -0.3883  0.0211
 5471SOL     OW27871   1.409   0.831   2.019 -0.0035 -0.4948  0.2981
 5471SOL    HW127872   1.380   0.771   1.950 -1.3405  0.3649  0.1100
 5471SOL    HW227873   1.488   0.789   2.052 -0.1574 -0.8865  0.1673
 5472SOL     OW27874   3.688   3.686   1.916  0.1671 -0.5176  0.2943
 5472SOL    HW127875   3.697   3.743   1.839 -0.9969  1.4212  1.5978
 5472SOL    HW227876   3.713   3.605   1.872  0.7393  0.9636 -2.1648
 5473SOL     OW27877   0.606   3.667  15.443 -0.0062 -0.3076 -0.1379
 5473SOL    HW127878   0.514   3.648  15.423 -0.0955 -0.6766  0.6224
 5473SOL    HW227879   0.600   3.750  15.492 -0.0288  0.2225 -1.0317
 5474SOL     OW27880   0.740   2.705  13.059 -0.5821 -0.0649  0.3452
 5474SOL    HW127881   0.761   2.701  12.965  1.1161  0.5100  0.6924
 5474SOL    HW227882   0.767   2.796  13.074 -1.3632  0.4202 -1.1701
 5475SOL     OW27883   4.508   2.005   1.116  0.7232  0.2984 -0.4847
 5475SOL    HW127884   4.415   2.005   1.093  0.5165  1.0458  0.3597
 5475SOL    HW227885   4.550   2.032   1.035  0.1627  1.1449 -0.4940
 5476SOL     OW27886   0.583   4.308   4.389 -0.4607 -0.6737  0.4305
 5476SOL    HW127887   0.650   4.247   4.360  0.1669  0.4571 -0.5125
 5476SOL    HW227888   0.513   4.249   4.415 -1.3122  0.0873 -0.1293
 5477SOL     OW27889   2.432   4.626  11.279 -0.3909  0.6450  0.0939
 5477SOL    HW127890   2.395   4.626  11.191  0.2304  0.6025 -0.1690
 5477SOL    HW227891   2.381   4.548  11.301 -0.6255  0.7678 -0.0138
 5478SOL     OW27892   4.517   4.389   8.246 -0.0304 -0.4491 -0.4489
 5478SOL    HW127893   4.544   4.419   8.159  1.0231 -0.8545 -0.2675
 5478SOL    HW227894   4.575   4.314   8.261 -0.8505 -1.3216 -1.6310
 5479SOL     OW27895   4.709   2.010  10.619  0.0424  0.5937 -0.0632
 5479SOL    HW127896   0.038   2.090  10.626 -2.9886  2.4264  1.3926
 5479SOL    HW227897   0.053   1.942  10.615 -0.3911  0.1092  0.8909
 5480SOL     OW27898   3.140   4.472   7.242  0.0003 -0.2790 -0.2756
 5480SOL    HW127899   3.081   4.519   7.301  1.1513 -1.1352  1.5373
 5480SOL    HW227900   3.092   4.490   7.160 -0.6216  0.0070  0.1527
 5481SOL     OW27901   3.934   4.221  10.529 -0.0189  0.0938  0.0721
 5481SOL    HW127902   3.978   4.196  10.611 -3.1117  2.0313  2.2892
 5481SOL    HW227903   3.848   4.201  10.565 -1.0264  1.0903 -1.7848
 5482SOL     OW27904   3.992   1.888  14.381 -0.0602  0.1979 -0.2839
 5482SOL    HW127905   4.013   1.973  14.341  2.5539 -0.8941 -1.1871
 5482SOL    HW227906   4.080   1.850  14.383  0.1216  0.6662  0.9158
 5483SOL     OW27907   4.337   2.817   1.733  0.3827 -0.4787 -0.4029
 5483SOL    HW127908   4.327   2.786   1.823  2.0360 -0.3566 -0.1796
 5483SOL    HW227909   4.271   2.762   1.691 -1.5878  0.4609  1.4382
 5484SOL     OW27910   1.932   4.628   1.779  0.0947 -0.3385  0.6431
 5484SOL    HW127911   1.977   4.564   1.834  0.9156 -0.2220  0.0939
 5484SOL    HW227912   1.870   4.670   1.839  0.1602  0.8648 -0.1296
 5485SOL     OW27913   0.065   0.955   9.120  0.0270  0.2709 -0.4373
 5485SOL    HW127914   0.099   0.946   9.209  0.6278  0.6405 -0.6274
 5485SOL    HW227915   0.138   0.986   9.067 -0.0819  0.2959 -0.5727
 5486SOL     OW27916   0.228   0.469   4.697  0.2465 -0.1480  0.3543
 5486SOL    HW127917   0.267   0.548   4.658  0.9980 -1.0129 -0.6404
 5486SOL    HW227918   0.190   0.420   4.624  0.5655 -0.8170  0.6419
 5487SOL     OW27919   0.177   3.769  11.810 -0.1118 -0.0205  0.2852
 5487SOL    HW127920   0.229   3.690  11.822 -1.7547 -1.2846 -1.0530
 5487SOL    HW227921   0.248   3.833  11.812 -1.5063  1.6241 -2.5450
 5488SOL     OW27922   1.394   1.663   4.017 -0.7228 -0.0941  0.2646
 5488SOL    HW127923   1.328   1.732   4.006 -0.1688 -0.0620 -3.0561
 5488SOL    HW227924   1.436   1.696   4.096 -0.0766  0.8344 -0.4653
 5489SOL     OW27925   3.216   0.806  13.863  0.5579 -0.5802 -0.1675
 5489SOL    HW127926   3.242   0.892  13.830 -2.5386  1.2508  2.2315
 5489SOL    HW227927   3.206   0.833  13.954  1.1917  0.1176 -0.3085
 5490SOL     OW27928   1.300   3.977  16.643  0.4668  0.0425 -0.4122
 5490SOL    HW127929   1.370   3.977  16.578  0.6186  2.0117 -0.2566
 5490SOL    HW227930   1.349   3.972  16.726 -1.5329  0.4755  0.7986
 5491SOL     OW27931   3.613   4.343   7.972 -0.3912  0.4099 -0.2793
 5491SOL    HW127932   3.553   4.381   8.036 -0.3237 -3.0034  1.7854
 5491SOL    HW227933   3.571   4.260   7.951 -0.1645  0.6697 -1.7534
 5492SOL     OW27934   3.496   2.275   7.205 -0.1802  0.6220  0.5627
 5492SOL    HW127935   3.470   2.190   7.169 -0.1062  0.5716  0.6296
 5492SOL    HW227936   3.562   2.247   7.269 -0.8132  1.2897  1.4962
 5493SOL     OW27937   3.818   3.748   4.583 -0.3145 -0.1465  0.3827
 5493SOL    HW127938   3.783   3.783   4.502  0.0341  1.4728  0.9240
 5493SOL    HW227939   3.804   3.823   4.641  1.1425  2.1943 -2.3054
 5494SOL     OW27940   2.534   1.010   7.992 -0.6072  0.0886  0.1169
 5494SOL    HW127941   2.531   1.084   7.931  2.5852  0.1310  0.0254
 5494SOL    HW227942   2.460   1.040   8.044  0.3453  0.9632  0.9807
 5495SOL     OW27943   4.644   0.187   5.405  0.0748  0.0082  0.0075
 5495SOL    HW127944   4.704   0.241   5.457  0.4028  1.1156 -1.4988
 5495SOL    HW227945   4.697   0.107   5.411 -0.4878 -0.5075 -1.8997
 5496SOL     OW27946   3.787   3.313   0.701 -0.3065  0.1663  0.5042
 5496SOL    HW127947   3.813   3.224   0.680 -0.4471  0.4402 -0.8070
 5496SOL    HW227948   3.759   3.306   0.793  3.9694 -0.8525  1.7417
 5497SOL     OW27949   3.855   4.034   5.815  0.7180 -0.1951  0.1169
 5497SOL    HW127950   3.774   3.983   5.818  0.5612 -0.0306 -1.0399
 5497SOL    HW227951   3.826   4.120   5.847 -0.7090 -1.1650  1.4194
 5498SOL     OW27952   3.690   1.157   3.168 -0.1134 -0.3973 -0.2546
 5498SOL    HW127953   3.769   1.117   3.133  0.6642  1.8211 -1.0458
 5498SOL    HW227954   3.643   1.180   3.088  1.7432 -1.4842 -1.6497
 5499SOL     OW27955   0.924   3.493   9.012  0.3742 -0.2931  0.3960
 5499SOL    HW127956   1.009   3.528   8.987 -0.6833  2.3030  0.3392
 5499SOL    HW227957   0.874   3.574   9.024 -0.2130 -0.4783 -0.7913
 5500SOL     OW27958   1.676   0.093  12.345 -0.2395  0.6879  0.4949
 5500SOL    HW127959   1.608   0.087  12.278 -0.4907  1.8337  0.6576
 5500SOL    HW227960   1.666   0.012  12.397 -1.7414  1.3999  1.3221
 5501SOL     OW27961   2.223   1.290   0.719 -0.2985 -0.4475  0.3207
 5501SOL    HW127962   2.217   1.381   0.692 -1.3393 -0.2441  1.2467
 5501SOL    HW227963   2.147   1.281   0.777  0.3901 -1.7793  1.0161
 5502SOL     OW27964   3.901   2.373   8.306  0.0901  0.4980 -0.1664
 5502SOL    HW127965   3.810   2.401   8.323  0.3596  0.9558  0.5328
 5502SOL    HW227966   3.927   2.428   8.233  1.3074 -0.8711 -0.7634
 5503SOL     OW27967   1.694   0.692   2.830  0.7016  0.4704  0.0764
 5503SOL    HW127968   1.640   0.617   2.805  0.8687  0.3022  0.2091
 5503SOL    HW227969   1.629   0.740   2.880  0.8991  0.4505  0.3557
 5504SOL     OW27970   4.007   0.185   3.659  0.5820 -0.7412  0.0715
 5504SOL    HW127971   4.089   0.228   3.636  0.2870  0.0391  0.4632
 5504SOL    HW227972   3.949   0.261   3.666 -0.3454 -1.4067 -0.2576
 5505SOL     OW27973   3.651   1.468   3.746 -0.0454 -0.4042  0.3016
 5505SOL    HW127974   3.581   1.523   3.709  0.6063  0.4677  0.3660
 5505SOL    HW227975   3.686   1.412   3.677 -0.5849  0.2150 -0.4656
 5506SOL     OW27976   3.852   0.804   4.215 -0.0498 -0.0081 -0.7455
 5506SOL    HW127977   3.798   0.736   4.174  2.0165 -0.2188 -3.0930
 5506SOL    HW227978   3.828   0.882   4.165  1.3575  0.0961 -1.2564
 5507SOL     OW27979   4.502   0.912   7.620  0.5391  0.9550 -0.4452
 5507SOL    HW127980   4.414   0.873   7.624  0.7600  0.4457 -0.4875
 5507SOL    HW227981   4.538   0.883   7.537  1.4364 -1.4038  0.7576
 5508SOL     OW27982   2.159   2.009   0.664 -0.2683  0.4033  0.5589
 5508SOL    HW127983   2.142   1.962   0.746 -1.9152 -0.4735 -0.2831
 5508SOL    HW227984   2.253   1.993   0.652 -0.1610  1.5397 -0.0731
 5509SOL     OW27985   2.350   2.745   2.718  0.0918 -0.4919 -0.1285
 5509SOL    HW127986   2.282   2.679   2.711  0.1064 -0.3617 -1.4128
 5509SOL    HW227987   2.427   2.699   2.750  0.0112 -0.3151  0.3238
 5510SOL     OW27988   2.573   1.992   8.016 -0.0382 -0.2970 -0.1591
 5510SOL    HW127989   2.578   2.023   8.106 -2.9095  1.3522 -0.5407
 5510SOL    HW227990   2.481   2.011   7.996  0.0991  0.6181  0.0794
 5511SOL     OW27991   0.796   3.258  16.620  0.3086  0.1366 -0.2537
 5511SOL    HW127992   0.857   3.330  16.603  1.1338 -0.2682  0.9323
 5511SOL    HW227993   0.738   3.278  16.547  0.2702 -3.4915 -1.2195
 5512SOL     OW27994   3.874   3.873   2.706 -0.3625  0.2637 -0.5723
 5512SOL    HW127995   3.822   3.940   2.750  0.1397  0.4550 -0.2593
 5512SOL    HW227996   3.955   3.900   2.750 -1.9039 -0.5332  2.7876
 5513SOL     OW27997   3.866   0.820   5.494 -0.1391 -0.5183 -0.5397
 5513SOL    HW127998   3.931   0.757   5.523  0.5748  0.7119  0.5598
 5513SOL    HW227999   3.837   0.772   5.417 -1.5829  0.6419 -0.7361
 5514SOL     OW28000   0.094   2.672   6.995  0.0212  0.8941  0.1651
 5514SOL    HW128001   0.024   2.734   7.014 -0.4263 -0.5917  3.3198
 5514SOL    HW228002   0.168   2.731   6.978  0.2367 -0.0793 -2.3084
 5515SOL     OW28003   3.007   1.333   4.212  0.0429  0.5929 -0.6443
 5515SOL    HW128004   3.072   1.265   4.229  1.6068  1.5701 -2.6484
 5515SOL    HW228005   3.046   1.377   4.137 -0.4177  0.3056 -1.0617
 5516SOL     OW28006   4.208   0.185   2.611  0.5498 -0.1902 -0.2974
 5516SOL    HW128007   4.230   0.258   2.553 -1.4701 -0.0364 -0.8724
 5516SOL    HW228008   4.294   0.146   2.621  0.9414  0.8416  0.3053
 5517SOL     OW28009   0.826   1.942   3.870 -0.1122 -0.2485 -0.4155
 5517SOL    HW128010   0.781   1.962   3.788  0.4996 -0.3282 -0.7758
 5517SOL    HW228011   0.793   1.855   3.892 -1.1442 -0.0315 -1.1091
 5518SOL     OW28012   2.773   4.281   6.412 -0.5379 -0.3367 -0.6068
 5518SOL    HW128013   2.682   4.296   6.389 -0.9793 -0.5520  1.0307
 5518SOL    HW228014   2.803   4.367   6.381 -0.3267  0.9310  3.0361
 5519SOL     OW28015   2.736   1.810   2.285  0.0667 -0.1899  0.2087
 5519SOL    HW128016   2.793   1.867   2.336  0.4387 -0.9340  0.6257
 5519SOL    HW228017   2.789   1.731   2.283  1.1936  0.6106 -1.8007
 5520SOL     OW28018   0.116   1.346   7.200 -0.1309  0.5442 -0.3763
 5520SOL    HW128019   0.137   1.258   7.169 -1.4065  0.9520 -2.3413
 5520SOL    HW228020   0.203   1.377   7.223 -0.6143  1.8468 -0.3217
 5521SOL     OW28021   1.286   1.429  12.149 -0.4950  0.0779  0.1016
 5521SOL    HW128022   1.205   1.471  12.177  0.0675  0.6609  0.8671
 5521SOL    HW228023   1.242   1.352  12.112  1.0758 -0.3831 -0.8021
 5522SOL     OW28024   3.512   1.621   4.493  0.3827 -0.4605 -0.1095
 5522SOL    HW128025   3.430   1.624   4.542  0.5915  1.7505  0.1160
 5522SOL    HW228026   3.558   1.566   4.556  4.9771  1.7152 -1.6044
 5523SOL     OW28027   3.297   1.964   4.095  0.2865  0.7219 -0.0537
 5523SOL    HW128028   3.373   1.909   4.080 -0.1191  0.2016 -0.1994
 5523SOL    HW228029   3.335   2.044   4.059 -0.0814  0.5429 -0.8516
 5524SOL     OW28030   3.614   2.453   5.177 -0.4744  0.1872 -0.5793
 5524SOL    HW128031   3.675   2.521   5.149  0.2323 -0.2454 -0.1170
 5524SOL    HW228032   3.571   2.429   5.095  0.8477 -2.5225 -0.4900
 5525SOL     OW28033   4.267   3.499   1.235 -0.2803  0.9014  0.2397
 5525SOL    HW128034   4.262   3.589   1.265 -2.8077  0.8171  0.0862
 5525SOL    HW228035   4.241   3.509   1.144  1.2120  0.2272 -0.2670
 5526SOL     OW28036   3.987   4.572   7.193  0.1056 -0.1670  0.0611
 5526SOL    HW128037   4.016   4.631   7.124 -1.0988  0.5765  0.1872
 5526SOL    HW228038   3.930   4.629   7.245 -1.2569  1.6786 -3.4540
 5527SOL     OW28039   2.119   2.231   2.853  0.4139 -0.2587 -0.0808
 5527SOL    HW128040   2.193   2.249   2.912  0.8390 -1.7850 -0.1471
 5527SOL    HW228041   2.144   2.147   2.815  4.6213  1.7170 -1.6636
 5528SOL     OW28042   2.610   1.302  10.507  0.2856 -0.7072 -0.4377
 5528SOL    HW128043   2.633   1.241  10.436 -1.1216 -1.0496 -0.6016
 5528SOL    HW228044   2.623   1.386  10.462 -0.8560 -0.1238  0.3378
 5529SOL     OW28045   0.493   1.393   6.478 -0.2148  0.5912 -0.4588
 5529SOL    HW128046   0.436   1.376   6.404 -2.5743 -1.0605  1.7539
 5529SOL    HW228047   0.461   1.475   6.516 -0.2907  0.7382 -0.8424
 5530SOL     OW28048   0.997   0.553   6.665  0.7066 -0.0476  0.1525
 5530SOL    HW128049   0.986   0.458   6.655 -1.8874  0.3020 -0.2898
 5530SOL    HW228050   1.088   0.567   6.639  0.2720  0.8604 -0.8960
 5531SOL     OW28051   4.688   4.685   9.320 -0.2644 -0.2348 -0.0411
 5531SOL    HW128052   4.714   4.593   9.328  0.7747 -0.0524 -1.3492
 5531SOL    HW228053   4.719   0.003   9.400 -1.1837 -0.5223  0.4662
 5532SOL     OW28054   3.079   0.571   3.539 -0.0952  0.2297 -0.6944
 5532SOL    HW128055   3.015   0.558   3.469  2.6296 -0.6710 -2.9860
 5532SOL    HW228056   3.023   0.560   3.616 -0.1598 -0.5305 -0.8510
 5533SOL     OW28057   2.014   2.586   4.021 -0.4264  0.0723  0.0589
 5533SOL    HW128058   1.970   2.560   4.102  0.6240 -1.2810  0.1866
 5533SOL    HW228059   2.105   2.600   4.049 -0.4263  0.4630 -0.1405
 5534SOL     OW28060   4.180   3.254   4.042  0.1462  0.1857  0.1113
 5534SOL    HW128061   4.158   3.223   3.954 -0.3802  2.3541 -0.5271
 5534SOL    HW228062   4.205   3.346   4.037 -1.9572  0.7164 -1.0159
 5535SOL     OW28063   3.202   2.488   0.950  0.1754 -0.1645  0.1483
 5535SOL    HW128064   3.294   2.509   0.935 -0.1170  0.6813 -0.4814
 5535SOL    HW228065   3.157   2.537   0.880 -0.1448 -0.3710  0.2135
 5536SOL     OW28066   0.086   2.388   7.105 -0.2268 -0.6519  0.2992
 5536SOL    HW128067   0.063   2.475   7.072 -1.5432 -0.9612  0.4199
 5536SOL    HW228068   0.060   2.339   7.027  0.5506  2.6553 -2.0439
 5537SOL     OW28069   0.827   1.367   4.309  0.0244  0.4223  0.2765
 5537SOL    HW128070   0.740   1.404   4.328 -0.2017 -0.1663  0.4082
 5537SOL    HW228071   0.854   1.351   4.399 -0.2043  1.0148  0.4492
 5538SOL     OW28072   3.823   0.013   4.926  0.2773  0.0631 -0.1041
 5538SOL    HW128073   3.856   4.655   4.967 -2.1339 -1.0317 -0.3107
 5538SOL    HW228074   3.741   0.008   4.975  1.6109 -2.9357  1.9097
 5539SOL     OW28075   2.145   1.753   9.740 -0.3441  0.5241  0.0362
 5539SOL    HW128076   2.168   1.694   9.668  0.3607 -2.4795  2.6820
 5539SOL    HW228077   2.103   1.818   9.684  0.9808  0.5084 -0.9690
 5540SOL     OW28078   0.847   4.421   2.122  0.1130 -0.0648 -0.3858
 5540SOL    HW128079   0.781   4.354   2.137 -2.0697  2.0524 -0.5789
 5540SOL    HW228080   0.915   4.388   2.182  1.8474  0.7443 -1.8967
 5541SOL     OW28081   3.435   0.585   8.276  0.1369  0.0308 -0.0197
 5541SOL    HW128082   3.346   0.620   8.267 -1.3916 -3.4319  1.5313
 5541SOL    HW228083   3.417   0.495   8.301  1.4147 -0.2182  0.0159
 5542SOL     OW28084   2.930   3.019   9.290 -0.2263  0.4312  0.4476
 5542SOL    HW128085   2.860   2.994   9.351 -0.0080 -1.0034  0.0969
 5542SOL    HW228086   2.930   2.940   9.236 -0.4520  0.5275  0.3063
 5543SOL     OW28087   4.161   1.653   3.519 -0.0548 -0.1933 -0.2438
 5543SOL    HW128088   4.144   1.603   3.599 -0.4467  1.3594  0.6357
 5543SOL    HW228089   4.084   1.710   3.515 -1.7366 -2.4963 -0.5104
 5544SOL     OW28090   4.635   1.822   5.809  0.7701  0.5610  0.4251
 5544SOL    HW128091   4.545   1.808   5.840  0.5259  0.6064 -0.2704
 5544SOL    HW228092   4.671   1.734   5.816  0.4430  0.5587  2.1385
 5545SOL     OW28093   2.806   2.941  10.794  0.0327 -0.4487  0.3270
 5545SOL    HW128094   2.862   2.985  10.730 -1.0793  1.1010  0.4169
 5545SOL    HW228095   2.722   2.974  10.762  0.6188  0.2824 -0.4845
 5546SOL     OW28096   3.936   3.590  15.435  0.4964  0.3237  0.0679
 5546SOL    HW128097   3.934   3.685  15.422  1.8482  0.6326  2.1796
 5546SOL    HW228098   3.925   3.584  15.530  1.1453 -0.0870  0.1129
 5547SOL     OW28099   2.233   1.522  15.841  0.0900 -0.5575 -0.6074
 5547SOL    HW128100   2.213   1.458  15.774  1.3096 -1.1733 -0.3889
 5547SOL    HW228101   2.159   1.499  15.897  0.0501  0.4040 -0.2535
 5548SOL     OW28102   0.021   3.866  11.074 -0.0013 -0.4022 -0.1622
 5548SOL    HW128103   0.063   3.855  10.989 -2.2841  1.2408 -1.5072
 5548SOL    HW228104   4.683   3.793  11.072  0.2337 -0.6371  0.8993
 5549SOL     OW28105   3.033   3.076   1.220 -0.4387  0.2135 -0.2361
 5549SOL    HW128106   3.025   3.166   1.186  0.3002  0.6406  0.6886
 5549SOL    HW228107   3.126   3.089   1.240 -0.2535 -0.7247 -0.5225
 5550SOL     OW28108   4.645   1.225   8.855 -0.1716  0.0811 -0.6201
 5550SOL    HW128109   4.629   1.259   8.767  0.5966  3.3422  0.5384
 5550SOL    HW228110   4.589   1.276   8.912 -0.5062 -1.9383  0.8721
 5551SOL     OW28111   2.398   4.368   3.789  0.1855 -0.2009 -0.4075
 5551SOL    HW128112   2.414   4.424   3.865 -3.9523  0.1846  0.1890
 5551SOL    HW228113   2.322   4.314   3.808  1.1502 -1.8733 -1.2535
 5552SOL     OW28114   3.996   3.048   3.175  0.1302 -0.1987  0.0236
 5552SOL    HW128115   4.047   3.086   3.246  1.9200 -1.1415 -0.7577
 5552SOL    HW228116   3.906   3.077   3.188  0.1878  0.3642 -0.8050
 5553SOL     OW28117   2.156   0.709  15.992  0.2988 -0.3183  0.6064
 5553SOL    HW128118   2.086   0.768  16.020  0.5224  0.5984 -0.7642
 5553SOL    HW228119   2.122   0.622  16.015 -0.6353  0.2995  1.5613
 5554SOL     OW28120   1.262   4.104   8.184 -0.0695  0.3216 -0.3312
 5554SOL    HW128121   1.263   4.105   8.279 -2.8165  1.9977 -0.3286
 5554SOL    HW228122   1.226   4.018   8.162  1.7383 -1.0194  1.9387
 5555SOL     OW28123   3.762   3.164   3.268 -0.2014  0.3289 -0.2300
 5555SOL    HW128124   3.744   3.240   3.324  1.6325  0.7287 -0.1679
 5555SOL    HW228125   3.699   3.098   3.295 -0.3206 -0.6026 -2.8276
 5556SOL     OW28126   1.282   2.849   8.144  0.0185 -0.3505  0.3587
 5556SOL    HW128127   1.287   2.907   8.067 -1.0895 -0.8448 -0.0822
 5556SOL    HW228128   1.340   2.783   8.106  0.4329  0.8126 -1.0276
 5557SOL     OW28129   2.005   0.803  15.278  0.5977 -0.1682  0.4216
 5557SOL    HW128130   1.953   0.724  15.289  0.4603 -0.2358 -0.6984
 5557SOL    HW228131   1.941   0.872  15.261 -0.7476 -2.3353 -3.2882
 5558SOL     OW28132   0.213   0.398   5.089 -0.2508 -0.1478 -0.0712
 5558SOL    HW128133   0.118   0.394   5.085 -0.2820  0.8228 -0.4143
 5558SOL    HW228134   0.234   0.489   5.066  0.5083 -0.6775 -1.4465
 5559SOL     OW28135   3.190   3.228   7.363 -0.1010 -0.2143  0.2421
 5559SOL    HW128136   3.149   3.223   7.450  0.2540 -1.5532  0.3306
 5559SOL    HW228137   3.155   3.311   7.333  0.7234 -1.3433 -3.7993
 5560SOL     OW28138   3.908   4.178   9.308  0.1063  0.0388  0.2513
 5560SOL    HW128139   3.872   4.206   9.224  0.5778  0.2940  0.1361
 5560SOL    HW228140   3.889   4.084   9.307 -1.1844  0.2937  3.0142
 5561SOL     OW28141   1.157   4.464   1.844  0.2796 -0.1219 -0.5823
 5561SOL    HW128142   1.162   4.388   1.901  0.8534  0.8955  0.7525
 5561SOL    HW228143   1.188   4.426   1.762  0.2591 -0.6018 -0.3661
 5562SOL     OW28144   0.855   2.405   5.458  0.6855 -0.3878  0.3865
 5562SOL    HW128145   0.874   2.435   5.369 -1.0463 -0.0888  0.1177
 5562SOL    HW228146   0.825   2.317   5.436 -0.6664 -0.5295  2.8342
 5563SOL     OW28147   3.034   1.156   3.583 -0.3621 -0.1323  0.2325
 5563SOL    HW128148   3.047   1.065   3.607 -1.5938 -0.2328  0.5146
 5563SOL    HW228149   2.944   1.151   3.549  0.4053 -1.5284 -1.5362
 5564SOL     OW28150   1.828   2.029   0.955  0.2768  0.5565 -0.0607
 5564SOL    HW128151   1.760   2.065   0.897  0.5434  0.7135 -0.2808
 5564SOL    HW228152   1.846   2.103   1.014 -0.1169  1.0470 -0.5494
 5565SOL     OW28153   2.251   0.231  11.805 -0.1456 -0.1769 -0.4764
 5565SOL    HW128154   2.240   0.326  11.799  0.9587 -0.0927 -1.1164
 5565SOL    HW228155   2.329   0.224  11.750 -0.9105  1.0795 -1.7283
 5566SOL     OW28156   4.438   3.117   1.078 -0.2123  0.0144 -0.2678
 5566SOL    HW128157   4.377   3.060   1.032  2.3884 -0.0412 -3.6645
 5566SOL    HW228158   4.465   3.166   0.999 -0.9381 -2.9978 -2.3725
 5567SOL     OW28159   3.121   2.994   8.592 -0.0049  0.0964  0.0137
 5567SOL    HW128160   3.168   2.951   8.520  0.5540  0.7493 -0.0085
 5567SOL    HW228161   3.136   2.925   8.657  0.3041  0.3378  0.2019
 5568SOL     OW28162   0.653   2.299   3.583 -0.9220  0.0698 -0.2038
 5568SOL    HW128163   0.684   2.312   3.493 -0.8133  0.3461 -0.1261
 5568SOL    HW228164   0.598   2.221   3.582 -1.8171  0.7065 -0.5275
 5569SOL     OW28165   1.238   1.209  10.652  0.3945  0.2963 -0.2998
 5569SOL    HW128166   1.301   1.148  10.691  0.4011  0.2515 -0.3810
 5569SOL    HW228167   1.239   1.172  10.564 -0.9273  0.3749 -0.3431
 5570SOL     OW28168   2.755   1.202  10.263  0.3359 -0.5303 -0.1373
 5570SOL    HW128169   2.675   1.151  10.247 -1.3479  2.0139  0.0641
 5570SOL    HW228170   2.746   1.253  10.182 -0.6903  1.7568  1.3972
 5571SOL     OW28171   2.375   1.527   8.368  0.4305 -0.0617 -0.7281
 5571SOL    HW128172   2.359   1.500   8.277 -0.0517  3.1606 -1.6104
 5571SOL    HW228173   2.454   1.477   8.386  0.8981  0.6237 -0.8767
 5572SOL     OW28174   4.692   3.173   8.671 -0.5867 -0.3233  0.0250
 5572SOL    HW128175   0.050   3.212   8.705 -0.2792 -0.5510 -0.4321
 5572SOL    HW228176   4.671   3.099   8.728 -3.5283  1.6757  1.5114
 5573SOL     OW28177   3.054   3.924  16.338 -0.0476  0.3235  0.3807
 5573SOL    HW128178   2.959   3.925  16.350 -0.0860 -0.5269  0.0908
 5573SOL    HW228179   3.060   3.829  16.347 -2.3860 -0.1272 -2.8364
 5574SOL     OW28180   1.535   3.951   2.163 -0.6552 -0.2600  0.4777
 5574SOL    HW128181   1.531   3.999   2.081 -1.1782  0.4316  0.9156
 5574SOL    HW228182   1.483   4.004   2.223 -0.8271  0.7729 -0.5994
 5575SOL     OW28183   0.753   2.279   7.404  0.0954  0.6591 -0.1025
 5575SOL    HW128184   0.820   2.331   7.361  2.1494 -1.9357 -0.0352
 5575SOL    HW228185   0.791   2.250   7.487  0.4796 -1.7103 -1.0971
 5576SOL     OW28186   3.337   3.145   4.569 -0.6748  0.1442  0.2470
 5576SOL    HW128187   3.421   3.157   4.525 -0.0481 -1.3138  1.0438
 5576SOL    HW228188   3.349   3.068   4.624  1.6808  0.8137  0.6610
 5577SOL     OW28189   0.682   2.638   1.081  0.1947  0.2704  0.0010
 5577SOL    HW128190   0.716   2.722   1.051 -1.2021  0.6935 -0.3848
 5577SOL    HW228191   0.655   2.660   1.170 -3.2139 -1.6296 -0.5721
 5578SOL     OW28192   4.061   3.582  14.693  0.4633 -0.2749 -0.0322
 5578SOL    HW128193   4.043   3.652  14.629  0.2686 -0.5240 -0.2505
 5578SOL    HW228194   4.098   3.632  14.766  0.0576 -0.9347  0.6226
 5579SOL     OW28195   4.495   2.637  10.247  0.1365 -0.0258 -0.0895
 5579SOL    HW128196   4.528   2.594  10.168  2.2932  0.7895  0.3806
 5579SOL    HW228197   4.459   2.556  10.283 -0.2588 -0.0742 -0.5834
 5580SOL     OW28198   3.774   2.720   7.603 -0.1517 -0.0067 -0.1176
 5580SOL    HW128199   3.699   2.686   7.555 -0.2867  0.6047 -0.3427
 5580SOL    HW228200   3.843   2.733   7.537 -0.0339  1.3201  0.2680
 5581SOL     OW28201   2.556   3.043   6.740 -0.2929 -0.3800  0.1136
 5581SOL    HW128202   2.628   3.048   6.678  0.1601 -1.1370  0.5875
 5581SOL    HW228203   2.578   2.984   6.812  0.7410 -0.5575 -0.3484
 5582SOL     OW28204   1.744   2.506   4.534 -0.3055 -0.1430  0.4540
 5582SOL    HW128205   1.662   2.483   4.491  0.4195 -2.4983  0.3456
 5582SOL    HW228206   1.719   2.564   4.606  0.6131 -1.2046  1.6338
 5583SOL     OW28207   2.614   2.517   0.941  0.3218 -0.3684  0.2308
 5583SOL    HW128208   2.616   2.604   0.981 -0.4928 -0.5040  0.5538
 5583SOL    HW228209   2.688   2.527   0.881 -0.7604  1.5656 -0.7997
 5584SOL     OW28210   3.984   3.276  11.051  0.1944  0.5680  0.3990
 5584SOL    HW128211   3.901   3.236  11.077 -0.0355  0.1679 -0.9366
 5584SOL    HW228212   4.021   3.200  11.006  0.7172  1.0900 -0.0537
 5585SOL     OW28213   1.341   2.675   5.519  0.2872 -0.6159 -0.1586
 5585SOL    HW128214   1.400   2.727   5.572 -0.9698 -0.5038  1.1311
 5585SOL    HW228215   1.395   2.603   5.485  1.6848  0.4894 -0.2622
 5586SOL     OW28216   2.698   2.075   9.095  0.5751 -0.7583 -0.1576
 5586SOL    HW128217   2.639   2.037   9.030 -2.5354 -0.1179  2.3031
 5586SOL    HW228218   2.642   2.069   9.172 -1.9427 -0.4811 -1.9420
 5587SOL     OW28219   4.365   1.990  11.405  0.5900 -0.6797  0.6292
 5587SOL    HW128220   4.417   1.962  11.480  0.5544 -0.2705  0.8070
 5587SOL    HW228221   4.361   2.079  11.440  0.0380  0.0658 -1.3191
 5588SOL     OW28222   1.507   3.188   5.870 -0.6901  0.5242  0.9383
 5588SOL    HW128223   1.502   3.218   5.961 -1.9343  3.7927 -0.2227
 5588SOL    HW228224   1.602   3.198   5.862 -0.4338 -2.0606  0.8401
 5589SOL     OW28225   0.794   3.796   8.967 -0.5084 -0.0746  0.5289
 5589SOL    HW128226   0.752   3.872   8.927 -1.1425 -0.1151  1.1096
 5589SOL    HW228227   0.883   3.817   8.993  0.4149 -0.4410 -2.4122
 5590SOL     OW28228   1.361   0.620  11.597  0.3603 -0.2162 -0.2304
 5590SOL    HW128229   1.286   0.640  11.541  0.1458  0.0626  0.1553
 5590SOL    HW228230   1.401   0.706  11.613  0.6009 -0.4603  0.4744
 5591SOL     OW28231   3.598   4.558   3.164 -0.2165  0.4295  0.6624
 5591SOL    HW128232   3.515   4.515   3.145  0.7904 -0.5727 -1.5084
 5591SOL    HW228233   3.653   4.538   3.088 -0.9882 -0.7517  0.4194
 5592SOL     OW28234   3.525   4.705   7.100 -0.2986  0.1315 -0.0954
 5592SOL    HW128235   3.590   4.716   7.030 -0.3560  3.4110  0.3731
 5592SOL    HW228236   3.494   0.073   7.108  2.5423  0.8881  2.6203
 5593SOL     OW28237   0.762   0.345   4.664 -0.5036  0.0275  0.2248
 5593SOL    HW128238   0.759   0.431   4.621 -1.3741 -0.0430  0.1380
 5593SOL    HW228239   0.850   0.350   4.702  0.3029 -0.9723 -1.5546
 5594SOL     OW28240   3.884   1.130  16.088 -0.6783 -0.4474 -0.4442
 5594SOL    HW128241   3.813   1.093  16.035 -0.2460  2.8158 -3.3199
 5594SOL    HW228242   3.837   1.137  16.171 -0.7100 -1.6910 -0.3507
 5595SOL     OW28243   4.700   2.638  13.184  0.1202  0.6132 -0.0947
 5595SOL    HW128244   4.635   2.649  13.115 -0.8205 -0.0614  0.6896
 5595SOL    HW228245   4.713   2.727  13.217 -3.0150  0.8253  0.5154
 5596SOL     OW28246   2.153   2.557   7.489  0.3269 -0.3185  0.0232
 5596SOL    HW128247   2.208   2.479   7.483 -0.9668 -1.0655 -2.4584
 5596SOL    HW228248   2.134   2.580   7.397 -0.0954  1.6079  0.5854
 5597SOL     OW28249   0.333   0.224   0.562  0.1107  0.0695  0.1173
 5597SOL    HW128250   0.279   0.225   0.641  1.1311 -0.5767  0.8333
 5597SOL    HW228251   0.348   0.130   0.558  0.8936  0.2290 -0.6750
 5598SOL     OW28252   1.396   3.547   2.914  0.0867  0.2669  0.5080
 5598SOL    HW128253   1.483   3.565   2.878 -0.0283 -0.7544 -0.2724
 5598SOL    HW228254   1.347   3.622   2.880  1.9016  0.6504 -1.2995
 5599SOL     OW28255   0.354   2.945   3.055  0.7912 -0.5426  0.0977
 5599SOL    HW128256   0.353   3.038   3.032  1.8861 -0.4852  0.2621
 5599SOL    HW228257   0.328   2.938   3.147 -2.5778  2.4585 -0.6406
 5600SOL     OW28258   0.758   2.178   9.874  0.3944 -0.9503 -0.8712
 5600SOL    HW128259   0.754   2.168   9.969 -2.2474  0.9385 -0.7778
 5600SOL    HW228260   0.852   2.187   9.858  0.3508 -0.6430 -0.9635
 5601SOL     OW28261   4.709   1.723   6.906 -0.6607 -0.4842  0.4327
 5601SOL    HW128262   4.653   1.672   6.848 -2.7116  2.2549 -0.0018
 5601SOL    HW228263   0.037   1.654   6.947  1.8298  1.1615  0.1298
 5602SOL     OW28264   0.840   0.365   7.340  0.5040  0.1975  1.0047
 5602SOL    HW128265   0.927   0.402   7.358 -0.1020  1.7959  0.6816
 5602SOL    HW228266   0.785   0.429   7.385 -2.1794  0.2763 -2.3842
 5603SOL     OW28267   0.587   2.606  16.491 -0.3206 -0.0781  0.1236
 5603SOL    HW128268   0.610   2.698  16.476  0.9505 -0.4952 -0.5570
 5603SOL    HW228269   0.554   2.613  16.580  1.9241  0.2283  0.9244
 5604SOL     OW28270   0.139   2.768   7.357 -0.7886  0.7375  0.1310
 5604SOL    HW128271   0.178   2.681   7.369 -2.1217  0.3162  1.4116
 5604SOL    HW228272   0.051   2.761   7.392 -1.4090  1.3948 -1.2698
 5605SOL     OW28273   0.670   2.851   2.718  0.0943  1.0620 -0.3694
 5605SOL    HW128274   0.763   2.830   2.707  0.2984  1.7761 -0.0036
 5605SOL    HW228275   0.684   2.932   2.767 -3.1696  2.4231 -1.6945
 5606SOL     OW28276   3.508   0.488   4.879 -0.2415  0.3566  0.0651
 5606SOL    HW128277   3.491   0.495   4.785  1.4376 -1.5542 -0.3745
 5606SOL    HW228278   3.458   0.409   4.900  1.3989 -0.2526  1.6206
 5607SOL     OW28279   1.694   0.237  15.363 -0.0487  0.1534 -0.0755
 5607SOL    HW128280   1.618   0.187  15.334  0.7902 -1.2357  0.1144
 5607SOL    HW228281   1.661   0.301  15.426 -0.2870 -0.5672  0.5451
 5608SOL     OW28282   2.442   0.747   8.870 -0.4246 -0.0748 -0.6566
 5608SOL    HW128283   2.527   0.704   8.863 -0.1061  0.3888  0.3557
 5608SOL    HW228284   2.431   0.765   8.963 -0.7740  1.4338 -0.9858
 5609SOL     OW28285   4.114   0.440   8.552  1.0629  0.0180 -0.1634
 5609SOL    HW128286   4.023   0.413   8.556  1.2925 -0.3043  2.4276
 5609SOL    HW228287   4.160   0.359   8.531 -0.3753 -1.1921  1.3600
 5610SOL     OW28288   2.895   1.236  14.109  0.4565 -0.1740  0.4808
 5610SOL    HW128289   2.836   1.300  14.070  1.1876 -0.6808 -1.4567
 5610SOL    HW228290   2.858   1.156  14.072 -1.9088  0.3098  1.7548
 5611SOL     OW28291   3.399   3.021   0.738 -0.2528 -0.4631  0.3311
 5611SOL    HW128292   3.435   2.942   0.779  1.3597  0.8027  1.3391
 5611SOL    HW228293   3.423   2.997   0.648 -1.3420  0.3911 -0.1887
 5612SOL     OW28294   2.179   1.560   6.888 -0.4039 -0.0724 -0.3037
 5612SOL    HW128295   2.270   1.584   6.875 -0.4013  0.3308  0.4257
 5612SOL    HW228296   2.143   1.632   6.941 -2.4700  0.4743 -2.4564
 5613SOL     OW28297   3.891   3.005   7.891  0.0657  0.6938  0.6052
 5613SOL    HW128298   3.986   3.009   7.877 -0.1726  1.0101 -0.8391
 5613SOL    HW228299   3.874   3.024   7.799  1.5145  2.6334  0.7238
 5614SOL     OW28300   3.430   2.318  12.096  0.1709  0.0798 -0.1005
 5614SOL    HW128301   3.483   2.293  12.020 -0.5180 -1.5103 -0.0604
 5614SOL    HW228302   3.371   2.244  12.107 -0.3286  0.5621  0.4845
 5615SOL     OW28303   4.694   4.147   3.375  0.0421 -0.5709  0.5100
 5615SOL    HW128304   4.656   4.093   3.306  1.8583 -0.3872 -0.6264
 5615SOL    HW228305   4.637   4.118   3.447  0.3500 -1.6302  0.3184
 5616SOL     OW28306   0.552   3.677   5.179  0.0983  0.6800  0.8540
 5616SOL    HW128307   0.544   3.629   5.097  1.7963  2.4710 -0.3380
 5616SOL    HW228308   0.489   3.621   5.225 -0.4258  2.1183  1.9047
 5617SOL     OW28309   3.176   1.688   2.310 -0.1487 -0.4161 -0.1884
 5617SOL    HW128310   3.200   1.608   2.357 -1.3990  0.6022  2.1992
 5617SOL    HW228311   3.229   1.743   2.368 -1.1315  1.0627 -0.7183
 5618SOL     OW28312   2.836   4.594   7.683 -0.0774  0.8773  0.2269
 5618SOL    HW128313   2.900   4.554   7.624 -0.6842  1.2572 -0.6810
 5618SOL    HW228314   2.766   4.602   7.619 -0.7130 -0.4381  0.7582
 5619SOL     OW28315   0.181   4.705   6.814 -0.6127 -0.1817 -0.3170
 5619SOL    HW128316   0.094   0.022   6.806 -1.0997 -0.6744  2.7933
 5619SOL    HW228317   0.147   4.636   6.870  2.0425  0.1260  1.6671
 5620SOL     OW28318   1.407   4.075   7.522  0.1864 -0.4823 -0.4048
 5620SOL    HW128319   1.311   4.074   7.528  0.3002 -0.0389  1.6325
 5620SOL    HW228320   1.430   4.142   7.587 -1.6187 -0.4563  0.2174
 5621SOL     OW28321   0.107   1.088  16.842 -0.3790  0.2880 -0.0691
 5621SOL    HW128322   0.070   1.001  16.827 -0.2212  0.2185 -0.0558
 5621SOL    HW228323   0.060   1.135  16.773 -1.3979  1.1253  1.2126
 5622SOL     OW28324   2.556   2.246   1.025 -0.1776 -0.3274 -0.4870
 5622SOL    HW128325   2.652   2.238   1.023 -0.1568 -0.1398 -0.2667
 5622SOL    HW228326   2.557   2.332   0.983  0.4799 -1.1458 -2.1531
 5623SOL     OW28327   3.271   0.816   7.884  0.2688 -0.5593  0.1200
 5623SOL    HW128328   3.185   0.780   7.864  0.4685 -0.1603 -1.5179
 5623SOL    HW228329   3.267   0.828   7.978 -1.0083  1.8106 -0.2273
 5624SOL     OW28330   0.493   1.082  11.025  0.3329  0.0657 -0.0404
 5624SOL    HW128331   0.503   1.172  10.994  1.4253  0.0224  0.1852
 5624SOL    HW228332   0.414   1.060  10.976  1.3803  1.2766 -2.2634
 5625SOL     OW28333   3.902   2.669   1.894 -0.0288 -0.0045 -0.2167
 5625SOL    HW128334   3.811   2.665   1.922  0.1324  2.6146  0.6397
 5625SOL    HW228335   3.908   2.597   1.831 -0.1088 -0.9640  0.8542
 5626SOL     OW28336   0.545   3.243  15.642 -0.4188 -0.3603  0.1533
 5626SOL    HW128337   0.626   3.284  15.611  0.3183 -1.3555  0.7710
 5626SOL    HW228338   0.556   3.264  15.734 -2.3695 -3.7084  1.1508
 5627SOL     OW28339   1.613   4.407  11.282  0.2131  0.0617 -0.6554
 5627SOL    HW128340   1.562   4.338  11.238 -0.2274 -0.9157  1.3788
 5627SOL    HW228341   1.613   4.381  11.374 -0.4589  1.5130 -0.2492
 5628SOL     OW28342   2.426   1.951  11.151  0.3011  0.5007 -0.4331
 5628SOL    HW128343   2.445   1.872  11.102 -1.4075  0.0886 -0.4165
 5628SOL    HW228344   2.333   1.950  11.131  0.4841 -0.9026 -1.1818
 5629SOL     OW28345   3.975   2.611  13.637 -0.4142 -0.2245 -0.0674
 5629SOL    HW128346   4.003   2.648  13.721  1.5892 -0.4081 -0.6398
 5629SOL    HW228347   3.885   2.635  13.655  0.0628  2.1056 -0.8473
 5630SOL     OW28348   3.819   1.084   3.585  0.6635  0.3689  0.1255
 5630SOL    HW128349   3.899   1.049   3.548 -0.5456 -2.5677  0.2775
 5630SOL    HW228350   3.748   1.057   3.526 -0.1549 -0.3266  1.4140
 5631SOL     OW28351   0.425   0.275   2.554  0.9373  0.1233 -0.1449
 5631SOL    HW128352   0.377   0.348   2.595  0.0505 -1.1227  1.0606
 5631SOL    HW228353   0.454   0.313   2.471 -0.3927  1.2389 -0.1121
 5632SOL     OW28354   2.900   2.542   1.775  0.0730 -0.0837  0.0054
 5632SOL    HW128355   2.806   2.564   1.775 -0.0361 -0.5671 -0.6629
 5632SOL    HW228356   2.900   2.446   1.773 -0.6152 -0.1003  0.4962
 5633SOL     OW28357   4.235   0.345  15.560  0.0278 -0.6027 -0.3980
 5633SOL    HW128358   4.266   0.282  15.496 -1.4280 -1.2014 -0.5280
 5633SOL    HW228359   4.146   0.369  15.532  0.1263 -0.4819 -0.6049
 5634SOL     OW28360   0.694   1.659   7.624 -0.3614  0.2822  0.6964
 5634SOL    HW128361   0.612   1.705   7.604 -0.5497 -0.3630 -0.0177
 5634SOL    HW228362   0.761   1.717   7.587  0.2795 -0.6674  0.3903
 5635SOL     OW28363   2.674   0.825   8.442 -0.5884 -0.0885 -0.4151
 5635SOL    HW128364   2.611   0.898   8.443 -1.2066 -0.6226 -0.3559
 5635SOL    HW228365   2.612   0.753   8.454  0.3353 -0.8285 -0.1425
 5636SOL     OW28366   1.110   2.144   6.831  0.8833 -0.1051 -0.0340
 5636SOL    HW128367   1.089   2.150   6.924  0.0244 -0.6010 -0.2001
 5636SOL    HW228368   1.130   2.050   6.835 -1.0529 -0.4407  1.6148
 5637SOL     OW28369   1.749   1.819   7.234  0.6117 -0.0928 -0.2458
 5637SOL    HW128370   1.683   1.764   7.275  1.8364 -0.6265  1.0000
 5637SOL    HW228371   1.702   1.902   7.242  0.2006 -0.2894 -0.6294
 5638SOL     OW28372   3.250   3.855  10.597  0.0262  0.1476  0.4245
 5638SOL    HW128373   3.320   3.863  10.532  0.5985 -0.4392  0.9698
 5638SOL    HW228374   3.191   3.926  10.571 -1.0416 -1.2088 -0.8567
 5639SOL     OW28375   3.647   4.712  12.297  0.7387  0.0050 -0.0008
 5639SOL    HW128376   3.619   4.640  12.354 -1.1563 -1.0212 -2.2179
 5639SOL    HW228377   3.579   0.055  12.310 -0.1415 -0.7341 -0.8257
 5640SOL     OW28378   0.502   1.161   1.486 -0.2717 -0.5444  0.3146
 5640SOL    HW128379   0.543   1.077   1.465  1.8471  1.0727 -2.0812
 5640SOL    HW228380   0.423   1.142   1.537  0.4168 -1.5042  1.0236
 5641SOL     OW28381   1.133   4.662   4.612 -0.1300 -0.2483 -0.7244
 5641SOL    HW128382   1.219   4.702   4.603  0.6371 -2.1389 -1.6001
 5641SOL    HW228383   1.144   4.583   4.559 -0.9694  1.0814 -2.9002
 5642SOL     OW28384   3.458   1.338  10.007  0.0460  1.2213 -0.6592
 5642SOL    HW128385   3.479   1.269   9.944  1.6067  1.0768  0.0020
 5642SOL    HW228386   3.368   1.353   9.980 -0.0657  0.9575 -0.4244
 5643SOL     OW28387   4.662   1.863  15.208  0.5010  0.4380 -0.6669
 5643SOL    HW128388   4.697   1.823  15.129 -0.5268  0.3555 -1.0703
 5643SOL    HW228389   4.692   1.791  15.264 -0.1470 -0.0127 -0.9113
 5644SOL     OW28390   4.510   0.068  10.899 -0.1110 -0.4139  0.1854
 5644SOL    HW128391   4.524   0.142  10.840  2.5691 -1.7322 -0.8457
 5644SOL    HW228392   4.590   0.076  10.951 -0.7579  4.6324  0.3658
 5645SOL     OW28393   3.964   2.970  17.399 -0.0236 -0.1239  0.2505
 5645SOL    HW128394   4.012   2.963  17.317  1.8054 -0.8175  1.3902
 5645SOL    HW228395   4.024   2.921  17.454  0.9620 -0.6838 -1.3324
 5646SOL     OW28396   2.868   1.132   9.555 -0.1095 -0.0090 -0.7736
 5646SOL    HW128397   2.811   1.205   9.581  0.8100  0.1640  0.7785
 5646SOL    HW228398   2.917   1.115   9.636 -2.9055 -0.2285  0.8861
 5647SOL     OW28399   3.635   4.463   6.104 -0.1563  0.1189 -0.2765
 5647SOL    HW128400   3.615   4.533   6.043 -2.9557 -3.2697 -3.2713
 5647SOL    HW228401   3.582   4.493   6.178  0.8757 -1.9531  1.3042
 5648SOL     OW28402   0.756   1.170   8.702 -0.7120 -0.4596  0.1885
 5648SOL    HW128403   0.701   1.248   8.696 -0.7886 -0.5072  0.2645
 5648SOL    HW228404   0.805   1.192   8.782 -1.3448 -2.0743  1.0125
 5649SOL     OW28405   3.524   2.417  17.117 -0.3188 -0.2078  0.0056
 5649SOL    HW128406   3.513   2.471  17.038  2.7461 -2.5944 -2.0472
 5649SOL    HW228407   3.573   2.479  17.171  1.5544 -0.6171 -1.2118
 5650SOL     OW28408   2.196   4.655  13.811  0.0974 -0.2038  0.4213
 5650SOL    HW128409   2.175   4.563  13.827 -1.0784  0.4828  2.8473
 5650SOL    HW228410   2.247   4.644  13.731  0.0171 -2.8262  0.7286
 5651SOL     OW28411   2.407   4.287  15.119 -0.1469 -0.1501  0.0612
 5651SOL    HW128412   2.500   4.269  15.131 -0.1452  0.1205  0.4411
 5651SOL    HW228413   2.352   4.212  15.143  1.3685 -0.8294  1.4228
 5652SOL     OW28414   1.951   0.960   7.662  0.4699  0.4537  0.0028
 5652SOL    HW128415   1.946   0.948   7.757 -0.2429  1.8578  0.1363
 5652SOL    HW228416   2.023   0.897   7.655  0.3165  0.4943 -1.8365
 5653SOL     OW28417   3.778   4.374   2.842 -0.0802  0.4110 -0.0496
 5653SOL    HW128418   3.722   4.450   2.859 -0.3670 -0.1788  1.5914
 5653SOL    HW228419   3.732   4.300   2.883  2.4367  1.4300  4.5265
 5654SOL     OW28420   2.069   1.730   7.078 -0.0830  0.0034 -0.4368
 5654SOL    HW128421   2.110   1.816   7.085  0.2770 -0.2812  1.0406
 5654SOL    HW228422   1.995   1.747   7.021 -0.1443  0.7921 -0.1192
 5655SOL     OW28423   2.451   0.080   9.858  0.2569  0.1369  0.0406
 5655SOL    HW128424   2.447   0.062   9.763 -2.9394  2.2199 -0.1984
 5655SOL    HW228425   2.543   0.055   9.872  0.4896  1.0175  0.1068
 5656SOL     OW28426   3.739   3.224  17.602  0.4024 -0.4225  0.2119
 5656SOL    HW128427   3.693   3.263  17.528  0.6037 -0.5995 -0.0059
 5656SOL    HW228428   3.711   3.133  17.595  0.6423 -0.5423  0.8164
 5657SOL     OW28429   2.217   3.896  11.244 -0.4488 -0.1504 -0.0253
 5657SOL    HW128430   2.218   3.823  11.306  0.9607 -0.5033 -0.4606
 5657SOL    HW228431   2.307   3.926  11.237  0.4224 -2.0263  3.1320
 5658SOL     OW28432   1.532   3.332   4.416  0.0148  0.1808  0.0953
 5658SOL    HW128433   1.554   3.326   4.323 -0.8232  0.5740 -0.1288
 5658SOL    HW228434   1.550   3.422   4.446  0.1621  0.0606  0.3716
 5659SOL     OW28435   3.211   1.423   7.140  0.2521 -0.1470  0.0790
 5659SOL    HW128436   3.296   1.410   7.182 -0.2666 -0.6781  0.9718
 5659SOL    HW228437   3.159   1.351   7.177 -0.1766  0.0099 -0.2222
 5660SOL     OW28438   1.723   0.206   7.704 -0.0400 -0.4511 -0.6522
 5660SOL    HW128439   1.733   0.301   7.711 -0.5815 -0.5457  1.1746
 5660SOL    HW228440   1.783   0.173   7.636  0.4612 -1.5044  0.3089
 5661SOL     OW28441   3.060   2.385   7.808 -0.2254 -0.2303  0.3750
 5661SOL    HW128442   2.970   2.369   7.780 -0.9774  2.0711  1.5203
 5661SOL    HW228443   3.111   2.353   7.734  0.0115  0.0742  0.4084
 5662SOL     OW28444   2.612   1.638  16.269 -0.8625  0.1475 -0.0852
 5662SOL    HW128445   2.528   1.650  16.313 -1.2334 -1.0618 -0.4490
 5662SOL    HW228446   2.664   1.615  16.346 -3.2450  0.9815  1.7699
 5663SOL     OW28447   3.370   4.256   1.401 -0.4365 -0.0129 -0.0222
 5663SOL    HW128448   3.374   4.288   1.312  0.1471 -0.9371 -0.3304
 5663SOL    HW228449   3.377   4.335   1.454 -0.8835  0.4646 -0.6896
 5664SOL     OW28450   4.563   4.171   5.924  0.3721 -0.6405 -0.6262
 5664SOL    HW128451   4.633   4.120   5.883  2.1343  1.6814 -0.4822
 5664SOL    HW228452   4.608   4.177   6.008 -1.5094  0.8743  0.2847
 5665SOL     OW28453   4.084   3.933  16.452  0.0137  0.1782 -0.0169
 5665SOL    HW128454   4.022   3.941  16.379 -0.2935  0.9719  0.3270
 5665SOL    HW228455   4.032   3.981  16.516  2.5797  0.4391  1.8764
 5666SOL     OW28456   0.742   4.209  16.047 -0.1789 -0.1800 -0.4134
 5666SOL    HW128457   0.696   4.127  16.065 -1.6478  0.8473  0.5893
 5666SOL    HW228458   0.684   4.270  16.094  1.1454  0.1965  0.7191
 5667SOL     OW28459   2.647   1.505  16.524  0.1112 -0.2762 -0.5075
 5667SOL    HW128460   2.692   1.506  16.609  0.1024  2.0494 -0.5109
 5667SOL    HW228461   2.567   1.455  16.534 -0.5900  1.1226  0.9381
 5668SOL     OW28462   1.156   1.671   8.783  0.1633  0.1962  0.8207
 5668SOL    HW128463   1.144   1.682   8.878  0.3518 -0.4422  0.9191
 5668SOL    HW228464   1.076   1.703   8.742 -0.2052 -0.5819  0.9328
 5669SOL     OW28465   1.448   2.177   6.669  0.1940 -0.5261  0.3022
 5669SOL    HW128466   1.527   2.222   6.640  1.2081  0.0751  4.0129
 5669SOL    HW228467   1.476   2.126   6.745  2.2054 -0.4161 -0.3649
 5670SOL     OW28468   3.598   1.549  12.614 -0.3006 -0.5120  0.4936
 5670SOL    HW128469   3.581   1.639  12.639 -0.3476 -0.2642 -0.4443
 5670SOL    HW228470   3.651   1.509  12.683 -1.8291 -1.9513  0.8532
 5671SOL     OW28471   3.318   4.442   2.322  0.6875 -0.3078  0.1153
 5671SOL    HW128472   3.237   4.472   2.281  0.8563  0.3779  0.2688
 5671SOL    HW228473   3.322   4.355   2.282  0.0861 -1.2906  2.2017
 5672SOL     OW28474   3.747   1.410  12.810  0.8697 -0.4608  0.5816
 5672SOL    HW128475   3.833   1.402  12.768  0.9554 -0.5346  0.7712
 5672SOL    HW228476   3.768   1.381  12.899  1.7403  0.7515  0.7829
 5673SOL     OW28477   3.701   2.921   6.687  0.3320 -1.0220  0.4637
 5673SOL    HW128478   3.652   2.840   6.676 -1.2771 -0.0027  0.1198
 5673SOL    HW228479   3.767   2.899   6.622  0.5435  2.1071 -0.3848
 5674SOL     OW28480   1.686   1.633   5.626 -0.2908 -0.9303  0.1117
 5674SOL    HW128481   1.723   1.547   5.608  0.2500 -0.6669 -0.0263
 5674SOL    HW228482   1.768   1.682   5.624 -0.1915 -1.1018 -0.1095
 5675SOL     OW28483   3.723   0.052   9.873  0.0474  0.1578  0.1727
 5675SOL    HW128484   3.680   0.089   9.796  0.2006 -0.7683 -0.3609
 5675SOL    HW228485   3.790   0.118   9.893 -0.3947  0.0286  2.0990
 5676SOL     OW28486   0.436   4.615   3.833  0.4117  0.1652  0.1452
 5676SOL    HW128487   0.477   4.595   3.917  1.8433 -0.5427 -0.7135
 5676SOL    HW228488   0.496   4.678   3.794  0.3163  0.2748  0.1770
 5677SOL     OW28489   0.873   0.342   6.143  0.0934  0.5703 -0.1365
 5677SOL    HW128490   0.865   0.411   6.078 -0.9905  0.0604 -0.5637
 5677SOL    HW228491   0.874   0.268   6.081 -3.6354 -1.8452  2.6698
 5678SOL     OW28492   1.312   1.383  14.546 -0.0025  0.0028 -0.2312
 5678SOL    HW128493   1.316   1.477  14.530 -0.2033  0.0574  0.0350
 5678SOL    HW228494   1.318   1.340  14.461  0.4359 -1.7414  0.6727
 5679SOL     OW28495   0.704   0.345  14.980  0.2021  0.3178 -0.8035
 5679SOL    HW128496   0.761   0.270  14.966 -0.5262 -0.2227 -0.8448
 5679SOL    HW228497   0.739   0.403  14.913  0.1888  3.1436  1.6192
 5680SOL     OW28498   1.671   3.263   2.856  0.0237 -0.3865 -0.0138
 5680SOL    HW128499   1.710   3.183   2.821  1.5160  0.0545  0.6725
 5680SOL    HW228500   1.598   3.264   2.794 -0.1239  0.6077  0.1769
 5681SOL     OW28501   1.599   0.075  14.565  0.1647 -0.1449  0.0790
 5681SOL    HW128502   1.675   0.025  14.536 -0.1090 -0.1103 -0.7151
 5681SOL    HW228503   1.537   0.006  14.588 -0.6988  0.9624  1.0408
 5682SOL     OW28504   4.461   1.142   8.377  0.2015 -0.0965  0.2988
 5682SOL    HW128505   4.498   1.160   8.291 -0.0782 -3.5171 -0.5334
 5682SOL    HW228506   4.508   1.205   8.433 -0.1552 -0.9475  1.5565
 5683SOL     OW28507   2.174   1.328   6.000  0.2988 -0.2044 -0.5747
 5683SOL    HW128508   2.262   1.319   5.963  0.8851 -0.3713  0.8762
 5683SOL    HW228509   2.132   1.258   5.950  0.0129  1.4780 -2.7153
 5684SOL     OW28510   4.139   0.459  13.998 -0.4751 -0.5127  0.0029
 5684SOL    HW128511   4.144   0.510  14.079  0.9406 -0.1646 -0.3052
 5684SOL    HW228512   4.133   0.525  13.930 -3.3844  0.0769  0.8230
 5685SOL     OW28513   2.465   4.346   5.266 -0.3416  0.0868 -0.1366
 5685SOL    HW128514   2.432   4.334   5.176  0.9250 -0.4781 -0.5173
 5685SOL    HW228515   2.532   4.279   5.275 -0.3916 -0.4267 -3.5280
 5686SOL     OW28516   0.399   0.336  13.608 -0.9488  0.1417  0.0765
 5686SOL    HW128517   0.469   0.361  13.548 -1.2632 -1.2446 -0.8434
 5686SOL    HW228518   0.441   0.387  13.678 -0.2133  0.3250 -0.5064
 5687SOL     OW28519   1.755   1.699   6.668  0.0528  0.1680 -0.3669
 5687SOL    HW128520   1.725   1.712   6.578 -0.7147  1.8319  0.1328
 5687SOL    HW228521   1.787   1.609   6.671 -1.9897 -0.5856 -1.4992
 5688SOL     OW28522   4.230   0.680   8.629  0.0087  0.5555 -0.0984
 5688SOL    HW128523   4.182   0.604   8.598  2.6721 -0.4186 -1.8714
 5688SOL    HW228524   4.212   0.676   8.723 -1.0674  0.2135 -0.3266
 5689SOL     OW28525   2.833   2.357   6.489  0.3492 -0.1031  0.1841
 5689SOL    HW128526   2.807   2.449   6.484  0.0282 -0.3344 -2.5808
 5689SOL    HW228527   2.824   2.337   6.582  4.5013  0.0925  0.6360
 5690SOL     OW28528   2.660   4.540   8.377 -0.0603 -0.4832 -0.3043
 5690SOL    HW128529   2.662   4.445   8.393  2.8423 -0.8930 -3.0808
 5690SOL    HW228530   2.616   4.543   8.292  2.3859  1.0360 -1.5052
 5691SOL     OW28531   2.755   1.272   1.004  0.2854  0.7421 -0.5653
 5691SOL    HW128532   2.790   1.218   1.075 -0.8488  1.2851  0.4108
 5691SOL    HW228533   2.798   1.232   0.928  1.2805  0.9986 -0.1423
 5692SOL     OW28534   0.676   2.574   4.154  0.7360 -0.1746 -0.4532
 5692SOL    HW128535   0.764   2.581   4.191  0.5245 -0.6783  0.1382
 5692SOL    HW228536   0.683   2.629   4.076  1.8428  0.8590  0.3662
 5693SOL     OW28537   2.558   1.032   5.175 -0.4686 -0.0556 -0.2913
 5693SOL    HW128538   2.607   1.114   5.163  0.9125 -0.5542  1.9402
 5693SOL    HW228539   2.573   1.002   5.085  1.5790 -0.3192  0.1296
 5694SOL     OW28540   1.553   1.027  11.318  0.2369  0.1639 -0.5282
 5694SOL    HW128541   1.525   0.936  11.324  0.1090  0.1681 -1.0942
 5694SOL    HW228542   1.634   1.012  11.269 -0.8701 -3.5178 -1.2508
 5695SOL     OW28543   4.455   3.988   4.287  0.3224 -0.1489  0.2698
 5695SOL    HW128544   4.533   4.015   4.239  1.0107 -0.5624  1.1413
 5695SOL    HW228545   4.485   3.917   4.343 -1.1880 -0.5638  0.5421
 5696SOL     OW28546   3.905   3.825  10.247 -0.2640 -0.4610 -0.1753
 5696SOL    HW128547   3.889   3.905  10.296  1.4836  1.8375 -3.3739
 5696SOL    HW228548   3.998   3.829  10.222 -0.1905  0.0534  0.1795
 5697SOL     OW28549   3.247   2.477   0.032 -0.1183  0.4875 -0.0300
 5697SOL    HW128550   3.254   2.400   0.089  1.2143  0.8604  0.3203
 5697SOL    HW228551   3.228   2.440  17.639  2.1962 -1.9691  0.4984
 5698SOL     OW28552   0.269   2.545   7.393  0.0449 -0.5779 -0.1855
 5698SOL    HW128553   0.270   2.501   7.479  0.1774 -0.7480 -0.2743
 5698SOL    HW228554   0.362   2.537   7.376  0.0060 -1.9727  0.2722
 5699SOL     OW28555   4.417   2.270   5.272  0.1396 -0.2381 -0.3019
 5699SOL    HW128556   4.332   2.239   5.243 -0.3774 -0.6075  1.6216
 5699SOL    HW228557   4.469   2.225   5.205  0.3890  0.9596 -0.9128
 5700SOL     OW28558   3.521   4.361   2.477 -0.3673  0.6930  0.1113
 5700SOL    HW128559   3.552   4.444   2.513 -2.7276  1.6909 -0.1403
 5700SOL    HW228560   3.452   4.394   2.419 -1.4481 -1.6644  0.0354
 5701SOL     OW28561   4.512   3.164  16.640 -0.1647  0.4059 -0.1776
 5701SOL    HW128562   4.434   3.181  16.588 -1.3154  0.2937  1.5404
 5701SOL    HW228563   4.473   3.133  16.721 -1.4913  0.2839 -0.8677
 5702SOL     OW28564   0.413   1.779   8.855 -0.4207  0.1717  0.1539
 5702SOL    HW128565   0.380   1.845   8.794  0.1378 -0.7511 -1.1249
 5702SOL    HW228566   0.342   1.715   8.847 -0.5829  0.0959  1.9838
 5703SOL     OW28567   3.995   4.469  10.481  0.0257  0.0280 -0.0404
 5703SOL    HW128568   3.963   4.380  10.468  2.0802 -0.7322  0.2254
 5703SOL    HW228569   4.089   4.452  10.478  0.0901  0.0533  1.8274
 5704SOL     OW28570   2.263   1.731   7.854 -1.0138  0.3462  0.2372
 5704SOL    HW128571   2.197   1.795   7.880  1.2799  2.3105  1.2166
 5704SOL    HW228572   2.272   1.684   7.937  1.4702  1.3045  0.4995
 5705SOL     OW28573   2.176   1.569  11.002 -0.0621 -0.3082 -0.5772
 5705SOL    HW128574   2.128   1.650  10.983 -1.0632 -1.0698 -1.3061
 5705SOL    HW228575   2.181   1.521  10.919 -1.8576 -0.4565 -0.5948
 5706SOL     OW28576   0.699   4.553   6.310  0.3953  0.4382 -0.8016
 5706SOL    HW128577   0.677   4.645   6.327  0.7164  0.8171 -2.3853
 5706SOL    HW228578   0.641   4.538   6.235  0.9226 -2.4889 -0.6196
 5707SOL     OW28579   3.983   3.679   2.287 -0.2822 -0.0350 -0.3127
 5707SOL    HW128580   3.894   3.691   2.255 -0.6666  1.1532  1.1962
 5707SOL    HW228581   3.983   3.751   2.350  2.4286 -1.0889  0.9312
 5708SOL     OW28582   1.943   1.475   7.969 -0.1164  0.2104 -0.1881
 5708SOL    HW128583   1.953   1.556   8.019 -0.6869  0.8056 -1.0499
 5708SOL    HW228584   1.892   1.513   7.898  1.2569  1.3411 -0.5631
 5709SOL     OW28585   2.704   1.910   8.531  0.2628  0.4004  0.4994
 5709SOL    HW128586   2.621   1.919   8.486  0.6142 -0.6530 -0.3668
 5709SOL    HW228587   2.732   1.821   8.509  0.4671  0.8284 -0.9575
 5710SOL     OW28588   4.388   4.499   6.829  0.3466  0.1537 -0.5446
 5710SOL    HW128589   4.326   4.555   6.782 -2.4242 -0.7811  1.9974
 5710SOL    HW228590   4.334   4.458   6.897  2.5603 -1.9487 -0.0758
 5711SOL     OW28591   0.248   1.646   4.097 -0.3412 -0.1321 -0.6024
 5711SOL    HW128592   0.308   1.578   4.065  1.3663  1.0978 -0.0289
 5711SOL    HW228593   0.186   1.587   4.141 -0.6555 -0.2051 -1.1531
 5712SOL     OW28594   4.493   0.396   5.775 -0.0938  0.0782  0.1450
 5712SOL    HW128595   4.498   0.471   5.716  0.9598 -0.9018 -1.0134
 5712SOL    HW228596   4.587   0.395   5.795  0.4549  0.2309 -2.4161
 5713SOL     OW28597   3.182   0.808   4.160 -0.7034 -0.4240  0.3718
 5713SOL    HW128598   3.276   0.791   4.153 -0.7500 -0.7834  0.6332
 5713SOL    HW228599   3.151   0.734   4.108 -0.1023  0.6001 -1.4425
 5714SOL     OW28600   0.086   0.679  15.411 -0.2632 -0.4988 -0.3735
 5714SOL    HW128601   0.106   0.593  15.375  0.3792 -0.9236  0.9707
 5714SOL    HW228602   0.143   0.728  15.353 -2.5403  0.9716 -1.3519
 5715SOL     OW28603   3.852   0.795  12.468  0.2024 -0.3171  0.3370
 5715SOL    HW128604   3.766   0.835  12.455  0.2060  0.0198  1.3390
 5715SOL    HW228605   3.835   0.703  12.489  3.5017 -1.2695 -1.2308
 5716SOL     OW28606   2.880   2.252   1.833 -0.2961 -0.1239 -0.4055
 5716SOL    HW128607   2.858   2.227   1.743 -2.3419 -0.0933  0.0757
 5716SOL    HW228608   2.798   2.240   1.880 -0.3518  1.0814 -0.2025
 5717SOL     OW28609   2.715   1.391  10.733  0.5496 -0.5851 -0.0776
 5717SOL    HW128610   2.668   1.404  10.815  0.1760 -1.3962 -0.1609
 5717SOL    HW228611   2.657   1.360  10.663  1.2411 -0.1225 -0.8463
 5718SOL     OW28612   0.606   4.121   0.947  0.3602 -0.0683 -0.2029
 5718SOL    HW128613   0.513   4.129   0.967  0.4686  0.9563 -0.1060
 5718SOL    HW228614   0.606   4.192   0.882 -0.2597 -2.3911 -2.7411
 5719SOL     OW28615   0.341   4.334   7.853 -0.6018  0.6592 -0.1049
 5719SOL    HW128616   0.420   4.362   7.806 -0.7330  2.1800  0.5791
 5719SOL    HW228617   0.274   4.328   7.784 -1.2738  1.0687  0.5129
 5720SOL     OW28618   4.616   3.468   0.139 -0.2528 -0.3044  0.2358
 5720SOL    HW128619   4.521   3.467   0.143 -0.1763  0.8663  2.1146
 5720SOL    HW228620   4.644   3.502   0.224  2.7029 -0.6960 -0.5702
 5721SOL     OW28621   3.700   1.780  11.325 -0.1400 -0.1295 -0.0264
 5721SOL    HW128622   3.622   1.727  11.342  1.0885 -1.1838  2.2749
 5721SOL    HW228623   3.719   1.744  11.238  0.3433  2.1937 -0.8620
 5722SOL     OW28624   1.755   3.753   3.794 -0.3284  0.2823 -0.3560
 5722SOL    HW128625   1.777   3.805   3.871  1.0367 -0.8350 -0.0017
 5722SOL    HW228626   1.778   3.667   3.829  1.1454  1.1366  0.7718
 5723SOL     OW28627   1.471   0.590  15.797  0.5162  0.9352  0.0426
 5723SOL    HW128628   1.479   0.504  15.839 -0.8190 -0.0373 -1.7164
 5723SOL    HW228629   1.562   0.620  15.790  0.5687  0.7044 -0.2729
 5724SOL     OW28630   3.281   4.110   6.094 -0.2172 -0.2324 -0.2792
 5724SOL    HW128631   3.190   4.137   6.084 -0.4844 -0.7665  0.7017
 5724SOL    HW228632   3.309   4.151   6.176 -1.0853  0.7640 -0.4841
 5725SOL     OW28633   3.038   3.567   1.408  0.6434  0.0891 -0.3054
 5725SOL    HW128634   3.120   3.569   1.456  0.0097 -0.9936  0.8081
 5725SOL    HW228635   2.981   3.525   1.472  1.3214 -0.4240 -0.0399
 5726SOL     OW28636   4.644   3.430   4.089 -0.0317  0.2745 -0.0797
 5726SOL    HW128637   0.013   3.408   4.072 -0.0739  1.4009 -1.7130
 5726SOL    HW228638   4.644   3.483   4.169 -0.9060  0.7261 -0.3852
 5727SOL     OW28639   0.182   0.295   9.236 -0.3204 -0.2772  0.5652
 5727SOL    HW128640   0.236   0.216   9.232 -1.4414 -1.0950  1.4433
 5727SOL    HW228641   0.138   0.281   9.320 -0.0872 -0.5914  0.6350
 5728SOL     OW28642   1.770   4.170  15.531 -0.4086  0.2346 -0.0367
 5728SOL    HW128643   1.787   4.260  15.503 -0.7791  0.0284 -0.9141
 5728SOL    HW228644   1.768   4.175  15.627 -5.1142  0.2507 -0.1626
 5729SOL     OW28645   3.878   4.249   5.090 -0.0964  0.0696 -0.2749
 5729SOL    HW128646   3.934   4.267   5.166  0.1412  0.2354 -0.4905
 5729SOL    HW228647   3.906   4.318   5.030 -0.8755 -0.0437 -0.7640
 5730SOL     OW28648   2.988   4.677   1.978 -0.9030 -0.3313 -0.5362
 5730SOL    HW128649   2.903   4.670   1.933  0.6403 -2.3842 -3.1364
 5730SOL    HW228650   3.021   0.032   1.934  0.1633  0.1794  1.1685
 5731SOL     OW28651   1.137   3.959  13.037 -0.1783  0.1438 -0.2749
 5731SOL    HW128652   1.161   3.889  12.976 -0.2304 -0.9600  0.9655
 5731SOL    HW228653   1.043   3.941  13.043 -0.0947 -0.4609 -0.7798
 5732SOL     OW28654   3.233   1.093   4.100 -0.3067 -0.4070  0.3747
 5732SOL    HW128655   3.278   1.010   4.086  0.3670 -0.0597  0.4931
 5732SOL    HW228656   3.199   1.123   4.016  1.6583 -2.1840 -1.0529
 5733SOL     OW28657   1.090   4.672   9.416  0.2995 -0.1350 -0.7977
 5733SOL    HW128658   1.067   4.632   9.332 -0.4432  2.1466 -1.6676
 5733SOL    HW228659   1.179   4.704   9.401 -0.2724  1.6612 -0.3284
 5734SOL     OW28660   3.106   0.777  16.485 -0.0486  0.0199 -0.1621
 5734SOL    HW128661   3.191   0.744  16.458 -0.3931 -3.0646  2.4973
 5734SOL    HW228662   3.044   0.704  16.476  1.0887 -0.8799 -0.6617
 5735SOL     OW28663   3.151   1.358   5.123 -0.7793 -0.0636  0.0760
 5735SOL    HW128664   3.134   1.271   5.160 -0.9473 -0.3539 -0.6927
 5735SOL    HW228665   3.086   1.408   5.172 -0.1295  0.8416  0.0146
 5736SOL     OW28666   2.515   0.739  13.267 -0.2873 -0.4107 -0.4544
 5736SOL    HW128667   2.469   0.790  13.200 -0.4915  0.2235  0.1669
 5736SOL    HW228668   2.450   0.688  13.315 -1.0182  1.2336  0.3126
 5737SOL     OW28669   3.756   4.433   5.714  0.5621 -0.1374  0.1711
 5737SOL    HW128670   3.710   4.503   5.759  1.8811  0.3832  0.7178
 5737SOL    HW228671   3.789   4.372   5.780  0.5470  0.9172  1.1328
 5738SOL     OW28672   0.585   4.434  12.699  0.5215  0.1528  0.8292
 5738SOL    HW128673   0.639   4.466  12.771  0.5652 -4.6643  2.9918
 5738SOL    HW228674   0.497   4.434  12.737  1.4269  1.9449  2.9000
 5739SOL     OW28675   0.998   1.667  14.204  0.1890 -0.0780 -0.5301
 5739SOL    HW128676   0.966   1.755  14.220 -0.8198 -1.2037  3.8756
 5739SOL    HW228677   0.941   1.612  14.259 -1.1636  0.0977 -1.7675
 5740SOL     OW28678   0.207   3.789  14.773 -0.0491  0.8048  0.1050
 5740SOL    HW128679   0.203   3.746  14.687 -0.1997  2.7895 -0.8930
 5740SOL    HW228680   0.126   3.840  14.773 -1.2204 -1.0295 -1.7306
 5741SOL     OW28681   1.155   3.759   0.872  0.8430 -0.2966  0.0696
 5741SOL    HW128682   1.211   3.837   0.877 -2.5508  2.3734 -3.0143
 5741SOL    HW228683   1.074   3.798   0.839  0.7359  0.1178  0.8289
 5742SOL     OW28684   3.505   1.096   9.876 -0.1334  0.7979  0.4407
 5742SOL    HW128685   3.530   1.013   9.917 -3.0066 -0.1895  0.2237
 5742SOL    HW228686   3.480   1.063   9.789 -0.5713  1.9213  0.1494
 5743SOL     OW28687   0.975   0.913   8.182  0.4094  0.5399  0.0653
 5743SOL    HW128688   0.916   0.930   8.255  0.0843 -3.2123  0.6679
 5743SOL    HW228689   1.036   0.987   8.183 -0.1536  1.0182 -0.8376
 5744SOL     OW28690   3.672   3.328   5.942 -0.6331 -0.0626 -0.2406
 5744SOL    HW128691   3.661   3.365   5.854 -0.2050 -1.1913 -0.7733
 5744SOL    HW228692   3.597   3.268   5.939  0.6604 -1.6681 -0.4181
 5745SOL     OW28693   0.492   2.404   5.593 -0.1342  0.1902  0.4920
 5745SOL    HW128694   0.570   2.433   5.640 -0.4107  0.9150  0.4958
 5745SOL    HW228695   0.449   2.370   5.672 -1.7915  1.9868  0.3511
 5746SOL     OW28696   2.503   0.391   2.367 -0.4777  0.5527 -0.4499
 5746SOL    HW128697   2.527   0.304   2.334 -3.0403 -1.3279  2.6853
 5746SOL    HW228698   2.461   0.428   2.289 -1.7740 -3.2292 -1.5173
 5747SOL     OW28699   1.645   0.690  14.179 -0.1114  0.1014 -0.0706
 5747SOL    HW128700   1.585   0.752  14.220  0.7395  0.2061  0.9978
 5747SOL    HW228701   1.629   0.622  14.244 -2.4011  0.4490 -0.2511
 5748SOL     OW28702   0.768   2.363   2.497 -0.1105 -1.1908  0.1585
 5748SOL    HW128703   0.733   2.336   2.581 -0.4745 -0.0043  0.3970
 5748SOL    HW228704   0.692   2.405   2.457 -0.0863 -1.8239 -0.5539
 5749SOL     OW28705   1.168   4.455   1.090 -0.1211 -0.2590 -0.5008
 5749SOL    HW128706   1.170   4.549   1.111  2.5188 -0.9716  2.3620
 5749SOL    HW228707   1.075   4.452   1.066  0.4369 -0.8468 -2.5707
 5750SOL     OW28708   2.146   0.413   7.458  0.0176 -0.3260 -0.3465
 5750SOL    HW128709   2.106   0.497   7.438 -0.8615 -0.4764  0.7633
 5750SOL    HW228710   2.204   0.437   7.530  1.4656 -2.7984 -0.6598
 5751SOL     OW28711   3.306   2.754   9.036  0.1341  0.2005 -0.0999
 5751SOL    HW128712   3.264   2.673   9.068  2.6209 -0.9019  0.3254
 5751SOL    HW228713   3.340   2.787   9.119 -1.2327 -1.9718  1.3278
 5752SOL     OW28714   2.302   0.946   7.379  1.0561 -0.1435  0.2571
 5752SOL    HW128715   2.310   0.967   7.472  2.5211  0.2403  0.0346
 5752SOL    HW228716   2.227   0.999   7.349  2.4392  0.5598 -1.9560
 5753SOL     OW28717   0.613   0.255  10.376  0.0710  0.1805 -0.0641
 5753SOL    HW128718   0.670   0.186  10.340  1.3327  0.5923  1.1553
 5753SOL    HW228719   0.575   0.280  10.292 -0.8626  2.4185  1.0539
 5754SOL     OW28720   1.716   4.149   3.059 -0.2621 -0.7497 -0.2935
 5754SOL    HW128721   1.807   4.121   3.061 -0.1431 -0.4165 -1.0642
 5754SOL    HW228722   1.733   4.227   3.112  2.9718 -0.6291 -1.5088
 5755SOL     OW28723   4.519   1.692  11.725  0.2323  0.1753  0.5669
 5755SOL    HW128724   4.450   1.627  11.713 -0.3139  0.8236  0.2062
 5755SOL    HW228725   4.602   1.658  11.692 -1.1962 -2.4971 -0.2956
 5756SOL     OW28726   4.468   2.606   7.340  0.6323 -0.0650 -0.2070
 5756SOL    HW128727   4.453   2.657   7.419 -1.7614 -1.8196  0.4836
 5756SOL    HW228728   4.519   2.532   7.375 -0.3557 -0.4870  0.3608
 5757SOL     OW28729   0.259   0.370   5.753 -0.0472 -0.4528 -0.3259
 5757SOL    HW128730   0.207   0.322   5.687 -1.0738  1.4743 -0.9120
 5757SOL    HW228731   0.299   0.314   5.819 -0.2952  0.2301  0.3911
 5758SOL     OW28732   3.099   1.537   0.532  0.4075  0.6812  0.3545
 5758SOL    HW128733   3.073   1.501   0.617  0.0154  1.6845  0.6522
 5758SOL    HW228734   3.093   1.631   0.550  0.2918  1.1231 -1.9863
 5759SOL     OW28735   4.443   1.399   7.441  0.1883  0.0877 -0.0574
 5759SOL    HW128736   4.407   1.310   7.442 -0.1802  0.2607  1.4350
 5759SOL    HW228737   4.422   1.434   7.527  2.0519  2.1822 -0.4603
 5760SOL     OW28738   2.635   3.049   5.484 -0.4294 -0.0427 -0.2049
 5760SOL    HW128739   2.554   3.055   5.434 -0.0076  3.4645 -0.4436
 5760SOL    HW228740   2.680   3.000   5.416 -2.0976  0.1257 -1.4320
 5761SOL     OW28741   1.246   3.819   2.177  0.3674  0.7569 -0.1926
 5761SOL    HW128742   1.200   3.898   2.205 -3.8453 -1.4795 -0.7426
 5761SOL    HW228743   1.328   3.861   2.155  0.8910 -1.2437 -2.0193
 5762SOL     OW28744   1.650   2.258   2.282 -0.2793 -0.0702  0.2865
 5762SOL    HW128745   1.665   2.334   2.227 -0.5355  0.9528  1.6218
 5762SOL    HW228746   1.736   2.226   2.308 -0.4603  0.1455  1.1742
 5763SOL     OW28747   3.682   3.390  16.935  0.2404 -0.2786 -0.5530
 5763SOL    HW128748   3.744   3.440  16.882  1.2254 -2.3780 -1.4001
 5763SOL    HW228749   3.680   3.312  16.879  0.7864 -1.2548  0.7951
 5764SOL     OW28750   2.356   1.753   2.475  0.6125 -0.5706  0.1362
 5764SOL    HW128751   2.290   1.755   2.544  0.4072 -0.3993 -0.0655
 5764SOL    HW228752   2.352   1.661   2.447 -0.9094 -0.5853  0.3777
 5765SOL     OW28753   4.457   3.100   3.013 -0.5549 -0.1900 -0.3579
 5765SOL    HW128754   4.552   3.093   3.007 -0.3367  2.3423  0.2083
 5765SOL    HW228755   4.438   3.143   2.929 -0.7354  1.6996  0.6451
 5766SOL     OW28756   1.994   2.490   5.234 -0.0256 -0.3163 -0.5234
 5766SOL    HW128757   2.052   2.564   5.215  1.1800 -0.8365  1.1660
 5766SOL    HW228758   2.031   2.462   5.317 -1.6380 -0.4217  0.1519
 5767SOL     OW28759   0.690   0.493   8.965  0.6722  0.1382 -0.3381
 5767SOL    HW128760   0.649   0.415   9.002 -0.6686  1.9098  1.9631
 5767SOL    HW228761   0.620   0.553   8.991 -1.2789 -1.8550 -0.9581
 5768SOL     OW28762   2.763   2.709   0.567 -0.2440 -0.2706 -0.2527
 5768SOL    HW128763   2.693   2.709   0.503  0.2702  1.3736 -0.8140
 5768SOL    HW228764   2.799   2.797   0.557  2.6255 -1.5437 -1.2834
 5769SOL     OW28765   2.642   1.530   0.893  0.1040 -0.0991 -0.2715
 5769SOL    HW128766   2.679   1.449   0.928 -3.1661 -1.3405  0.3534
 5769SOL    HW228767   2.550   1.505   0.886  0.4923 -1.0525 -1.9232
 5770SOL     OW28768   4.592   0.375   0.390 -0.2005 -0.9881 -0.2295
 5770SOL    HW128769   4.624   0.296   0.434  0.3845  0.6152  2.2431
 5770SOL    HW228770   4.513   0.342   0.348 -0.6637 -0.6371  0.3690
 5771SOL     OW28771   3.954   0.270   2.546  0.1472 -0.0012  0.5880
 5771SOL    HW128772   4.046   0.247   2.556  0.2514 -0.5666 -1.6204
 5771SOL    HW228773   3.967   0.354   2.502 -0.9471 -0.4334 -0.5487
 5772SOL     OW28774   1.916   2.006   9.346 -0.0842 -0.1905  0.8662
 5772SOL    HW128775   1.867   2.014   9.427  0.7398  2.2621  1.1104
 5772SOL    HW228776   1.939   2.098   9.340 -0.4513 -0.2649 -1.9093
 5773SOL     OW28777   0.243   2.702  12.411  0.1052 -0.5173  0.0073
 5773SOL    HW128778   0.222   2.737  12.324  1.6355 -0.8887 -0.5102
 5773SOL    HW228779   0.328   2.658  12.408  0.0509 -0.6501  0.5288
 5774SOL     OW28780   3.143   4.536  17.647  0.2666  0.0253 -0.1271
 5774SOL    HW128781   3.185   4.588   0.023  1.9158  0.4460 -1.4263
 5774SOL    HW228782   3.215   4.485  17.610 -0.8765 -1.6265 -0.0782
 5775SOL     OW28783   1.460   3.734   3.763  0.5945 -0.5290  0.2136
 5775SOL    HW128784   1.453   3.676   3.687 -0.3651 -1.7058  1.2038
 5775SOL    HW228785   1.555   3.728   3.772  0.9617  2.6868 -1.4353
 5776SOL     OW28786   4.718   2.792   5.955 -0.6875 -0.8418 -0.7768
 5776SOL    HW128787   0.010   2.727   6.024  1.9720 -0.0343 -0.6120
 5776SOL    HW228788   0.009   2.874   6.004 -2.3406 -3.1910  3.6069
 5777SOL     OW28789   3.043   2.465  11.945  0.2489 -0.3366  0.5631
 5777SOL    HW128790   3.095   2.386  11.933  2.4371  0.7200  2.8703
 5777SOL    HW228791   2.965   2.432  11.990  0.4734 -1.5098  0.0878
 5778SOL     OW28792   4.572   2.363   5.525  0.5595 -0.0102  0.0414
 5778SOL    HW128793   4.633   2.397   5.591  0.3624 -0.1661  0.3022
 5778SOL    HW228794   4.626   2.291   5.494  0.2263 -0.7958  1.2879
 5779SOL     OW28795   2.513   4.642   2.427  0.1229  0.2355 -0.4314
 5779SOL    HW128796   2.503   4.567   2.486  2.4325  1.3638  1.3761
 5779SOL    HW228797   2.427   4.681   2.439 -0.1616 -0.5526  0.0986
 5780SOL     OW28798   0.346   2.850   8.414  0.4682 -0.2356  0.3096
 5780SOL    HW128799   0.429   2.802   8.417  0.6406 -0.0292 -0.9690
 5780SOL    HW228800   0.367   2.938   8.382 -0.3781  0.1974  0.9809
 5781SOL     OW28801   4.690   4.703   5.129  0.4135  0.0325  0.0487
 5781SOL    HW128802   4.720   0.064   5.165  1.6566 -0.8957  1.1667
 5781SOL    HW228803   4.602   4.719   5.095  0.8234  1.0253 -0.5690
 5782SOL     OW28804   4.322   0.663  16.457  0.2419  0.2908  0.3625
 5782SOL    HW128805   4.292   0.587  16.508  0.9766 -1.1781 -1.4072
 5782SOL    HW228806   4.271   0.650  16.377 -1.0736  1.6753  0.9679
 5783SOL     OW28807   1.398   1.048   1.377 -0.3686  0.7749 -0.0760
 5783SOL    HW128808   1.419   1.063   1.284 -1.4945  3.9626  0.1725
 5783SOL    HW228809   1.389   1.134   1.417 -0.7180  1.3232 -1.3196
 5784SOL     OW28810   2.336   1.667   1.013  0.3378  0.0565  0.5641
 5784SOL    HW128811   2.264   1.646   1.072  0.3765  1.4061  1.0991
 5784SOL    HW228812   2.339   1.583   0.968  3.4829  0.2858  0.3463
 5785SOL     OW28813   4.149   1.969   8.652 -0.3780 -0.1167  0.0896
 5785SOL    HW128814   4.177   2.060   8.657  1.2538 -0.6883  1.2337
 5785SOL    HW228815   4.112   1.979   8.564  0.1215  1.3530  0.0465
 5786SOL     OW28816   4.173   4.360   6.238  0.1198 -0.1347 -0.1132
 5786SOL    HW128817   4.125   4.372   6.156  0.9399  0.6838 -0.4758
 5786SOL    HW228818   4.201   4.269   6.242  0.3728 -0.0516 -0.0067
 5787SOL     OW28819   0.587   1.145   5.192 -0.2903 -0.0325 -0.1732
 5787SOL    HW128820   0.511   1.125   5.138 -1.8374  1.8110  1.3296
 5787SOL    HW228821   0.591   1.239   5.173  2.5956  0.1871  1.6214
 5788SOL     OW28822   1.364   3.907  15.072  0.4216  0.0670 -0.9765
 5788SOL    HW128823   1.429   3.965  15.111  0.3723  0.7546 -1.9063
 5788SOL    HW228824   1.287   3.960  15.051  0.8956  1.0597 -0.1523
 5789SOL     OW28825   2.595   4.528  13.871  0.0549  0.1065  0.2012
 5789SOL    HW128826   2.671   4.515  13.927 -0.2093 -1.4135  0.2102
 5789SOL    HW228827   2.516   4.533  13.925  0.0811  0.1809  0.2340
 5790SOL     OW28828   2.054   2.471   5.777 -0.1195  0.1089  0.0507
 5790SOL    HW128829   2.045   2.390   5.727 -1.2455 -0.0131  0.4414
 5790SOL    HW228830   1.982   2.456   5.838 -0.7661 -1.0643 -0.9909
 5791SOL     OW28831   1.076   4.094   5.077 -0.2920 -0.1400  0.5216
 5791SOL    HW128832   1.055   4.158   5.145  1.5451  1.1619 -0.1490
 5791SOL    HW228833   0.986   4.063   5.066 -0.9471  2.2134 -0.5094
 5792SOL     OW28834   4.353   0.506   6.662  0.1731 -0.3013 -0.1801
 5792SOL    HW128835   4.434   0.510   6.611  1.9984 -1.3918  2.6692
 5792SOL    HW228836   4.365   0.577   6.726 -0.7256 -4.0524  4.1048
 5793SOL     OW28837   1.108   3.064   5.265 -0.7403  0.2429 -0.0930
 5793SOL    HW128838   1.147   3.032   5.347 -0.5769  0.4949 -0.0727
 5793SOL    HW228839   1.147   2.997   5.209  1.6235  0.9274  0.7566
 5794SOL     OW28840   4.409   1.957   3.008 -0.1502 -0.2511 -0.0279
 5794SOL    HW128841   4.329   1.937   2.959 -0.6445 -0.3639  0.8260
 5794SOL    HW228842   4.377   1.992   3.091  1.4984  1.1389  0.0119
 5795SOL     OW28843   1.972   1.358   9.681  0.0627 -1.1214 -0.4116
 5795SOL    HW128844   2.037   1.407   9.631 -2.5932  0.3069 -2.4958
 5795SOL    HW228845   1.957   1.415   9.756  1.4718 -0.7778 -0.3993
 5796SOL     OW28846   3.385   2.317   4.667  0.1540 -0.0103  0.3455
 5796SOL    HW128847   3.459   2.257   4.659  0.9244  0.7412  1.9675
 5796SOL    HW228848   3.370   2.327   4.573  1.3600 -1.6576 -0.0103
 5797SOL     OW28849   2.679   4.491  12.180 -1.5110  0.0811 -0.2706
 5797SOL    HW128850   2.720   4.557  12.236 -0.2510 -1.6106  0.7687
 5797SOL    HW228851   2.735   4.496  12.103 -0.0023 -0.4719  0.7940
 5798SOL     OW28852   4.338   1.387  15.858  0.5138  0.1256 -0.0073
 5798SOL    HW128853   4.417   1.333  15.864 -0.3851 -1.0036  1.8740
 5798SOL    HW228854   4.264   1.329  15.878  1.6608 -0.9792  1.1129
 5799SOL     OW28855   1.064   0.139   0.145  0.0201 -0.6833 -0.4555
 5799SOL    HW128856   0.975   0.103   0.141 -0.8609  1.5007 -0.6183
 5799SOL    HW228857   1.049   0.220   0.097 -0.1732  1.3000  2.8942
 5800SOL     OW28858   4.711   0.660  15.861  0.3420  0.1689 -0.1320
 5800SOL    HW128859   4.666   0.594  15.914 -0.8809  0.4713 -0.7959
 5800SOL    HW228860   4.716   0.726  15.930  0.6946 -0.2390  0.2347
 5801SOL     OW28861   0.906   0.996  13.773 -0.7763 -0.3345 -0.4456
 5801SOL    HW128862   0.917   1.072  13.830  2.6494 -1.2027  0.0363
 5801SOL    HW228863   0.877   1.028  13.688  2.2037  0.3392 -1.2229
 5802SOL     OW28864   3.960   2.498   3.726 -0.0402  0.2903  0.0163
 5802SOL    HW128865   3.906   2.496   3.647 -0.9299 -2.4047  0.6644
 5802SOL    HW228866   3.976   2.404   3.731 -0.9600  0.1019 -0.6263
 5803SOL     OW28867   4.042   1.698   1.743 -0.5030 -0.2142  0.7319
 5803SOL    HW128868   4.083   1.643   1.676  0.1219 -2.0668  2.6453
 5803SOL    HW228869   3.975   1.726   1.681 -1.4608 -0.2374  1.7484
 5804SOL     OW28870   1.174   3.271   7.429  0.4438 -0.3702 -0.0391
 5804SOL    HW128871   1.101   3.262   7.367 -1.4573  1.2166  1.9500
 5804SOL    HW228872   1.252   3.303   7.384 -0.2774 -0.3098 -1.2503
 5805SOL     OW28873   0.198   1.713  11.334  0.5187 -0.1502 -0.1239
 5805SOL    HW128874   0.103   1.697  11.330  0.4545  0.2955 -0.3464
 5805SOL    HW228875   0.201   1.780  11.403  0.4094 -2.8030  2.4449
 5806SOL     OW28876   0.481   0.785  17.418 -0.3340  0.2078  0.4584
 5806SOL    HW128877   0.444   0.781  17.330  0.8838 -1.5079  0.0177
 5806SOL    HW228878   0.537   0.862  17.413  0.6805 -0.7062 -2.5368
 5807SOL     OW28879   0.874   2.557   2.792  0.9344 -0.0552  0.1555
 5807SOL    HW128880   0.834   2.601   2.868  3.5874 -1.2802  2.2528
 5807SOL    HW228881   0.839   2.471   2.817 -0.9385  1.4270  2.6137
 5808SOL     OW28882   1.691   1.100  14.884  0.3541  0.3480  0.1494
 5808SOL    HW128883   1.597   1.106  14.906  0.0536  2.2467 -1.6215
 5808SOL    HW228884   1.686   1.018  14.834 -0.5077  0.5486 -0.1035
 5809SOL     OW28885   2.161   1.919  11.070  0.2119 -0.4204  0.0466
 5809SOL    HW128886   2.070   1.891  11.056 -0.0306 -0.1300  1.0162
 5809SOL    HW228887   2.193   1.922  10.980 -0.8775  1.4930 -0.2946
 5810SOL     OW28888   0.839   0.726   8.552  0.0463  0.1748 -0.1720
 5810SOL    HW128889   0.851   0.655   8.614  1.1477 -1.9590 -2.8278
 5810SOL    HW228890   0.920   0.709   8.504 -0.7342 -2.8809 -0.3826
 5811SOL     OW28891   0.258   2.550   1.866 -0.2334  0.0545  0.2953
 5811SOL    HW128892   0.295   2.535   1.953 -1.0394  1.3950  0.8609
 5811SOL    HW228893   0.166   2.570   1.883 -0.3073  1.4857 -1.8307
 5812SOL     OW28894   4.291   1.373   7.813  0.1541 -0.2589  0.0415
 5812SOL    HW128895   4.341   1.371   7.894 -0.1729 -0.6864  0.2278
 5812SOL    HW228896   4.286   1.279   7.794 -4.0147  0.4822 -2.5778
 5813SOL     OW28897   2.775   2.115   7.551 -0.4341 -0.4030 -0.1718
 5813SOL    HW128898   2.801   2.045   7.611  0.8738  0.6973  0.5423
 5813SOL    HW228899   2.859   2.160   7.540 -0.3656 -0.6750 -0.8039
 5814SOL     OW28900   4.479   0.515   1.199  0.7530  0.4174  0.2071
 5814SOL    HW128901   4.458   0.569   1.276  0.4898  0.4649  0.1022
 5814SOL    HW228902   4.473   0.586   1.136  0.2615  2.1315  2.1652
 5815SOL     OW28903   4.370   2.484   3.165 -1.0530  0.5445 -0.0291
 5815SOL    HW128904   4.377   2.564   3.217  0.8952 -0.2127  0.8831
 5815SOL    HW228905   4.349   2.517   3.078 -1.2058 -0.4683 -0.3796
 5816SOL     OW28906   0.973   4.279   4.420 -0.1009 -0.4507 -0.0144
 5816SOL    HW128907   0.916   4.245   4.351  0.5313  0.4000 -0.9737
 5816SOL    HW228908   0.972   4.211   4.486 -3.4413  1.6403  2.0722
 5817SOL     OW28909   4.483   0.882  10.774 -0.0680  0.1803 -0.4856
 5817SOL    HW128910   4.491   0.958  10.716 -1.7856  0.9344  0.2514
 5817SOL    HW228911   4.445   0.820  10.712 -0.4159  1.8942 -1.9736
 5818SOL     OW28912   4.629   2.703   4.932  0.4092 -0.1857  0.0849
 5818SOL    HW128913   4.687   2.638   4.893  1.7078  0.8793  0.2572
 5818SOL    HW228914   4.660   2.709   5.022  2.0138  0.8771 -0.5397
 5819SOL     OW28915   1.642   0.366   3.686 -0.7318 -0.7170 -0.1467
 5819SOL    HW128916   1.549   0.368   3.664 -0.1288  1.2422 -2.4421
 5819SOL    HW228917   1.673   0.296   3.629 -0.5098 -1.0546  0.3811
 5820SOL     OW28918   4.075   2.756   2.530 -0.2618 -0.1303 -0.3513
 5820SOL    HW128919   4.075   2.817   2.455 -2.6015 -1.0999 -1.1577
 5820SOL    HW228920   4.005   2.692   2.518 -1.6278  1.3455 -0.3353
 5821SOL     OW28921   1.102   0.780   8.413 -0.4816  0.5238  0.2897
 5821SOL    HW128922   1.101   0.840   8.339  0.5909  1.4930  1.0652
 5821SOL    HW228923   1.166   0.821   8.471  0.3071  1.1931 -1.0517
 5822SOL     OW28924   0.051   0.567   4.901  0.2927 -0.3379 -0.1860
 5822SOL    HW128925   0.122   0.566   4.836  1.0283  1.1189  0.6050
 5822SOL    HW228926   4.719   0.507   4.850 -2.9647 -0.0244  2.9465
 5823SOL     OW28927   2.875   1.598   7.315  0.0038  0.2225  0.6668
 5823SOL    HW128928   2.828   1.611   7.397 -0.1285 -0.9121  0.7776
 5823SOL    HW228929   2.820   1.648   7.255  0.2891  0.8914  0.9629
 5824SOL     OW28930   3.261   2.471   3.733  0.0393 -0.1300 -0.1991
 5824SOL    HW128931   3.193   2.533   3.759  0.0640  0.0911 -0.6621
 5824SOL    HW228932   3.232   2.401   3.791  2.0657 -2.4994 -2.0270
 5825SOL     OW28933   4.028   2.184   7.041  0.5063  0.2093 -0.3397
 5825SOL    HW128934   4.102   2.236   7.010 -0.1136  0.0803 -2.0600
 5825SOL    HW228935   4.032   2.105   6.985 -0.4961  1.3253 -1.9925
 5826SOL     OW28936   1.922   3.497   6.853 -0.2340 -0.2345  0.4048
 5826SOL    HW128937   1.880   3.474   6.770  1.0340 -0.4929 -0.1614
 5826SOL    HW228938   1.923   3.411   6.895  1.2196 -1.6804 -2.6416
 5827SOL     OW28939   4.069   0.994   5.565  0.1958 -0.1766 -0.2627
 5827SOL    HW128940   4.142   0.934   5.579 -0.4430 -1.2703 -1.5925
 5827SOL    HW228941   4.015   0.941   5.507 -0.1446  0.1494 -0.2439
 5828SOL     OW28942   4.325   3.928   7.121 -0.0533 -0.0291  0.0067
 5828SOL    HW128943   4.334   3.833   7.125  0.7002  0.0737  0.9199
 5828SOL    HW228944   4.302   3.947   7.212 -0.8231  1.2983 -0.4628
 5829SOL     OW28945   4.550   0.591   5.590  0.0580  0.4646  0.2196
 5829SOL    HW128946   4.595   0.657   5.643  0.4735  0.3954 -0.0477
 5829SOL    HW228947   4.528   0.650   5.518  3.0346  1.6000  0.2293
 5830SOL     OW28948   3.924   2.073   5.902 -0.6669  0.2103 -0.2514
 5830SOL    HW128949   3.888   2.161   5.914 -0.4881  0.0805  1.2376
 5830SOL    HW228950   3.853   2.039   5.847  1.1426  0.3647 -2.6751
 5831SOL     OW28951   1.561   1.537   4.310 -0.2851 -0.0162  0.7434
 5831SOL    HW128952   1.627   1.509   4.374  0.5539 -0.3255 -0.2520
 5831SOL    HW228953   1.480   1.511   4.352 -1.4508  1.7782 -0.3784
 5832SOL     OW28954   3.124   1.924  10.351  0.3309  0.2209  0.3070
 5832SOL    HW128955   3.197   1.956  10.297  1.9612  1.3276  3.1943
 5832SOL    HW228956   3.151   1.957  10.437  0.6418  1.0067 -0.0912
 5833SOL     OW28957   0.425   0.675   0.471 -0.0766  0.5750  0.1375
 5833SOL    HW128958   0.359   0.655   0.538  0.7747  1.0452  1.1157
 5833SOL    HW228959   0.385   0.754   0.435 -0.3648  0.5437  0.3864
 5834SOL     OW28960   3.804   1.290   2.857 -0.1614  0.1004 -0.2722
 5834SOL    HW128961   3.891   1.287   2.898 -0.1182  0.5182 -0.3350
 5834SOL    HW228962   3.818   1.239   2.778  0.4706 -1.0645  0.5847
 5835SOL     OW28963   2.133   3.081  14.732 -0.5282  0.5343  0.1890
 5835SOL    HW128964   2.129   3.122  14.819  0.7646 -2.1717  1.4966
 5835SOL    HW228965   2.039   3.082  14.715 -0.5074  0.3353  0.0643
 5836SOL     OW28966   3.227   1.828   1.339  0.1149 -0.2817  0.4473
 5836SOL    HW128967   3.242   1.919   1.312  1.0819 -0.7720 -0.6514
 5836SOL    HW228968   3.138   1.814   1.307  0.8782 -0.2246 -1.6623
 5837SOL     OW28969   1.465   3.367   8.412 -0.0218 -0.5276  0.3074
 5837SOL    HW128970   1.491   3.281   8.444  0.0482 -1.2114 -1.5835
 5837SOL    HW228971   1.432   3.328   8.331 -0.2516  1.2452 -0.4582
 5838SOL     OW28972   0.690   3.291   0.629 -0.4098  0.2293  0.1699
 5838SOL    HW128973   0.752   3.314   0.559 -2.2138  1.6639 -0.9671
 5838SOL    HW228974   0.689   3.197   0.641 -0.8830  0.2397  0.2274
 5839SOL     OW28975   3.726   1.541   5.643  0.0550  0.5065  1.3254
 5839SOL    HW128976   3.655   1.508   5.589  0.4936  0.0865  1.0141
 5839SOL    HW228977   3.804   1.506   5.600 -1.8527 -1.5233 -0.4205
 5840SOL     OW28978   1.418   0.053   2.235  0.0663  0.1541 -0.2998
 5840SOL    HW128979   1.507   0.041   2.202  1.2710  0.2867  2.9199
 5840SOL    HW228980   1.370   4.694   2.228  2.2204 -0.9492 -2.2354
 5841SOL     OW28981   3.034   2.663   7.944  0.1286 -0.0971  0.2882
 5841SOL    HW128982   2.968   2.609   7.988 -0.1560 -0.8126 -1.0262
 5841SOL    HW228983   3.103   2.596   7.947 -0.0039 -0.2385  0.1099
 5842SOL     OW28984   3.551   2.993  17.559  0.1138 -0.2423 -0.6880
 5842SOL    HW128985   3.548   2.992  17.655 -1.4497  0.6600 -0.7227
 5842SOL    HW228986   3.458   2.994  17.537 -0.7978 -2.2453  2.9612
 5843SOL     OW28987   2.458   0.173   1.601 -0.3629  0.0131 -0.1568
 5843SOL    HW128988   2.432   0.124   1.522 -0.0212 -0.4986  0.0489
 5843SOL    HW228989   2.458   0.260   1.560  2.9088 -1.1408 -2.5751
 5844SOL     OW28990   3.548   4.399  10.013 -0.7032 -0.1405  0.2611
 5844SOL    HW128991   3.605   4.425   9.940  2.8767 -0.6934  2.8774
 5844SOL    HW228992   3.541   4.304  10.007  2.5441 -0.2066 -2.1393
 5845SOL     OW28993   2.812   4.366   2.204  0.4117 -0.1043 -0.1215
 5845SOL    HW128994   2.740   4.342   2.147  1.2741  0.0783 -1.2837
 5845SOL    HW228995   2.822   4.287   2.257 -1.6692  0.0710  0.4995
 5846SOL     OW28996   1.816   0.891   9.840  0.3537 -0.2629  0.2197
 5846SOL    HW128997   1.720   0.895   9.831  0.3484  0.1669  0.4852
 5846SOL    HW228998   1.840   0.951   9.770 -1.7130  2.0928  1.5210
 5847SOL     OW28999   4.083   2.521  15.923  0.0817  0.5118 -0.0515
 5847SOL    HW129000   4.049   2.443  15.968  2.0920 -0.5593 -0.3860
 5847SOL    HW229001   4.175   2.495  15.918  0.0257  0.3350 -0.1393
 5848SOL     OW29002   4.345   0.312  12.693  0.5674  0.0174  0.4398
 5848SOL    HW129003   4.368   0.397  12.730 -1.0010  0.6847 -0.1262
 5848SOL    HW229004   4.285   0.337  12.624 -0.3965 -1.3503  0.7848
 5849SOL     OW29005   3.129   1.824  14.402 -0.0183  0.5283  0.4548
 5849SOL    HW129006   3.175   1.907  14.402 -1.5933  1.3922  0.8673
 5849SOL    HW229007   3.050   1.847  14.354 -0.1004  1.8281  1.2206
 5850SOL     OW29008   0.460   3.319   0.362  0.5481 -0.3619  0.8686
 5850SOL    HW129009   0.503   3.395   0.324 -0.1002 -0.9889 -1.1019
 5850SOL    HW229010   0.394   3.351   0.423  0.6249 -0.7935  1.1801
 5851SOL     OW29011   2.746   1.873   6.253  0.0337  0.7100 -0.3634
 5851SOL    HW129012   2.786   1.957   6.278  0.7601  0.7715 -1.7229
 5851SOL    HW229013   2.798   1.834   6.182  0.6104 -1.1064  1.0809
 5852SOL     OW29014   0.469   4.024   2.838  0.1840 -0.6895  0.3808
 5852SOL    HW129015   0.391   3.997   2.885  0.0731 -0.8801  0.0922
 5852SOL    HW229016   0.462   3.980   2.753 -3.0185  0.1861  0.2312
 5853SOL     OW29017   2.831   3.284  10.435  0.4769  0.9001 -0.5184
 5853SOL    HW129018   2.777   3.226  10.381 -1.9906  1.0203  1.8035
 5853SOL    HW229019   2.849   3.226  10.509  1.9749  1.9976 -0.0340
 5854SOL     OW29020   4.070   3.182   3.802  0.1520 -0.3270 -0.1692
 5854SOL    HW129021   3.977   3.173   3.785 -0.2996  1.0808  1.5873
 5854SOL    HW229022   4.097   3.170   3.711  1.5335 -1.9258  0.4483
 5855SOL     OW29023   4.212   0.971  15.680  0.1495  0.0088 -0.3963
 5855SOL    HW129024   4.137   0.917  15.701  0.0022 -0.4233 -2.0244
 5855SOL    HW229025   4.192   1.041  15.743  1.0499  0.8200 -0.9985
 5856SOL     OW29026   3.779   2.591  14.905  0.1823 -0.9089  0.7279
 5856SOL    HW129027   3.693   2.633  14.898  1.4744  1.2534 -2.3648
 5856SOL    HW229028   3.837   2.665  14.892  0.0984 -0.5415  2.4687
 5857SOL     OW29029   4.559   2.575   1.461  0.1904 -0.4343  0.2068
 5857SOL    HW129030   4.572   2.636   1.534  0.4306  0.3118 -0.4651
 5857SOL    HW229031   4.474   2.535   1.481  0.5007 -1.2048 -0.0087
 5858SOL     OW29032   1.123   0.638   6.906 -0.2948 -0.0070  0.4630
 5858SOL    HW129033   1.053   0.633   6.970 -1.9085  0.2714 -1.2762
 5858SOL    HW229034   1.080   0.627   6.821  0.0754  3.8793 -0.2496
 5859SOL     OW29035   2.897   0.906   8.596 -0.0777 -0.1242 -0.0024
 5859SOL    HW129036   2.871   0.925   8.686  1.6972 -0.9505  0.6957
 5859SOL    HW229037   2.816   0.872   8.559  0.1936  0.7746 -1.4294
 5860SOL     OW29038   4.248   1.456   2.967 -0.5702 -0.2194 -0.2981
 5860SOL    HW129039   4.260   1.375   3.018 -0.6452  0.3639  0.6498
 5860SOL    HW229040   4.273   1.429   2.879  0.9536  2.0463 -0.5415
 5861SOL     OW29041   0.747   0.658   6.623 -0.4635 -0.0925  0.2102
 5861SOL    HW129042   0.738   0.563   6.611 -1.5752  0.1588 -0.9815
 5861SOL    HW229043   0.833   0.658   6.665 -0.4239 -0.0795  0.1302
 5862SOL     OW29044   2.347   0.216  16.421 -1.0080  0.5132  0.6555
 5862SOL    HW129045   2.271   0.273  16.430 -1.9544 -0.5650 -0.4686
 5862SOL    HW229046   2.422   0.268  16.449 -0.2838 -0.2913  0.1991
 5863SOL     OW29047   3.908   1.890   5.650 -0.1238 -0.5072  0.2661
 5863SOL    HW129048   3.855   1.969   5.661 -0.9018 -1.0477  0.3928
 5863SOL    HW229049   3.876   1.832   5.719 -1.8615  0.2451  0.0806
 5864SOL     OW29050   1.926   3.120   5.574 -0.0317 -0.6783  0.0105
 5864SOL    HW129051   1.924   3.216   5.568 -2.5763 -0.7609 -0.5511
 5864SOL    HW229052   1.900   3.103   5.483  0.7807 -0.6116 -0.2374
 5865SOL     OW29053   3.744   4.363   4.249 -0.2454  0.5367 -0.4134
 5865SOL    HW129054   3.672   4.304   4.270  0.5450  0.0867  1.0196
 5865SOL    HW229055   3.702   4.449   4.246 -2.9719 -0.7710 -0.0758
 5866SOL     OW29056   0.970   1.379  13.198 -0.1691  0.0085 -0.7932
 5866SOL    HW129057   0.971   1.305  13.137  0.8345 -0.3782 -0.3027
 5866SOL    HW229058   1.045   1.371  13.256 -0.2054  1.3707 -0.5745
 5867SOL     OW29059   0.868   3.428   5.082  0.2387  0.6653  0.3010
 5867SOL    HW129060   0.814   3.409   5.006  0.5712 -1.4829  0.6175
 5867SOL    HW229061   0.878   3.334   5.099 -0.0932  0.2500 -1.8862
 5868SOL     OW29062   2.636   3.339   6.503  0.1020 -0.9418  0.1865
 5868SOL    HW129063   2.653   3.319   6.411  2.3847  1.8831 -0.0064
 5868SOL    HW229064   2.541   3.328   6.511 -0.2680  1.6190 -0.7205
 5869SOL     OW29065   2.369   3.712   4.439 -0.2976  0.2942  0.1247
 5869SOL    HW129066   2.287   3.690   4.393 -0.7209 -1.3178  1.6562
 5869SOL    HW229067   2.352   3.679   4.527  0.1686 -0.6359 -0.1334
 5870SOL     OW29068   4.348   1.241  15.559  0.0274  0.2093  0.8858
 5870SOL    HW129069   4.435   1.280  15.555  0.5613 -1.0573  0.3902
 5870SOL    HW229070   4.361   1.155  15.598 -3.1854  0.0836  1.6752
 5871SOL     OW29071   3.675   2.941  10.843 -0.0634 -0.3696  0.6845
 5871SOL    HW129072   3.621   2.862  10.843  0.9540 -1.0572  1.3962
 5871SOL    HW229073   3.689   2.952  10.937  0.0502  0.8235  0.5246
 5872SOL     OW29074   3.203   3.682  10.232 -0.0916  0.3117 -0.3217
 5872SOL    HW129075   3.144   3.750  10.199  0.7637  1.4442  0.5002
 5872SOL    HW229076   3.160   3.668  10.317 -1.0560  0.4117 -0.7996
 5873SOL     OW29077   1.920   1.959   6.657  0.3426 -0.0262 -0.1328
 5873SOL    HW129078   1.888   1.878   6.698 -0.7530  1.1199  1.2757
 5873SOL    HW229079   1.987   1.982   6.721  1.6102  0.7515 -1.7508
 5874SOL     OW29080   0.402   2.414   5.963 -0.0390 -0.0095 -0.5484
 5874SOL    HW129081   0.352   2.474   5.907 -0.2142  1.3160  1.0179
 5874SOL    HW229082   0.394   2.335   5.910  0.9094  1.5938 -3.1026
 5875SOL     OW29083   2.090   4.379   9.468  0.2329  0.0565  0.0088
 5875SOL    HW129084   2.046   4.464   9.476 -3.7778 -1.9699 -0.7978
 5875SOL    HW229085   2.056   4.340   9.549 -0.1124  1.3262  0.4878
 5876SOL     OW29086   0.307   1.695   2.905  0.1638  0.3085 -0.1512
 5876SOL    HW129087   0.257   1.733   2.976  0.9373  3.2802 -1.1780
 5876SOL    HW229088   0.350   1.769   2.862 -2.2946  1.9203  0.1608
 5877SOL     OW29089   2.962   2.133   0.032 -0.2868  0.0043 -0.1063
 5877SOL    HW129090   2.908   2.063  17.690 -0.0018 -0.6562  0.7635
 5877SOL    HW229091   3.050   2.113  17.693 -0.9129  1.1264 -2.4325
 5878SOL     OW29092   4.593   3.712   4.854  0.2178  0.1579 -0.2154
 5878SOL    HW129093   4.570   3.802   4.876  0.5293 -0.2233  1.7385
 5878SOL    HW229094   4.651   3.675   4.921 -0.5395  0.6644  0.7361
 5879SOL     OW29095   1.242   1.304  14.280 -0.4529  0.1297  0.5152
 5879SOL    HW129096   1.152   1.330  14.298 -0.6457 -0.5049  0.4517
 5879SOL    HW229097   1.226   1.226  14.227 -0.3080  1.0386 -0.8770
 5880SOL     OW29098   2.247   0.483   2.201 -0.1881  0.5159 -0.1661
 5880SOL    HW129099   2.248   0.526   2.115 -4.1961 -0.9914 -0.9472
 5880SOL    HW229100   2.181   0.539   2.242  0.6056  2.0035 -0.8991
 5881SOL     OW29101   0.136   0.109  10.817 -0.4572  0.2790  0.4186
 5881SOL    HW129102   0.166   0.172  10.752 -2.0695 -1.2262 -1.7749
 5881SOL    HW229103   0.053   0.076  10.782 -0.3531 -1.0829  1.4429
 5882SOL     OW29104   1.343   4.647   5.229 -0.1115 -0.1838  0.2675
 5882SOL    HW129105   1.411   4.581   5.236 -1.3349 -1.4732  0.0829
 5882SOL    HW229106   1.269   4.589   5.209  1.1805 -1.0343 -2.0322
 5883SOL     OW29107   2.825   0.605  14.722  0.7200 -0.9546  0.9030
 5883SOL    HW129108   2.756   0.598  14.788  0.6676  0.4221  0.9923
 5883SOL    HW229109   2.909   0.600  14.768  2.6246  0.3111 -2.5014
 5884SOL     OW29110   4.428   3.491   3.445  0.1210  0.3054  0.4873
 5884SOL    HW129111   4.377   3.410   3.435  0.5105 -0.0551  1.3900
 5884SOL    HW229112   4.477   3.480   3.527  1.7937  0.8950 -0.4406
 5885SOL     OW29113   0.914   1.891   6.488 -0.4457 -0.6412  0.3167
 5885SOL    HW129114   0.965   1.811   6.494  0.5033  0.0383  1.2138
 5885SOL    HW229115   0.897   1.898   6.394  0.7985 -2.7981 -0.0579
 5886SOL     OW29116   0.773   0.852   5.737  0.2434  0.2334  0.1565
 5886SOL    HW129117   0.803   0.866   5.647 -0.9304  0.1924 -0.2338
 5886SOL    HW229118   0.680   0.840   5.721  0.3111 -1.2577  0.8218
 5887SOL     OW29119   1.148   3.656   4.071  0.4547 -0.7074  0.0105
 5887SOL    HW129120   1.214   3.696   4.127 -1.6920  2.2392  0.3953
 5887SOL    HW229121   1.172   3.695   3.987 -0.7366 -0.5992 -0.2906
 5888SOL     OW29122   2.385   0.444  14.174 -0.7502  0.1372  0.2056
 5888SOL    HW129123   2.405   0.373  14.234 -0.6473 -1.2267 -1.4387
 5888SOL    HW229124   2.290   0.447  14.169 -0.7674 -0.1712  0.3748
 5889SOL     OW29125   0.306   0.460   2.750 -0.0324 -0.1712 -0.6595
 5889SOL    HW129126   0.394   0.466   2.788  0.3210 -0.7887 -1.3799
 5889SOL    HW229127   0.253   0.523   2.799  1.4678  0.1465  0.5908
 5890SOL     OW29128   0.836   0.719  13.848 -0.5502 -0.2618 -0.1499
 5890SOL    HW129129   0.823   0.801  13.800  2.4528 -0.4840 -1.3142
 5890SOL    HW229130   0.873   0.754  13.929 -1.1205  0.8427 -0.3613
 5891SOL     OW29131   3.061   3.705  15.257  0.1595  0.2896 -0.0379
 5891SOL    HW129132   3.107   3.789  15.248 -0.3211  0.3315 -2.1215
 5891SOL    HW229133   3.000   3.713  15.184 -0.5420  0.7991  0.5980
 5892SOL     OW29134   2.787   0.991   7.044 -0.3134 -0.4412 -0.3133
 5892SOL    HW129135   2.733   0.932   7.096  0.1005 -0.0409  0.5698
 5892SOL    HW229136   2.757   0.980   6.954  0.7885 -3.3059 -0.3054
 5893SOL     OW29137   1.615   2.552   1.428 -0.2286  0.1816 -0.0824
 5893SOL    HW129138   1.620   2.605   1.348  0.8180  1.1944  0.6591
 5893SOL    HW229139   1.689   2.491   1.427 -0.3904 -0.0313  1.9944
 5894SOL     OW29140   2.567   1.990   7.471 -0.4452 -0.2238 -0.2378
 5894SOL    HW129141   2.638   2.036   7.514 -0.3899 -0.3263 -0.2188
 5894SOL    HW229142   2.530   1.948   7.549 -0.3687  0.0714 -0.0449
 5895SOL     OW29143   3.439   3.153  12.362  0.2576 -0.2763  0.1142
 5895SOL    HW129144   3.488   3.077  12.394 -0.2146 -0.8096 -0.4098
 5895SOL    HW229145   3.496   3.186  12.293  2.5322  2.2835  3.2699
 5896SOL     OW29146   4.332   4.333  12.056  0.5215  0.1829 -0.2271
 5896SOL    HW129147   4.420   4.357  12.087  0.3055 -0.1638  0.6636
 5896SOL    HW229148   4.346   4.252  12.008  0.8272  0.6284 -0.8857
 5897SOL     OW29149   2.461   3.554   8.874 -0.3153  0.7806 -0.2840
 5897SOL    HW129150   2.490   3.486   8.935 -0.5886  2.4124  1.6474
 5897SOL    HW229151   2.442   3.627   8.933 -1.3431 -0.0091  0.3686
 5898SOL     OW29152   0.980   0.361   5.027 -0.0044  0.5313  0.3612
 5898SOL    HW129153   0.958   0.291   4.965  1.9905  1.3766 -1.3101
 5898SOL    HW229154   1.012   0.431   4.969 -2.4715  0.6730 -0.8301
 5899SOL     OW29155   3.241   0.566   2.632  0.1901  0.3843  0.5679
 5899SOL    HW129156   3.176   0.578   2.563  2.4878 -0.1240 -1.6718
 5899SOL    HW229157   3.324   0.602   2.602 -0.1219  1.1623  0.6473
 5900SOL     OW29158   1.380   3.604   1.988  0.1637  0.1913  0.0846
 5900SOL    HW129159   1.337   3.613   2.072  0.5113  0.3418  0.2469
 5900SOL    HW229160   1.456   3.662   1.988  0.6451 -0.4239 -1.4796
 5901SOL     OW29161   4.508   4.390   6.357  0.0607 -0.3261  0.2142
 5901SOL    HW129162   4.524   4.436   6.274  0.0545  0.3992  0.6209
 5901SOL    HW229163   4.601   4.383   6.380  0.3116 -0.6930 -0.8752
 5902SOL     OW29164   3.360   2.408   1.632  0.3695  0.6941  0.2098
 5902SOL    HW129165   3.357   2.321   1.592 -1.0352 -0.1650  2.2053
 5902SOL    HW229166   3.342   2.383   1.723 -0.0292  0.3883  0.0476
 5903SOL     OW29167   1.731   1.810  14.289 -0.3258 -0.7836  0.6509
 5903SOL    HW129168   1.649   1.770  14.317 -1.5704  1.4278  0.1455
 5903SOL    HW229169   1.695   1.886  14.244  0.4957 -2.7404 -3.3057
 5904SOL     OW29170   0.385   3.886   2.506  0.4531  0.3677  0.5258
 5904SOL    HW129171   0.299   3.890   2.547 -1.6388 -0.4161 -3.9011
 5904SOL    HW229172   0.409   3.978   2.495  1.2541  0.2298  1.0541
 5905SOL     OW29173   0.828   0.222   3.768 -0.9470 -0.2678  0.2270
 5905SOL    HW129174   0.804   0.244   3.858 -1.3823 -1.2670  0.3534
 5905SOL    HW229175   0.922   0.240   3.770 -0.8792 -0.7629  1.7441
 5906SOL     OW29176   1.331   1.954   3.176 -0.3616  0.1597  0.1796
 5906SOL    HW129177   1.282   1.918   3.102 -0.4581 -0.2636  0.4495
 5906SOL    HW229178   1.376   1.872   3.197 -0.1023  0.2404 -0.0569
 5907SOL     OW29179   1.523   3.925  10.701  0.3601 -0.4992  0.5285
 5907SOL    HW129180   1.618   3.936  10.707  0.1377  1.2981  0.7432
 5907SOL    HW229181   1.528   3.875  10.619  3.2080  3.6195 -1.8306
 5908SOL     OW29182   0.039   1.489  16.813 -0.1593 -0.3335  0.1402
 5908SOL    HW129183   0.014   1.520  16.726 -1.8685 -1.7718  0.1348
 5908SOL    HW229184   0.042   1.571  16.863  1.2527 -2.5405  3.6612
 5909SOL     OW29185   0.236   1.885   7.996  0.2638 -0.0974 -0.1463
 5909SOL    HW129186   0.163   1.829   7.970 -1.1188  2.7579 -2.3197
 5909SOL    HW229187   0.285   1.813   8.037  0.5908  0.1595 -0.0864
 5910SOL     OW29188   1.472   3.746   0.686  0.8024 -0.1049 -0.1333
 5910SOL    HW129189   1.414   3.822   0.688 -0.3109 -0.9315 -1.0030
 5910SOL    HW229190   1.554   3.781   0.720 -1.3589  2.4953  2.3656
 5911SOL     OW29191   3.031   1.591   2.606  0.4123 -0.1040 -0.1940
 5911SOL    HW129192   3.116   1.608   2.648  1.6124 -1.3134 -2.1244
 5911SOL    HW229193   2.986   1.649   2.666  1.9937  1.9980 -1.0212
 5912SOL     OW29194   4.026   1.579  12.966 -0.1051 -0.2729 -0.1228
 5912SOL    HW129195   4.017   1.490  12.932  1.4336  0.4061 -2.3164
 5912SOL    HW229196   4.094   1.614  12.909  0.2217 -0.0033  0.4321
 5913SOL     OW29197   3.929   1.455   4.132  0.2746 -0.0331  0.5990
 5913SOL    HW129198   3.895   1.481   4.046 -0.1564  0.0438  0.7963
 5913SOL    HW229199   3.908   1.363   4.118  2.2346 -0.7199  2.2226
 5914SOL     OW29200   4.015   2.806   5.788  0.0746  0.2746  0.1218
 5914SOL    HW129201   4.063   2.752   5.724 -1.2117 -0.4702 -0.2104
 5914SOL    HW229202   4.069   2.884   5.778  2.1101 -1.1824 -0.3823
 5915SOL     OW29203   2.312   3.091  10.594 -0.1086  0.4869 -0.5165
 5915SOL    HW129204   2.259   3.141  10.656  0.2512  0.4766 -0.2022
 5915SOL    HW229205   2.315   3.135  10.509 -1.2776  0.9890 -0.2974
 5916SOL     OW29206   0.409   3.674  17.564  0.5376 -0.2618 -0.1093
 5916SOL    HW129207   0.415   3.737  17.636  1.1458  1.2468 -1.4749
 5916SOL    HW229208   0.418   3.588  17.604  0.1080  0.5590  1.7736
 5917SOL     OW29209   1.782   1.383   5.905 -0.0670 -0.2384  0.2206
 5917SOL    HW129210   1.816   1.300   5.873 -1.3959 -0.8964  0.4983
 5917SOL    HW229211   1.840   1.452   5.872  0.3418 -0.6947 -0.0088
 5918SOL     OW29212   0.192   2.946   4.906 -0.3112 -0.3365 -0.2385
 5918SOL    HW129213   0.198   2.934   5.001  0.4109 -0.7472 -0.3272
 5918SOL    HW229214   0.196   2.858   4.868 -1.0872  0.3412 -1.8942
 5919SOL     OW29215   3.318   2.758   7.534 -0.5475 -0.2139  0.6130
 5919SOL    HW129216   3.263   2.711   7.470 -0.5822  0.2246  0.3199
 5919SOL    HW229217   3.256   2.770   7.606  1.2880  1.6674  1.8653
 5920SOL     OW29218   2.749   1.665  17.203 -0.1865  0.1144 -0.3994
 5920SOL    HW129219   2.657   1.665  17.231 -0.1538  0.4114 -0.2909
 5920SOL    HW229220   2.793   1.639  17.284  0.4547  2.8007  0.1367
 5921SOL     OW29221   0.482   0.234   5.354  0.6510  0.3394 -0.1925
 5921SOL    HW129222   0.504   0.259   5.264 -1.6665 -0.6943 -1.0447
 5921SOL    HW229223   0.564   0.260   5.397  1.2262 -0.7047 -0.6368
 5922SOL     OW29224   2.982   0.909  15.609 -0.2953 -0.1111  0.6061
 5922SOL    HW129225   3.069   0.927  15.644  0.4779  0.2088 -1.5163
 5922SOL    HW229226   2.983   0.966  15.533  0.4519  0.3850  0.9864
 5923SOL     OW29227   2.946   0.705   6.259  0.2183 -0.5882 -0.0587
 5923SOL    HW129228   3.020   0.666   6.214 -0.5335 -1.3667 -0.6266
 5923SOL    HW229229   2.973   0.693   6.350  1.3805 -1.1843 -0.4849
 5924SOL     OW29230   3.570   2.550   8.494 -0.6052 -0.0557  0.1905
 5924SOL    HW129231   3.476   2.533   8.496 -0.1525 -3.0674 -2.2605
 5924SOL    HW229232   3.602   2.478   8.438 -1.7355 -0.8681  0.5899
 5925SOL     OW29233   1.684   1.278   0.830  0.4811 -0.3925  0.6199
 5925SOL    HW129234   1.601   1.277   0.877  0.0233 -0.2486 -0.1773
 5925SOL    HW229235   1.691   1.372   0.814  0.4173 -0.7914 -1.8666
 5926SOL     OW29236   0.589   1.345   3.249 -0.0759 -0.2845 -0.0524
 5926SOL    HW129237   0.626   1.271   3.200  0.3356 -0.4170  0.4600
 5926SOL    HW229238   0.577   1.410   3.180  0.9744  3.2105  3.1225
 5927SOL     OW29239   3.406   2.208  14.087  0.0364  0.2285 -0.2055
 5927SOL    HW129240   3.357   2.139  14.043 -1.0200 -0.3984  1.9365
 5927SOL    HW229241   3.488   2.215  14.040 -0.7746 -0.4622 -1.7182
 5928SOL     OW29242   1.126   0.258  13.446 -0.0969 -0.3012  0.3667
 5928SOL    HW129243   1.192   0.323  13.469  1.3847 -1.4825 -0.6196
 5928SOL    HW229244   1.177   0.177  13.446  0.6722  0.1886 -0.4827
 5929SOL     OW29245   4.100   0.819  10.242 -0.4949 -0.5875 -0.1588
 5929SOL    HW129246   4.017   0.840  10.198  0.5576  0.9272 -1.4264
 5929SOL    HW229247   4.146   0.903  10.238 -0.3370 -0.6679  0.0021
 5930SOL     OW29248   2.162   3.445   8.906 -0.3874 -0.1972  0.0835
 5930SOL    HW129249   2.161   3.540   8.917  2.7799 -0.2511  0.6849
 5930SOL    HW229250   2.251   3.435   8.940  0.2889  0.1228 -1.5892
 5931SOL     OW29251   4.660   2.076   2.946 -0.1842  0.3956  0.1755
 5931SOL    HW129252   4.615   2.148   2.902 -0.7076  0.3196  0.5893
 5931SOL    HW229253   4.585   2.017   2.955  0.3093 -0.1821  0.4895
 5932SOL     OW29254   2.391   3.064   6.305  0.4921 -0.3662 -0.2057
 5932SOL    HW129255   2.321   3.007   6.337 -0.1956  0.4784 -0.2007
 5932SOL    HW229256   2.378   3.146   6.352 -1.4160  1.0651 -3.2298
 5933SOL     OW29257   2.476   0.348   5.338 -0.1965  0.1048 -0.8123
 5933SOL    HW129258   2.520   0.431   5.352  2.5871 -0.9789 -3.1907
 5933SOL    HW229259   2.553   0.292   5.343 -0.7309 -0.7364 -1.9722
 5934SOL     OW29260   1.028   1.184  13.011  0.2186 -0.0984 -0.7471
 5934SOL    HW129261   0.973   1.116  12.971  0.0319 -0.1868 -0.3400
 5934SOL    HW229262   1.005   1.254  12.950  0.3766  2.1910  1.8090
 5935SOL     OW29263   2.834   1.387   3.821  0.6506 -0.3185 -0.2325
 5935SOL    HW129264   2.813   1.419   3.734  1.5442  0.2170 -0.2489
 5935SOL    HW229265   2.805   1.297   3.807  1.8700 -0.7791  0.1611
 5936SOL     OW29266   3.720   1.186  12.672  0.3763 -0.3193  0.0896
 5936SOL    HW129267   3.735   1.269  12.718 -0.5898  0.4552 -0.9898
 5936SOL    HW229268   3.626   1.194  12.657  0.4731 -1.0414 -0.8623
 5937SOL     OW29269   0.196   4.156  12.186 -0.5678  0.2208 -0.5632
 5937SOL    HW129270   0.233   4.068  12.186  1.8344  1.2163 -1.9838
 5937SOL    HW229271   0.101   4.155  12.196 -0.2710  0.3924  2.2020
 5938SOL     OW29272   1.009   1.569   9.408 -0.0278 -0.1291  0.1687
 5938SOL    HW129273   1.045   1.526   9.486 -0.0509 -0.3261  0.0708
 5938SOL    HW229274   0.964   1.496   9.366  1.1734 -0.1807 -1.0314
 5939SOL     OW29275   0.751   1.782   9.283  0.2724 -0.4174  0.5162
 5939SOL    HW129276   0.657   1.767   9.274  0.3617 -0.2728 -0.6893
 5939SOL    HW229277   0.770   1.695   9.317  2.3042  0.0436  0.5673
 5940SOL     OW29278   2.688   0.994   7.511  0.4065 -0.1822 -0.8610
 5940SOL    HW129279   2.683   0.904   7.478 -2.5163  0.1490 -1.2927
 5940SOL    HW229280   2.691   0.978   7.605  0.0036  0.0457 -0.8077
 5941SOL     OW29281   1.933   1.986   7.396  0.5248  0.5548  0.1145
 5941SOL    HW129282   1.871   1.934   7.345  1.1284  0.0715 -0.1397
 5941SOL    HW229283   1.941   1.925   7.469 -1.7914  0.7966  0.5631
 5942SOL     OW29284   2.729   2.535  15.170 -0.1998  0.1516  0.3824
 5942SOL    HW129285   2.755   2.446  15.189 -0.2248  0.2328  0.7809
 5942SOL    HW229286   2.796   2.586  15.215  0.5704  1.1068 -1.8482
 5943SOL     OW29287   3.188   4.170   7.092  0.0614 -0.1118  0.3529
 5943SOL    HW129288   3.117   4.106   7.090  0.6831 -0.7471 -1.5999
 5943SOL    HW229289   3.210   4.166   7.185  2.2600  1.7733 -0.0922
 5944SOL     OW29290   3.185   3.862   2.613 -0.1843  0.1719 -0.1078
 5944SOL    HW129291   3.161   3.948   2.579  1.5966  0.5663 -0.3464
 5944SOL    HW229292   3.217   3.834   2.528  0.8911 -1.5374  0.8670
 5945SOL     OW29293   2.315   3.678   3.853 -0.1920 -0.6781 -0.5847
 5945SOL    HW129294   2.343   3.592   3.885  0.5531 -0.6550 -1.1503
 5945SOL    HW229295   2.334   3.736   3.927 -1.5359 -1.8474  0.6739
 5946SOL     OW29296   3.767   4.285   5.934  0.2283 -0.6363 -0.1599
 5946SOL    HW129297   3.682   4.273   5.977  0.4319  0.3095  0.5081
 5946SOL    HW229298   3.805   4.334   6.006 -0.3820 -0.7949  0.2702
 5947SOL     OW29299   2.943   2.206   8.320  0.4730  0.1375  0.0416
 5947SOL    HW129300   2.914   2.118   8.296 -2.9345  1.3958 -0.5312
 5947SOL    HW229301   2.864   2.256   8.296  0.0785 -0.0533  0.9601
 5948SOL     OW29302   3.622   4.119  10.327 -0.6649 -1.0329  0.0687
 5948SOL    HW129303   3.625   4.214  10.334  0.4665 -0.9693 -1.3846
 5948SOL    HW229304   3.699   4.107  10.271 -0.7744  1.0513 -0.5225
 5949SOL     OW29305   1.251   1.243   5.835 -0.7542  0.5647 -0.5185
 5949SOL    HW129306   1.312   1.308   5.872 -0.2327 -1.4022  2.0926
 5949SOL    HW229307   1.184   1.301   5.799 -0.7131 -0.1013 -1.6404
 5950SOL     OW29308   4.567   0.739  15.629 -0.0043  0.4068  0.3488
 5950SOL    HW129309   4.504   0.681  15.670 -1.6060  0.7513 -1.6366
 5950SOL    HW229310   4.608   0.764  15.712 -0.0544 -1.2081  0.8501
 5951SOL     OW29311   0.749   4.051   2.842  0.2379 -0.2537 -0.2148
 5951SOL    HW129312   0.766   4.019   2.931 -1.0682 -1.0886 -0.2712
 5951SOL    HW229313   0.655   4.037   2.830  0.1637  1.3594 -1.4808
 5952SOL     OW29314   3.703   1.014   7.244 -0.0514  0.4185 -0.6166
 5952SOL    HW129315   3.779   0.958   7.230 -1.2731 -1.9875  2.3675
 5952SOL    HW229316   3.713   1.079   7.175 -0.6712  0.1006 -1.0076
 5953SOL     OW29317   3.563   2.007   9.307 -0.3496  0.3389  0.4298
 5953SOL    HW129318   3.498   2.055   9.255 -0.7556  2.0116  2.4787
 5953SOL    HW229319   3.645   2.055   9.296  0.5976 -1.1927  0.7495
 5954SOL     OW29320   0.991   4.048   5.991 -0.4227  0.1819  0.4243
 5954SOL    HW129321   1.072   3.998   6.004  0.4279  1.2575 -0.8301
 5954SOL    HW229322   0.991   4.041   5.896 -1.9202 -0.7393  0.4880
 5955SOL     OW29323   0.891   2.341  17.677 -0.1223  0.0638  0.4616
 5955SOL    HW129324   0.935   2.320  17.594  0.0412 -1.5855  0.9713
 5955SOL    HW229325   0.934   2.287   0.050 -0.2865  0.4295  0.8650
 5956SOL     OW29326   0.661   1.963  13.663 -0.0323 -0.0884  0.5183
 5956SOL    HW129327   0.642   1.943  13.571 -1.5863 -1.7319  1.1894
 5956SOL    HW229328   0.689   1.875  13.685  1.2988  0.2976  0.3468
 5957SOL     OW29329   0.357   2.257  17.288  0.3349  0.1338 -0.3432
 5957SOL    HW129330   0.413   2.185  17.316  1.0791  1.0247  0.4983
 5957SOL    HW229331   0.314   2.229  17.208 -2.4057  4.1137 -0.2916
 5958SOL     OW29332   3.924   3.394  12.527  0.8818  0.0478 -0.3101
 5958SOL    HW129333   3.912   3.484  12.556 -2.4642 -0.2493 -0.8272
 5958SOL    HW229334   3.927   3.411  12.433  0.9281 -2.0274 -0.6932
 5959SOL     OW29335   1.295   3.779   5.088  0.4188 -0.0413  0.0407
 5959SOL    HW129336   1.238   3.704   5.105 -2.0421  1.7523 -0.3006
 5959SOL    HW229337   1.353   3.730   5.029 -0.0029  1.3958 -1.5358
 5960SOL     OW29338   0.854   0.539  14.094 -0.2576 -0.5739 -0.3954
 5960SOL    HW129339   0.879   0.628  14.122 -0.3050 -0.8949  0.6518
 5960SOL    HW229340   0.759   0.544  14.101 -0.1925  0.5792 -0.2095
 5961SOL     OW29341   0.858   4.693   4.222  0.2845 -0.2397 -0.0276
 5961SOL    HW129342   0.869   0.027   4.298 -1.6121  1.9339 -1.3935
 5961SOL    HW229343   0.947   4.658   4.215  0.6539  0.6909 -0.0601
 5962SOL     OW29344   0.355   4.342  14.027 -0.7347  0.1479 -0.2049
 5962SOL    HW129345   0.285   4.377  14.082  0.1501  0.0311  1.0072
 5962SOL    HW229346   0.313   4.315  13.946  0.9953 -0.4573 -0.9036
 5963SOL     OW29347   2.936   1.609   3.630 -0.2506  0.4034 -0.1453
 5963SOL    HW129348   3.017   1.561   3.610  0.2000  1.3680 -0.6456
 5963SOL    HW229349   2.862   1.563   3.592  1.5453 -0.9440 -1.9822
 5964SOL     OW29350   1.086   0.806   0.042  0.7666  0.3538 -0.7858
 5964SOL    HW129351   1.130   0.866   0.102  0.1995  1.2553 -1.2874
 5964SOL    HW229352   0.994   0.809   0.068  1.2266  2.3094  0.6028
 5965SOL     OW29353   1.857   4.612  12.646 -0.1109 -0.2588 -0.0570
 5965SOL    HW129354   1.903   4.565  12.715  1.2891  0.7115 -0.3248
 5965SOL    HW229355   1.776   4.561  12.649 -0.5938  0.3733 -1.9822
 5966SOL     OW29356   0.289   4.168   9.510 -0.0071  0.0944  0.3513
 5966SOL    HW129357   0.312   4.090   9.459 -0.8430 -0.6236  1.0890
 5966SOL    HW229358   0.285   4.117   9.591 -0.6537 -0.6692 -0.1688
 5967SOL     OW29359   2.956   0.448   2.857  0.2409  0.0769 -0.1968
 5967SOL    HW129360   3.006   0.403   2.789  1.0001 -0.6386  0.8309
 5967SOL    HW229361   2.886   0.469   2.795  1.8824  0.6646 -1.8501
 5968SOL     OW29362   2.788   0.908   0.964  0.0109  0.1072 -0.4274
 5968SOL    HW129363   2.777   0.951   0.879  2.4477 -1.1111 -1.3493
 5968SOL    HW229364   2.726   0.835   0.955  0.2460  0.1521 -2.4247
 5969SOL     OW29365   2.885   3.064   6.314  0.4012  0.2344 -0.2454
 5969SOL    HW129366   2.965   3.081   6.263  1.1099 -0.9835  0.4480
 5969SOL    HW229367   2.821   3.041   6.247 -0.4430  6.2196 -1.4869
 5970SOL     OW29368   0.050   1.880  13.814  0.2742 -0.7019 -0.4017
 5970SOL    HW129369   4.696   1.863  13.761 -0.6401  1.8900  0.0814
 5970SOL    HW229370   0.040   1.975  13.823 -1.9685 -0.7761 -2.2593
 5971SOL     OW29371   0.770   0.260   0.573 -0.4904 -0.3759  0.0243
 5971SOL    HW129372   0.694   0.305   0.537  0.1105  0.6637  0.0628
 5971SOL    HW229373   0.848   0.311   0.550 -1.4849  2.1091  2.1662
 5972SOL     OW29374   3.415   3.752  13.136 -0.2643  0.1264 -0.8034
 5972SOL    HW129375   3.384   3.736  13.225 -0.8984  1.8064 -0.7218
 5972SOL    HW229376   3.336   3.760  13.082  0.7575  3.2048 -1.8614
 5973SOL     OW29377   4.147   3.405   3.223  0.1395 -0.1832 -0.1718
 5973SOL    HW129378   4.187   3.332   3.270  1.6817  1.3003  0.7998
 5973SOL    HW229379   4.179   3.402   3.133 -1.0675 -3.1777 -0.5069
 5974SOL     OW29380   4.412   4.476  10.518  0.3824  0.0913 -0.1012
 5974SOL    HW129381   4.370   4.527  10.587  0.8752  0.4801 -0.0909
 5974SOL    HW229382   4.407   4.538  10.445 -0.2566 -0.5192 -0.5913
 5975SOL     OW29383   3.690   2.063   2.554  0.2793 -0.4335 -0.2477
 5975SOL    HW129384   3.635   2.140   2.571 -0.9646 -0.8921 -2.2186
 5975SOL    HW229385   3.641   1.997   2.603 -0.6794 -0.4212 -1.1962
 5976SOL     OW29386   3.040   3.313   0.364  0.1217 -0.5252  0.1224
 5976SOL    HW129387   3.125   3.280   0.393  0.4266 -0.6786 -0.9307
 5976SOL    HW229388   3.033   3.299   0.269  1.8062 -1.3768  0.1294
 5977SOL     OW29389   1.210   0.871   4.542 -0.3504  0.2594 -0.1150
 5977SOL    HW129390   1.148   0.938   4.512 -2.7041 -2.0976 -0.5516
 5977SOL    HW229391   1.287   0.883   4.486 -0.8193  0.2824 -0.7552
 5978SOL     OW29392   0.336   2.141   2.818 -0.0638  0.6576  0.0001
 5978SOL    HW129393   0.374   2.214   2.866 -1.7311  1.7590 -0.3518
 5978SOL    HW229394   0.273   2.194   2.768  0.5640  1.9482  0.5892
 5979SOL     OW29395   0.696   2.800   3.920  0.2174 -0.5360  0.2701
 5979SOL    HW129396   0.711   2.835   3.832 -2.3502 -0.2101 -0.0318
 5979SOL    HW229397   0.607   2.769   3.909  0.6764 -1.1040 -1.9345
 5980SOL     OW29398   2.460   3.640   5.758  0.0341  0.5343 -0.4854
 5980SOL    HW129399   2.412   3.587   5.822  0.4289 -0.4112 -0.9675
 5980SOL    HW229400   2.548   3.612   5.783  0.3813  1.3090 -0.8352
 5981SOL     OW29401   4.715   0.833  16.079 -0.1446 -0.4318 -0.1815
 5981SOL    HW129402   0.087   0.844  16.069 -0.1369 -0.3591 -0.0258
 5981SOL    HW229403   4.702   0.891  16.154 -1.5109 -2.2870  0.9985
 5982SOL     OW29404   2.738   2.976  15.530  0.7481  0.2109  0.3058
 5982SOL    HW129405   2.747   3.024  15.447 -0.2335  0.1214  0.1498
 5982SOL    HW229406   2.815   2.925  15.506  0.4203  0.1633 -0.6582
 5983SOL     OW29407   2.903   3.961   7.973  0.6107  0.0581 -0.0226
 5983SOL    HW129408   2.816   3.986   7.943  0.9003 -1.5607 -2.2442
 5983SOL    HW229409   2.912   3.869   7.946  1.8651  0.1827 -0.0594
 5984SOL     OW29410   3.436   2.493   3.233  0.1358 -0.0921 -0.5213
 5984SOL    HW129411   3.497   2.563   3.207 -1.4093  2.1791  1.9344
 5984SOL    HW229412   3.441   2.497   3.328  0.6729  1.8083 -0.6126
 5985SOL     OW29413   2.653   3.707  11.873  0.1556  0.3126  0.2822
 5985SOL    HW129414   2.612   3.775  11.820 -1.1796  0.2925  1.2813
 5985SOL    HW229415   2.633   3.622  11.834 -0.1930  0.4596  0.1417
 5986SOL     OW29416   1.645   3.587   8.437 -0.4250  0.3991 -0.0277
 5986SOL    HW129417   1.719   3.530   8.417 -0.1613  0.6248  0.3256
 5986SOL    HW229418   1.577   3.520   8.427 -0.4895  0.2833  1.2531
 5987SOL     OW29419   0.092   1.920  12.375  0.1994 -0.1633  0.1025
 5987SOL    HW129420   0.188   1.921  12.385  0.2222 -2.1098  0.1808
 5987SOL    HW229421   0.092   1.890  12.284 -0.0012 -2.1772  0.7623
 5988SOL     OW29422   4.418   1.400   5.907 -0.2231 -0.4152 -0.4310
 5988SOL    HW129423   4.502   1.365   5.874  0.9453  3.3462 -1.4968
 5988SOL    HW229424   4.451   1.405   5.996 -0.7506  1.0987 -0.3261
 5989SOL     OW29425   2.839   0.899   8.207 -0.6731 -0.1286 -0.6588
 5989SOL    HW129426   2.926   0.915   8.242 -0.9100 -0.7375  0.1961
 5989SOL    HW229427   2.788   0.874   8.284  0.0851  0.1575 -0.0631
 5990SOL     OW29428   3.240   3.014   8.193 -0.0491 -0.0660 -0.4594
 5990SOL    HW129429   3.302   3.057   8.135  1.3823  0.2399  1.2862
 5990SOL    HW229430   3.240   3.073   8.269 -1.7390 -0.7649  0.1061
 5991SOL     OW29431   2.422   2.036   5.381  0.1689 -0.7135 -0.1509
 5991SOL    HW129432   2.402   2.119   5.337 -1.7383  0.0546  2.1522
 5991SOL    HW229433   2.400   1.981   5.306  0.1200 -2.7220  1.3547
 5992SOL     OW29434   2.620   3.971  15.357  0.4875  0.3019 -0.1300
 5992SOL    HW129435   2.545   3.915  15.337 -1.4338  3.9653 -3.1948
 5992SOL    HW229436   2.702   3.921  15.354 -1.1500 -2.2568 -2.0245
 5993SOL     OW29437   3.694   4.078  15.661  0.3654  0.0106 -0.3588
 5993SOL    HW129438   3.614   4.095  15.613  0.6229 -1.7123 -1.4188
 5993SOL    HW229439   3.657   4.048  15.745 -2.2203  0.1011 -1.4764
 5994SOL     OW29440   2.946   3.097   4.820 -0.5335 -0.0712  0.4408
 5994SOL    HW129441   2.855   3.113   4.794 -0.3856 -0.7432 -0.5212
 5994SOL    HW229442   2.964   3.145   4.900 -0.0050  2.0709 -0.9590
 5995SOL     OW29443   3.167   1.521   0.269 -0.4790 -0.0490 -0.2243
 5995SOL    HW129444   3.091   1.579   0.259 -0.2863 -0.1104 -2.0339
 5995SOL    HW229445   3.171   1.505   0.364 -0.0282  1.9282  0.0996
 5996SOL     OW29446   1.400   2.048  15.276 -0.2583 -0.1303 -0.2378
 5996SOL    HW129447   1.474   2.090  15.320 -0.8624  0.2262  0.4491
 5996SOL    HW229448   1.355   2.131  15.256 -0.2438  0.1270  0.7955
 5997SOL     OW29449   1.757   3.480   5.925  0.4110 -0.1727  0.3489
 5997SOL    HW129450   1.798   3.448   6.005  0.9678 -0.5313 -0.0788
 5997SOL    HW229451   1.698   3.545   5.962 -2.0491 -1.7772 -0.7814
 5998SOL     OW29452   1.146   0.348   6.475 -0.1491 -0.2138 -0.3716
 5998SOL    HW129453   1.058   0.373   6.448  0.5226  1.7035 -0.7850
 5998SOL    HW229454   1.182   0.436   6.465  0.4255 -0.1181  2.6526
 5999SOL     OW29455   2.749   0.088   8.094  0.2912 -0.0868 -0.1956
 5999SOL    HW129456   2.795   0.027   8.037  1.5736  1.1751 -0.4909
 5999SOL    HW229457   2.806   0.074   8.170 -1.4209  0.7586  1.2411
 6000SOL     OW29458   1.201   0.400   1.667 -0.0191 -0.0013 -0.0894
 6000SOL    HW129459   1.260   0.444   1.606  1.2288 -0.7052  0.6044
 6000SOL    HW229460   1.162   0.482   1.697  0.8352 -0.0320  1.0987
 6001SOL     OW29461   3.529   2.659  14.784 -0.1677 -0.4203 -0.1431
 6001SOL    HW129462   3.494   2.707  14.709  1.8984  2.0367  0.4887
 6001SOL    HW229463   3.534   2.572  14.743 -2.2167 -0.5900 -0.0504
 6002SOL     OW29464   2.446   4.129   7.691  0.0509  0.1085  0.2958
 6002SOL    HW129465   2.350   4.123   7.691  0.0059  0.8618  2.0008
 6002SOL    HW229466   2.471   4.111   7.600 -0.4837  0.8014  0.0051
 6003SOL     OW29467   4.363   0.104   3.274 -0.0156  0.2594  0.0376
 6003SOL    HW129468   4.272   0.133   3.282 -0.2409 -0.6172  0.6335
 6003SOL    HW229469   4.372   0.064   3.187 -1.2479 -1.4516  0.6834
 6004SOL     OW29470   2.389   2.227   8.453 -0.5525  0.0052 -0.1937
 6004SOL    HW129471   2.413   2.189   8.537 -1.2060  1.5508  0.7028
 6004SOL    HW229472   2.391   2.321   8.474  1.9636  0.4468 -2.4823
 6005SOL     OW29473   4.323   2.296   8.036 -0.3909 -0.3417 -0.1572
 6005SOL    HW129474   4.240   2.248   8.034  0.0076 -0.9698 -1.5313
 6005SOL    HW229475   4.326   2.337   8.122  1.1730  0.0924 -0.4207
 6006SOL     OW29476   0.133   1.851   3.669  0.1588  0.5820  0.0011
 6006SOL    HW129477   0.113   1.809   3.753  3.7632  0.3298  0.7407
 6006SOL    HW229478   0.052   1.882   3.629 -0.1269 -0.5689 -0.3322
 6007SOL     OW29479   1.353   4.720   9.452 -0.4073  0.5468 -0.0940
 6007SOL    HW129480   1.423   0.004   9.387  2.0086 -1.3151  2.2988
 6007SOL    HW229481   1.343   0.088   9.479 -0.0394  0.5442  0.0465
 6008SOL     OW29482   4.235   2.781   6.822 -0.1824 -0.1132 -0.0319
 6008SOL    HW129483   4.272   2.719   6.886  1.3632 -1.5793 -2.3276
 6008SOL    HW229484   4.268   2.867   6.848 -0.7615 -0.6662  2.5742
 6009SOL     OW29485   2.976   2.611   8.939 -0.1915 -0.2121 -0.0084
 6009SOL    HW129486   3.001   2.519   8.931 -1.0168 -0.6196  2.2195
 6009SOL    HW229487   2.965   2.617   9.033 -0.6256 -1.1816  0.0034
 6010SOL     OW29488   2.556   3.597  15.973  0.0192  0.6648 -0.4611
 6010SOL    HW129489   2.522   3.642  15.895 -0.7632 -0.3173 -0.6847
 6010SOL    HW229490   2.550   3.503  15.956 -1.6118  0.6513  0.1745
 6011SOL     OW29491   1.769   4.337   3.736 -0.4510  0.5713 -0.0462
 6011SOL    HW129492   1.827   4.395   3.688  0.0368 -0.2362 -0.4364
 6011SOL    HW229493   1.710   4.405   3.768  0.3449  1.6620 -0.9489
 6012SOL     OW29494   0.500   2.582   1.721 -0.1545  0.0927 -0.2010
 6012SOL    HW129495   0.561   2.649   1.751  0.4062 -0.3821 -0.2880
 6012SOL    HW229496   0.441   2.581   1.796  0.5664 -0.1223  0.3567
 6013SOL     OW29497   4.580   3.072   7.235  0.6430  0.2825 -1.0532
 6013SOL    HW129498   4.500   3.115   7.266 -0.5902 -1.2058 -2.1713
 6013SOL    HW229499   4.605   3.017   7.309 -1.3871 -0.7633 -1.1360
 6014SOL     OW29500   2.163   0.267   1.597 -0.1407  0.1655  0.1412
 6014SOL    HW129501   2.198   0.181   1.574  0.2317 -0.1389  1.8714
 6014SOL    HW229502   2.134   0.250   1.686 -0.4377  1.2468  0.2555
 6015SOL     OW29503   0.958   1.407  12.863 -0.6793  0.0061  0.3148
 6015SOL    HW129504   0.942   1.361  12.780 -3.0400  2.0985 -0.3858
 6015SOL    HW229505   1.018   1.477  12.839  2.9669 -3.5396 -0.9897
 6016SOL     OW29506   3.882   3.581  16.394  0.0792 -0.1730  0.0512
 6016SOL    HW129507   3.885   3.496  16.436  0.9425  0.8862  2.1175
 6016SOL    HW229508   3.918   3.639  16.461 -1.9659  0.3159  0.7286
 6017SOL     OW29509   4.682   0.326   3.164 -0.0775 -0.0421  0.5094
 6017SOL    HW129510   4.661   0.400   3.221  3.2498  1.7667 -0.5721
 6017SOL    HW229511   4.610   0.331   3.101  0.4480 -0.2236 -0.1165
 6018SOL     OW29512   1.147   0.352  13.077 -0.0857 -0.1363 -0.0559
 6018SOL    HW129513   1.153   0.258  13.093 -0.2985 -0.2766 -0.8323
 6018SOL    HW229514   1.091   0.340  13.001 -0.7307 -1.1212  0.5850
 6019SOL     OW29515   1.777   3.511   3.922 -0.5954 -0.0641 -0.3826
 6019SOL    HW129516   1.786   3.435   3.981 -0.0401  0.3540  0.0731
 6019SOL    HW229517   1.728   3.462   3.856  0.8062 -1.9708 -0.0075
 6020SOL     OW29518   3.369   1.829   7.042  0.6999  0.4528  0.6417
 6020SOL    HW129519   3.283   1.787   7.040  0.1574  1.5346  1.1454
 6020SOL    HW229520   3.387   1.813   6.949  1.0462  1.3443  0.5575
 6021SOL     OW29521   2.423   0.324   8.435  0.5972 -0.1825 -0.3233
 6021SOL    HW129522   2.466   0.265   8.373 -0.0623 -1.4953  0.4613
 6021SOL    HW229523   2.415   0.401   8.379  0.7572 -1.8378 -2.6704
 6022SOL     OW29524   0.028   0.803   7.768  0.0754  0.0650 -0.0876
 6022SOL    HW129525   0.060   0.889   7.742  2.4316 -0.3025  1.5178
 6022SOL    HW229526   4.659   0.804   7.743  0.3310  1.5277 -0.9238
 6023SOL     OW29527   0.470   0.151   2.912  0.3210  0.1539 -0.3212
 6023SOL    HW129528   0.381   0.173   2.883  0.4631  1.0618 -0.0516
 6023SOL    HW229529   0.511   0.098   2.844  1.2441 -2.0507  1.9670
 6024SOL     OW29530   3.266   4.346   5.783 -0.1416  0.1309 -0.1109
 6024SOL    HW129531   3.267   4.409   5.711  0.3957  1.2697  0.9064
 6024SOL    HW229532   3.186   4.298   5.762 -0.3496  0.5967 -0.3958
 6025SOL     OW29533   2.681   2.836  17.643  0.1050 -0.3271 -0.3014
 6025SOL    HW129534   2.600   2.803  17.683 -1.5314  1.8407 -1.8149
 6025SOL    HW229535   2.679   2.921  17.686 -2.5723 -0.7941  0.5286
 6026SOL     OW29536   2.718   3.167   8.614  0.1940  0.2562 -0.4146
 6026SOL    HW129537   2.633   3.199   8.585  0.4217  1.8057  0.5929
 6026SOL    HW229538   2.757   3.246   8.652 -1.9347  0.1789  1.9331
 6027SOL     OW29539   4.082   0.169   6.796 -0.0761  0.8510 -0.1052
 6027SOL    HW129540   4.074   0.256   6.836 -1.4211 -0.8875  3.4120
 6027SOL    HW229541   4.041   0.122   6.869  1.4298  2.1290  1.5659
 6028SOL     OW29542   3.822   0.517  12.545 -0.0108  0.2140  0.4281
 6028SOL    HW129543   3.816   0.496  12.638  0.6541  2.2839  0.9475
 6028SOL    HW229544   3.737   0.489  12.511  0.2214  1.0125 -0.8138
 6029SOL     OW29545   1.384   1.938   7.958 -0.4285  0.1145  0.4777
 6029SOL    HW129546   1.371   1.884   8.036 -2.2638 -0.9889 -0.5982
 6029SOL    HW229547   1.316   1.897   7.905 -0.8422  1.5515 -0.1115
 6030SOL     OW29548   0.728   0.097   2.560 -0.5062 -0.3348  0.5967
 6030SOL    HW129549   0.774   0.014   2.567 -1.8065 -1.0953  0.0595
 6030SOL    HW229550   0.642   0.083   2.599 -0.7028 -1.3781 -0.2200
 6031SOL     OW29551   0.595   4.630   4.277 -0.2902  0.0116  0.1542
 6031SOL    HW129552   0.685   4.657   4.258 -0.5450  0.4970 -0.3763
 6031SOL    HW229553   0.601   4.547   4.324  3.1864 -1.1231 -2.3305
 6032SOL     OW29554   2.896   4.028   7.624  0.2157 -0.3316  0.2882
 6032SOL    HW129555   2.843   4.066   7.693 -0.8726 -1.1364 -0.0969
 6032SOL    HW229556   2.868   3.937   7.630 -0.7451 -0.0173  0.5298
 6033SOL     OW29557   1.834   2.683   8.286  0.0857 -0.2748 -0.3037
 6033SOL    HW129558   1.819   2.597   8.324  1.3080  0.9998  3.1255
 6033SOL    HW229559   1.765   2.741   8.320  0.6811  1.4018 -1.9536
 6034SOL     OW29560   0.523   0.822   2.281  0.0059 -0.2171  0.2840
 6034SOL    HW129561   0.607   0.785   2.255 -0.6684 -0.7064 -1.1877
 6034SOL    HW229562   0.549   0.889   2.345  1.0978 -2.2238  1.9386
 6035SOL     OW29563   0.688   2.956  15.243 -0.2617 -0.2287  0.2597
 6035SOL    HW129564   0.740   2.945  15.164  0.0004  0.9399  0.2786
 6035SOL    HW229565   0.620   2.897  15.210  0.0709 -0.5403  0.1329
 6036SOL     OW29566   3.211   4.407  12.522 -0.4218 -0.1112  0.2876
 6036SOL    HW129567   3.241   4.431  12.610 -0.0519  1.5262 -0.2882
 6036SOL    HW229568   3.120   4.436  12.525 -0.4165 -0.2116  1.3444
 6037SOL     OW29569   2.321   2.188  15.157  0.1198 -0.7931  0.9169
 6037SOL    HW129570   2.415   2.178  15.140 -0.1720 -0.9344 -0.5709
 6037SOL    HW229571   2.319   2.284  15.164 -0.9487 -0.8847  1.8066
 6038SOL     OW29572   2.377   0.794   4.765 -0.0366  0.6909  0.1418
 6038SOL    HW129573   2.406   0.794   4.674  0.1285 -2.9812  0.1824
 6038SOL    HW229574   2.343   0.705   4.759  0.2910  0.5513  0.3730
 6039SOL     OW29575   4.562   1.789  13.616 -0.3096  0.0628  0.3122
 6039SOL    HW129576   4.501   1.715  13.616 -1.4326  0.9946 -0.4098
 6039SOL    HW229577   4.511   1.859  13.574  0.0558 -0.0385 -0.2937
 6040SOL     OW29578   4.657   1.200   3.912  0.1201 -0.0719 -0.1525
 6040SOL    HW129579   0.017   1.248   3.909  0.3969 -0.4682  0.9587
 6040SOL    HW229580   4.618   1.217   3.827 -0.8569  0.7795  0.4739
 6041SOL     OW29581   2.522   1.790   5.511  0.5357  0.2845  0.2000
 6041SOL    HW129582   2.494   1.802   5.602  0.6031 -2.4302  0.5794
 6041SOL    HW229583   2.526   1.878   5.474  0.2739 -0.6349 -2.0118
 6042SOL     OW29584   0.527   1.999  10.308  0.9773 -0.4634  0.3140
 6042SOL    HW129585   0.490   2.087  10.297 -0.3809 -1.2478 -1.3091
 6042SOL    HW229586   0.603   2.025  10.361  0.4154  0.6306  0.5923
 6043SOL     OW29587   3.883   2.308   2.406 -0.0558  0.3426  0.3921
 6043SOL    HW129588   3.965   2.267   2.380  0.3316 -0.1640  2.4213
 6043SOL    HW229589   3.825   2.238   2.377 -0.1548  0.2430  0.8270
 6044SOL     OW29590   2.567   3.075   0.036  0.1340  0.3513  0.2257
 6044SOL    HW129591   2.481   3.068  17.688  0.0411  2.4235  0.0916
 6044SOL    HW229592   2.585   3.167   0.017  0.7802  0.4563  1.3436
 6045SOL     OW29593   4.553   2.327  10.557  0.0958 -0.0587  0.5658
 6045SOL    HW129594   4.488   2.293  10.619  0.2830 -1.8055 -0.1839
 6045SOL    HW229595   4.577   2.409  10.601 -4.1733  3.6607 -4.0136
 6046SOL     OW29596   0.737   2.555   4.521 -0.2197  0.0839 -0.7208
 6046SOL    HW129597   0.701   2.550   4.610  0.8700  2.6771 -0.1305
 6046SOL    HW229598   0.728   2.650   4.507 -1.1731  0.0557 -0.3058
 6047SOL     OW29599   1.477   4.530   8.006 -0.3410  0.4802 -0.0564
 6047SOL    HW129600   1.458   4.534   7.912  0.3488  3.1960 -0.0826
 6047SOL    HW229601   1.452   4.617   8.035 -2.2045 -0.5960  1.5351
 6048SOL     OW29602   3.472   3.367   7.367 -0.2693  0.0301 -0.3553
 6048SOL    HW129603   3.462   3.286   7.316  0.5166  0.3271 -0.9739
 6048SOL    HW229604   3.546   3.343   7.422 -1.5061 -0.7591  0.9626
 6049SOL     OW29605   1.972   3.785  13.180  0.5762 -0.4248 -0.6594
 6049SOL    HW129606   1.905   3.724  13.209 -1.9268  2.8290  0.4870
 6049SOL    HW229607   1.946   3.817  13.094  0.4953  3.4142  0.7756
 6050SOL     OW29608   1.543   3.252  10.904 -0.1533 -0.2948 -0.6149
 6050SOL    HW129609   1.597   3.197  10.848  2.4016  0.5075  1.0609
 6050SOL    HW229610   1.564   3.340  10.872  1.0447  0.1975  1.5249
 6051SOL     OW29611   0.317   0.846   6.474 -0.4413  0.5025  0.5035
 6051SOL    HW129612   0.328   0.890   6.390 -0.5597 -0.0194  0.2138
 6051SOL    HW229613   0.325   0.917   6.537  0.3773 -0.2177  1.2081
 6052SOL     OW29614   1.506   3.657  12.686 -0.1555 -0.1626 -0.4779
 6052SOL    HW129615   1.499   3.680  12.594 -0.0386 -0.1983 -0.4954
 6052SOL    HW229616   1.493   3.744  12.724  0.4290  0.9879 -2.9526
 6053SOL     OW29617   1.770   1.840   5.884  0.4940  0.2190 -0.1847
 6053SOL    HW129618   1.787   1.748   5.906 -0.0791  0.3183  0.6411
 6053SOL    HW229619   1.695   1.850   5.943 -0.9333 -2.9968 -1.3999
 6054SOL     OW29620   3.537   1.918   3.647  0.2611 -0.2280 -0.3385
 6054SOL    HW129621   3.463   1.946   3.594 -0.1847 -0.3891  0.1995
 6054SOL    HW229622   3.595   1.879   3.581  0.7519 -0.3428  0.1615
 6055SOL     OW29623   1.731   2.316   2.596 -0.0620  0.0512 -0.5758
 6055SOL    HW129624   1.678   2.374   2.542  1.8702  3.1185  0.8129
 6055SOL    HW229625   1.814   2.357   2.571  1.2348 -1.6328  0.9221
 6056SOL     OW29626   4.272   2.636   0.473 -0.0329 -0.3694  0.2422
 6056SOL    HW129627   4.360   2.668   0.451 -1.6465  3.6080 -0.4502
 6056SOL    HW229628   4.296   2.547   0.498  0.7724 -0.3795 -0.5704
 6057SOL     OW29629   1.954   1.110  16.497 -0.2767  0.7911  0.5782
 6057SOL    HW129630   1.881   1.054  16.521 -0.9090  0.8504 -1.2101
 6057SOL    HW229631   1.929   1.141  16.410  0.9137 -1.0214 -0.4288
 6058SOL     OW29632   0.637   0.111   4.744 -0.0108  0.2874  0.8058
 6058SOL    HW129633   0.709   0.052   4.720 -1.0975  0.1104 -1.9169
 6058SOL    HW229634   0.686   0.193   4.749 -1.8620  1.3765  0.8048
 6059SOL     OW29635   0.015   2.228   3.944  0.0366 -0.7645  0.0898
 6059SOL    HW129636   0.082   2.296   3.937  0.8563 -1.6127 -0.3430
 6059SOL    HW229637   0.072   2.153   3.932 -1.6626 -1.8989 -0.9865
 6060SOL     OW29638   3.396   1.220   4.567  0.7539 -0.0967 -0.7071
 6060SOL    HW129639   3.370   1.166   4.493  3.0114 -0.9684 -0.8489
 6060SOL    HW229640   3.432   1.161   4.633  0.5449  1.7112  1.0298
 6061SOL     OW29641   3.887   1.829   4.231 -0.0560  0.0121 -0.4505
 6061SOL    HW129642   3.840   1.789   4.158 -0.6345 -0.3137  0.1005
 6061SOL    HW229643   3.936   1.895   4.181  2.5702 -3.4933 -2.4609
 6062SOL     OW29644   4.383   1.380   8.795  0.1268  0.0489 -0.2873
 6062SOL    HW129645   4.326   1.382   8.717  1.0232 -1.5192 -0.9780
 6062SOL    HW229646   4.331   1.325   8.853  1.4772  0.9325  1.7699
 6063SOL     OW29647   1.099   3.072   2.886  0.1162  0.0307 -0.4658
 6063SOL    HW129648   1.136   3.008   2.825  0.1427 -0.4151  0.0133
 6063SOL    HW229649   1.086   3.154   2.839  4.0111 -0.5165 -2.5096
 6064SOL     OW29650   1.462   1.126  12.685  0.0344 -0.3044 -0.6256
 6064SOL    HW129651   1.388   1.069  12.707 -1.4160  1.5283 -0.7820
 6064SOL    HW229652   1.418   1.210  12.673 -0.2353 -0.1577  1.4385
 6065SOL     OW29653   2.428   4.408   7.043  0.0864 -0.0504 -0.2873
 6065SOL    HW129654   2.358   4.463   7.008 -1.7722 -0.7620  2.3507
 6065SOL    HW229655   2.379   4.347   7.098 -1.3698 -0.6367 -2.2318
 6066SOL     OW29656   1.862   2.577   7.113  0.1992  0.2794 -0.0736
 6066SOL    HW129657   1.789   2.631   7.143  2.0151  3.0476 -0.6373
 6066SOL    HW229658   1.829   2.554   7.025 -1.2966 -0.5525  0.7071
 6067SOL     OW29659   4.507   1.036  15.714  0.2162 -0.0109 -0.2999
 6067SOL    HW129660   4.588   1.011  15.759 -0.2629 -1.7303 -0.3849
 6067SOL    HW229661   4.447   1.019  15.786  0.0189 -0.1603 -0.4966
 6068SOL     OW29662   0.999   0.055   5.487 -0.8308  0.1504  0.7633
 6068SOL    HW129663   1.010   0.076   5.580 -0.5864  2.0359  0.3118
 6068SOL    HW229664   0.958   0.134   5.452  2.9136  1.3380 -0.9648
 6069SOL     OW29665   2.442   2.317   5.607 -0.2225 -0.2672  0.0090
 6069SOL    HW129666   2.367   2.260   5.589 -0.7045  0.2834  0.2860
 6069SOL    HW229667   2.477   2.339   5.521  2.1004 -0.4972  0.8906
 6070SOL     OW29668   2.466   4.312   4.591  0.7034  0.5875 -0.3064
 6070SOL    HW129669   2.532   4.276   4.532  1.4426  2.8823 -0.8608
 6070SOL    HW229670   2.460   4.235   4.648  1.9790  0.5424 -0.2227
 6071SOL     OW29671   2.491   3.441   7.894  0.0729 -0.6903 -0.1408
 6071SOL    HW129672   2.576   3.433   7.852  0.9048 -0.1585  1.4612
 6071SOL    HW229673   2.467   3.361   7.942 -0.7111 -1.2887 -1.5236
 6072SOL     OW29674   3.990   1.527   3.060  0.4223  0.1576  0.5393
 6072SOL    HW129675   4.058   1.473   3.020  0.8370  0.5919  0.6473
 6072SOL    HW229676   4.037   1.549   3.141  0.8383  0.0333  0.3332
 6073SOL     OW29677   0.378   3.633   5.918  0.5630  0.4872 -0.0256
 6073SOL    HW129678   0.287   3.611   5.897  1.2486  0.4544 -2.9878
 6073SOL    HW229679   0.385   3.718   5.875  0.8271  0.7581  0.5516
 6074SOL     OW29680   3.340   0.284   4.295  0.3102  0.0870  0.6605
 6074SOL    HW129681   3.292   0.202   4.287  1.5180 -0.5296 -0.2150
 6074SOL    HW229682   3.311   0.330   4.217 -2.6408 -0.2595  1.5440
 6075SOL     OW29683   0.846   1.031   5.062 -0.1423  0.4332  0.0506
 6075SOL    HW129684   0.872   0.939   5.071 -0.6802  0.1427 -1.2294
 6075SOL    HW229685   0.816   1.061   5.147  0.1737 -0.0551  0.3310
 6076SOL     OW29686   1.365   2.605   0.969  0.2016 -0.1334  0.0974
 6076SOL    HW129687   1.304   2.609   0.896 -0.8235 -0.6098  0.9265
 6076SOL    HW229688   1.345   2.687   1.016  1.0833  1.7711 -2.8691
 6077SOL     OW29689   3.488   2.953   3.805  0.2768  0.1602 -0.0115
 6077SOL    HW129690   3.534   2.872   3.786  0.0402 -0.2067  0.9733
 6077SOL    HW229691   3.521   2.962   3.894  0.5374  0.6533 -0.1558
 6078SOL     OW29692   3.525   0.952   5.613 -0.3177  0.7204 -0.5309
 6078SOL    HW129693   3.573   1.017   5.664 -1.7432 -1.0277  3.0974
 6078SOL    HW229694   3.475   1.022   5.571 -0.6396  0.0925 -1.1978
 6079SOL     OW29695   2.363   1.400   0.003 -0.3630 -0.4791 -0.0907
 6079SOL    HW129696   2.402   1.415  17.610 -2.2858 -0.6672 -0.9924
 6079SOL    HW229697   2.429   1.344   0.043  1.0366  1.2035 -0.0261
 6080SOL     OW29698   2.497   0.534   5.008  0.0976 -0.6118  0.2507
 6080SOL    HW129699   2.429   0.469   5.023  0.0795 -0.5120  0.6038
 6080SOL    HW229700   2.548   0.491   4.940  0.2829  2.3623 -1.5177
 6081SOL     OW29701   3.082   1.799   3.974  0.1050 -0.2777  0.1541
 6081SOL    HW129702   3.013   1.825   4.035 -0.8812  0.4041 -1.2474
 6081SOL    HW229703   3.163   1.808   4.024 -0.0605  0.2491  0.3266
 6082SOL     OW29704   1.010   0.015   7.383 -0.3888  0.3379  0.3281
 6082SOL    HW129705   0.994   4.723   7.290 -0.9584  0.1453  0.4576
 6082SOL    HW229706   1.066   0.091   7.368 -1.8636  1.5925  1.1006
 6083SOL     OW29707   3.876   0.186   6.324  0.2419  0.2242 -0.0997
 6083SOL    HW129708   3.923   0.140   6.393 -0.9178  1.2897  1.4148
 6083SOL    HW229709   3.867   0.273   6.362 -2.8515  0.4633 -1.3493
 6084SOL     OW29710   1.364   2.450   4.094 -0.3796 -0.1091  0.1178
 6084SOL    HW129711   1.342   2.507   4.167 -1.0575  1.2024 -1.0961
 6084SOL    HW229712   1.460   2.455   4.092 -0.4239 -0.2078 -2.5056
 6085SOL     OW29713   0.962   0.262  15.292 -0.1951 -0.4426  0.5478
 6085SOL    HW129714   1.028   0.290  15.355  1.0375  0.5144 -1.1936
 6085SOL    HW229715   0.908   0.197  15.337  0.0773 -0.4510  0.8634
 6086SOL     OW29716   0.760   0.343  10.848  0.0455  0.1999  0.4674
 6086SOL    HW129717   0.686   0.327  10.789  0.4410  0.7261 -0.1769
 6086SOL    HW229718   0.824   0.366  10.780 -0.8781 -0.2553 -0.5601
 6087SOL     OW29719   0.338   0.039   5.475 -0.1667 -0.7635  0.0235
 6087SOL    HW129720   0.394   0.009   5.547 -1.6224  0.4633  1.6621
 6087SOL    HW229721   0.384   0.114   5.435  1.1206 -1.6254 -0.1209
 6088SOL     OW29722   2.209   0.304   6.241  0.0027 -0.2515  0.6767
 6088SOL    HW129723   2.174   0.325   6.328  0.4054  2.0772  0.2910
 6088SOL    HW229724   2.130   0.304   6.188  1.7612  3.7957 -1.9910
 6089SOL     OW29725   4.556   1.004   6.862  0.4433  0.0977  0.0365
 6089SOL    HW129726   4.513   1.077   6.906  0.6501 -0.3629  1.0065
 6089SOL    HW229727   4.561   1.041   6.774  2.4056  0.6452  0.3807
 6090SOL     OW29728   4.411   0.839   7.083 -0.2521  0.4485 -0.1475
 6090SOL    HW129729   4.455   0.846   6.999  0.0133 -2.1516 -0.2170
 6090SOL    HW229730   4.380   0.748   7.079  3.9479 -0.8758 -2.3880
 6091SOL     OW29731   1.224   3.710  16.526  0.2512 -0.3068 -0.2463
 6091SOL    HW129732   1.258   3.796  16.551  2.3502 -1.0338 -0.5923
 6091SOL    HW229733   1.192   3.675  16.608  2.1155 -1.3079  0.0527
 6092SOL     OW29734   4.266   0.067   4.415  0.2239 -0.6665  0.0249
 6092SOL    HW129735   4.215   4.719   4.454  0.7340 -0.8763  0.3116
 6092SOL    HW229736   4.191   0.125   4.406 -1.3734 -2.8208 -0.6912
 6093SOL     OW29737   1.090   2.655   6.801 -0.4229  1.1686 -0.5008
 6093SOL    HW129738   1.160   2.701   6.755  1.1164 -0.7367 -0.1092
 6093SOL    HW229739   1.070   2.579   6.746  0.5677  1.2586 -0.9781
 6094SOL     OW29740   2.734   3.822   4.695 -0.1959  0.0877  0.5962
 6094SOL    HW129741   2.658   3.867   4.657 -0.5345 -2.6467 -1.9778
 6094SOL    HW229742   2.709   3.730   4.704 -0.1851  0.0775  0.5262
 6095SOL     OW29743   4.158   3.050   6.026 -0.3209  0.0430  0.0679
 6095SOL    HW129744   4.204   2.974   6.062  2.2062 -0.1053 -3.4642
 6095SOL    HW229745   4.232   3.108   6.007 -0.0687 -0.5085 -0.6174
 6096SOL     OW29746   4.070   3.894   2.873  0.1064 -0.3725  0.1232
 6096SOL    HW129747   4.148   3.851   2.908  0.3744  0.2553  0.3064
 6096SOL    HW229748   4.010   3.879   2.945 -0.3617  0.4037 -0.1027
 6097SOL     OW29749   3.657   3.832   6.846 -0.5159  0.3763 -0.0035
 6097SOL    HW129750   3.641   3.760   6.785  1.1776  2.0976 -2.4750
 6097SOL    HW229751   3.585   3.817   6.907 -1.2768  0.3418 -0.9061
 6098SOL     OW29752   0.467   0.747   1.158 -0.5677 -0.0136 -0.2819
 6098SOL    HW129753   0.532   0.716   1.096 -0.9063 -2.0055  0.3787
 6098SOL    HW229754   0.471   0.688   1.233 -0.6411  0.9410  0.4812
 6099SOL     OW29755   2.544   3.110  12.170  0.1061  0.5651 -0.3200
 6099SOL    HW129756   2.563   3.024  12.207  0.6642  0.8838  0.1354
 6099SOL    HW229757   2.463   3.138  12.213  0.1518  0.8156 -0.3979
 6100SOL     OW29758   4.156   1.313   5.474  0.2118 -0.1213  0.0678
 6100SOL    HW129759   4.119   1.242   5.526 -1.4329 -0.4543 -1.5599
 6100SOL    HW229760   4.244   1.278   5.459  0.3205  0.2958 -0.2648
 6101SOL     OW29761   0.503   3.378  11.399  0.5621  0.3925 -0.1059
 6101SOL    HW129762   0.485   3.446  11.334 -1.1662 -0.3925 -0.4436
 6101SOL    HW229763   0.420   3.355  11.439  1.2968 -0.0338  1.1626
 6102SOL     OW29764   0.159   4.338   7.210  0.0029  0.0701 -0.8515
 6102SOL    HW129765   0.178   4.427   7.180 -2.1590  0.4543 -1.1060
 6102SOL    HW229766   0.164   4.351   7.304  0.5879 -1.3636 -0.6783
 6103SOL     OW29767   0.243   2.619   0.980 -0.1951 -0.2650 -0.3124
 6103SOL    HW129768   0.175   2.616   0.913 -0.2401 -1.3938 -0.2131
 6103SOL    HW229769   0.282   2.532   0.974  0.7961  0.2150 -0.6755
 6104SOL     OW29770   1.566   3.814   1.407 -0.7776 -0.3777 -0.2429
 6104SOL    HW129771   1.531   3.759   1.337 -2.0613  0.7909 -0.5202
 6104SOL    HW229772   1.612   3.753   1.466 -1.0117  0.5804  0.9268
 6105SOL     OW29773   0.395   0.168   3.690  0.7794 -0.0950 -0.4808
 6105SOL    HW129774   0.484   0.138   3.672  0.4002  0.7635 -3.7428
 6105SOL    HW229775   0.400   0.208   3.777  0.7448 -0.6890 -0.1991
 6106SOL     OW29776   4.665   0.741   4.144  0.1636 -0.4837  0.6037
 6106SOL    HW129777   4.679   0.806   4.075 -2.0938  0.9297  1.4699
 6106SOL    HW229778   4.709   0.665   4.108  0.5605 -1.0304  2.2777
 6107SOL     OW29779   1.715   1.001  10.423 -0.5415  0.5760  0.1625
 6107SOL    HW129780   1.699   0.910  10.400 -0.5931  0.3697  1.0293
 6107SOL    HW229781   1.729   1.036  10.335 -2.1466  1.4145  0.2406
 6108SOL     OW29782   0.036   4.661  12.946 -0.2547  0.6410  0.3224
 6108SOL    HW129783   0.093   0.006  12.909 -0.1613  0.7361  0.6421
 6108SOL    HW229784   4.688   4.662  12.882  0.9716  0.8214 -1.0320
 6109SOL     OW29785   3.640   0.479   5.539 -0.2866  0.2948 -0.2927
 6109SOL    HW129786   3.578   0.406   5.530  0.1267 -0.3565  2.1827
 6109SOL    HW229787   3.719   0.427   5.521 -0.6996 -0.9785  1.5999
 6110SOL     OW29788   1.942   3.383   2.450 -0.0018 -0.1391  0.0242
 6110SOL    HW129789   1.900   3.348   2.528  0.7872  0.4235  0.6910
 6110SOL    HW229790   1.888   3.338   2.384  0.7547  0.9549 -1.3494
 6111SOL     OW29791   0.833   2.906  15.947  0.1352  0.3113  0.7675
 6111SOL    HW129792   0.910   2.855  15.974 -1.1460 -1.4116  1.1787
 6111SOL    HW229793   0.885   2.955  15.883 -0.9055 -0.0819 -0.3806
 6112SOL     OW29794   4.608   4.239   4.217 -0.0668  0.1213 -0.2692
 6112SOL    HW129795   4.595   4.333   4.232  0.2437  0.1179  0.0088
 6112SOL    HW229796   4.700   4.236   4.194 -0.7703  0.8467 -3.1722
 6113SOL     OW29797   0.841   4.299   5.175 -0.4136 -0.8765  0.2514
 6113SOL    HW129798   0.758   4.339   5.148  0.3346 -1.2715 -2.6312
 6113SOL    HW229799   0.815   4.218   5.219 -1.8797 -1.1899 -1.1638
 6114SOL     OW29800   3.163   4.099  15.424  0.5021 -0.5048 -0.5814
 6114SOL    HW129801   3.117   4.039  15.482 -1.2411  0.6055 -0.8276
 6114SOL    HW229802   3.179   4.042  15.349 -0.9414  0.3706 -1.5571
 6115SOL     OW29803   3.202   3.397   7.024  0.5352  0.1323 -0.1188
 6115SOL    HW129804   3.162   3.474   6.983  0.3342  0.4268  0.6323
 6115SOL    HW229805   3.169   3.402   7.114 -0.2211 -1.7235 -0.2805
 6116SOL     OW29806   1.921   4.339  11.394  0.3411 -0.2497  0.0754
 6116SOL    HW129807   1.920   4.246  11.418 -0.1535 -0.3021 -0.1563
 6116SOL    HW229808   1.968   4.371  11.471  0.8973 -1.5183  0.2728
 6117SOL     OW29809   1.475   2.316   2.721  0.1270 -0.0834  0.5206
 6117SOL    HW129810   1.552   2.338   2.668  1.5344 -2.4571  1.5708
 6117SOL    HW229811   1.514   2.335   2.807  1.9493  0.3425 -0.4039
 6118SOL     OW29812   1.697   0.741  10.278  0.3030  0.2198 -0.5826
 6118SOL    HW129813   1.787   0.730  10.309  0.8026 -1.8254 -2.7674
 6118SOL    HW229814   1.697   0.694  10.194 -2.2173  0.0017 -0.4770
 6119SOL     OW29815   0.064   3.657   5.957 -0.4914 -0.2399 -0.0071
 6119SOL    HW129816   0.064   3.700   6.042 -3.8332  2.4178 -1.3280
 6119SOL    HW229817   0.071   3.566   5.984  0.4807  0.1171  0.9225
 6120SOL     OW29818   0.338   2.491  10.303 -0.5236  0.0092  0.0284
 6120SOL    HW129819   0.344   2.575  10.349 -0.2753 -0.1826  0.3488
 6120SOL    HW229820   0.298   2.516  10.220 -1.4915 -2.0683 -0.1244
 6121SOL     OW29821   0.800   4.658   7.541  0.5055  0.9521 -0.3769
 6121SOL    HW129822   0.813   4.681   7.633  2.4583  1.2820 -0.7293
 6121SOL    HW229823   0.880   4.693   7.502  0.8193  0.6742  0.0216
 6122SOL     OW29824   1.187   1.365   0.934 -0.3471 -0.4272  0.8007
 6122SOL    HW129825   1.246   1.307   0.983 -1.4928 -0.4051  2.2208
 6122SOL    HW229826   1.235   1.388   0.855 -0.6335 -0.5847  0.5820
 6123SOL     OW29827   1.403   0.994  11.987  0.2998  0.2365 -0.0950
 6123SOL    HW129828   1.415   1.088  11.970 -1.9525  0.3905 -0.8467
 6123SOL    HW229829   1.479   0.954  11.944 -1.0246 -0.1269 -2.0657
 6124SOL     OW29830   2.300   2.654   6.124 -0.1907 -0.0838 -0.9575
 6124SOL    HW129831   2.323   2.605   6.045  2.1676  0.8150 -0.8370
 6124SOL    HW229832   2.236   2.710   6.079 -1.0695 -0.5185 -0.2493
 6125SOL     OW29833   3.093   1.797  11.959  0.1872  0.2698 -0.3572
 6125SOL    HW129834   3.175   1.747  11.965 -0.2746 -0.5642 -0.9900
 6125SOL    HW229835   3.027   1.736  11.993  0.3396 -0.2248 -0.9500
 6126SOL     OW29836   2.945   3.705   7.429 -0.1586 -0.0675 -0.3235
 6126SOL    HW129837   2.850   3.714   7.434 -0.3441 -0.4568 -2.9481
 6126SOL    HW229838   2.970   3.784   7.380  0.2341 -0.0631 -0.1114
 6127SOL     OW29839   4.277   2.936   4.724 -0.1579  0.3202  0.1163
 6127SOL    HW129840   4.353   2.994   4.724  0.1519 -0.0838 -0.2052
 6127SOL    HW229841   4.310   2.847   4.735 -1.1138 -0.0667 -0.1408
 6128SOL     OW29842   3.932   3.433   1.587 -0.3541 -0.2556 -0.1396
 6128SOL    HW129843   3.965   3.406   1.672 -1.2136  0.1825  0.3308
 6128SOL    HW229844   3.870   3.363   1.568 -0.5062 -0.2803  0.4528
 6129SOL     OW29845   0.057   1.327   4.509 -0.1220  0.4326  0.2215
 6129SOL    HW129846   0.006   1.394   4.553 -0.2567 -0.4589  1.4502
 6129SOL    HW229847   0.056   1.368   4.423  1.4598  1.0496  0.4850
 6130SOL     OW29848   0.355   2.177   5.225 -0.1965 -0.4211 -0.4559
 6130SOL    HW129849   0.397   2.198   5.308 -0.0124 -1.4588 -0.2826
 6130SOL    HW229850   0.392   2.246   5.170  1.7793  0.6770  2.2763
 6131SOL     OW29851   0.382   4.155   2.536 -0.4995 -0.3183  0.4893
 6131SOL    HW129852   0.412   4.210   2.609 -3.2182  1.0499  0.5627
 6131SOL    HW229853   0.321   4.219   2.501 -1.0931 -0.6230  0.9801
 6132SOL     OW29854   1.465   4.081   4.649  0.9262 -0.0148  0.5391
 6132SOL    HW129855   1.461   4.130   4.567  2.2320 -1.6153 -0.4821
 6132SOL    HW229856   1.523   4.138   4.700 -1.0080  1.5551  1.0120
 6133SOL     OW29857   2.696   2.544   4.838 -0.2401  0.0996 -0.6249
 6133SOL    HW129858   2.681   2.607   4.909  2.1596  1.7287 -1.5603
 6133SOL    HW229859   2.783   2.567   4.806  1.4658 -2.9556  1.7421
 6134SOL     OW29860   0.082   2.719   4.051  0.0300  0.0887  0.0117
 6134SOL    HW129861   0.176   2.734   4.041 -0.0186 -0.5514 -1.3413
 6134SOL    HW229862   0.063   2.693   3.961 -1.3387  0.0204  0.3202
 6135SOL     OW29863   0.886   3.898   4.137  0.4346  0.2723 -0.0219
 6135SOL    HW129864   0.924   3.943   4.061  0.8410  1.2543  0.7702
 6135SOL    HW229865   0.813   3.849   4.099  1.9973  0.2894 -3.0639
 6136SOL     OW29866   4.674   1.969  11.864  0.1669 -0.3217 -0.1047
 6136SOL    HW129867   4.708   1.954  11.952 -0.8189  0.3383  0.3892
 6136SOL    HW229868   0.010   1.918  11.809  0.6049 -1.8126  1.7447
 6137SOL     OW29869   4.389   1.070   3.763 -0.1069 -0.5699 -0.4097
 6137SOL    HW129870   4.463   1.118   3.725 -2.1224  1.7795 -1.3910
 6137SOL    HW229871   4.438   0.989   3.776 -1.3630 -1.1924  0.4291
 6138SOL     OW29872   0.169   1.025  15.484  0.7695 -0.4621  0.4259
 6138SOL    HW129873   0.074   1.026  15.481  0.8260  0.6734 -0.6993
 6138SOL    HW229874   0.192   1.107  15.441  3.2373 -0.8801  0.8938
 6139SOL     OW29875   2.563   0.950  13.404  0.0168 -0.3267  0.0841
 6139SOL    HW129876   2.489   0.930  13.462 -0.1855  0.2920  0.0329
 6139SOL    HW229877   2.556   0.876  13.343 -1.5540 -1.2384  1.3762
 6140SOL     OW29878   1.479   0.102   4.634  0.2364  0.4557 -0.0931
 6140SOL    HW129879   1.391   0.128   4.659  0.5412  0.8030  0.6178
 6140SOL    HW229880   1.523   0.119   4.717  0.7469 -0.7293 -0.1238
 6141SOL     OW29881   3.655   1.771   1.246  0.0550 -0.1602 -0.1611
 6141SOL    HW129882   3.728   1.712   1.261  1.0440  1.5190  1.5199
 6141SOL    HW229883   3.702   1.843   1.206 -0.8393  0.5164  0.0087
 6142SOL     OW29884   1.380   2.652   3.323 -0.4962 -0.4524 -0.0622
 6142SOL    HW129885   1.295   2.669   3.281 -0.3200  1.1360  0.2199
 6142SOL    HW229886   1.433   2.709   3.267 -0.1336 -0.5472  0.1889
 6143SOL     OW29887   2.450   2.921   5.010  0.0502  0.2867  0.2262
 6143SOL    HW129888   2.422   2.838   4.971  0.1200  0.5437 -0.3683
 6143SOL    HW229889   2.420   2.917   5.100 -0.7429  0.5081 -0.0284
 6144SOL     OW29890   2.148   0.774   7.638 -0.2035  0.1465  0.1979
 6144SOL    HW129891   2.210   0.799   7.707  3.1283 -0.2694 -2.6444
 6144SOL    HW229892   2.208   0.726   7.581 -0.3845  1.2483 -0.9287
 6145SOL     OW29893   3.654   0.803  15.742  0.6796  0.3786  0.1220
 6145SOL    HW129894   3.650   0.725  15.687  0.8442  1.9199 -2.0582
 6145SOL    HW229895   3.732   0.851  15.714  1.2987 -1.1588 -0.8297
 6146SOL     OW29896   4.326   0.752   3.130  0.5940  0.0826  0.0313
 6146SOL    HW129897   4.304   0.741   3.037  2.5689 -0.2293 -0.3968
 6146SOL    HW229898   4.415   0.785   3.133 -0.1461  2.2418 -2.0972
 6147SOL     OW29899   3.298   4.159  10.730  0.5121  0.7573  0.3340
 6147SOL    HW129900   3.230   4.225  10.724 -0.7958 -0.5467  0.8651
 6147SOL    HW229901   3.363   4.187  10.665 -1.3024 -1.5155 -2.4198
 6148SOL     OW29902   0.148   0.619   9.086  0.5603 -0.4219 -0.0637
 6148SOL    HW129903   0.064   0.628   9.131  0.3743 -0.7367 -0.3395
 6148SOL    HW229904   0.134   0.684   9.017  2.6388 -2.1769 -2.1182
 6149SOL     OW29905   1.731   4.405   3.159 -0.3830  0.5497 -0.8541
 6149SOL    HW129906   1.716   4.493   3.125 -3.1188  0.4385  0.0629
 6149SOL    HW229907   1.826   4.399   3.159 -0.4420 -0.4537 -0.9231
 6150SOL     OW29908   1.820   2.450   5.913  0.2406  0.1680 -0.3325
 6150SOL    HW129909   1.786   2.363   5.933  0.3035  0.4807  1.1636
 6150SOL    HW229910   1.846   2.473   6.002  0.0524 -2.0698  0.2985
 6151SOL     OW29911   0.002   3.005   2.975  0.5606  0.5955 -0.0581
 6151SOL    HW129912   0.081   3.002   3.029  0.4671 -0.0529  0.0401
 6151SOL    HW229913   0.032   3.020   2.885  0.4568  2.2593  0.1807
 6152SOL     OW29914   3.519   4.112  11.931 -0.0102 -0.5783  0.5540
 6152SOL    HW129915   3.510   4.149  12.019  0.7176 -2.0032  1.2263
 6152SOL    HW229916   3.589   4.167  11.895 -0.8718 -1.3157 -2.2527
 6153SOL     OW29917   1.101   1.791   8.348 -0.3174  0.4472  0.3944
 6153SOL    HW129918   1.125   1.747   8.430  0.4799  0.3588  0.1179
 6153SOL    HW229919   1.007   1.773   8.350 -0.2986  0.0570 -1.6357
 6154SOL     OW29920   0.501   2.773   6.244  0.2515 -0.8605  0.1715
 6154SOL    HW129921   0.409   2.793   6.228  0.0538 -0.9902  1.1558
 6154SOL    HW229922   0.500   2.677   6.239 -0.5491 -0.9441  1.9400
 6155SOL     OW29923   4.717   0.534   5.382 -0.6338 -0.0514  0.2830
 6155SOL    HW129924   4.630   0.503   5.404 -0.5075  0.3114  1.2980
 6155SOL    HW229925   4.700   0.571   5.295 -0.3339 -0.1503  0.1808
 6156SOL     OW29926   3.742   1.802   6.955  0.5699  0.5713 -0.4445
 6156SOL    HW129927   3.718   1.742   6.884 -0.4852 -0.2357  0.5781
 6156SOL    HW229928   3.818   1.754   6.988  1.5407  1.6672 -1.1156
 6157SOL     OW29929   4.300   2.439  10.956 -0.0750  0.2779 -0.3530
 6157SOL    HW129930   4.291   2.500  10.883  0.1359 -1.2138 -1.6169
 6157SOL    HW229931   4.227   2.460  11.016 -0.4996 -0.7099 -0.5250
 6158SOL     OW29932   3.698   2.761   3.417  0.4464  0.6069  0.0665
 6158SOL    HW129933   3.760   2.799   3.479  0.5590 -0.7768  0.8161
 6158SOL    HW229934   3.642   2.837   3.404 -1.2471 -0.6453 -0.0306
 6159SOL     OW29935   3.897   2.380   4.141 -0.1031  0.5858  0.3048
 6159SOL    HW129936   3.959   2.452   4.151  0.2660  0.3277 -0.0903
 6159SOL    HW229937   3.818   2.434   4.144 -0.5026 -0.0041  0.2822
 6160SOL     OW29938   3.084   1.212   7.309 -0.2245  0.0152 -0.0672
 6160SOL    HW129939   3.128   1.234   7.391  1.7250  0.9405 -1.3366
 6160SOL    HW229940   3.034   1.136   7.339 -0.1974 -0.7672 -1.9995
 6161SOL     OW29941   0.921   3.430   2.265  0.4852  0.1840 -0.1353
 6161SOL    HW129942   0.986   3.498   2.252  1.0773  0.1286  2.5250
 6161SOL    HW229943   0.927   3.390   2.178 -0.0294  0.2421 -0.2005
 6162SOL     OW29944   0.844   0.496  10.609  0.1907  0.2739 -0.3365
 6162SOL    HW129945   0.761   0.500  10.561 -1.0114 -1.6450  1.6029
 6162SOL    HW229946   0.859   0.588  10.630 -2.9572  1.0719 -1.4753
 6163SOL     OW29947   1.914   0.640   5.800 -0.0287 -0.2049  0.0203
 6163SOL    HW129948   1.969   0.572   5.840  0.6249 -0.7791 -1.8497
 6163SOL    HW229949   1.938   0.630   5.708  3.4634  1.9488  0.7097
 6164SOL     OW29950   4.696   2.252  16.146 -0.0059 -0.2284  0.0140
 6164SOL    HW129951   0.008   2.341  16.151  0.0203 -0.3556  1.9334
 6164SOL    HW229952   4.687   2.242  16.051  0.0494 -0.2728  0.0134
 6165SOL     OW29953   2.966   4.119  13.533 -0.3179 -0.0029 -0.0805
 6165SOL    HW129954   3.038   4.077  13.486  0.6214  0.8038  0.6363
 6165SOL    HW229955   3.004   4.124  13.621  0.5286  0.7466 -0.4866
 6166SOL     OW29956   2.584   1.050   6.562 -0.2055  0.5202  0.4444
 6166SOL    HW129957   2.540   1.130   6.591 -1.5714 -0.0026 -0.1750
 6166SOL    HW229958   2.621   1.074   6.477  1.6745  0.4479  1.2429
 6167SOL     OW29959   3.128   2.822   6.310 -0.1552  0.4420  0.0917
 6167SOL    HW129960   3.134   2.907   6.265 -1.7056  1.5255  1.9299
 6167SOL    HW229961   3.175   2.769   6.246 -1.4486 -0.9040  0.2703
 6168SOL     OW29962   1.768   2.397   9.580  0.3579 -0.0423  0.3835
 6168SOL    HW129963   1.748   2.481   9.621 -2.3215  0.2659 -1.6137
 6168SOL    HW229964   1.759   2.415   9.487 -0.1187  0.3230  0.5044
 6169SOL     OW29965   1.954   1.280   7.285 -0.2842  0.0657 -0.0743
 6169SOL    HW129966   1.907   1.254   7.364 -0.1275  1.5060  0.5075
 6169SOL    HW229967   1.989   1.363   7.317 -2.6286  1.0718 -0.0423
 6170SOL     OW29968   2.359   4.549   7.668 -0.4839 -0.5127 -0.1357
 6170SOL    HW129969   2.402   4.468   7.641 -0.0862 -0.6150  0.7797
 6170SOL    HW229970   2.395   4.547   7.757  0.8145 -0.8155 -0.6782
 6171SOL     OW29971   3.435   0.413   6.666 -0.7303 -0.8956 -0.0138
 6171SOL    HW129972   3.397   0.408   6.578  0.6679 -1.7514 -0.5730
 6171SOL    HW229973   3.525   0.384   6.656 -0.8366 -1.3494  0.3165
 6172SOL     OW29974   0.798   3.106   0.070 -0.1827  0.1619 -0.4279
 6172SOL    HW129975   0.881   3.146   0.095 -0.5750 -0.4595  1.8929
 6172SOL    HW229976   0.808   3.012   0.087  1.4163  0.5024  0.5529
 6173SOL     OW29977   2.349   0.420   7.652 -0.2645  0.5756  0.1360
 6173SOL    HW129978   2.414   0.470   7.702 -0.5570 -0.3366  1.4420
 6173SOL    HW229979   2.329   0.348   7.712 -1.1817  1.7913  1.2687
 6174SOL     OW29980   1.172   1.718   5.676 -0.2615  0.0384 -0.1573
 6174SOL    HW129981   1.131   1.660   5.611  0.3697 -1.3466  0.6621
 6174SOL    HW229982   1.263   1.716   5.646 -0.4603 -1.4293 -0.6835
 6175SOL     OW29983   0.891   3.352   0.458 -0.7732  0.3208  0.3740
 6175SOL    HW129984   0.984   3.342   0.477 -0.3922 -2.5912 -3.2684
 6175SOL    HW229985   0.886   3.402   0.376  0.0140 -1.0609 -0.4978
 6176SOL     OW29986   1.877   3.222   4.344  0.0072 -0.2282  0.3076
 6176SOL    HW129987   1.907   3.265   4.424 -2.1656  2.3307 -0.2260
 6176SOL    HW229988   1.799   3.177   4.376 -1.2906  2.8741  1.5005
 6177SOL     OW29989   2.033   2.819  15.864  0.2592  0.0972 -0.2013
 6177SOL    HW129990   2.025   2.827  15.769 -1.6092  1.0460  0.0333
 6177SOL    HW229991   1.978   2.742  15.870  1.6710 -0.7336  2.2502
 6178SOL     OW29992   0.431   4.326  11.449  0.2460 -0.2024 -0.4123
 6178SOL    HW129993   0.440   4.278  11.368  0.8507 -0.6625 -0.0751
 6178SOL    HW229994   0.519   4.366  11.452  0.3173 -0.3057 -1.3264
 6179SOL     OW29995   2.630   1.090   0.346  0.8468 -0.2884 -0.2155
 6179SOL    HW129996   2.547   1.040   0.346  0.3533  0.5308  0.7519
 6179SOL    HW229997   2.687   1.019   0.374 -0.7607 -1.1209  0.9951
 6180SOL     OW29998   0.567   3.720   0.596  0.6598 -0.0022  0.4460
 6180SOL    HW129999   0.606   3.770   0.668 -0.0461  3.2451 -1.4438
 6180SOL    HW230000   0.552   3.632   0.630 -1.2031 -0.3591 -1.3023
 6181SOL     OW30001   0.723   2.718   4.908 -0.0275  0.8297 -0.5130
 6181SOL    HW130002   0.784   2.776   4.861  2.3119  0.4848  2.0983
 6181SOL    HW230003   0.780   2.686   4.979 -3.0298  0.9388  1.9175
 6182SOL     OW30004   1.482   0.029   7.261  0.1330  0.7930 -0.3437
 6182SOL    HW130005   1.444   4.671   7.296  0.6615  1.5754  2.0070
 6182SOL    HW230006   1.574   0.004   7.262  0.2016  1.0839  1.3665
 6183SOL     OW30007   0.062   4.186   2.622  0.2010  0.2998  0.3759
 6183SOL    HW130008   4.723   4.155   2.556 -0.9242  2.3996  0.4461
 6183SOL    HW230009   0.045   4.280   2.617  0.4937  0.3436  0.1889
 6184SOL     OW30010   2.027   0.633   3.279  0.6230 -0.2208 -0.0825
 6184SOL    HW130011   1.989   0.720   3.272 -0.5721 -0.9181 -2.2420
 6184SOL    HW230012   2.028   0.604   3.188 -0.6335 -0.6284  0.0265
 6185SOL     OW30013   2.555   2.949   1.355 -0.0599  0.0681  0.2320
 6185SOL    HW130014   2.493   2.941   1.283 -0.7702 -1.2077  0.9886
 6185SOL    HW230015   2.516   2.885   1.415 -1.7530 -0.2567 -1.2298
 6186SOL     OW30016   1.168   1.910  15.358  0.1272 -0.1727 -0.3090
 6186SOL    HW130017   1.246   1.957  15.329  0.7534  0.3532  2.2414
 6186SOL    HW230018   1.195   1.818  15.366 -2.1602 -0.9603 -1.6011
 6187SOL     OW30019   4.041   1.516   4.827  0.5131  0.0983 -0.5564
 6187SOL    HW130020   4.031   1.611   4.816  0.1011  0.1020 -0.1658
 6187SOL    HW230021   3.974   1.472   4.775  0.8591  0.0127 -0.9243
 6188SOL     OW30022   4.563   3.012   5.520 -0.5210  0.1909  0.1025
 6188SOL    HW130023   4.493   2.981   5.463  0.2078 -0.1950 -0.5835
 6188SOL    HW230024   4.628   3.049   5.459 -0.0937 -0.8206 -0.0474
 6189SOL     OW30025   4.164   3.022   5.712  0.5164 -0.0834 -0.1240
 6189SOL    HW130026   4.106   3.070   5.652 -0.0998 -0.8777 -0.1598
 6189SOL    HW230027   4.183   3.105   5.756 -0.9924 -0.9257  2.1737
 6190SOL     OW30028   0.034   3.416   6.068 -0.0315 -0.2470  0.1744
 6190SOL    HW130029   0.023   3.405   6.162 -1.3764  0.6232  0.1189
 6190SOL    HW230030   4.664   3.405   6.046  0.1364 -2.6994  0.6892
 6191SOL     OW30031   3.348   0.403  10.118 -0.1302  0.0628  0.2942
 6191SOL    HW130032   3.370   0.327  10.065 -1.9942 -0.3707  0.1368
 6191SOL    HW230033   3.431   0.400  10.166  0.5824 -0.0705 -0.9739
 6192SOL     OW30034   0.280   1.109   2.639  1.1135 -0.0124  0.0227
 6192SOL    HW130035   0.301   1.029   2.590  2.3076  1.8353 -2.4852
 6192SOL    HW230036   0.185   1.097   2.642  1.1914 -0.4661  0.6318
 6193SOL     OW30037   3.516   0.695   7.873  0.0155  0.1624  0.0981
 6193SOL    HW130038   3.583   0.763   7.867 -0.4946  0.8027  1.7570
 6193SOL    HW230039   3.436   0.748   7.868 -0.1755  0.0711  2.1765
 6194SOL     OW30040   0.085   1.735   7.687  0.2808  0.1551  0.1033
 6194SOL    HW130041   0.083   1.831   7.683 -2.1118  0.2120  2.7794
 6194SOL    HW230042   0.006   1.716   7.638  0.4038 -1.2036  0.4514
 6195SOL     OW30043   0.009   0.086   1.413 -0.0967 -0.3698 -0.4945
 6195SOL    HW130044   4.674   0.155   1.380 -0.4015 -0.6222 -0.4907
 6195SOL    HW230045   4.663   0.024   1.438  0.6437 -0.6467  0.8563
 6196SOL     OW30046   1.074   2.106  10.376  0.1969 -0.6899 -0.2169
 6196SOL    HW130047   1.013   2.177  10.396 -0.2272 -0.0331 -3.8414
 6196SOL    HW230048   1.031   2.029  10.339 -2.5759  1.7431 -2.0425
 6197SOL     OW30049   1.527   0.047   2.654  0.2860 -0.3498 -0.1869
 6197SOL    HW130050   1.612   0.076   2.685 -0.3432  1.1092  0.1593
 6197SOL    HW230051   1.502   0.113   2.589 -1.2931 -1.8710 -1.1337
 6198SOL     OW30052   3.445   2.530   7.138  0.0729 -0.5446  0.0068
 6198SOL    HW130053   3.464   2.444   7.176  0.2783 -0.3001  0.4498
 6198SOL    HW230054   3.529   2.550   7.097  0.0785  0.3215  0.4529
 6199SOL     OW30055   0.102   0.828   2.131  0.3979 -0.2204 -0.1812
 6199SOL    HW130056   0.068   0.775   2.204 -3.3780 -2.0216 -3.2377
 6199SOL    HW230057   0.050   0.909   2.132 -2.6269 -2.1368 -1.8184
 6200SOL     OW30058   1.170   3.638   1.429 -0.0169  0.0902  0.7297
 6200SOL    HW130059   1.241   3.683   1.383 -0.1618 -1.4263 -0.9630
 6200SOL    HW230060   1.190   3.546   1.411 -0.1893  0.5699 -1.9178
 6201SOL     OW30061   2.471   2.161   1.327  1.0211 -0.5358  0.4524
 6201SOL    HW130062   2.539   2.095   1.342  2.1306  0.7171  0.9680
 6201SOL    HW230063   2.500   2.206   1.248  0.7170 -0.5463  0.3366
 6202SOL     OW30064   3.435   1.999   7.686 -0.3925 -0.7102  0.6256
 6202SOL    HW130065   3.387   1.958   7.614 -0.9729  3.3924 -1.3279
 6202SOL    HW230066   3.457   1.930   7.747  0.6653  0.8723  2.0339
 6203SOL     OW30067   3.710   1.715   4.067 -0.3520  0.7565  0.4943
 6203SOL    HW130068   3.663   1.698   4.149  1.2932 -0.6984  1.1337
 6203SOL    HW230069   3.636   1.751   4.018 -0.1600 -0.2341 -0.5193
 6204SOL     OW30070   1.745   2.812   5.486 -0.1157  0.2324 -0.1105
 6204SOL    HW130071   1.810   2.750   5.517  0.8298  1.7617  0.9612
 6204SOL    HW230072   1.693   2.769   5.418  1.5604  1.0350 -1.8874
 6205SOL     OW30073   2.755   3.368   6.743  0.0983 -0.5269 -0.1607
 6205SOL    HW130074   2.690   3.378   6.813  1.3653 -0.6985  1.0516
 6205SOL    HW230075   2.701   3.372   6.665  0.5842 -0.3082 -0.4878
 6206SOL     OW30076   4.247   1.643  15.884  0.3182  0.5990  0.1267
 6206SOL    HW130077   4.266   1.550  15.892  0.6705  0.6170 -0.5854
 6206SOL    HW230078   4.213   1.655  15.796  1.2677 -1.9336 -0.5866
 6207SOL     OW30079   2.559   0.791  12.305  0.3482 -0.0397 -0.4240
 6207SOL    HW130080   2.563   0.886  12.311 -0.0375 -0.0546  0.0465
 6207SOL    HW230081   2.494   0.766  12.370  0.0922  0.8711 -0.3431
 6208SOL     OW30082   1.036   2.259  15.038 -0.5818 -0.1761 -0.0507
 6208SOL    HW130083   1.106   2.279  15.100  0.1548 -2.1642 -0.2233
 6208SOL    HW230084   1.042   2.164  15.048 -0.4756 -0.1586  0.0548
 6209SOL     OW30085   3.105   3.486   7.270 -0.7653  0.0182 -0.0143
 6209SOL    HW130086   3.066   3.553   7.327 -0.4974  1.1891 -1.1917
 6209SOL    HW230087   3.026   3.438   7.246 -1.2120 -0.1762  1.8677
 6210SOL     OW30088   4.433   2.362  10.320  0.0793 -0.2425 -0.2288
 6210SOL    HW130089   4.488   2.334  10.393  0.7097  0.0508 -0.5951
 6210SOL    HW230090   4.347   2.341  10.356 -0.1467  1.0745  0.0295
 6211SOL     OW30091   4.401   3.264   4.224 -0.0875 -0.3053  0.2733
 6211SOL    HW130092   4.479   3.263   4.169  0.4554 -2.2772  1.0866
 6211SOL    HW230093   4.335   3.216   4.174  0.8478  0.6986 -1.9316
 6212SOL     OW30094   2.880   2.905   3.424  0.0517  0.8485 -0.1699
 6212SOL    HW130095   2.878   2.811   3.440  0.1861  1.0581  1.0868
 6212SOL    HW230096   2.819   2.935   3.492  0.6001 -1.0439  1.1267
 6213SOL     OW30097   4.444   0.942  15.965  0.2475 -0.0551  0.0643
 6213SOL    HW130098   4.535   0.933  15.996  0.6995  1.3573 -0.8313
 6213SOL    HW230099   4.409   1.007  16.026 -2.6290 -1.4908 -0.0914
 6214SOL     OW30100   0.453   2.073   4.721 -0.0292  0.2504  0.0715
 6214SOL    HW130101   0.441   1.978   4.718 -0.1196  0.2352  0.8184
 6214SOL    HW230102   0.510   2.081   4.645  0.5208 -2.5853  0.1565
 6215SOL     OW30103   0.410   1.429  15.206  0.3080 -0.9550 -0.3998
 6215SOL    HW130104   0.327   1.476  15.195  0.4626 -0.2949  1.2976
 6215SOL    HW230105   0.460   1.474  15.274 -0.7741 -0.5748  0.1393
 6216SOL     OW30106   4.260   3.068   7.563  0.6169  0.1687  0.1025
 6216SOL    HW130107   4.176   3.060   7.518  0.2183  1.9579  0.5498
 6216SOL    HW230108   4.255   3.133   7.633  2.5602 -0.8609  1.2129
 6217SOL     OW30109   4.674   4.005   3.039  0.6308  0.2419  0.0503
 6217SOL    HW130110   4.654   3.947   2.966  0.7268 -0.6648  0.7546
 6217SOL    HW230111   4.589   4.000   3.083  1.3081 -0.1856  1.3052
 6218SOL     OW30112   1.517   3.886  16.012  0.2773 -0.1882 -0.1156
 6218SOL    HW130113   1.578   3.903  15.939 -0.3380  2.5211 -0.0198
 6218SOL    HW230114   1.429   3.906  15.979  0.0780 -0.1218  0.4566
 6219SOL     OW30115   0.399   2.847   2.789  0.2477 -0.1038  0.1845
 6219SOL    HW130116   0.409   2.897   2.871 -0.0001  0.9500 -0.4224
 6219SOL    HW230117   0.492   2.828   2.776  0.6635  1.5525  0.6985
 6220SOL     OW30118   0.202   4.208   8.607  0.4986 -0.4895  0.7764
 6220SOL    HW130119   0.129   4.268   8.590  2.7190  1.6184 -1.3101
 6220SOL    HW230120   0.186   4.179   8.697 -3.0978  0.4619  0.4631
 6221SOL     OW30121   3.151   2.028   5.665  0.1938 -0.1462  0.2740
 6221SOL    HW130122   3.231   2.034   5.718 -0.0427  0.5779  0.5432
 6221SOL    HW230123   3.120   1.943   5.698  1.1834  0.0666  1.7776
 6222SOL     OW30124   3.606   3.779  11.022  0.0851  0.2702 -0.4074
 6222SOL    HW130125   3.688   3.802  10.978  0.7524 -0.7909  0.2963
 6222SOL    HW230126   3.618   3.818  11.108 -0.2165 -1.0107  0.2070
 6223SOL     OW30127   0.891   4.579  12.609  0.0651 -0.4111 -0.0825
 6223SOL    HW130128   0.903   4.585  12.703 -0.7594 -1.1795  0.0712
 6223SOL    HW230129   0.798   4.560  12.609  0.4673 -2.3578  0.5118
 6224SOL     OW30130   3.147   4.220   3.275 -0.0837 -0.2103  0.1302
 6224SOL    HW130131   3.183   4.188   3.357  1.6311  0.6087 -0.3127
 6224SOL    HW230132   3.060   4.245   3.305  0.0764 -0.7452  1.0166
 6225SOL     OW30133   2.687   4.609   6.837 -0.6047 -0.2670  0.0845
 6225SOL    HW130134   2.627   4.675   6.872  1.1991  1.2411  0.3034
 6225SOL    HW230135   2.732   4.648   6.761  1.7806  0.2062  1.7360
 6226SOL     OW30136   4.565   1.193   5.593 -0.4742  0.1035  0.2098
 6226SOL    HW130137   4.492   1.216   5.535 -1.0069  0.7694  1.1425
 6226SOL    HW230138   4.630   1.257   5.564 -0.1739 -1.3920 -2.4280
 6227SOL     OW30139   1.845   1.472   8.800  0.3689  0.3926 -0.1766
 6227SOL    HW130140   1.777   1.419   8.841 -0.4092  2.1970  0.8850
 6227SOL    HW230141   1.816   1.562   8.815 -2.8256 -0.7869  0.8001
 6228SOL     OW30142   3.680   3.934   2.413  0.2293  0.4942  0.7478
 6228SOL    HW130143   3.671   4.017   2.368 -0.2912  0.4069  0.6909
 6228SOL    HW230144   3.709   3.963   2.499 -1.3970  2.0969  0.7427
 6229SOL     OW30145   2.677   2.363   8.555  0.1934  0.5598  0.3063
 6229SOL    HW130146   2.670   2.355   8.459  1.6908 -0.8160  0.3079
 6229SOL    HW230147   2.594   2.405   8.576  0.4004  0.8726  0.4998
 6230SOL     OW30148   3.938   3.547   4.706 -0.5794  0.0816 -0.0761
 6230SOL    HW130149   3.931   3.497   4.624  0.3405  0.1893 -0.2251
 6230SOL    HW230150   3.909   3.630   4.669  2.3078  0.3089 -1.8354
 6231SOL     OW30151   2.884   3.170   1.887 -0.3873 -0.0900 -0.3736
 6231SOL    HW130152   2.900   3.150   1.979 -2.4615  0.0706  0.0147
 6231SOL    HW230153   2.961   3.223   1.869  0.6272 -0.3768  3.1906
 6232SOL     OW30154   2.992   0.560   5.134  0.2399  0.1131  0.0549
 6232SOL    HW130155   2.903   0.596   5.135 -1.0367 -3.1279  2.1215
 6232SOL    HW230156   2.970   0.496   5.066 -0.1478  0.0563  0.2331
 6233SOL     OW30157   0.667   1.000  14.977  0.1833  0.1228 -0.1506
 6233SOL    HW130158   0.738   0.990  14.914  0.3783 -0.2362  0.1213
 6233SOL    HW230159   0.714   0.962  15.051 -0.8787 -0.7252  0.0948
 6234SOL     OW30160   1.786   3.397   7.263 -0.1329 -0.2550  0.3830
 6234SOL    HW130161   1.792   3.334   7.334  1.8955 -1.0422 -0.4843
 6234SOL    HW230162   1.710   3.356   7.221 -1.0153  0.8442  0.9145
 6235SOL     OW30163   2.735   4.267  12.510  0.0166  0.2511  0.2542
 6235SOL    HW130164   2.710   4.289  12.600 -0.2488 -0.6613  0.4103
 6235SOL    HW230165   2.733   4.354  12.470 -0.6577 -0.2710 -0.8617
 6236SOL     OW30166   3.370   2.095   2.361 -0.1311  0.5694 -0.2915
 6236SOL    HW130167   3.317   2.171   2.337 -0.4248 -0.1636 -1.9283
 6236SOL    HW230168   3.456   2.102   2.322  1.1071 -0.4840  2.2049
 6237SOL     OW30169   1.420   3.765   4.466  0.7727  0.4638 -0.6370
 6237SOL    HW130170   1.379   3.818   4.398  1.4930  0.1236 -1.3282
 6237SOL    HW230171   1.355   3.751   4.534  2.9199 -1.2767  1.0538
 6238SOL     OW30172   1.636   1.329   8.934  0.6936  0.1757  0.1408
 6238SOL    HW130173   1.557   1.381   8.918  0.2335 -0.3694  0.6548
 6238SOL    HW230174   1.625   1.254   8.875  1.4063 -0.3015  0.6107
 6239SOL     OW30175   4.534   1.029  10.321 -0.0238 -0.1350  0.5154
 6239SOL    HW130176   4.624   1.061  10.327 -0.4075  0.8931  0.8196
 6239SOL    HW230177   4.500   1.050  10.408 -0.6310  0.3486  0.1603
 6240SOL     OW30178   3.035   0.568   4.247 -0.5420 -0.0982 -0.1592
 6240SOL    HW130179   2.972   0.527   4.188 -0.7243 -0.0673  0.0133
 6240SOL    HW230180   2.977   0.620   4.302 -0.4977 -2.0695  1.7392
 6241SOL     OW30181   4.604   3.732   6.230 -0.3133 -0.3423  0.1816
 6241SOL    HW130182   4.539   3.664   6.247  0.1857 -0.8981 -0.1512
 6241SOL    HW230183   4.554   3.812   6.217 -2.4267 -2.0359 -2.0609
 6242SOL     OW30184   1.402   3.025  10.902  0.2155 -0.0930  0.4940
 6242SOL    HW130185   1.455   3.098  10.933 -0.7971  0.5442  0.7205
 6242SOL    HW230186   1.452   2.990  10.828  0.4351  1.5103 -0.1035
 6243SOL     OW30187   2.712   1.523   6.021  0.8792 -0.2204  0.1540
 6243SOL    HW130188   2.729   1.472   5.941 -0.0814 -1.0206  0.4621
 6243SOL    HW230189   2.647   1.463   6.058 -1.2093  0.9517 -1.5925
 6244SOL     OW30190   0.396   3.176   7.169 -0.3982 -0.1074 -0.1645
 6244SOL    HW130191   0.440   3.168   7.254  0.7654  1.5903 -0.6213
 6244SOL    HW230192   0.343   3.097   7.178  2.1053 -1.5246  2.1039
 6245SOL     OW30193   1.500   1.617  13.807  0.3079  0.3509 -0.0976
 6245SOL    HW130194   1.551   1.622  13.888 -0.8912  2.4393  0.5071
 6245SOL    HW230195   1.417   1.579  13.835  0.1082  1.6855  1.1155
 6246SOL     OW30196   1.387   4.003   3.613  0.3393  0.4969 -0.1307
 6246SOL    HW130197   1.401   3.922   3.663  1.7149  0.8372  0.0298
 6246SOL    HW230198   1.467   4.029   3.568  0.8997  0.7679  1.0261
 6247SOL     OW30199   2.838   1.122  10.594  0.1507  0.3948 -0.4852
 6247SOL    HW130200   2.753   1.081  10.578  0.4585 -1.2129  2.0321
 6247SOL    HW230201   2.816   1.186  10.661 -0.1393  0.4044 -0.5912
 6248SOL     OW30202   3.323   3.843  12.255  0.4929 -0.6496  0.4873
 6248SOL    HW130203   3.317   3.888  12.339  1.4079  0.9583 -0.3115
 6248SOL    HW230204   3.409   3.879  12.232  0.4008 -0.1947  0.8497
 6249SOL     OW30205   0.057   0.079  16.329 -0.0373  0.2979  0.4139
 6249SOL    HW130206   0.075   4.710  16.312 -1.9850  0.2747 -1.5234
 6249SOL    HW230207   0.147   0.110  16.337  0.3814 -0.8470  0.0451
 6250SOL     OW30208   2.033   0.092   0.422 -0.3791  0.6385  0.1775
 6250SOL    HW130209   2.107   0.135   0.465  0.4684 -0.5234 -0.1199
 6250SOL    HW230210   2.045   4.721   0.432  0.5888  0.7965  0.4337
 6251SOL     OW30211   0.443   4.701   4.879 -0.1453  0.1710 -0.1353
 6251SOL    HW130212   0.386   0.049   4.907  1.0145  0.4143  1.5849
 6251SOL    HW230213   0.500   0.028   4.821  2.1023 -1.0248  1.0674
 6252SOL     OW30214   4.498   3.487   4.756  0.8135 -0.2919 -0.0892
 6252SOL    HW130215   4.484   3.483   4.661 -1.3812  0.1869  0.2013
 6252SOL    HW230216   4.558   3.561   4.760 -1.4125  1.4622  1.0461
 6253SOL     OW30217   2.815   0.001   6.621  0.1413 -0.8110 -0.0474
 6253SOL    HW130218   2.904   4.692   6.605  0.7791  1.0463 -0.2371
 6253SOL    HW230219   2.812   0.087   6.578 -0.9559  0.1484  1.9507
 6254SOL     OW30220   0.263   3.024   6.751  0.4922  0.4204  0.4238
 6254SOL    HW130221   0.276   3.068   6.834  0.8505  0.1587  0.5087
 6254SOL    HW230222   0.169   3.009   6.761  0.4712 -1.3121 -2.1547
 6255SOL     OW30223   1.913   1.469   3.333 -0.2710 -0.2096  0.0060
 6255SOL    HW130224   1.846   1.524   3.374 -0.0085 -0.8164  1.2498
 6255SOL    HW230225   1.984   1.519   3.373 -0.2593  0.1095 -0.4125
 6256SOL     OW30226   3.699   2.927   0.764  0.0851 -0.0963 -0.5219
 6256SOL    HW130227   3.771   2.980   0.733  2.5180 -1.7868  2.2200
 6256SOL    HW230228   3.638   2.915   0.691  0.9563  0.8917 -1.4027
 6257SOL     OW30229   3.288   2.828   8.395  0.0512 -0.2209 -0.0106
 6257SOL    HW130230   3.351   2.778   8.343  0.6946  0.9265 -0.3298
 6257SOL    HW230231   3.274   2.897   8.330  1.2412  1.0494  1.0688
 6258SOL     OW30232   0.542   4.595  16.351  0.0910 -0.1160  0.2974
 6258SOL    HW130233   0.601   4.644  16.409 -1.3331 -1.0949  2.5354
 6258SOL    HW230234   0.480   4.560  16.415  0.4381  1.3109  1.4127
 6259SOL     OW30235   3.613   0.267   2.013 -0.0126 -0.5143  0.0072
 6259SOL    HW130236   3.682   0.250   2.077  2.1843  0.1695 -2.2033
 6259SOL    HW230237   3.615   0.361   1.996  1.6333 -0.6057 -0.2903
 6260SOL     OW30238   3.849   2.988  16.049  0.3419  0.2893 -0.1532
 6260SOL    HW130239   3.835   3.023  15.961  1.4485 -0.2239 -0.5379
 6260SOL    HW230240   3.827   2.900  16.020 -1.7348  1.4110 -2.0217
 6261SOL     OW30241   4.721   3.491  11.382 -0.4387  0.4033 -0.0438
 6261SOL    HW130242   4.684   3.404  11.371  1.9085 -0.7407  1.1493
 6261SOL    HW230243   4.653   3.542  11.428  0.2162 -0.2866  1.6890
 6262SOL     OW30244   2.090   2.029  17.422 -0.3299  0.1631 -0.5360
 6262SOL    HW130245   2.077   2.111  17.374 -1.0232  0.6003  0.4013
 6262SOL    HW230246   2.059   2.043  17.511 -1.3578  1.3617 -1.0780
 6263SOL     OW30247   2.473   3.147  15.225 -0.0323  0.0148 -0.6256
 6263SOL    HW130248   2.514   3.060  15.224  0.5331  0.2613  2.7704
 6263SOL    HW230249   2.382   3.117  15.231  0.3638 -1.4120 -1.7139
 6264SOL     OW30250   2.000   2.548   6.422 -0.4173  0.1692  0.0701
 6264SOL    HW130251   1.954   2.548   6.338 -1.9394 -0.6613  0.8887
 6264SOL    HW230252   1.924   2.569   6.477  0.3074 -2.8780  2.2375
 6265SOL     OW30253   0.483   3.789  10.858 -0.7336  0.1789 -0.4495
 6265SOL    HW130254   0.574   3.818  10.861 -1.0631  1.0529  1.1234
 6265SOL    HW230255   0.498   3.694  10.865 -2.3383 -0.1643 -1.6106
 6266SOL     OW30256   0.800   4.236   6.302 -0.0611 -0.0264 -0.7506
 6266SOL    HW130257   0.886   4.257   6.266  0.7560 -0.5832  0.8467
 6266SOL    HW230258   0.774   4.324   6.327  1.8818  0.6954 -1.2727
 6267SOL     OW30259   3.620   3.434   2.500 -0.0521  0.0256  0.6016
 6267SOL    HW130260   3.683   3.506   2.509  1.5762 -1.3350 -0.0019
 6267SOL    HW230261   3.632   3.412   2.408 -0.3521 -2.6822  1.2205
 6268SOL     OW30262   3.712   1.612   8.094 -0.5930 -0.2638 -0.6051
 6268SOL    HW130263   3.637   1.598   8.150  0.0299  1.3996  0.6429
 6268SOL    HW230264   3.766   1.540   8.125 -0.4205  0.8115  1.5840
 6269SOL     OW30265   2.670   1.510  12.339  0.5837 -0.8997 -0.5331
 6269SOL    HW130266   2.645   1.555  12.420 -0.3325 -2.9409  0.3152
 6269SOL    HW230267   2.716   1.582  12.297  0.9696 -0.7528  0.1503
 6270SOL     OW30268   1.631   4.517   5.607  0.1075 -0.1613 -0.4150
 6270SOL    HW130269   1.582   4.596   5.583  0.5269  0.5412  1.0509
 6270SOL    HW230270   1.635   4.464   5.527  1.9030 -0.2407 -0.2685
 6271SOL     OW30271   3.777   4.019  10.699 -0.5204  0.4081  0.3525
 6271SOL    HW130272   3.785   4.012  10.794 -0.6732 -3.0480  0.1189
 6271SOL    HW230273   3.700   3.965  10.684 -0.3860  0.0265  1.0534
 6272SOL     OW30274   1.489   2.667   1.226 -0.1906 -0.1785  0.1048
 6272SOL    HW130275   1.406   2.621   1.237 -0.9382  1.0244 -0.5779
 6272SOL    HW230276   1.477   2.696   1.136  0.6482  4.1457  1.3740
 6273SOL     OW30277   3.696   3.407   1.840 -0.1495  0.0140  0.3183
 6273SOL    HW130278   3.709   3.312   1.847 -1.6794 -0.2262 -0.0226
 6273SOL    HW230279   3.609   3.420   1.878 -0.8735 -1.5458 -0.8013
 6274SOL     OW30280   1.544   2.829  15.158 -0.3697  0.3498  0.1019
 6274SOL    HW130281   1.513   2.914  15.187 -0.2634  0.5937 -0.4896
 6274SOL    HW230282   1.490   2.775  15.215  0.0974 -1.9179 -1.5506
 6275SOL     OW30283   2.530   0.637   7.686  0.1587 -0.3721 -0.3182
 6275SOL    HW130284   2.465   0.662   7.621 -0.3988 -1.8816 -0.3530
 6275SOL    HW230285   2.517   0.709   7.748  1.9916  1.3558 -1.9401
 6276SOL     OW30286   4.065   0.612   3.387 -0.3267 -0.6086 -0.0229
 6276SOL    HW130287   4.126   0.539   3.399  1.4446  0.9223  0.2099
 6276SOL    HW230288   3.988   0.557   3.370  0.2523 -1.4228 -0.0250
 6277SOL     OW30289   1.425   0.486   8.898 -0.1685  0.4276 -0.1112
 6277SOL    HW130290   1.358   0.514   8.961  0.2443  0.3088  0.3852
 6277SOL    HW230291   1.415   0.393   8.919  0.6589  0.5802  0.9601
 6278SOL     OW30292   2.571   2.328   5.364 -0.2406  0.3730  0.0377
 6278SOL    HW130293   2.641   2.357   5.304 -1.0138 -2.1774 -2.1064
 6278SOL    HW230294   2.603   2.239   5.381  0.4201  1.0371  2.3143
 6279SOL     OW30295   3.140   2.485   4.382  0.0292 -0.5218 -0.1791
 6279SOL    HW130296   3.113   2.474   4.291  1.4310  2.1403 -0.9202
 6279SOL    HW230297   3.174   2.400   4.409 -1.6480 -1.8172 -2.1579
 6280SOL     OW30298   1.232   4.355   1.605 -0.5864 -0.1108  0.7460
 6280SOL    HW130299   1.262   4.268   1.580 -1.9775 -0.5142  0.4958
 6280SOL    HW230300   1.139   4.352   1.581  0.1674  1.8960 -2.4583
 6281SOL     OW30301   3.267   3.849   6.036  0.0987 -0.6275  0.3095
 6281SOL    HW130302   3.275   3.945   6.040  1.1922 -0.7553  1.2362
 6281SOL    HW230303   3.198   3.836   6.101 -0.2752 -1.8362 -0.3478
 6282SOL     OW30304   4.392   3.050   8.625 -0.0868  0.2254 -0.6379
 6282SOL    HW130305   4.428   3.078   8.541  0.2848 -1.1497 -0.9266
 6282SOL    HW230306   4.308   3.096   8.627  0.2319  0.6429  2.8963
 6283SOL     OW30307   2.461   1.412   2.321  0.1849 -0.4691 -0.7081
 6283SOL    HW130308   2.499   1.440   2.237  1.5353  0.2534  0.1392
 6283SOL    HW230309   2.370   1.442   2.316  0.4176  0.5340  1.1387
 6284SOL     OW30310   2.101   0.274   4.345  0.3253 -0.5362 -0.0272
 6284SOL    HW130311   2.136   0.216   4.277  0.8694 -2.0263  1.5367
 6284SOL    HW230312   2.039   0.328   4.297  1.4419 -0.6332 -1.5700
 6285SOL     OW30313   2.267   4.128   8.881 -0.1295 -0.3879  0.3914
 6285SOL    HW130314   2.300   4.213   8.853  0.1071 -0.4074  0.6155
 6285SOL    HW230315   2.238   4.144   8.971 -0.4267  2.9733 -0.3090
 6286SOL     OW30316   4.092   4.398   8.178 -0.0295 -0.5414 -0.5006
 6286SOL    HW130317   4.005   4.373   8.146  0.9973 -3.0971 -1.2361
 6286SOL    HW230318   4.102   4.326   8.240  0.8817 -0.1560 -0.2120
 6287SOL     OW30319   1.539   3.829   1.057  0.4326 -0.0164  0.3040
 6287SOL    HW130320   1.489   3.854   0.980  0.3094  1.6735  0.9341
 6287SOL    HW230321   1.596   3.753   1.041  2.4688  1.3981  0.9145
 6288SOL     OW30322   3.998   2.109  11.473 -0.1353 -0.1828  0.0472
 6288SOL    HW130323   4.067   2.176  11.477  0.6986 -1.0235 -0.2753
 6288SOL    HW230324   3.941   2.150  11.539 -0.6106  0.7379 -0.9470
 6289SOL     OW30325   3.905   3.304   2.109 -0.2250 -0.7983 -0.2761
 6289SOL    HW130326   3.994   3.309   2.143 -0.0758 -1.3900 -0.5832
 6289SOL    HW230327   3.909   3.321   2.015  0.5022  0.2804 -0.0441
 6290SOL     OW30328   1.881   3.754   3.226  0.0503 -0.3817 -0.1474
 6290SOL    HW130329   1.977   3.755   3.229  0.0675  0.6135 -1.0771
 6290SOL    HW230330   1.851   3.711   3.307  1.5430  1.2101  1.2426
 6291SOL     OW30331   4.023   1.812   0.898 -0.6984 -0.5319  0.4862
 6291SOL    HW130332   4.078   1.869   0.952 -0.9566 -0.5066  0.7213
 6291SOL    HW230333   4.015   1.872   0.824  2.0741 -0.6856  0.0391
 6292SOL     OW30334   4.380   0.147  16.055 -0.4928  0.1679  0.4382
 6292SOL    HW130335   4.376   0.242  16.071 -0.2163  0.3834 -0.7927
 6292SOL    HW230336   4.434   0.134  15.977 -1.5051  0.1560 -0.2593
 6293SOL     OW30337   1.550   2.766   5.684  0.5813 -0.1562 -0.4462
 6293SOL    HW130338   1.572   2.695   5.745 -0.2621  0.6636  0.8055
 6293SOL    HW230339   1.626   2.774   5.626  0.6552 -0.6795 -0.4224
 6294SOL     OW30340   2.838   4.646   5.886 -0.6194  0.0534  0.2729
 6294SOL    HW130341   2.769   4.580   5.890  0.4960 -1.1876 -1.2944
 6294SOL    HW230342   2.803   4.714   5.945  0.4497  0.6665  0.2013
 6295SOL     OW30343   1.208   2.314   6.364  0.2481  0.1689 -0.4024
 6295SOL    HW130344   1.176   2.403   6.351 -0.7890 -0.0606  0.5970
 6295SOL    HW230345   1.234   2.298   6.274  1.3675 -1.7219  0.2564
 6296SOL     OW30346   3.569   0.938   7.987  0.1159  0.1911  0.0855
 6296SOL    HW130347   3.534   1.018   8.027 -1.2531 -0.6204  0.4965
 6296SOL    HW230348   3.526   0.949   7.902 -0.7680 -0.5224  0.4441
 6297SOL     OW30349   1.358   0.567   6.029 -0.4189 -0.2423  0.2112
 6297SOL    HW130350   1.316   0.484   6.054  0.4552 -0.6903  0.1957
 6297SOL    HW230351   1.381   0.546   5.938  0.0701 -0.2521  0.3385
 6298SOL     OW30352   2.439   1.505   5.487  0.0794 -0.3900 -0.1180
 6298SOL    HW130353   2.464   1.595   5.463  2.6546  0.0467  4.2221
 6298SOL    HW230354   2.374   1.480   5.422  0.5524 -5.1834  1.2823
 6299SOL     OW30355   3.626   4.585   7.833  0.3965  0.5656 -0.0370
 6299SOL    HW130356   3.666   4.537   7.761 -1.1979 -1.1605  0.2426
 6299SOL    HW230357   3.609   4.515   7.895  0.8826  1.0340  0.6319
 6300SOL     OW30358   0.249   3.325   4.209  0.0003  0.6225 -0.7101
 6300SOL    HW130359   0.328   3.371   4.237 -0.2450  1.1904 -0.9545
 6300SOL    HW230360   0.237   3.328   4.114  1.1189  0.6215 -0.8451
 6301SOL     OW30361   3.658   2.629  11.297  0.2747  0.1051  0.3898
 6301SOL    HW130362   3.654   2.534  11.303  0.4328  0.2054  2.1654
 6301SOL    HW230363   3.686   2.642  11.207  0.9050  1.7877  0.8238
 6302SOL     OW30364   3.683   0.430   8.143  0.0498  0.5987  0.2419
 6302SOL    HW130365   3.723   0.364   8.199 -1.2254  0.8799  1.5041
 6302SOL    HW230366   3.666   0.502   8.204 -1.8514  1.7506 -1.6110
 6303SOL     OW30367   0.415   1.506  17.277  0.0258  0.1754 -0.2443
 6303SOL    HW130368   0.454   1.431  17.231 -0.7616  0.6599 -1.6898
 6303SOL    HW230369   0.486   1.548  17.325  0.3603  0.3962 -0.9319
 6304SOL     OW30370   0.410   2.056   5.536  0.4042 -0.2894  0.1834
 6304SOL    HW130371   0.428   1.962   5.540 -1.7276 -0.7523 -1.3824
 6304SOL    HW230372   0.325   2.066   5.493  0.9042 -0.1816 -0.7630
 6305SOL     OW30373   0.162   0.017   2.334  0.3502  0.3352 -0.1389
 6305SOL    HW130374   0.187   4.692   2.255 -1.0020  0.9452 -0.9199
 6305SOL    HW230375   0.113   0.093   2.302  1.1560  0.4531 -1.0808
 6306SOL     OW30376   3.171   3.547  15.649  0.7090 -0.6952 -0.1646
 6306SOL    HW130377   3.090   3.507  15.682  0.5861 -2.1544 -2.2153
 6306SOL    HW230378   3.168   3.519  15.558  0.5100 -0.3678 -0.2580
 6307SOL     OW30379   0.847   1.130   3.282  0.6687  0.0800 -0.7584
 6307SOL    HW130380   0.886   1.213   3.253 -2.0745  1.1055 -1.5620
 6307SOL    HW230381   0.769   1.136   3.227  1.5562  1.2389 -1.9031
 6308SOL     OW30382   3.044   2.351   6.294 -0.2593  0.0866 -0.4396
 6308SOL    HW130383   3.017   2.414   6.228  0.3873 -0.8353 -1.5739
 6308SOL    HW230384   2.980   2.368   6.363  0.5328 -3.4002  1.1689
 6309SOL     OW30385   3.288   4.417  14.047  0.3430 -0.4267  0.2706
 6309SOL    HW130386   3.247   4.502  14.060  2.7442  0.9720 -1.3268
 6309SOL    HW230387   3.316   4.399  14.137 -1.9161 -0.5391  0.9550
 6310SOL     OW30388   1.760   1.723   2.896 -0.1416  0.0125 -0.0406
 6310SOL    HW130389   1.698   1.792   2.920 -1.8291 -1.8967  1.1413
 6310SOL    HW230390   1.791   1.700   2.984  0.0372 -0.5960 -0.2585
 6311SOL     OW30391   2.415   3.493   0.745  0.5844 -0.0280 -0.6739
 6311SOL    HW130392   2.400   3.438   0.669  1.9965 -0.8383 -0.3703
 6311SOL    HW230393   2.421   3.580   0.706 -0.0364 -0.0234 -0.7572
 6312SOL     OW30394   2.677   2.379   7.111  0.0170 -0.3721  0.0411
 6312SOL    HW130395   2.704   2.460   7.068  0.5681  1.0710  3.1380
 6312SOL    HW230396   2.761   2.353   7.150  0.4080  2.3526  0.9843
 6313SOL     OW30397   0.443   2.425  10.651  0.1261  0.1380  0.0260
 6313SOL    HW130398   0.522   2.374  10.632 -1.6357 -1.0255 -4.0771
 6313SOL    HW230399   0.435   2.494  10.585 -1.5888  2.2080  2.4159
 6314SOL     OW30400   4.429   1.445  11.598 -0.0406  0.0880  0.0104
 6314SOL    HW130401   4.457   1.382  11.664  1.4239  0.1518 -0.5382
 6314SOL    HW230402   4.356   1.489  11.641  1.1034  3.1547 -1.2066
 6315SOL     OW30403   0.509   2.179   7.571 -0.0005  0.2691 -0.2745
 6315SOL    HW130404   0.602   2.189   7.591 -0.1351  0.5558  0.2002
 6315SOL    HW230405   0.463   2.222   7.643 -1.4388  1.1663 -1.7334
 6316SOL     OW30406   2.886   3.643   4.140  0.2108  0.4400 -0.2885
 6316SOL    HW130407   2.890   3.674   4.231  0.6643  0.1115 -0.1978
 6316SOL    HW230408   2.959   3.581   4.132 -1.7274 -1.5415 -2.6132
 6317SOL     OW30409   2.178   4.415   8.013  0.0614 -0.0172  0.1734
 6317SOL    HW130410   2.172   4.322   7.995 -0.9438 -0.0303  0.5704
 6317SOL    HW230411   2.251   4.446   7.960  1.3120 -2.2828  0.5930
 6318SOL     OW30412   4.421   2.395   6.024 -0.3358  0.1415 -0.2752
 6318SOL    HW130413   4.426   2.319   6.082 -3.6910  1.0273  1.2385
 6318SOL    HW230414   4.411   2.353   5.939 -0.0858 -1.7562  0.6399
 6319SOL     OW30415   0.828   4.017   9.159  0.2799  0.2066 -0.1807
 6319SOL    HW130416   0.841   4.067   9.240  1.2702  1.9892 -1.4432
 6319SOL    HW230417   0.878   3.938   9.177 -0.3880 -0.6317 -2.0399
 6320SOL     OW30418   2.635   3.979  10.703 -0.8235 -0.5474 -0.9160
 6320SOL    HW130419   2.600   3.927  10.631  0.6354 -0.7142 -1.4925
 6320SOL    HW230420   2.719   4.022  10.685 -0.7292  0.2805  1.4962
 6321SOL     OW30421   1.516   0.164   1.413  0.0755 -0.3290 -0.6812
 6321SOL    HW130422   1.584   0.231   1.403 -1.7780  1.8148  0.8695
 6321SOL    HW230423   1.559   0.079   1.405 -0.1796 -0.2652 -2.5999
 6322SOL     OW30424   1.995   3.438   3.722 -0.1699 -0.2574 -0.1530
 6322SOL    HW130425   2.080   3.420   3.764 -0.2085  1.9398  0.9032
 6322SOL    HW230426   1.939   3.368   3.753 -0.7263  1.1287  1.9660
 6323SOL     OW30427   1.618   3.525   1.339 -0.1012  0.3300  0.4051
 6323SOL    HW130428   1.700   3.562   1.305  0.1394 -1.8530 -1.3662
 6323SOL    HW230429   1.617   3.541   1.434 -0.1704 -1.2254  0.6665
 6324SOL     OW30430   4.091   4.067   8.942  0.7206 -0.3474  0.0060
 6324SOL    HW130431   4.155   4.047   9.010  1.8381 -1.4848 -1.3865
 6324SOL    HW230432   4.071   4.160   8.951 -1.1336 -0.8359  1.1949
 6325SOL     OW30433   1.346   4.631  14.429 -0.0826  0.1709  0.5801
 6325SOL    HW130434   1.305   4.623  14.343 -1.5389 -0.9344  1.3711
 6325SOL    HW230435   1.431   4.588  14.418 -0.0717  0.0006  1.2916
 6326SOL     OW30436   4.246   4.152  17.168 -0.7337  0.1606  0.0907
 6326SOL    HW130437   4.323   4.207  17.185 -0.1258 -0.5665 -0.3041
 6326SOL    HW230438   4.239   4.183  17.078 -1.5090  1.3812  0.5695
 6327SOL     OW30439   2.082   1.650  17.507 -0.1329 -0.2104  0.7342
 6327SOL    HW130440   2.042   1.580  17.454  0.7881  0.8306 -1.3104
 6327SOL    HW230441   2.084   1.598  17.587  0.4291  0.7264  1.3178
 6328SOL     OW30442   0.541   0.879   4.865 -0.3026 -0.9367  0.7105
 6328SOL    HW130443   0.583   0.883   4.779  0.0135  0.1904  0.9211
 6328SOL    HW230444   0.576   0.799   4.906 -1.0649 -1.5052  0.2462
 6329SOL     OW30445   0.607   2.665   9.730  0.5110 -0.0228  0.2239
 6329SOL    HW130446   0.548   2.688   9.801  0.0071 -0.2161 -0.1334
 6329SOL    HW230447   0.566   2.591   9.687 -0.4064  1.6240 -1.7400
 6330SOL     OW30448   3.909   3.150  12.265  0.2176 -0.0180  0.2687
 6330SOL    HW130449   3.938   3.155  12.356  2.8642  0.9387 -0.6452
 6330SOL    HW230450   3.970   3.212  12.226  3.1031 -2.5190  0.7926
 6331SOL     OW30451   4.283   0.562   5.302 -0.2162 -0.3279  0.2775
 6331SOL    HW130452   4.334   0.481   5.292  0.6928  0.1062  1.3921
 6331SOL    HW230453   4.340   0.620   5.352 -2.6149  0.3193  2.2419
 6332SOL     OW30454   0.153   1.308  11.969 -0.2880  0.3600  0.2969
 6332SOL    HW130455   0.247   1.293  11.975 -0.4114 -0.3045  0.5899
 6332SOL    HW230456   0.119   1.244  12.031  0.6179 -0.6349 -0.2359
 6333SOL     OW30457   3.105   0.320   4.465 -0.2866  0.0403  0.2593
 6333SOL    HW130458   3.178   0.313   4.403 -0.7438  0.7041 -0.3505
 6333SOL    HW230459   3.120   0.380   4.538 -0.5444 -0.0337  0.3730
 6334SOL     OW30460   1.143   1.388   8.637 -0.7772 -0.5825 -0.2315
 6334SOL    HW130461   1.069   1.384   8.698 -1.0337  0.9893 -0.4436
 6334SOL    HW230462   1.189   1.468   8.662 -0.3848 -0.4007 -1.5252
 6335SOL     OW30463   0.257   3.982   3.021  0.4344 -0.1398 -0.9971
 6335SOL    HW130464   0.240   3.889   3.028 -0.5518  0.0229 -1.2985
 6335SOL    HW230465   0.176   4.025   3.048  1.3494  1.2182 -0.3949
 6336SOL     OW30466   4.188   1.067  14.309 -0.5038  0.6598 -0.3711
 6336SOL    HW130467   4.276   1.051  14.277 -0.4919 -2.4877  1.2292
 6336SOL    HW230468   4.140   0.987  14.286  2.4448 -1.0058 -0.6899
 6337SOL     OW30469   2.985   1.311  11.211  0.2039  0.3039  0.1086
 6337SOL    HW130470   2.986   1.259  11.131  1.9505  0.3325  0.1097
 6337SOL    HW230471   2.981   1.400  11.177 -1.0962  1.0849  2.2926
 6338SOL     OW30472   3.963   3.065   2.388 -0.3600  0.2944 -0.1233
 6338SOL    HW130473   3.932   3.149   2.423  0.4047  0.2476  0.6774
 6338SOL    HW230474   3.923   3.063   2.302  3.4024  2.1606 -1.9038
 6339SOL     OW30475   1.829   1.432   1.075  0.6182 -0.6685  0.9294
 6339SOL    HW130476   1.744   1.474   1.087  0.4861  0.3107 -3.5149
 6339SOL    HW230477   1.825   1.361   1.139 -0.1408  0.9462  2.6683
 6340SOL     OW30478   0.218   2.800   6.230 -0.4683 -0.0126  0.7124
 6340SOL    HW130479   0.193   2.803   6.323  0.1151  0.3937  0.8519
 6340SOL    HW230480   0.171   2.875   6.194 -1.4441 -1.3283 -0.7748
 6341SOL     OW30481   4.587   3.924   5.353 -0.0561  0.3202  0.5622
 6341SOL    HW130482   4.658   3.875   5.312 -0.4345  0.4552 -0.2596
 6341SOL    HW230483   4.528   3.852   5.374  0.9875 -0.9024 -0.6890
 6342SOL     OW30484   2.385   0.338   9.440 -0.2928 -0.7879  1.1369
 6342SOL    HW130485   2.413   0.381   9.360  0.1666 -0.8410  1.2727
 6342SOL    HW230486   2.429   0.391   9.506 -0.3840 -0.2841  0.7911
 6343SOL     OW30487   2.524   3.507   3.542 -0.4105  0.3154 -0.0801
 6343SOL    HW130488   2.598   3.567   3.533  0.5269 -0.8574 -0.3623
 6343SOL    HW230489   2.522   3.490   3.636  0.4022  0.5408 -0.0184
 6344SOL     OW30490   2.340   0.353  10.884  0.5256  0.2377  0.0177
 6344SOL    HW130491   2.373   0.407  10.813 -2.1109  0.6042 -0.9527
 6344SOL    HW230492   2.261   0.328  10.835  0.4197  0.1467  0.2357
 6345SOL     OW30493   0.253   0.316  16.465  0.1928  0.6241  0.2509
 6345SOL    HW130494   0.217   0.403  16.446 -2.3084 -0.7748 -1.5243
 6345SOL    HW230495   0.348   0.321  16.452  0.1857  2.1145  0.7875
 6346SOL     OW30496   1.505   2.010   9.138 -0.0338 -0.4010 -0.0689
 6346SOL    HW130497   1.420   1.968   9.148 -1.1958  1.0818 -3.5822
 6346SOL    HW230498   1.494   2.055   9.054  0.2298 -2.1284 -1.0195
 6347SOL     OW30499   2.045   3.020   4.290 -0.5813 -0.7354  0.4654
 6347SOL    HW130500   2.090   3.000   4.372  2.0285 -1.9414 -1.2800
 6347SOL    HW230501   1.981   3.086   4.315 -0.8597 -0.5201 -0.8264
 6348SOL     OW30502   2.267   3.896   2.766  0.3339 -0.7866  0.1065
 6348SOL    HW130503   2.346   3.949   2.754 -0.8947  0.7003 -1.4804
 6348SOL    HW230504   2.194   3.954   2.745  1.9116  2.1112  2.7587
 6349SOL     OW30505   2.360   0.704   7.480 -0.7856  0.2190  0.1263
 6349SOL    HW130506   2.358   0.788   7.435 -1.5883 -0.3269 -0.8782
 6349SOL    HW230507   2.393   0.644   7.412 -1.0793  0.7770 -0.5073
 6350SOL     OW30508   3.604   3.580   0.513  0.4494 -0.1495 -0.3435
 6350SOL    HW130509   3.692   3.549   0.531  0.3881  0.0728  0.3351
 6350SOL    HW230510   3.600   3.672   0.538 -2.6377 -0.4953  0.5054
 6351SOL     OW30511   3.117   2.202   6.556 -0.1442 -0.0689 -0.0361
 6351SOL    HW130512   3.106   2.179   6.463 -0.0861 -2.3603  0.5335
 6351SOL    HW230513   3.175   2.133   6.586  1.3655  0.1175 -2.5351
 6352SOL     OW30514   4.241   3.860  12.496 -0.0027 -0.3276  0.5981
 6352SOL    HW130515   4.236   3.773  12.537  0.2269 -0.5226  0.2123
 6352SOL    HW230516   4.196   3.839  12.414 -2.2204  3.6113  0.8116
 6353SOL     OW30517   1.255   0.804   7.262  0.2757 -0.5825  0.2368
 6353SOL    HW130518   1.290   0.823   7.175  0.1883 -0.4121  0.2399
 6353SOL    HW230519   1.342   0.786   7.300  1.0191  2.5255 -0.0097
 6354SOL     OW30520   3.709   4.708   6.892  0.2113  0.4811  0.2838
 6354SOL    HW130521   3.677   4.618   6.899 -0.0724  0.5554 -0.0328
 6354SOL    HW230522   3.673   4.711   6.804 -0.5082 -1.2756  0.5360
 6355SOL     OW30523   0.020   1.176  14.812 -0.2966 -0.2344 -0.2009
 6355SOL    HW130524   0.055   1.159  14.724 -1.0163 -1.6452 -0.2149
 6355SOL    HW230525   0.011   1.271  14.812  1.2418 -0.0848 -3.4434
 6356SOL     OW30526   1.779   0.388   6.174 -0.3602  0.1123 -0.4760
 6356SOL    HW130527   1.714   0.320   6.159  0.0622 -0.4414  0.1768
 6356SOL    HW230528   1.756   0.448   6.104  0.8738 -1.3411 -2.1366
 6357SOL     OW30529   3.133   3.754   0.066 -0.0762  0.1270 -0.0773
 6357SOL    HW130530   3.201   3.736   0.001  0.3493 -1.0512  0.6872
 6357SOL    HW230531   3.143   3.676   0.121  0.7119  0.0371 -0.3471
 6358SOL     OW30532   0.604   3.437   5.378 -0.1199  0.6121  0.1175
 6358SOL    HW130533   0.562   3.497   5.440 -0.9847 -0.8664  0.9660
 6358SOL    HW230534   0.674   3.413   5.440 -0.8427  0.7844  0.9993
 6359SOL     OW30535   0.342   4.097  16.252 -0.2296 -0.7830  0.2663
 6359SOL    HW130536   0.256   4.069  16.285 -0.2114  0.5196  1.4258
 6359SOL    HW230537   0.302   4.179  16.224 -0.3366 -0.5147  1.1848
 6360SOL     OW30538   2.509   1.058  12.363 -0.4599 -0.1781 -0.0614
 6360SOL    HW130539   2.487   1.147  12.335 -1.1247  0.1835  1.6144
 6360SOL    HW230540   2.431   1.048  12.417 -1.9811  2.7319 -1.6990
 6361SOL     OW30541   1.135   4.623   2.175  0.4984 -0.3160 -0.4049
 6361SOL    HW130542   1.049   4.589   2.153 -0.9380  3.1058 -0.1163
 6361SOL    HW230543   1.143   4.576   2.258  3.9151  1.8322  0.5093
 6362SOL     OW30544   0.923   0.132   4.451 -0.3135 -0.2529 -0.2288
 6362SOL    HW130545   0.979   0.202   4.485 -1.1555  0.5048 -0.4172
 6362SOL    HW230546   0.918   0.077   4.529 -0.6705 -2.3627 -1.7374
 6363SOL     OW30547   2.683   1.228   7.126 -0.2603  0.4215  0.2547
 6363SOL    HW130548   2.633   1.286   7.069 -0.1886  0.2304 -0.0023
 6363SOL    HW230549   2.735   1.171   7.068 -0.8871 -1.4170  1.5088
 6364SOL     OW30550   3.795   3.177   8.076  0.1263 -0.0960 -0.2381
 6364SOL    HW130551   3.832   3.115   8.013 -0.2454  0.3097 -0.8525
 6364SOL    HW230552   3.869   3.190   8.136 -0.4469 -0.1578  0.4882
 6365SOL     OW30553   0.221   4.616   2.714 -0.1851  0.3355 -0.7035
 6365SOL    HW130554   0.246   4.694   2.764 -1.0761  0.3034 -0.2031
 6365SOL    HW230555   0.206   4.555   2.787  2.0838  2.3996  1.5001
 6366SOL     OW30556   3.015   1.047   5.136  0.0590 -0.5276  0.3210
 6366SOL    HW130557   3.051   1.026   5.222 -0.0632 -0.1156  0.4692
 6366SOL    HW230558   3.009   0.962   5.092  2.8796 -0.9063  0.6583
 6367SOL     OW30559   0.153   3.767   5.738 -0.3298  0.5508 -0.1451
 6367SOL    HW130560   0.104   3.726   5.809  1.3473 -1.2563 -0.0365
 6367SOL    HW230561   0.114   3.728   5.659 -1.3561  0.3968  0.4414
 6368SOL     OW30562   0.603   2.901   2.460 -0.5569 -0.3465  0.1233
 6368SOL    HW130563   0.649   2.883   2.542  0.3892 -1.3520 -0.6112
 6368SOL    HW230564   0.605   2.815   2.417  2.8406  0.0404 -0.5072
 6369SOL     OW30565   1.255   2.504  16.251  0.9285 -0.1693 -0.5776
 6369SOL    HW130566   1.179   2.493  16.309  2.4059  0.3629  1.4470
 6369SOL    HW230567   1.289   2.588  16.281 -1.1247  0.8004 -0.9984
 6370SOL     OW30568   2.130   1.737   3.138  0.5385  0.0037 -0.2812
 6370SOL    HW130569   2.097   1.693   3.059 -2.0756  0.9709  0.2660
 6370SOL    HW230570   2.056   1.770   3.188  0.8070 -0.5060  0.4420
 6371SOL     OW30571   4.372   0.617   8.081 -0.3347  0.0201 -0.1367
 6371SOL    HW130572   4.409   0.532   8.057  1.2625  0.5525  0.4437
 6371SOL    HW230573   4.303   0.590   8.142 -1.5588  2.5911 -0.3961
 6372SOL     OW30574   3.157   2.273   3.485  0.1312 -0.5596 -0.7404
 6372SOL    HW130575   3.107   2.210   3.433  1.9488 -0.9514 -2.0348
 6372SOL    HW230576   3.090   2.319   3.535  1.0098  1.4679 -1.4089
 6373SOL     OW30577   3.898   3.115  10.821  0.1514  0.3732 -0.0475
 6373SOL    HW130578   3.892   3.026  10.786 -0.7782  0.9408 -1.3306
 6373SOL    HW230579   3.963   3.155  10.763  2.2895 -0.8759  1.4368
 6374SOL     OW30580   0.258   4.019   2.138 -0.1964 -0.0698  0.1889
 6374SOL    HW130581   0.336   3.965   2.121  0.9754  1.0484  2.0388
 6374SOL    HW230582   0.299   4.099   2.104 -1.1919 -0.1373 -1.1661
 6375SOL     OW30583   4.578   0.875   5.670  0.0767  0.3300 -0.2578
 6375SOL    HW130584   4.503   0.934   5.680  1.0134  1.4327  0.2537
 6375SOL    HW230585   4.624   0.916   5.597  0.1542 -0.6907 -0.7830
 6376SOL     OW30586   2.173   4.124   7.967  0.5104  0.0061 -0.9469
 6376SOL    HW130587   2.246   4.110   8.027 -1.2322 -1.8172  0.7339
 6376SOL    HW230588   2.100   4.079   8.008  1.1917 -0.2318  0.0101
 6377SOL     OW30589   4.356   0.301  12.313 -0.1053 -0.0452 -0.0273
 6377SOL    HW130590   4.417   0.277  12.243  1.5776  0.4847  1.2594
 6377SOL    HW230591   4.400   0.381  12.342 -1.2304  0.4541  0.3060
 6378SOL     OW30592   0.120   1.761  11.758  0.1888  0.4321  0.5482
 6378SOL    HW130593   0.110   1.695  11.689  1.2345 -0.7153  1.5118
 6378SOL    HW230594   0.148   1.714  11.836  0.4634  0.7332  0.6302
 6379SOL     OW30595   4.174   2.864  17.581 -0.4033  0.1164 -0.0505
 6379SOL    HW130596   4.200   2.905  17.663  0.4992 -1.0570  0.2516
 6379SOL    HW230597   4.109   2.794  17.596 -0.9043  0.4918 -0.4647
 6380SOL     OW30598   2.671   3.157  16.771  0.4568 -0.1706  0.3510
 6380SOL    HW130599   2.693   3.166  16.679  1.8782 -0.1891  0.6923
 6380SOL    HW230600   2.654   3.245  16.803 -0.0917 -1.2891  3.2225
 6381SOL     OW30601   4.539   4.001  10.786  0.0285  0.1641 -0.1279
 6381SOL    HW130602   4.445   4.012  10.801 -0.5216 -0.1600 -3.1609
 6381SOL    HW230603   4.534   3.990  10.691  0.4967 -2.0396  0.1015
 6382SOL     OW30604   0.937   1.289  12.573 -0.2908 -0.4905 -0.0335
 6382SOL    HW130605   1.006   1.352  12.551 -0.3852 -0.9739 -1.7367
 6382SOL    HW230606   0.876   1.303  12.500  0.2460 -0.1861 -0.4231
 6383SOL     OW30607   4.013   3.297   3.503 -0.8739  0.4120  0.5970
 6383SOL    HW130608   4.019   3.203   3.487  1.0447  0.9211 -1.6428
 6383SOL    HW230609   3.918   3.308   3.508 -0.6209  3.0914 -0.2547
 6384SOL     OW30610   1.102   1.771   9.285 -0.3690 -0.2289  0.1863
 6384SOL    HW130611   1.087   1.840   9.349  1.0305  0.6612 -0.4366
 6384SOL    HW230612   1.059   1.707   9.341 -2.4969  0.9430 -0.1145
 6385SOL     OW30613   1.997   1.986  17.000 -0.1224  0.1917 -0.1030
 6385SOL    HW130614   2.051   1.912  16.970 -0.6839 -0.5571  0.7340
 6385SOL    HW230615   1.977   1.972  17.093  1.1838  1.8675  0.4370
 6386SOL     OW30616   3.407   4.465   8.079 -0.0934 -0.2915 -0.3016
 6386SOL    HW130617   3.360   4.392   8.121 -0.1722  0.5013  0.9913
 6386SOL    HW230618   3.343   4.533   8.058  0.3994  0.3349  0.2321
 6387SOL     OW30619   2.061   4.119   9.902 -0.5676  0.8258  0.6959
 6387SOL    HW130620   2.090   4.049   9.961 -1.6658  1.4210  1.9186
 6387SOL    HW230621   2.102   4.194   9.943 -0.2066 -0.4592  2.6778
 6388SOL     OW30622   0.303   1.101   3.687  0.5365 -0.4223  0.0788
 6388SOL    HW130623   0.392   1.071   3.670  1.6702  2.3079  1.2768
 6388SOL    HW230624   0.255   1.073   3.609 -1.3620 -2.4936  1.9685
 6389SOL     OW30625   2.064   2.423   9.582 -0.2261 -0.0042 -0.1629
 6389SOL    HW130626   1.990   2.376   9.542 -1.6875 -1.0236  3.7184
 6389SOL    HW230627   2.016   2.494   9.626  1.5564  0.0783  1.6745
 6390SOL     OW30628   3.311   1.409   8.828 -0.0438  0.7580  0.5662
 6390SOL    HW130629   3.217   1.388   8.833 -0.7509  3.4939 -1.1243
 6390SOL    HW230630   3.313   1.504   8.838 -1.8763  0.7679  0.8934
 6391SOL     OW30631   3.886   1.977  13.530 -0.2555  0.5785  0.2078
 6391SOL    HW130632   3.826   1.911  13.564  0.0183 -0.3516 -1.1061
 6391SOL    HW230633   3.888   2.045  13.597  0.9331  2.3181 -1.5943
 6392SOL     OW30634   1.314   0.958  11.084 -0.4066 -0.2030  0.2324
 6392SOL    HW130635   1.242   0.956  11.147 -1.8790  0.6724 -1.4421
 6392SOL    HW230636   1.311   1.051  11.063  0.6397  0.6032  3.6489
 6393SOL     OW30637   2.721   4.076   8.217 -0.2148  0.0279  0.5663
 6393SOL    HW130638   2.689   3.987   8.201  0.2924 -0.3298  1.4692
 6393SOL    HW230639   2.793   4.061   8.279  0.9865 -1.4555 -1.1534
 6394SOL     OW30640   1.397   2.932   5.871  0.0246  0.3837  0.4752
 6394SOL    HW130641   1.472   2.891   5.828 -0.7812 -0.1158 -0.4624
 6394SOL    HW230642   1.420   3.025   5.861  2.4586 -0.1016  1.5821
 6395SOL     OW30643   3.015   2.662   4.839  0.2245 -0.3686 -0.4409
 6395SOL    HW130644   3.056   2.747   4.857 -0.0227  0.0553 -1.8939
 6395SOL    HW230645   3.021   2.662   4.743 -0.6411 -1.6595 -0.4861
 6396SOL     OW30646   0.516   3.561   6.176  0.0611  0.1121  0.0339
 6396SOL    HW130647   0.514   3.600   6.089  0.6555 -0.2656 -0.1453
 6396SOL    HW230648   0.452   3.617   6.220 -1.2189  0.8371 -2.8210
 6397SOL     OW30649   2.843   3.257   1.443  0.1830  0.0738 -0.0948
 6397SOL    HW130650   2.813   3.210   1.521  1.0121 -1.3736 -0.6456
 6397SOL    HW230651   2.886   3.336   1.475  1.1100 -1.0059  1.3399
 6398SOL     OW30652   3.546   2.988   5.676  0.8460  0.2419  0.2905
 6398SOL    HW130653   3.601   2.983   5.754 -1.2968 -0.1186  1.7905
 6398SOL    HW230654   3.587   3.055   5.621 -0.1025  0.5085 -0.0925
 6399SOL     OW30655   4.625   1.367   0.403  0.5628 -0.0505  0.0946
 6399SOL    HW130656   4.574   1.385   0.324  0.2616 -2.4130 -0.2432
 6399SOL    HW230657   4.680   1.445   0.407 -0.8496  0.9579 -0.3464
 6400SOL     OW30658   4.476   2.432   3.500 -0.2279  0.3583 -0.4106
 6400SOL    HW130659   4.525   2.373   3.442 -0.7366 -1.0818  0.6142
 6400SOL    HW230660   4.471   2.384   3.583  0.5161 -1.6166 -1.5076
 6401SOL     OW30661   4.409   1.693   4.361  0.0629  0.2829  0.1957
 6401SOL    HW130662   4.324   1.694   4.406 -1.3431  0.8247 -2.4711
 6401SOL    HW230663   4.387   1.628   4.295  0.8507 -1.6333  1.8266
 6402SOL     OW30664   3.765   2.951  14.164 -0.2105 -0.0686 -0.2368
 6402SOL    HW130665   3.727   3.025  14.117  0.2795  0.4043  0.1136
 6402SOL    HW230666   3.820   2.991  14.230  0.2457 -0.5323 -0.3305
 6403SOL     OW30667   2.006   2.604   8.060 -0.0397  0.7494  0.0107
 6403SOL    HW130668   1.962   2.586   7.977  1.5124 -1.9963 -0.2077
 6403SOL    HW230669   1.942   2.660   8.103 -0.1013 -0.3348  1.3128
 6404SOL     OW30670   1.645   1.205  11.520 -0.2668  0.2456 -0.2294
 6404SOL    HW130671   1.724   1.151  11.534 -0.1438  0.0518 -1.6772
 6404SOL    HW230672   1.595   1.138  11.475  2.1297 -0.7745 -1.4011
 6405SOL     OW30673   1.645   3.777  16.692 -0.1492 -0.0767  0.0528
 6405SOL    HW130674   1.735   3.806  16.707 -0.3692  0.7418 -0.2254
 6405SOL    HW230675   1.657   3.682  16.686 -1.6402 -0.3864  2.1430
 6406SOL     OW30676   3.658   0.716   8.211  0.0765  0.1361 -0.3629
 6406SOL    HW130677   3.572   0.681   8.234 -0.3238  0.5523 -1.2155
 6406SOL    HW230678   3.614   0.764   8.141 -1.3263 -0.8434 -0.1672
 6407SOL     OW30679   4.700   2.041  11.432  0.2250  0.0785 -0.3533
 6407SOL    HW130680   4.634   2.012  11.496  2.9738 -2.3630  1.4091
 6407SOL    HW230681   0.055   2.021  11.485  0.5587 -1.5729 -1.4733
 6408SOL     OW30682   4.722   2.619   1.909  0.0750  0.1517  0.0202
 6408SOL    HW130683   0.000   2.642   2.002 -1.3208  0.2615  0.0201
 6408SOL    HW230684   4.681   2.532   1.914  0.6014 -0.1352 -0.6482
 6409SOL     OW30685   0.081   3.078   2.711  0.2751 -0.2548 -0.0393
 6409SOL    HW130686   0.030   3.041   2.639  1.9996 -1.4673 -0.6416
 6409SOL    HW230687   0.168   3.056   2.676  0.7187  0.3700  0.6672
 6410SOL     OW30688   0.994   0.481   5.521 -0.3214 -0.1299  0.0569
 6410SOL    HW130689   1.026   0.509   5.606  2.8436 -1.1765 -0.7905
 6410SOL    HW230690   1.078   0.448   5.490 -0.9586 -1.3427 -0.4002
 6411SOL     OW30691   3.782   3.908   4.792  0.1921 -0.2415  0.2866
 6411SOL    HW130692   3.826   3.905   4.877  0.9221 -0.1991 -0.0907
 6411SOL    HW230693   3.784   4.002   4.773  1.6616 -0.3461 -0.0847
 6412SOL     OW30694   1.823   4.125   1.952  0.2934 -0.0429 -0.3361
 6412SOL    HW130695   1.733   4.107   1.924  0.3209  0.6353 -0.8443
 6412SOL    HW230696   1.855   4.034   1.947  1.4451  0.3721 -0.4107
 6413SOL     OW30697   3.902   1.162   4.083  0.6009  0.1744  0.3267
 6413SOL    HW130698   3.837   1.146   4.014 -0.1209 -1.0331  1.2913
 6413SOL    HW230699   3.962   1.088   4.074 -0.3978 -0.7278  0.9711
 6414SOL     OW30700   0.784   1.201  10.762 -0.0416 -0.1890  0.2667
 6414SOL    HW130701   0.742   1.147  10.829  0.8767  0.7532  1.5930
 6414SOL    HW230702   0.721   1.272  10.752 -0.9849 -1.1570 -0.7052
 6415SOL     OW30703   4.409   3.147   3.442  0.2718  0.0947  0.1952
 6415SOL    HW130704   4.472   3.187   3.381 -1.6821  1.1923 -1.0961
 6415SOL    HW230705   4.334   3.148   3.383 -1.5437  0.7002  2.5038
 6416SOL     OW30706   2.663   0.226   6.481 -0.1421  0.4335  0.3421
 6416SOL    HW130707   2.618   0.284   6.542 -0.5668 -0.0983  0.5392
 6416SOL    HW230708   2.756   0.243   6.496  0.1181  0.1551 -0.9745
 6417SOL     OW30709   1.871   3.648   7.143  0.5140  0.0194 -0.1283
 6417SOL    HW130710   1.856   3.569   7.195 -0.8947  0.3726 -0.0167
 6417SOL    HW230711   1.869   3.611   7.055  0.6020 -0.1700 -0.0507
 6418SOL     OW30712   3.600   0.879   3.862  0.1000  0.5819 -0.0765
 6418SOL    HW130713   3.642   0.847   3.782 -1.9472  0.0159 -0.9314
 6418SOL    HW230714   3.657   0.952   3.888 -1.2839  2.0456 -1.0767
 6419SOL     OW30715   0.957   0.711   3.384  0.1635 -0.0998  0.3759
 6419SOL    HW130716   0.961   0.807   3.391 -0.1383  0.0229 -1.0104
 6419SOL    HW230717   0.864   0.703   3.405 -0.2008  2.0210 -0.3913
 6420SOL     OW30718   4.198   0.866  14.075 -0.1306  0.9051  0.0568
 6420SOL    HW130719   4.198   0.949  14.027  0.5356  0.4742 -0.6626
 6420SOL    HW230720   4.241   0.806  14.015  1.7377  2.3736 -0.0837
 6421SOL     OW30721   3.619   0.668   4.396 -0.2236 -0.6379  0.5149
 6421SOL    HW130722   3.692   0.608   4.408  2.0900  1.9702 -0.6523
 6421SOL    HW230723   3.615   0.670   4.300 -0.4837 -1.8503  0.5026
 6422SOL     OW30724   4.298   2.003   3.485 -0.1951 -0.0795 -0.0089
 6422SOL    HW130725   4.327   2.086   3.523  2.9090 -1.2688  0.2300
 6422SOL    HW230726   4.310   1.933   3.549  1.8906  0.9384  0.7027
 6423SOL     OW30727   2.257   1.603  11.907 -0.0902  0.2455 -0.3229
 6423SOL    HW130728   2.234   1.512  11.889  0.9212 -0.0765  0.0033
 6423SOL    HW230729   2.287   1.621  11.818  2.3789 -0.8566  0.2955
 6424SOL     OW30730   4.310   3.513  13.151 -0.3603  0.0427 -0.2985
 6424SOL    HW130731   4.355   3.482  13.072 -1.7332  1.5119 -1.6682
 6424SOL    HW230732   4.232   3.557  13.115 -0.4469  1.3099  1.4913
 6425SOL     OW30733   2.491   1.759   2.944  0.5764  0.2359 -0.4583
 6425SOL    HW130734   2.454   1.730   2.861  1.4833 -0.6581 -0.5421
 6425SOL    HW230735   2.561   1.695   2.942 -1.1901 -1.6612 -1.6386
 6426SOL     OW30736   4.504   3.840   1.262 -0.4403 -0.3616  0.3862
 6426SOL    HW130737   4.417   3.807   1.244  0.2783 -1.6417 -0.7340
 6426SOL    HW230738   4.521   3.827   1.356 -0.6124  0.0723  0.4789
 6427SOL     OW30739   2.835   1.696   0.739 -0.0524  0.0476  0.4172
 6427SOL    HW130740   2.786   1.624   0.779 -0.2089  0.4325  0.9186
 6427SOL    HW230741   2.769   1.751   0.697  1.5908  1.1558 -0.7097
 6428SOL     OW30742   1.428   0.764   2.913 -0.8752  0.6550 -0.1870
 6428SOL    HW130743   1.352   0.723   2.871 -1.0584 -0.6323  1.3931
 6428SOL    HW230744   1.400   0.826   2.981  1.5091  1.9870 -0.4172
 6429SOL     OW30745   1.287   4.458  12.042  0.1695 -0.5110 -0.9739
 6429SOL    HW130746   1.336   4.476  12.122 -0.8306 -2.4729  0.0840
 6429SOL    HW230747   1.210   4.410  12.072 -0.2751  0.9394  0.1795
 6430SOL     OW30748   4.273   1.111   7.795  0.5538  0.0741 -0.1922
 6430SOL    HW130749   4.207   1.086   7.731  1.9852 -0.3698 -1.5167
 6430SOL    HW230750   4.244   1.065   7.874 -1.5483  1.5666 -0.1121
 6431SOL     OW30751   0.690   4.234   8.297 -0.3832 -0.2322  0.2356
 6431SOL    HW130752   0.716   4.235   8.389 -1.1496 -0.5182  0.4544
 6431SOL    HW230753   0.774   4.243   8.251  0.2135  0.3331  1.4360
 6432SOL     OW30754   2.717   2.638   1.241 -0.0232  0.4423 -0.7613
 6432SOL    HW130755   2.664   2.691   1.182  1.6068  0.3236 -2.3397
 6432SOL    HW230756   2.791   2.608   1.188  0.8532  3.5241 -1.2815
 6433SOL     OW30757   4.299   0.938  16.475  0.4372 -0.6253 -0.2727
 6433SOL    HW130758   4.309   0.844  16.485  2.3813 -0.3662  0.3988
 6433SOL    HW230759   4.222   0.957  16.527 -0.2611 -0.9105 -1.2030
 6434SOL     OW30760   1.632   1.177   2.331 -0.6897 -0.6077 -0.1833
 6434SOL    HW130761   1.609   1.242   2.397 -0.7693 -0.0958 -0.7130
 6434SOL    HW230762   1.639   1.225   2.249  0.6477 -1.2484 -0.4380
 6435SOL     OW30763   4.526   4.371   3.853  0.1069 -0.3944  0.0270
 6435SOL    HW130764   4.554   4.404   3.768 -1.5661  1.2346  0.1026
 6435SOL    HW230765   4.581   4.432   3.904  0.8608  0.9501 -2.3842
 6436SOL     OW30766   4.135   2.041   6.061  0.0612 -0.2463  0.2688
 6436SOL    HW130767   4.109   2.053   6.152 -0.7316 -1.6642  0.2191
 6436SOL    HW230768   4.051   2.045   6.015  1.1784 -1.6303 -1.8846
 6437SOL     OW30769   1.679   2.433   8.333 -0.3524  0.6276 -0.4493
 6437SOL    HW130770   1.739   2.359   8.327  1.0030  1.6868  0.0556
 6437SOL    HW230771   1.650   2.440   8.242  0.2330  1.9231 -0.5327
 6438SOL     OW30772   2.252   3.740   7.819 -0.1515 -0.2225 -0.4407
 6438SOL    HW130773   2.196   3.711   7.891  0.9622 -0.3804  0.3738
 6438SOL    HW230774   2.198   3.700   7.751 -1.2977  0.3271  0.1544
 6439SOL     OW30775   0.204   2.980   3.898  0.3206  0.6717  0.5153
 6439SOL    HW130776   0.298   2.985   3.883  0.2623  1.8202  0.5464
 6439SOL    HW230777   0.197   2.900   3.950  0.2830  0.6624  0.4954
 6440SOL     OW30778   3.508   0.253   4.497  0.2819 -0.0916 -0.0641
 6440SOL    HW130779   3.436   0.272   4.437  0.3389 -0.3063 -0.2003
 6440SOL    HW230780   3.513   0.338   4.541 -3.5707  0.3383 -0.4276
 6441SOL     OW30781   1.747   1.437   5.053  0.5024  0.4456  0.4613
 6441SOL    HW130782   1.665   1.455   5.006  0.0247 -0.8945  0.7840
 6441SOL    HW230783   1.813   1.460   4.988  1.0046 -0.4549  0.6469
 6442SOL     OW30784   3.064   1.297   3.150 -0.0538  0.2394 -0.6802
 6442SOL    HW130785   3.137   1.236   3.150  0.1206  0.4386 -0.1479
 6442SOL    HW230786   3.050   1.325   3.060  0.4440 -0.3743 -0.9464
 6443SOL     OW30787   0.122   3.439   8.226 -0.1231 -0.4058 -0.2505
 6443SOL    HW130788   0.189   3.402   8.169 -1.8587 -1.0568 -1.8450
 6443SOL    HW230789   0.142   3.533   8.222 -0.8824 -0.0963  3.1994
 6444SOL     OW30790   3.217   3.518   0.214 -0.5254 -0.7410  0.1057
 6444SOL    HW130791   3.303   3.493   0.248 -0.1225 -0.3192 -0.5905
 6444SOL    HW230792   3.170   3.540   0.294 -0.8913  0.2200 -0.3727
 6445SOL     OW30793   1.001   3.782   4.355  0.1978  0.3164  0.1657
 6445SOL    HW130794   0.950   3.818   4.282  0.7966  0.8355  0.0092
 6445SOL    HW230795   1.084   3.790   4.309  1.3695  1.6536  2.4884
 6446SOL     OW30796   1.581   0.262   5.349  0.4559 -0.0671 -1.0716
 6446SOL    HW130797   1.668   0.241   5.316  1.1893  0.0138  0.7927
 6446SOL    HW230798   1.549   0.295   5.265 -1.7957  3.0920  1.0398
 6447SOL     OW30799   3.629   1.039  11.509  0.3952 -0.3514  0.7610
 6447SOL    HW130800   3.643   1.014  11.417 -1.2466  1.3460  0.0411
 6447SOL    HW230801   3.600   0.950  11.529 -3.4298  0.5676 -0.7513
 6448SOL     OW30802   3.269   3.219   6.809  0.0358  0.8241  0.3756
 6448SOL    HW130803   3.195   3.245   6.755 -0.2553  0.5664  0.6501
 6448SOL    HW230804   3.282   3.296   6.864 -2.1459  0.1702  1.8043
 6449SOL     OW30805   4.170   3.296  13.959 -0.1657  0.5013 -0.7017
 6449SOL    HW130806   4.250   3.346  13.973  0.5587 -0.8337 -0.1005
 6449SOL    HW230807   4.163   3.312  13.865 -0.7652  2.7393 -0.2612
 6450SOL     OW30808   3.902   1.189   4.839  0.0094 -0.4886  0.3255
 6450SOL    HW130809   3.877   1.275   4.807 -0.7706 -0.8643 -0.0588
 6450SOL    HW230810   3.921   1.156   4.751  1.8863 -0.2823  0.6517
 6451SOL     OW30811   0.075   2.255   7.565  0.3374 -0.3141 -0.0162
 6451SOL    HW130812   0.109   2.339   7.595  1.0584 -0.3520 -0.7339
 6451SOL    HW230813   4.704   2.273   7.560  0.9002  2.2038 -1.6336
 6452SOL     OW30814   2.129   2.707  12.342  0.4775  0.0868  0.4089
 6452SOL    HW130815   2.042   2.739  12.316  0.2262 -0.7449  0.2417
 6452SOL    HW230816   2.126   2.614  12.364 -1.1707  0.0365 -0.0130
 6453SOL     OW30817   1.951   3.313   4.601 -0.5371  0.1237 -0.2865
 6453SOL    HW130818   1.874   3.301   4.657  0.5490 -1.9269  0.7693
 6453SOL    HW230819   1.980   3.401   4.625  1.7852 -0.2939 -1.5952
 6454SOL     OW30820   4.694   1.876   1.886  0.0228  0.0934  0.2843
 6454SOL    HW130821   0.043   1.895   1.947 -0.0588 -0.9040  0.6909
 6454SOL    HW230822   4.697   1.780   1.880 -0.8830  0.2101 -1.8916
 6455SOL     OW30823   3.181   0.545   4.669  0.4176 -0.0302 -0.1986
 6455SOL    HW130824   3.180   0.568   4.762 -0.9553  1.3267 -0.5477
 6455SOL    HW230825   3.192   0.629   4.625  0.5848 -0.6696 -1.3608
 6456SOL     OW30826   1.522   2.923   3.629  0.0142  0.8922  0.0641
 6456SOL    HW130827   1.506   2.960   3.542 -4.1059 -0.1152  0.3906
 6456SOL    HW230828   1.616   2.903   3.633  0.3055  2.2514  0.1705
 6457SOL     OW30829   0.572   1.824   4.435  0.1450 -0.1874  0.6281
 6457SOL    HW130830   0.530   1.826   4.521  2.2976 -1.6739  1.7268
 6457SOL    HW230831   0.643   1.888   4.430  0.9209 -1.1844 -1.2289
 6458SOL     OW30832   2.241   3.194   5.984  0.7547  0.3349 -0.6022
 6458SOL    HW130833   2.281   3.107   5.989 -1.4343 -0.7325 -1.8554
 6458SOL    HW230834   2.265   3.241   6.064 -1.8849  0.5722  0.0392
 6459SOL     OW30835   2.122   1.753   9.432 -0.6263  0.4365  0.0786
 6459SOL    HW130836   2.163   1.839   9.419  0.7451 -0.7375 -3.2282
 6459SOL    HW230837   2.204   1.704   9.442 -1.4490 -1.4346 -2.2788
 6460SOL     OW30838   1.620   0.486   9.180  0.2661  0.0047 -0.2187
 6460SOL    HW130839   1.563   0.546   9.228  0.3948 -0.7133  0.8323
 6460SOL    HW230840   1.558   0.450   9.116 -0.1046  1.3399 -0.6049
 6461SOL     OW30841   4.255   1.480  13.736 -0.9888  0.1621  0.3322
 6461SOL    HW130842   4.184   1.497  13.797 -3.7208 -3.0102 -1.9694
 6461SOL    HW230843   4.288   1.396  13.765  2.1881  1.2760 -0.0237
 6462SOL     OW30844   4.009   2.814   4.835  0.0567 -0.0903 -0.0794
 6462SOL    HW130845   3.918   2.789   4.820 -0.1839  0.9129 -0.2858
 6462SOL    HW230846   4.023   2.899   4.794  0.4476 -0.4597 -0.7064
 6463SOL     OW30847   4.538   1.146   7.809  0.4030 -0.3090  0.3958
 6463SOL    HW130848   4.572   1.074   7.755  1.2417 -1.0589  1.9195
 6463SOL    HW230849   4.444   1.132   7.797  0.6404 -0.2775 -1.4831
 6464SOL     OW30850   0.991   0.278   0.988  0.6081  0.6336 -0.4680
 6464SOL    HW130851   1.081   0.246   0.991 -0.2201 -1.5116  1.6263
 6464SOL    HW230852   0.972   0.295   1.080 -0.1896  3.4645 -1.1579
 6465SOL     OW30853   4.540   3.643  13.457 -0.2844 -0.3344  0.5157
 6465SOL    HW130854   4.453   3.624  13.421 -0.6192  1.7440  0.2375
 6465SOL    HW230855   4.580   3.657  13.371 -3.4882 -0.7682 -1.0641
 6466SOL     OW30856   2.341   1.888   3.126  0.2907  0.0444  0.1723
 6466SOL    HW130857   2.399   1.843   3.065  1.1185 -1.2601  1.9508
 6466SOL    HW230858   2.266   1.829   3.134  0.0426  0.6468  2.4932
 6467SOL     OW30859   2.499   1.774   6.091 -0.0819 -0.3414 -0.3498
 6467SOL    HW130860   2.468   1.862   6.111  0.1359 -0.7644  1.8527
 6467SOL    HW230861   2.568   1.763   6.156  0.7682  2.5199 -0.7876
 6468SOL     OW30862   0.345   2.799   0.251 -0.2618 -0.0159  0.1671
 6468SOL    HW130863   0.267   2.835   0.294 -0.9293 -0.6324 -0.5347
 6468SOL    HW230864   0.402   2.801   0.328  0.2959  1.1730 -0.2726
 6469SOL     OW30865   0.967   0.678  10.811 -0.0990 -0.1121 -0.5505
 6469SOL    HW130866   1.052   0.717  10.831  0.0702 -1.1332  0.7205
 6469SOL    HW230867   0.939   0.641  10.895  3.2609 -0.9578  0.1887
 6470SOL     OW30868   3.363   1.607   0.064 -0.7126  0.5467 -0.1030
 6470SOL    HW130869   3.289   1.570   0.111  0.1305  0.0683  0.8368
 6470SOL    HW230870   3.413   1.529   0.039 -2.4826 -1.0580  1.4189
 6471SOL     OW30871   3.687   1.945  15.484  0.3422  0.3960 -0.4416
 6471SOL    HW130872   3.742   1.877  15.445  0.0669 -1.1239  1.8154
 6471SOL    HW230873   3.599   1.911  15.467  0.7408 -2.2770  2.6666
 6472SOL     OW30874   1.557   4.502   5.202  0.4212 -0.2051 -0.1964
 6472SOL    HW130875   1.553   4.414   5.165  0.2950  0.0123 -0.7027
 6472SOL    HW230876   1.613   4.487   5.278 -1.0907 -0.9896  0.7371
 6473SOL     OW30877   2.619   0.204   0.624 -0.0785  0.3825  0.0150
 6473SOL    HW130878   2.523   0.204   0.613 -0.0238  0.8935 -0.4418
 6473SOL    HW230879   2.648   0.186   0.534 -1.9925  1.0719 -0.7530
 6474SOL     OW30880   0.466   0.063   8.897  0.0812  0.3696 -0.3465
 6474SOL    HW130881   0.407   0.011   8.841  1.6622 -0.8899 -0.8495
 6474SOL    HW230882   0.539   0.095   8.845  1.3268 -0.9794  0.5756
 6475SOL     OW30883   1.984   0.659   6.762  0.3787 -0.4162  0.0852
 6475SOL    HW130884   2.039   0.734   6.784 -1.4497  0.9393  0.0430
 6475SOL    HW230885   1.959   0.646   6.854 -0.9966 -0.6878 -0.3354
 6476SOL     OW30886   3.888   3.413   3.191 -0.1183 -0.5092 -0.2485
 6476SOL    HW130887   3.860   3.321   3.191  2.0145 -1.1728 -0.5932
 6476SOL    HW230888   3.984   3.409   3.197  0.0107  1.4541 -0.9506
 6477SOL     OW30889   1.407   4.533   9.147  0.3634 -0.0045 -0.3384
 6477SOL    HW130890   1.353   4.587   9.090 -1.0387 -1.3755 -0.3041
 6477SOL    HW230891   1.468   4.602   9.174  0.0856 -0.6551  1.9849
 6478SOL     OW30892   2.542   1.085   1.015 -0.1595 -0.0960  0.8873
 6478SOL    HW130893   2.537   1.003   0.964  2.9945  1.2512 -1.6357
 6478SOL    HW230894   2.592   1.147   0.962 -1.1659 -1.1944 -1.3375
 6479SOL     OW30895   1.075   1.170   8.228  0.3823 -0.4664  0.0087
 6479SOL    HW130896   1.056   1.205   8.141  1.0241 -2.3139 -0.8963
 6479SOL    HW230897   1.047   1.247   8.276 -0.8932 -0.9966  0.1224
 6480SOL     OW30898   0.199   1.218  13.527 -0.6690  0.1436  0.8809
 6480SOL    HW130899   0.177   1.276  13.600 -1.2861  1.4539 -0.3498
 6480SOL    HW230900   0.170   1.270  13.451  3.9996  2.7693  0.9044
 6481SOL     OW30901   4.095   1.838  10.296 -0.1999  0.4586 -0.6707
 6481SOL    HW130902   4.155   1.776  10.338 -1.6293  0.9853  2.1105
 6481SOL    HW230903   4.014   1.787  10.292  1.4820 -2.1732 -1.4756
 6482SOL     OW30904   3.026   2.456   2.968 -0.6638  0.0795 -0.3044
 6482SOL    HW130905   3.061   2.397   3.035  1.7166  0.4518 -1.2112
 6482SOL    HW230906   2.959   2.399   2.930 -0.7583 -1.5115  2.2193
 6483SOL     OW30907   3.282   1.358  14.437 -0.3649  0.1082 -0.3340
 6483SOL    HW130908   3.236   1.325  14.360 -0.3777  0.4438 -0.4718
 6483SOL    HW230909   3.275   1.290  14.503  0.3397 -1.4185 -1.8417
 6484SOL     OW30910   1.725   3.557  14.920 -0.2387 -0.4616 -0.0620
 6484SOL    HW130911   1.760   3.494  14.983 -0.6008  0.7778  1.3704
 6484SOL    HW230912   1.691   3.618  14.985 -1.7963 -2.4046  0.9502
 6485SOL     OW30913   2.417   1.867   9.492  0.2655 -0.2716  0.4064
 6485SOL    HW130914   2.431   1.885   9.585 -1.4756 -1.1709  0.8420
 6485SOL    HW230915   2.405   1.772   9.489  0.8197 -0.4631  3.4601
 6486SOL     OW30916   1.332   4.414   4.636 -0.0170 -0.4661  0.5862
 6486SOL    HW130917   1.274   4.436   4.563  1.2206 -0.2190 -0.3349
 6486SOL    HW230918   1.405   4.381   4.584 -0.0619  2.1668 -1.1580
 6487SOL     OW30919   1.092   0.910  11.969 -0.5115 -0.5552  0.0113
 6487SOL    HW130920   1.121   0.955  11.889  0.8747  1.5485  1.7173
 6487SOL    HW230921   1.152   0.836  11.970 -0.6805 -0.7309 -2.2188
 6488SOL     OW30922   3.599   1.266  13.858 -0.2103 -0.2326 -0.5759
 6488SOL    HW130923   3.683   1.291  13.818  2.1890 -0.1629  4.4180
 6488SOL    HW230924   3.598   1.329  13.930  1.5281  0.1895 -0.9101
 6489SOL     OW30925   3.067   1.173  10.483 -0.0834 -0.3752 -0.3404
 6489SOL    HW130926   2.973   1.167  10.500 -0.2958  0.5691 -1.1435
 6489SOL    HW230927   3.097   1.159  10.573 -0.3623 -0.1668 -0.2168
 6490SOL     OW30928   4.563   0.266   1.281  0.5216 -0.0372 -0.6587
 6490SOL    HW130929   4.549   0.343   1.227  0.5790  0.6145  0.2576
 6490SOL    HW230930   4.585   0.196   1.219  0.1939  1.3497 -2.3318
 6491SOL     OW30931   2.111   2.276   9.865  0.4305 -0.1273 -0.2074
 6491SOL    HW130932   2.023   2.314   9.867  1.0481  1.5130 -4.1880
 6491SOL    HW230933   2.161   2.355   9.842  1.2701 -0.5310  0.2129
 6492SOL     OW30934   4.028   3.358   6.239 -0.4331 -0.2710 -0.5262
 6492SOL    HW130935   4.023   3.263   6.243 -1.6072 -0.2011 -0.4155
 6492SOL    HW230936   4.001   3.377   6.149 -2.0060  1.1873  0.2551
 6493SOL     OW30937   2.542   3.899   5.875  0.5631  0.1475  0.2450
 6493SOL    HW130938   2.522   3.849   5.954  0.1675  0.1968  0.1778
 6493SOL    HW230939   2.633   3.874   5.861  0.0444 -2.2823  1.2908
 6494SOL     OW30940   2.994   4.299   9.783  0.1004  0.0029  0.0764
 6494SOL    HW130941   2.977   4.235   9.852 -0.2802 -0.6806 -0.6477
 6494SOL    HW230942   2.977   4.241   9.708  1.7179  0.2393 -0.4785
 6495SOL     OW30943   4.527   4.145  16.571  0.0685 -0.0801 -0.4278
 6495SOL    HW130944   4.473   4.069  16.548 -1.6061  0.8277  0.5033
 6495SOL    HW230945   4.463   4.212  16.593  0.7379  0.0586  1.1028
 6496SOL     OW30946   1.970   3.018   8.453 -0.2536  0.5249 -0.0577
 6496SOL    HW130947   1.980   2.940   8.506 -3.0792 -0.6707 -1.3119
 6496SOL    HW230948   2.062   3.045   8.446 -0.1112 -0.6361 -2.8025
 6497SOL     OW30949   4.090   4.513   4.191  0.6746  0.1894 -0.2617
 6497SOL    HW130950   4.131   4.591   4.153 -0.5015  0.3072 -1.2828
 6497SOL    HW230951   4.169   4.459   4.195  0.5423  0.1015  0.9951
 6498SOL     OW30952   1.299   3.838  10.995  0.4576  0.4064  0.0114
 6498SOL    HW130953   1.285   3.875  11.082 -0.8702  1.0062 -0.4537
 6498SOL    HW230954   1.338   3.917  10.958 -1.6437  1.4530  0.0544
 6499SOL     OW30955   2.353   4.649   9.083 -0.0309 -0.0583 -0.0294
 6499SOL    HW130956   2.274   4.702   9.072 -0.9574 -1.1651  1.2760
 6499SOL    HW230957   2.412   4.678   9.014  0.8857  0.5120  0.9930
 6500SOL     OW30958   3.898   4.629  11.055  0.1603  0.4175 -0.3304
 6500SOL    HW130959   3.879   4.709  11.105 -1.2449  0.1177 -0.3893
 6500SOL    HW230960   3.992   4.609  11.057 -0.5682 -2.8193  1.9550
 6501SOL     OW30961   2.497   3.804   9.732  0.7009  0.4252 -0.6002
 6501SOL    HW130962   2.577   3.832   9.688  1.3628 -1.5107 -0.6310
 6501SOL    HW230963   2.464   3.737   9.672  0.0977 -0.8290  1.1381
 6502SOL     OW30964   1.329   3.749   2.721  0.0407  0.2781 -0.3683
 6502SOL    HW130965   1.393   3.743   2.649  0.4147  0.6047 -0.0580
 6502SOL    HW230966   1.245   3.774   2.682 -0.1610  1.8393  1.1101
 6503SOL     OW30967   2.265   0.033  17.181 -0.2253 -0.2350 -0.0546
 6503SOL    HW130968   2.291   4.665  17.170  1.0047  0.3916 -2.3264
 6503SOL    HW230969   2.288   0.033  17.273  0.8467  1.0407 -0.3279
 6504SOL     OW30970   3.538   0.768  13.569  0.4279 -0.0084 -0.2402
 6504SOL    HW130971   3.591   0.715  13.510  0.3166  1.9145 -2.0851
 6504SOL    HW230972   3.473   0.703  13.597  0.0174  0.1883 -0.7377
 6505SOL     OW30973   2.378   4.036   5.335 -0.0888 -0.3168 -0.3450
 6505SOL    HW130974   2.467   4.019   5.304 -0.5990 -3.7941  0.0723
 6505SOL    HW230975   2.405   4.083   5.414 -0.1456 -1.2611  0.2400
 6506SOL     OW30976   4.711   3.186   4.827 -0.4866  0.8402 -0.1132
 6506SOL    HW130977   4.654   3.190   4.903  0.8281  0.9027  0.8706
 6506SOL    HW230978   0.036   3.108   4.853  2.1836  2.8903  1.1549
 6507SOL     OW30979   2.818   3.465  16.349  1.0645 -0.0431 -0.2257
 6507SOL    HW130980   2.776   3.511  16.422  1.0037 -0.2722 -0.1130
 6507SOL    HW230981   2.819   3.529  16.279 -0.7183 -0.6815 -0.8314
 6508SOL     OW30982   4.022   4.453   7.872 -0.5464 -0.1955  0.5649
 6508SOL    HW130983   4.028   4.525   7.808 -1.9505 -2.3705 -2.0156
 6508SOL    HW230984   4.100   4.467   7.926  0.2833  0.0127 -0.6935
 6509SOL     OW30985   2.159   3.355   8.452  0.0785 -0.1230 -0.3764
 6509SOL    HW130986   2.197   3.386   8.370 -1.6683 -1.1138 -1.5650
 6509SOL    HW230987   2.209   3.411   8.511 -0.4998 -0.2958  0.2750
 6510SOL     OW30988   0.498   1.118   8.987  0.4039  0.7753  0.5592
 6510SOL    HW130989   0.450   1.197   8.962 -1.4275  0.3572  2.7444
 6510SOL    HW230990   0.446   1.049   8.946 -0.0473  1.3582  0.1510
 6511SOL     OW30991   1.272   3.464   6.972 -0.0709  0.2959  0.4765
 6511SOL    HW130992   1.263   3.419   6.887 -0.5117  0.2277  0.5598
 6511SOL    HW230993   1.362   3.442   6.998 -0.3504 -1.1509  0.2640
 6512SOL     OW30994   0.384   0.382   8.620 -0.1312  0.8897  0.4879
 6512SOL    HW130995   0.475   0.412   8.615  0.2753 -0.7050 -1.5479
 6512SOL    HW230996   0.374   0.337   8.536  0.6398 -1.2838  1.5730
 6513SOL     OW30997   0.175   4.428   5.448 -0.0968  0.0913 -0.1712
 6513SOL    HW130998   0.158   4.398   5.538 -1.8711 -3.2011 -1.6083
 6513SOL    HW230999   0.112   4.499   5.436  1.1900  0.7263 -3.1432
 6514SOL     OW31000   1.834   4.165   2.537  0.6416 -0.1944 -0.3424
 6514SOL    HW131001   1.750   4.173   2.581 -0.9852 -2.8939 -3.0358
 6514SOL    HW231002   1.860   4.258   2.531 -0.8724  0.3115  1.2292
 6515SOL     OW31003   1.142   2.208   1.170 -0.2063  0.5170  0.3599
 6515SOL    HW131004   1.210   2.142   1.187  0.4659  1.0081 -0.4555
 6515SOL    HW231005   1.164   2.236   1.082 -1.5363 -1.1025 -0.4768
 6516SOL     OW31006   1.661   1.732  10.581 -0.5992  0.1035  0.4165
 6516SOL    HW131007   1.705   1.653  10.615 -0.4243  0.3790  0.8313
 6516SOL    HW231008   1.726   1.800  10.599 -1.0269  0.5801  0.1493
 6517SOL     OW31009   2.525   4.556  13.571 -0.3829 -0.0557  0.2955
 6517SOL    HW131010   2.524   4.652  13.577  0.8889 -0.2376  3.2197
 6517SOL    HW231011   2.434   4.528  13.566 -0.5029 -0.0230  2.2741
 6518SOL     OW31012   4.006   3.837  17.627 -0.3185  0.0037 -0.4090
 6518SOL    HW131013   4.006   3.922  17.671 -0.9738 -0.4743  0.5205
 6518SOL    HW231014   4.028   3.784   0.010 -0.1309 -0.4641 -0.7800
 6519SOL     OW31015   3.935   4.342  11.457 -0.4748  0.3093 -0.8828
 6519SOL    HW131016   3.964   4.370  11.544 -1.1384 -0.8657 -0.2831
 6519SOL    HW231017   4.018   4.360  11.413  0.5980 -0.7867  0.6917
 6520SOL     OW31018   1.596   0.084  15.920  1.1013  0.5291  0.0257
 6520SOL    HW131019   1.640   0.123  15.844  0.3552  1.2955 -0.0194
 6520SOL    HW231020   1.646   0.004  15.936  0.6394  0.1354 -0.5675
 6521SOL     OW31021   3.309   0.405  15.899  0.6493  0.7119  0.4208
 6521SOL    HW131022   3.299   0.311  15.911  0.2061  0.7622  0.4226
 6521SOL    HW231023   3.218   0.434  15.892  0.2016 -0.3477  1.7515
 6522SOL     OW31024   0.345   3.029   2.582 -0.1320  0.0383  0.0478
 6522SOL    HW131025   0.353   2.976   2.661 -1.4888 -1.8966 -1.1126
 6522SOL    HW231026   0.377   2.967   2.516  0.2931 -0.3523  0.6263
 6523SOL     OW31027   1.509   1.058   6.550 -0.1938  0.3200  0.2096
 6523SOL    HW131028   1.536   1.104   6.629 -1.6778  1.6722 -0.0793
 6523SOL    HW231029   1.585   1.000   6.541 -1.0588 -0.4528 -2.1320
 6524SOL     OW31030   2.727   1.841   6.765  0.2980 -0.9814 -0.4316
 6524SOL    HW131031   2.779   1.914   6.733 -1.2784 -0.0271 -0.8196
 6524SOL    HW231032   2.763   1.828   6.853  3.2477 -1.3199 -1.7061
 6525SOL     OW31033   2.232   1.090   9.056  0.3895  0.3586  0.3409
 6525SOL    HW131034   2.220   1.030   9.130 -1.1232  1.0572  0.6510
 6525SOL    HW231035   2.139   1.110   9.043  0.8897  2.1608 -0.3982
 6526SOL     OW31036   2.375   1.404   8.825 -0.3504  0.0494 -0.2115
 6526SOL    HW131037   2.310   1.461   8.865  1.4268  0.8264  1.5792
 6526SOL    HW231038   2.364   1.327   8.882 -0.0265  0.5500  0.5331
 6527SOL     OW31039   1.883   1.118   5.863 -0.3507  0.5529  0.1109
 6527SOL    HW131040   1.856   1.026   5.870 -1.1956  0.9113  1.6582
 6527SOL    HW231041   1.915   1.121   5.954 -2.2057  0.5807  0.7682
 6528SOL     OW31042   2.886   4.494   2.904  0.4848 -0.1583  0.2185
 6528SOL    HW131043   2.979   4.472   2.897  0.9299  2.0421 -0.8872
 6528SOL    HW231044   2.851   4.422   2.956 -0.6276 -0.6116 -1.1506
 6529SOL     OW31045   4.495   2.055   5.464  0.1511 -0.1604  0.4245
 6529SOL    HW131046   4.463   2.042   5.375 -1.9165  0.6541  1.0436
 6529SOL    HW231047   4.486   2.150   5.462  0.8643 -0.0746  1.5004
 6530SOL     OW31048   4.631   4.341   7.054 -0.3478  0.3412 -0.5438
 6530SOL    HW131049   4.589   4.279   7.113 -0.8237  1.5056  0.3400
 6530SOL    HW231050   4.723   4.327   7.076 -0.5237  2.6262  1.6701
 6531SOL     OW31051   4.255   4.674   4.005  0.3634  0.4393  0.6268
 6531SOL    HW131052   4.302   0.034   3.994  0.5727  0.4462  1.5820
 6531SOL    HW231053   4.223   4.665   3.915  0.9961 -0.0941  0.4537
 6532SOL     OW31054   3.699   4.058   6.697  0.1468 -0.1254 -0.0535
 6532SOL    HW131055   3.721   4.108   6.775 -2.1885  0.6095  0.1133
 6532SOL    HW231056   3.699   3.973   6.741 -1.8732  0.9667  2.0324
 6533SOL     OW31057   0.554   4.097   6.289  0.2467 -0.4445 -0.4742
 6533SOL    HW131058   0.586   4.008   6.305  2.8329  0.3870 -0.9751
 6533SOL    HW231059   0.635   4.148   6.295  0.0163 -0.2692  1.1094
 6534SOL     OW31060   4.710   3.889  11.483  0.0308  0.1478 -0.0928
 6534SOL    HW131061   0.056   3.823  11.488 -1.5431 -1.4382  0.8997
 6534SOL    HW231062   4.632   3.839  11.459  2.6913 -2.9033 -2.2084
 6535SOL     OW31063   4.600   0.844   7.328  0.1861  0.4529  0.0597
 6535SOL    HW131064   4.531   0.879   7.272 -0.7238 -0.7445  0.4295
 6535SOL    HW231065   4.677   0.898   7.311 -0.2129  1.0538  0.1308
 6536SOL     OW31066   1.368   1.785   6.300 -0.2740 -0.6884  0.0869
 6536SOL    HW131067   1.384   1.835   6.381 -0.8330  1.2089 -0.9797
 6536SOL    HW231068   1.283   1.819   6.272  0.7759  2.3026  0.5342
 6537SOL     OW31069   1.660   0.894   3.127 -0.2015 -0.3643 -0.3337
 6537SOL    HW131070   1.740   0.916   3.175  0.9086 -2.6605 -1.1451
 6537SOL    HW231071   1.651   0.801   3.147  1.6365 -0.6725 -0.9744
 6538SOL     OW31072   0.143   2.228  10.699  0.2787  0.1807 -0.2128
 6538SOL    HW131073   0.179   2.313  10.672  1.6856  0.3662  2.2412
 6538SOL    HW231074   0.129   2.256  10.789  3.8783 -0.6521  0.5997
 6539SOL     OW31075   2.713   1.909  11.049 -0.3121 -0.4263  0.0371
 6539SOL    HW131076   2.801   1.939  11.023 -0.5799  2.1071  2.0867
 6539SOL    HW231077   2.656   1.954  10.987 -0.6890 -2.6735 -1.2478
 6540SOL     OW31078   3.561   2.872   4.382 -0.1631  0.3520  0.3068
 6540SOL    HW131079   3.565   2.824   4.299 -0.1693  2.6680 -1.0277
 6540SOL    HW231080   3.487   2.819   4.412  1.1416 -1.8724 -0.4132
 6541SOL     OW31081   0.759   2.166   7.706  0.1600  0.2431 -0.0113
 6541SOL    HW131082   0.808   2.226   7.762  0.3278 -0.5973  0.7545
 6541SOL    HW231083   0.720   2.096   7.758  1.5388  0.9977  2.0161
 6542SOL     OW31084   1.285   3.524  14.645  0.7454  0.1432 -0.5900
 6542SOL    HW131085   1.269   3.594  14.708  2.5821  0.2589 -0.2501
 6542SOL    HW231086   1.367   3.482  14.672  0.8904 -0.9117 -2.6583
 6543SOL     OW31087   1.126   4.390   8.341 -0.2269 -0.0855 -0.0191
 6543SOL    HW131088   1.149   4.310   8.389 -2.3358 -0.0462  1.0594
 6543SOL    HW231089   1.125   4.459   8.406  0.4611  0.0560 -0.1654
 6544SOL     OW31090   0.085   0.872  11.491  0.2574  0.2900 -0.6382
 6544SOL    HW131091   4.714   0.858  11.506  0.1888  0.6896 -0.7025
 6544SOL    HW231092   0.117   0.842  11.576  2.5342  1.6083 -1.0405
 6545SOL     OW31093   2.617   4.444   3.950  0.1357 -0.4615  0.0910
 6545SOL    HW131094   2.600   4.407   3.864 -0.0395 -0.6456  0.2066
 6545SOL    HW231095   2.669   4.372   3.984  2.9601  0.1310 -2.9414
 6546SOL     OW31096   0.149   3.835   3.631  0.5792 -0.3388 -0.6659
 6546SOL    HW131097   0.063   3.855   3.668  1.1915 -0.4310  0.8315
 6546SOL    HW231098   0.208   3.902   3.667 -1.4459  0.8527  0.4108
 6547SOL     OW31099   3.559   2.451   3.843  0.2217  0.0947 -0.2966
 6547SOL    HW131100   3.562   2.360   3.812  0.5849  0.0818 -0.2317
 6547SOL    HW231101   3.597   2.445   3.931  2.3754  1.2592 -1.1366
 6548SOL     OW31102   1.431   0.214   3.297 -0.5307  0.1864 -0.0127
 6548SOL    HW131103   1.416   0.274   3.225 -1.9641 -2.0860 -1.6075
 6548SOL    HW231104   1.457   0.133   3.252 -0.3951  0.6611 -0.7926
 6549SOL     OW31105   1.315   3.065   4.123 -0.4937  0.0206  0.2211
 6549SOL    HW131106   1.260   3.144   4.126  1.5425  1.4804 -0.5259
 6549SOL    HW231107   1.271   3.015   4.054  1.0782 -2.0563  0.7333
 6550SOL     OW31108   1.556   0.461  11.777  0.4522  0.5245 -0.6356
 6550SOL    HW131109   1.584   0.533  11.834  1.1286 -0.5839  0.4372
 6550SOL    HW231110   1.488   0.493  11.718 -1.1598 -0.9271  0.4361
 6551SOL     OW31111   2.883   3.725   4.398 -0.1727  0.5676 -0.1099
 6551SOL    HW131112   2.931   3.729   4.481 -1.3863 -0.7755  0.6515
 6551SOL    HW231113   2.792   3.716   4.424  0.1120 -0.0505  0.6741
 6552SOL     OW31114   0.370   3.605  13.628 -0.5974  0.0558  0.1805
 6552SOL    HW131115   0.321   3.656  13.563  1.5138 -1.9522 -3.0331
 6552SOL    HW231116   0.433   3.671  13.654 -0.6024 -0.5154  1.6183
 6553SOL     OW31117   0.649   1.923  10.063 -0.0506  0.1139  0.0811
 6553SOL    HW131118   0.586   1.934  10.135  0.9794 -0.4589  1.0661
 6553SOL    HW231119   0.599   1.968   9.995  1.5923 -0.7890 -1.7414
 6554SOL     OW31120   0.968   0.259   1.813 -0.1155 -0.3014 -0.2586
 6554SOL    HW131121   0.914   0.310   1.753  1.1006  0.1508 -0.9820
 6554SOL    HW231122   0.922   0.267   1.896  1.6703  2.7525  0.4282
 6555SOL     OW31123   4.466   3.398   5.774 -0.8821  0.4929 -0.1670
 6555SOL    HW131124   4.373   3.378   5.780 -0.8842  1.4703  3.3621
 6555SOL    HW231125   4.480   3.452   5.852 -2.2332  0.2602  0.2358
 6556SOL     OW31126   2.177   0.741  13.306 -0.0919  0.1689  0.1045
 6556SOL    HW131127   2.247   0.793  13.267 -1.4236 -1.7650 -4.9009
 6556SOL    HW231128   2.113   0.810  13.323 -1.4893 -0.8886 -0.8922
 6557SOL     OW31129   0.456   2.641   4.986  0.4177  0.7061 -0.3550
 6557SOL    HW131130   0.386   2.668   4.927  0.4980  2.6187  0.4249
 6557SOL    HW231131   0.538   2.675   4.950  0.2712 -0.1762 -1.5325
 6558SOL     OW31132   3.729   3.695   2.205 -0.5468  0.3145  0.7324
 6558SOL    HW131133   3.705   3.779   2.245 -2.6213  0.0465  0.0227
 6558SOL    HW231134   3.722   3.714   2.112 -1.5716  2.5886  1.2806
 6559SOL     OW31135   3.370   2.602   7.870 -0.3480 -0.1611  0.3133
 6559SOL    HW131136   3.282   2.591   7.833  0.1741  4.3172 -2.2696
 6559SOL    HW231137   3.370   2.698   7.865  1.9767 -0.1398  0.6611
 6560SOL     OW31138   2.281   0.894   2.747  0.0456  0.7241 -0.2106
 6560SOL    HW131139   2.278   0.976   2.697  1.4254  0.7494 -0.2449
 6560SOL    HW231140   2.329   0.834   2.690 -0.2889  1.2375 -1.0449
 6561SOL     OW31141   3.069   1.459   7.455 -0.8198  0.8625 -0.1806
 6561SOL    HW131142   3.032   1.372   7.471 -0.0191  1.0936  3.0340
 6561SOL    HW231143   3.003   1.501   7.400  0.2581  1.9346 -0.6494
 6562SOL     OW31144   0.168   1.888   0.699 -0.4681  0.0185  0.3659
 6562SOL    HW131145   0.109   1.852   0.765 -1.1722 -0.6152 -0.6114
 6562SOL    HW231146   0.221   1.810   0.678  0.8633  1.1387 -0.4298
 6563SOL     OW31147   1.008   2.928   6.120 -0.1367 -0.4433 -0.2680
 6563SOL    HW131148   0.915   2.914   6.138 -0.8127  1.6322 -2.0723
 6563SOL    HW231149   1.015   2.881   6.037  2.4351  0.3375 -0.4845
 6564SOL     OW31150   3.842   1.344   7.711  0.1462  0.0162 -0.1540
 6564SOL    HW131151   3.856   1.269   7.769 -0.1032  0.0613 -0.0358
 6564SOL    HW231152   3.800   1.299   7.638 -1.5704  0.5981  0.4749
 6565SOL     OW31153   0.278   1.427  10.758  1.1460 -0.0624  0.6310
 6565SOL    HW131154   0.190   1.427  10.797  0.8319  0.9147 -0.0774
 6565SOL    HW231155   0.299   1.518  10.778 -0.1455  0.6845 -1.4036
 6566SOL     OW31156   1.481   3.332   7.353  0.1175  0.0274  0.5000
 6566SOL    HW131157   1.412   3.380   7.308  0.1265 -1.1772 -0.7768
 6566SOL    HW231158   1.521   3.401   7.407 -1.3138  1.6893 -0.5935
 6567SOL     OW31159   0.245   4.598   7.121 -0.1858 -0.3979  0.4484
 6567SOL    HW131160   0.296   4.668   7.163 -0.7813  1.2730 -1.5895
 6567SOL    HW231161   0.319   4.560   7.075  1.0287  1.4390  0.8938
 6568SOL     OW31162   3.964   3.160  15.172  0.2771  0.3969  0.0898
 6568SOL    HW131163   4.053   3.147  15.204  0.3482 -0.6081 -0.5198
 6568SOL    HW231164   3.956   3.087  15.111 -3.8674  0.2861  0.7605
 6569SOL     OW31165   1.993   1.105   6.128 -0.6076 -0.0420 -0.0657
 6569SOL    HW131166   1.996   1.034   6.192  1.3714  0.3314  0.2584
 6569SOL    HW231167   2.049   1.173   6.167  0.2894  0.1598 -1.6886
 6570SOL     OW31168   2.520   4.368   2.116 -0.0615  0.3262 -0.0300
 6570SOL    HW131169   2.505   4.351   2.023 -2.2366 -0.8459  0.5302
 6570SOL    HW231170   2.516   4.463   2.115  0.3776  0.3817  2.2105
 6571SOL     OW31171   2.955   4.166   1.454 -0.4732  0.0488  0.3344
 6571SOL    HW131172   3.050   4.153   1.448 -0.5647 -1.3416  1.9327
 6571SOL    HW231173   2.944   4.175   1.359  3.1143 -0.0483 -0.0883
 6572SOL     OW31174   4.400   0.063   7.198 -0.9467  0.1716 -0.0963
 6572SOL    HW131175   4.444   0.075   7.283 -0.6023  1.5993 -0.4779
 6572SOL    HW231176   4.402   4.691   7.185 -1.0250  0.5005 -2.4991
 6573SOL     OW31177   2.386   0.050   9.586  0.3051 -0.0861 -0.1822
 6573SOL    HW131178   2.395   0.060   9.491  1.1949 -2.2949 -0.3275
 6573SOL    HW231179   2.309   0.107   9.588 -1.2565 -2.1325 -2.0951
 6574SOL     OW31180   4.102   1.877   2.567 -0.0673 -0.2517 -0.4247
 6574SOL    HW131181   4.066   1.965   2.575  0.5752 -0.0344  0.0914
 6574SOL    HW231182   4.025   1.822   2.576  0.4558 -1.1476 -1.3364
 6575SOL     OW31183   1.919   1.246   3.509 -0.2434  0.2043  0.1775
 6575SOL    HW131184   1.909   1.308   3.436  0.6970 -1.3769 -1.2987
 6575SOL    HW231185   1.949   1.303   3.580  0.4024 -1.0935  0.9388
 6576SOL     OW31186   0.068   4.685   5.495 -0.5352 -0.2386  0.0232
 6576SOL    HW131187   0.154   0.001   5.483 -0.8862  0.2152 -1.0589
 6576SOL    HW231188   0.068   4.676   5.590 -0.4518  0.0815  0.0512
 6577SOL     OW31189   0.689   1.079  12.765  0.4602  0.0249 -0.0505
 6577SOL    HW131190   0.702   1.142  12.836  1.6971  1.3463 -1.4185
 6577SOL    HW231191   0.641   1.133  12.701 -1.0383 -1.4128 -0.1286
 6578SOL     OW31192   0.802   1.026   7.986 -0.5102  0.3468  0.2715
 6578SOL    HW131193   0.880   0.974   8.006 -1.1786 -0.9102 -0.3136
 6578SOL    HW231194   0.825   1.118   7.995  1.1454 -0.3703  3.2630
 6579SOL     OW31195   4.525   1.740  14.098 -0.2569  0.0099 -0.1924
 6579SOL    HW131196   4.571   1.785  14.169  2.2100 -1.2154 -0.9808
 6579SOL    HW231197   4.588   1.670  14.078  1.2044  1.3942 -0.4321
 6580SOL     OW31198   2.571   1.742  13.709  0.5145 -0.1607  0.7108
 6580SOL    HW131199   2.488   1.754  13.664 -0.2632 -1.6269  1.7657
 6580SOL    HW231200   2.635   1.770  13.643  1.0170 -0.6959  0.9719
 6581SOL     OW31201   3.260   2.917   2.865 -0.2660 -0.5548  0.1606
 6581SOL    HW131202   3.229   2.918   2.775  0.0078  0.4010  0.0729
 6581SOL    HW231203   3.235   2.835   2.906 -0.9773  0.2345  1.3027
 6582SOL     OW31204   1.500   3.021  10.429 -0.1708  0.3279  0.0993
 6582SOL    HW131205   1.525   3.008  10.520 -1.1373 -2.1903  0.0078
 6582SOL    HW231206   1.476   2.930  10.412 -0.9124  0.4967  0.2476
 6583SOL     OW31207   4.672   0.196   3.889  0.1587  0.3895  0.2687
 6583SOL    HW131208   0.004   0.241   3.953  1.0561  0.3668 -0.4872
 6583SOL    HW231209   0.010   0.179   3.817 -1.7412  1.6257 -1.6319
 6584SOL     OW31210   0.325   2.003   7.131  0.4060 -0.2339  0.2499
 6584SOL    HW131211   0.251   2.062   7.129 -0.7777 -1.6835  1.3803
 6584SOL    HW231212   0.373   2.026   7.211 -0.6427  0.3775  0.6921
 6585SOL     OW31213   2.646   0.209  15.334  0.6122 -0.1929  0.4735
 6585SOL    HW131214   2.634   0.223  15.240  1.7885 -0.2796  0.3148
 6585SOL    HW231215   2.682   0.120  15.332  0.0067 -0.4302  0.2539
 6586SOL     OW31216   3.612   2.544   8.939 -0.2740  0.0163  0.7534
 6586SOL    HW131217   3.644   2.615   8.995  2.2560 -1.8499  1.6715
 6586SOL    HW231218   3.545   2.597   8.895 -0.3741 -2.7880 -2.4069
 6587SOL     OW31219   1.873   1.025   6.518  0.3379 -0.2779  0.2426
 6587SOL    HW131220   1.899   1.113   6.547  1.0995 -0.4454  0.0809
 6587SOL    HW231221   1.959   0.991   6.492  0.6562  1.2595 -0.7293
 6588SOL     OW31222   0.139   3.509   8.950 -0.0936  0.0166  0.2511
 6588SOL    HW131223   0.148   3.584   9.009 -2.2258  1.7014 -1.5594
 6588SOL    HW231224   0.113   3.439   9.010  1.2225  0.0477  0.8752
 6589SOL     OW31225   1.991   0.005   4.137 -0.3583 -0.0572  0.0201
 6589SOL    HW131226   1.930   0.078   4.147  0.4918  1.0662 -2.9012
 6589SOL    HW231227   2.073   0.052   4.130  0.5125 -1.3640  1.4756
 6590SOL     OW31228   4.102   2.654   7.662 -0.0296  0.5854  0.2894
 6590SOL    HW131229   4.078   2.677   7.572  0.2593 -0.4436 -0.0582
 6590SOL    HW231230   4.164   2.715   7.701  0.4148  1.2198 -1.4019
 6591SOL     OW31231   1.256   1.678   7.845 -0.5169  0.8302  0.2590
 6591SOL    HW131232   1.297   1.721   7.770  0.9327  0.2211  0.7000
 6591SOL    HW231233   1.273   1.586   7.823  2.7681  1.6949 -0.9306
 6592SOL     OW31234   3.651   3.214  12.192  0.1993 -0.2511  0.2952
 6592SOL    HW131235   3.643   3.215  12.096 -0.8850 -0.8973  0.3782
 6592SOL    HW231236   3.734   3.167  12.197  0.0849 -0.5703 -0.7756
 6593SOL     OW31237   2.119   0.101   9.000  0.4034  0.4674 -0.0188
 6593SOL    HW131238   2.083   0.067   8.917 -2.2702  0.0684  1.2930
 6593SOL    HW231239   2.041   0.117   9.053  0.4726  0.9637 -0.0697
 6594SOL     OW31240   1.312   1.972   6.509  0.2500  0.2760  0.0272
 6594SOL    HW131241   1.329   2.055   6.555  1.5086  0.3919 -0.6372
 6594SOL    HW231242   1.365   1.904   6.552  0.6282 -1.0068 -2.4994
 6595SOL     OW31243   1.859   1.551   2.216  0.3026  0.5117  0.1146
 6595SOL    HW131244   1.836   1.640   2.244 -1.3879  0.4804 -1.1745
 6595SOL    HW231245   1.926   1.533   2.282  0.6776  1.7040  0.0575
 6596SOL     OW31246   2.845   3.412  15.341 -0.4863 -0.1788 -0.0731
 6596SOL    HW131247   2.777   3.376  15.399  0.5515 -0.6483  0.8424
 6596SOL    HW231248   2.798   3.484  15.299 -1.4492 -0.3091  0.7788
 6597SOL     OW31249   4.256   2.436   7.339 -0.0975 -0.6252 -0.6044
 6597SOL    HW131250   4.186   2.471   7.284  0.3160 -0.2878 -0.9208
 6597SOL    HW231251   4.310   2.515   7.339  0.0189 -0.7070 -0.2622
 6598SOL     OW31252   4.551   0.743   2.644  0.1930 -0.0916 -0.0919
 6598SOL    HW131253   4.644   0.739   2.623  0.2635  0.1679  0.1794
 6598SOL    HW231254   4.540   0.833   2.675 -0.5069  0.1229 -0.9507
 6599SOL     OW31255   3.598   3.626   3.674 -0.2621 -0.5061 -0.4206
 6599SOL    HW131256   3.681   3.625   3.627  0.9090  0.8487  1.6054
 6599SOL    HW231257   3.597   3.553   3.735 -3.2976  1.1854  1.5618
 6600SOL     OW31258   0.325   3.997  16.668 -0.2543 -0.1761  0.1548
 6600SOL    HW131259   0.249   4.038  16.627  0.8211  1.4307 -0.2595
 6600SOL    HW231260   0.358   3.935  16.603  1.2879  0.0583  0.7206
 6601SOL     OW31261   2.584   1.121   9.815 -0.0094 -0.2371  0.4420
 6601SOL    HW131262   2.608   1.029   9.807  0.8730 -0.0744  1.3349
 6601SOL    HW231263   2.490   1.109   9.801  0.2933  0.7911 -2.5849
 6602SOL     OW31264   3.867   1.229  14.380  0.5399 -0.0180 -0.1473
 6602SOL    HW131265   3.776   1.252  14.362  0.6536  1.0981  0.6918
 6602SOL    HW231266   3.915   1.278  14.312  0.6501 -0.3255 -0.2902
 6603SOL     OW31267   1.104   3.832   7.675  0.1780 -0.8051  0.2812
 6603SOL    HW131268   1.011   3.853   7.686  0.2164  1.1595 -3.0264
 6603SOL    HW231269   1.115   3.855   7.583 -0.8004  1.5484  0.7538
 6604SOL     OW31270   2.117   3.842   2.152  0.0356  0.2493 -0.3595
 6604SOL    HW131271   2.050   3.858   2.085  0.0802  2.1092  0.0389
 6604SOL    HW231272   2.062   3.838   2.230  2.6831 -0.9349  1.4170
 6605SOL     OW31273   0.419   4.508   5.376 -0.1042 -0.0192  0.4411
 6605SOL    HW131274   0.394   4.599   5.395  0.4079  0.6222 -1.9133
 6605SOL    HW231275   0.341   4.458   5.403 -0.6388  0.3263 -0.4678
 6606SOL     OW31276   0.039   3.720  16.587 -0.1020 -0.3953  0.1743
 6606SOL    HW131277   0.106   3.704  16.653  0.2612 -1.9391 -0.5628
 6606SOL    HW231278   0.097   3.716  16.512 -2.5582 -1.4682 -1.6777
 6607SOL     OW31279   3.723   3.136  16.310 -0.4151 -0.1239 -0.5263
 6607SOL    HW131280   3.710   3.063  16.249  0.0902  1.3842 -2.4520
 6607SOL    HW231281   3.803   3.180  16.282 -1.0590  0.1473 -1.9452
 6608SOL     OW31282   4.376   3.369   8.324 -0.6492 -0.1885 -0.0715
 6608SOL    HW131283   4.368   3.319   8.405 -0.2562 -0.0887  0.0295
 6608SOL    HW231284   4.449   3.425   8.350 -1.1560 -0.2304  1.3927
 6609SOL     OW31285   0.080   3.580   2.805  0.4537 -0.4701  0.4157
 6609SOL    HW131286   0.079   3.493   2.766  1.2837  0.6914 -2.1758
 6609SOL    HW231287   0.160   3.622   2.774 -0.6051  0.9924 -0.3433
 6610SOL     OW31288   0.092   0.079   4.541 -0.0545  0.2157  0.7506
 6610SOL    HW131289   0.058   4.712   4.534 -0.8259  0.5077  0.8155
 6610SOL    HW231290   0.067   0.093   4.632 -0.6115  0.2519  0.5892
 6611SOL     OW31291   3.695   1.407   5.893  0.3200 -0.2090 -0.2732
 6611SOL    HW131292   3.686   1.468   5.820 -1.1032  0.4259  0.4329
 6611SOL    HW231293   3.784   1.419   5.925  0.7117 -3.0592 -0.2179
 6612SOL     OW31294   4.280   2.093  16.640 -0.5760 -0.4412 -0.0657
 6612SOL    HW131295   4.265   2.091  16.546  3.3347  0.4689 -0.7155
 6612SOL    HW231296   4.373   2.116  16.637 -0.4315 -0.8076  1.4802
 6613SOL     OW31297   1.123   4.717   4.250  0.3035 -0.1833 -0.5204
 6613SOL    HW131298   1.179   0.015   4.175 -0.1379 -1.8720 -1.3250
 6613SOL    HW231299   1.120   0.083   4.284  0.3893 -0.1662 -0.5585
 6614SOL     OW31300   4.044   1.253   2.976  0.0219  0.8047 -0.3928
 6614SOL    HW131301   4.109   1.253   2.905  0.6645 -1.5627  0.1894
 6614SOL    HW231302   4.107   1.213   3.035 -1.6040  0.8785  1.3798
 6615SOL     OW31303   0.887   1.353   1.265 -0.6138 -0.6053  0.2420
 6615SOL    HW131304   0.812   1.293   1.263  0.8887 -2.4335 -1.0773
 6615SOL    HW231305   0.910   1.353   1.358  0.1611 -0.3803  0.0479
 6616SOL     OW31306   1.230   4.610  11.055 -0.4073  0.1664  0.2901
 6616SOL    HW131307   1.166   4.591  10.986 -0.2161 -1.8359  0.6702
 6616SOL    HW231308   1.317   4.589  11.021  0.0419 -0.5927  1.9368
 6617SOL     OW31309   0.726   3.973   1.527 -0.4368 -0.0214 -0.0178
 6617SOL    HW131310   0.753   3.988   1.437  0.6314 -1.6071  0.0532
 6617SOL    HW231311   0.676   4.054   1.542  1.2964  1.3027 -1.3571
 6618SOL     OW31312   3.262   0.158   7.112  0.0414  0.3199 -0.0371
 6618SOL    HW131313   3.247   0.141   7.019 -1.4027 -1.8381  0.5875
 6618SOL    HW231314   3.198   0.100   7.154 -1.2053  1.9278  0.3233
 6619SOL     OW31315   4.436   1.441   6.378  0.4372 -0.9872 -0.1793
 6619SOL    HW131316   4.509   1.484   6.333  1.0481 -3.2330 -1.3116
 6619SOL    HW231317   4.390   1.399   6.306  1.0522 -0.9251 -0.6096
 6620SOL     OW31318   4.169   4.390  12.308  0.4599 -0.0516 -0.1709
 6620SOL    HW131319   4.247   4.359  12.355  1.5799  2.5665 -0.3286
 6620SOL    HW231320   4.217   4.444  12.245  0.4069  0.5277  0.2841
 6621SOL     OW31321   3.009   0.426   7.686  0.2626 -0.0414  0.1333
 6621SOL    HW131322   2.975   0.385   7.606  0.2497  0.6555 -0.2193
 6621SOL    HW231323   3.087   0.371   7.694  0.6592  0.5860  0.5666
 6622SOL     OW31324   1.050   3.974   2.280  0.0735  0.0328 -0.1621
 6622SOL    HW131325   1.041   3.965   2.185 -0.7474  3.1989 -0.3701
 6622SOL    HW231326   0.976   3.936   2.327  0.8784 -2.6472 -1.0394
 6623SOL     OW31327   1.846   1.810   9.604 -0.2467  0.1960 -0.2278
 6623SOL    HW131328   1.788   1.886   9.610  2.4498  2.2180  0.3562
 6623SOL    HW231329   1.809   1.752   9.670  0.6875 -2.4186 -2.0011
 6624SOL     OW31330   0.466   1.281  12.373  0.1420 -0.3791 -0.2939
 6624SOL    HW131331   0.387   1.293  12.425  0.7069  1.7037  0.0564
 6624SOL    HW231332   0.441   1.198  12.331 -0.4720 -0.4253  0.1604
 6625SOL     OW31333   2.295   3.021   0.705  0.1213  0.1971 -0.0474
 6625SOL    HW131334   2.377   3.045   0.663 -1.2089  2.3920 -1.4441
 6625SOL    HW231335   2.265   2.947   0.653  0.0598  2.7913 -3.6957
 6626SOL     OW31336   1.252   0.993   5.390 -0.2260 -0.8345  0.0633
 6626SOL    HW131337   1.274   0.952   5.473  1.9998 -2.2068 -1.1918
 6626SOL    HW231338   1.335   1.018   5.349  1.3585 -3.1206  1.9502
 6627SOL     OW31339   1.762   2.337   7.278 -0.5636 -0.2183  0.0241
 6627SOL    HW131340   1.769   2.407   7.342  0.1999 -1.3229  1.1481
 6627SOL    HW231341   1.797   2.383   7.202 -1.0045  0.7605  0.4132
 6628SOL     OW31342   4.478   2.242   3.199 -0.2182  0.0378  0.0365
 6628SOL    HW131343   4.426   2.321   3.208 -0.1176 -0.2031  2.7322
 6628SOL    HW231344   4.497   2.253   3.106 -0.4393  1.1699  0.1215
 6629SOL     OW31345   2.949   1.478   5.280  0.4030 -0.0256 -0.4042
 6629SOL    HW131346   2.873   1.514   5.326 -0.9357 -0.8445 -1.9974
 6629SOL    HW231347   2.997   1.425   5.344  0.6625  1.5218  0.6816
 6630SOL     OW31348   1.752   2.600   2.339  0.5988  0.0791 -0.8471
 6630SOL    HW131349   1.767   2.607   2.245 -1.6626  2.8224 -1.0031
 6630SOL    HW231350   1.745   2.693   2.360 -3.3635 -0.6857  1.1924
 6631SOL     OW31351   4.595   1.157  11.674  0.8546  0.0792  0.1441
 6631SOL    HW131352   4.632   1.175  11.587 -0.5495 -0.7077 -0.6101
 6631SOL    HW231353   4.630   1.230  11.724 -0.4938  1.7697 -1.3933
 6632SOL     OW31354   3.453   0.609   9.384  0.3840 -0.0316 -0.1291
 6632SOL    HW131355   3.456   0.514   9.374 -1.5039 -0.2268  1.0526
 6632SOL    HW231356   3.503   0.623   9.304  2.3025  0.1444  1.1097
 6633SOL     OW31357   0.740   4.084   5.595 -0.4285 -0.1750  0.6456
 6633SOL    HW131358   0.791   4.060   5.518 -0.6500  2.4132 -0.2792
 6633SOL    HW231359   0.664   4.126   5.557  1.4605  1.9643 -0.7298
 6634SOL     OW31360   0.788   1.223  13.326  0.7594  0.1226 -0.1237
 6634SOL    HW131361   0.836   1.281  13.267  0.4966 -1.9075 -2.3421
 6634SOL    HW231362   0.699   1.213  13.291  0.2527  2.6055  0.4295
 6635SOL     OW31363   3.514   3.632   6.388 -0.0381 -0.2904 -0.1698
 6635SOL    HW131364   3.419   3.624   6.381 -0.0417  2.1871 -2.9596
 6635SOL    HW231365   3.533   3.721   6.357 -0.1077 -0.1165  0.2801
 6636SOL     OW31366   3.719   0.987   4.911 -0.2421  0.0335 -0.1707
 6636SOL    HW131367   3.756   1.067   4.873  1.5130  0.6036  2.7236
 6636SOL    HW231368   3.804   0.943   4.916 -0.2862 -0.0509 -0.1587
 6637SOL     OW31369   4.245   0.027  16.272  0.4745 -0.7786 -0.0789
 6637SOL    HW131370   4.270   0.096  16.333 -2.9537  1.2734 -0.9363
 6637SOL    HW231371   4.312   0.042  16.206  1.2054 -0.4440  0.7372
 6638SOL     OW31372   2.679   1.660   0.008 -0.1089  0.2214  0.1055
 6638SOL    HW131373   2.722   1.586  17.660 -0.1662 -0.8208  1.9054
 6638SOL    HW231374   2.629   1.624   0.081  0.9262 -2.4692 -0.5259
 6639SOL     OW31375   4.312   0.647   4.347 -0.1933  0.1760 -0.4774
 6639SOL    HW131376   4.350   0.631   4.434  1.7770 -0.5468 -1.4624
 6639SOL    HW231377   4.239   0.708   4.354 -2.2325 -2.4735  1.1780
 6640SOL     OW31378   1.112   0.206   8.645 -0.6648  0.0316  0.0996
 6640SOL    HW131379   1.092   0.113   8.654  0.1381  0.0079  1.7188
 6640SOL    HW231380   1.048   0.233   8.579 -0.1691 -0.6818 -0.6824
 6641SOL     OW31381   3.473   3.313   7.085  0.2920  0.3582 -0.2393
 6641SOL    HW131382   3.452   3.233   7.037 -0.5353  0.4184  0.0327
 6641SOL    HW231383   3.398   3.366   7.060 -0.3229  0.3303  1.5257
 6642SOL     OW31384   2.228   1.375  15.372  0.7165  0.1638 -0.0640
 6642SOL    HW131385   2.235   1.470  15.358 -0.3692  0.6018  2.4891
 6642SOL    HW231386   2.311   1.346  15.334  0.2903  1.0883 -1.7306
 6643SOL     OW31387   0.787   4.235   7.783  0.3759  0.4969  0.2097
 6643SOL    HW131388   0.740   4.211   7.863 -2.4375  1.1733 -1.2358
 6643SOL    HW231389   0.874   4.264   7.809 -0.4318  2.2861  0.9036
 6644SOL     OW31390   2.901   1.064  16.493 -0.1058 -0.8863  0.3088
 6644SOL    HW131391   2.843   1.080  16.418  0.4166 -0.9380 -0.1012
 6644SOL    HW231392   2.847   1.091  16.568  0.6331  0.4185  0.3743
 6645SOL     OW31393   1.607   2.417   8.606 -0.0589  0.6379 -0.5147
 6645SOL    HW131394   1.513   2.429   8.591 -0.2145 -1.1835 -0.9149
 6645SOL    HW231395   1.640   2.429   8.517 -0.8006  0.9767 -0.7451
 6646SOL     OW31396   3.476   0.536   3.950  0.0230 -0.2213 -0.0221
 6646SOL    HW131397   3.507   0.506   3.864 -0.6594 -0.0858 -0.3134
 6646SOL    HW231398   3.407   0.475   3.976 -0.4351 -0.2585 -1.3004
 6647SOL     OW31399   4.011   4.125   7.231 -0.9186  0.0159 -0.2325
 6647SOL    HW131400   3.970   4.099   7.148 -1.4898 -1.3423  0.4727
 6647SOL    HW231401   4.070   4.193   7.199  0.1382 -0.7917  0.0038
 6648SOL     OW31402   0.497   3.410   0.977 -0.1209 -0.2224 -0.2639
 6648SOL    HW131403   0.492   3.370   1.064 -0.4560 -0.2591 -0.2995
 6648SOL    HW231404   0.572   3.357   0.950  1.0152  1.7950 -1.0844
 6649SOL     OW31405   1.222   1.555   3.576 -0.5418  0.5993  0.0399
 6649SOL    HW131406   1.160   1.530   3.507 -0.8647 -3.6584  1.9277
 6649SOL    HW231407   1.294   1.575   3.517 -0.3212  1.4664  0.6011
 6650SOL     OW31408   2.020   2.433   2.383  0.3691  0.1829  0.1700
 6650SOL    HW131409   1.986   2.516   2.415 -2.2152  0.1016 -2.3268
 6650SOL    HW231410   2.037   2.462   2.293 -2.8439  1.7835  0.0612
 6651SOL     OW31411   1.988   1.677   0.537 -0.0932  0.4156  0.5667
 6651SOL    HW131412   1.954   1.763   0.564 -1.1462  0.1523  0.0715
 6651SOL    HW231413   1.984   1.686   0.442  0.7253  2.9640  0.7547
 6652SOL     OW31414   1.629   0.994   7.406 -0.1429 -0.3059  0.2531
 6652SOL    HW131415   1.670   1.074   7.440 -0.3723 -0.6330  1.2894
 6652SOL    HW231416   1.571   1.029   7.338  0.4269 -1.2865 -0.7408
 6653SOL     OW31417   4.660   0.931   5.094  0.2433 -0.1525 -0.0166
 6653SOL    HW131418   4.714   0.950   5.017  1.5201 -2.0438  0.4057
 6653SOL    HW231419   4.581   0.985   5.089  0.2217 -0.1706  0.1196
 6654SOL     OW31420   0.431   1.088  15.089 -0.1611  0.0557  0.2574
 6654SOL    HW131421   0.516   1.045  15.079  0.6521  2.1579 -1.8086
 6654SOL    HW231422   0.390   1.055  15.009  0.9146  1.0038 -0.6831
 6655SOL     OW31423   3.197   1.744   5.540  0.0478  0.2897 -0.2196
 6655SOL    HW131424   3.105   1.759   5.563  0.3942  0.1435  1.2601
 6655SOL    HW231425   3.214   1.818   5.482 -2.3796  1.4206  0.5091
 6656SOL     OW31426   2.102   2.059   4.820 -0.1584 -0.0270 -0.1182
 6656SOL    HW131427   2.116   2.085   4.911 -0.6195 -3.3408  0.9047
 6656SOL    HW231428   2.153   2.122   4.769  1.1736 -0.6599  0.4190
 6657SOL     OW31429   0.350   0.636   8.131 -0.2882  0.0864  0.5391
 6657SOL    HW131430   0.372   0.543   8.128 -2.1312 -0.3462  0.2907
 6657SOL    HW231431   0.375   0.654   8.040  0.0113 -2.2481  0.1747
 6658SOL     OW31432   4.717   0.794   9.851 -0.1113  0.3122  0.7899
 6658SOL    HW131433   0.043   0.829   9.777  2.2241 -2.5902  0.9452
 6658SOL    HW231434   4.687   0.707   9.826  1.3047 -0.1660  0.7176
 6659SOL     OW31435   1.934   3.624   2.304 -0.6082  0.2166  0.1005
 6659SOL    HW131436   2.013   3.673   2.327 -0.9617  0.6758  0.3390
 6659SOL    HW231437   1.948   3.541   2.349 -0.3416  0.1850 -0.0402
 6660SOL     OW31438   2.419   0.376   8.012 -0.1281  0.2825 -0.2643
 6660SOL    HW131439   2.406   0.403   8.103 -1.7580 -0.3475 -0.3171
 6660SOL    HW231440   2.512   0.389   7.996  0.1926 -0.5776  0.9452
 6661SOL     OW31441   4.367   3.007   3.908  0.0033 -0.4418 -0.0440
 6661SOL    HW131442   4.327   2.990   3.822  0.0457  1.8513 -0.5201
 6661SOL    HW231443   4.379   3.102   3.911 -0.1010 -0.4372  0.2053
 6662SOL     OW31444   2.032   3.531  17.033 -0.2684  0.3184  0.6148
 6662SOL    HW131445   2.015   3.507  17.124  1.5787 -2.0670  0.3393
 6662SOL    HW231446   1.942   3.549  17.005 -0.3500  0.4647  0.9811
 6663SOL     OW31447   3.059   4.129  12.622 -0.3728  0.8160  0.2302
 6663SOL    HW131448   3.095   4.141  12.534  0.5708 -0.9492  0.3852
 6663SOL    HW231449   3.140   4.119  12.673 -0.7155  1.1879  0.8529
 6664SOL     OW31450   1.224   2.241  15.578 -0.3261  0.0714  0.1574
 6664SOL    HW131451   1.200   2.159  15.534  0.2619 -0.7819  1.4440
 6664SOL    HW231452   1.318   2.228  15.591 -0.2379  2.0227  1.4193
 6665SOL     OW31453   2.128   1.951   6.079  0.1611  0.1719 -0.1829
 6665SOL    HW131454   2.211   1.998   6.076  0.1649  0.2330  0.9821
 6665SOL    HW231455   2.135   1.899   6.160 -0.3855  0.8797  0.3176
 6666SOL     OW31456   3.136   1.683   7.056  1.0080  1.0129 -0.4649
 6666SOL    HW131457   3.165   1.598   7.088  0.7868  1.8483  1.9840
 6666SOL    HW231458   3.079   1.667   6.981  0.3892  0.7035  0.0739
 6667SOL     OW31459   0.298   3.189  15.548 -0.3768  0.3852 -0.3693
 6667SOL    HW131460   0.393   3.188  15.545 -0.4019  1.2957 -1.2845
 6667SOL    HW231461   0.285   3.203  15.454 -2.6315  0.7191 -0.0228
 6668SOL     OW31462   2.530   3.019  14.846 -0.2718  0.1061  0.2590
 6668SOL    HW131463   2.540   2.958  14.919  1.4638 -2.4542 -2.1112
 6668SOL    HW231464   2.445   3.057  14.867 -0.1689 -0.2685  1.3657
 6669SOL     OW31465   1.695   2.991   2.720 -0.3151 -0.0413 -0.5715
 6669SOL    HW131466   1.744   2.922   2.766 -2.0110 -0.4718  0.6040
 6669SOL    HW231467   1.628   2.940   2.674 -0.7862 -0.3352  0.4283
 6670SOL     OW31468   2.461   2.885   1.752 -0.0957 -0.1382  0.1644
 6670SOL    HW131469   2.464   2.829   1.675  0.3980 -1.2960  1.0213
 6670SOL    HW231470   2.414   2.960   1.715  0.2872  0.0831  0.1312
 6671SOL     OW31471   1.211   0.257   0.614 -0.3960  0.7242  0.5086
 6671SOL    HW131472   1.247   0.245   0.526 -0.1511  1.2985  0.5296
 6671SOL    HW231473   1.170   0.170   0.620  0.8271  0.1619  0.7275
 6672SOL     OW31474   4.681   1.860   6.548 -0.1439  0.1419 -0.3226
 6672SOL    HW131475   4.705   1.810   6.470 -1.3190  0.1891 -0.7222
 6672SOL    HW231476   4.606   1.810   6.581 -1.3119  0.1988 -2.9161
 6673SOL     OW31477   0.102   2.124  15.153  0.2527  0.1474  0.1190
 6673SOL    HW131478   0.020   2.075  15.147  0.8190 -0.7770 -0.0528
 6673SOL    HW231479   0.083   2.160  15.240  2.1538  0.8753  0.2447
 6674SOL     OW31480   2.095   2.208  16.497 -0.1056  0.0769  0.4844
 6674SOL    HW131481   2.099   2.303  16.484  0.4155  0.0640  0.5605
 6674SOL    HW231482   2.046   2.213  16.579 -0.5843 -2.1890  0.3223
 6675SOL     OW31483   3.583   4.235  13.019  0.6211 -0.2799  0.1189
 6675SOL    HW131484   3.584   4.280  13.103 -0.5549  1.3410 -0.7521
 6675SOL    HW231485   3.583   4.144  13.051  0.1154  0.1387  1.2973
 6676SOL     OW31486   1.535   3.936   6.094 -0.4812  0.6880  0.7414
 6676SOL    HW131487   1.607   3.880   6.124 -0.7469  0.3236  0.6919
 6676SOL    HW231488   1.557   3.930   6.002 -0.9025 -0.5043  0.7240
 6677SOL     OW31489   4.090   1.191   5.038 -0.6087 -0.4896  0.4511
 6677SOL    HW131490   4.014   1.177   4.981 -2.0320  0.0940  2.2057
 6677SOL    HW231491   4.136   1.258   4.987 -1.0199 -1.5523 -1.3338
 6678SOL     OW31492   3.572   3.148   4.419  0.0441  0.3129 -0.1889
 6678SOL    HW131493   3.662   3.158   4.390  0.1625 -0.9129 -0.2457
 6678SOL    HW231494   3.570   3.056   4.394  1.2202  1.0977 -3.2274
 6679SOL     OW31495   1.274   1.080  14.507 -0.4541 -0.5415  0.3571
 6679SOL    HW131496   1.251   1.173  14.516  2.3915  0.1605  0.1402
 6679SOL    HW231497   1.183   1.049  14.503 -0.2334 -1.1409 -0.0488
 6680SOL     OW31498   0.724   3.398   6.213 -0.2088 -0.0223 -0.0092
 6680SOL    HW131499   0.798   3.454   6.237 -0.5397 -0.6186  2.3793
 6680SOL    HW231500   0.653   3.461   6.205 -0.1693  0.1670  1.1275
 6681SOL     OW31501   3.342   0.498  16.713 -0.4373 -0.3225  0.1429
 6681SOL    HW131502   3.414   0.559  16.732  0.6135 -1.3829 -0.4781
 6681SOL    HW231503   3.302   0.545  16.639  0.1023  0.0462  0.0827
 6682SOL     OW31504   3.248   0.282   5.537  0.7164 -0.7649  0.0251
 6682SOL    HW131505   3.153   0.272   5.538  0.6846 -0.6093 -1.5979
 6682SOL    HW231506   3.263   0.218   5.467  1.1320  0.7459 -1.2521
 6683SOL     OW31507   2.916   1.313  11.808 -0.1438  0.2990  0.2768
 6683SOL    HW131508   2.853   1.385  11.818  1.5221  1.8286 -0.4231
 6683SOL    HW231509   2.952   1.313  11.897  2.3218 -0.1131 -0.7343
 6684SOL     OW31510   2.819   0.859   1.990  0.4934 -0.1373  0.2477
 6684SOL    HW131511   2.890   0.815   2.036 -0.3669 -0.6331  1.1183
 6684SOL    HW231512   2.852   0.854   1.900  0.0960  2.0883 -0.0361
 6685SOL     OW31513   0.197   0.653  14.289  0.1351 -0.2213 -0.2631
 6685SOL    HW131514   0.273   0.596  14.304 -0.1689 -0.4414  0.4580
 6685SOL    HW231515   0.138   0.631  14.361 -1.4452  0.0107 -1.5089
 6686SOL     OW31516   2.470   4.042   5.600 -0.4094 -0.2559  0.4632
 6686SOL    HW131517   2.402   4.016   5.662 -0.2015 -1.3031  0.2484
 6686SOL    HW231518   2.528   4.084   5.663 -0.0452 -1.3100  0.8252
 6687SOL     OW31519   4.273   1.651   6.140 -0.2175 -0.5111  0.1454
 6687SOL    HW131520   4.291   1.558   6.154 -0.3565 -0.7181 -1.0746
 6687SOL    HW231521   4.237   1.645   6.052 -0.1558  2.6041 -0.0895
 6688SOL     OW31522   3.152   0.285  11.008  0.0767  0.0341  0.7082
 6688SOL    HW131523   3.168   0.284  11.102 -1.1930  3.2586  0.9628
 6688SOL    HW231524   3.076   0.227  11.013 -1.0844  1.4648 -0.0847
 6689SOL     OW31525   3.785   1.679   0.882 -0.0792 -0.0590  0.9007
 6689SOL    HW131526   3.865   1.727   0.905 -0.9431  1.5304  0.6229
 6689SOL    HW231527   3.725   1.753   0.895  0.4222  0.4124  0.5203
 6690SOL     OW31528   1.649   3.257   8.009 -0.5565  0.1955 -0.0992
 6690SOL    HW131529   1.713   3.268   8.078 -0.0067  0.9995 -0.7319
 6690SOL    HW231530   1.622   3.348   7.995  1.0994  0.9450  1.5617
 6691SOL     OW31531   1.732   4.522  16.828 -0.1011 -0.1530 -0.3169
 6691SOL    HW131532   1.745   4.615  16.850  0.1340 -0.9660  2.9734
 6691SOL    HW231533   1.718   4.533  16.734  2.8636  2.8969 -0.4333
 6692SOL     OW31534   1.111   3.561   5.868 -0.1851  0.2291  0.1195
 6692SOL    HW131535   1.117   3.495   5.799  0.5526 -1.5210  1.8377
 6692SOL    HW231536   1.020   3.583   5.889 -0.5149  0.8632 -2.0083
 6693SOL     OW31537   2.001   3.010   7.810  0.2102  0.1688 -0.1078
 6693SOL    HW131538   2.072   3.012   7.875  0.6106 -0.2864 -0.5301
 6693SOL    HW231539   2.027   2.937   7.753  0.2961 -0.3065  0.5238
 6694SOL     OW31540   3.015   2.734  17.548 -0.1620 -0.5767  0.2612
 6694SOL    HW131541   3.044   2.703  17.462  1.5404  1.1821  0.1901
 6694SOL    HW231542   2.964   2.656  17.569  2.5586 -2.5064 -0.3148
 6695SOL     OW31543   1.424   4.716   4.400  0.4199 -0.4536 -0.1736
 6695SOL    HW131544   1.431   0.077   4.356 -2.1173 -0.6346 -0.8893
 6695SOL    HW231545   1.435   0.017   4.492  2.3761 -4.1715  0.5926
 6696SOL     OW31546   3.843   3.570   0.652  0.0828 -0.8222  0.0113
 6696SOL    HW131547   3.933   3.552   0.624 -0.0198  1.6222 -1.9925
 6696SOL    HW231548   3.811   3.487   0.686 -1.7093 -0.4336 -0.7172
 6697SOL     OW31549   1.092   2.200   7.269  0.3106 -0.0000  0.4421
 6697SOL    HW131550   1.051   2.274   7.314 -1.0475 -0.5696  0.1366
 6697SOL    HW231551   1.085   2.231   7.179 -0.3072  1.7704  1.1038
 6698SOL     OW31552   3.263   1.033   8.582  0.3413 -0.2658  0.1661
 6698SOL    HW131553   3.325   1.069   8.518  1.4268 -1.0787  0.7567
 6698SOL    HW231554   3.307   0.958   8.621 -1.1026 -1.0696  0.1978
 6699SOL     OW31555   4.077   3.681  13.742 -0.6748 -0.4907 -0.4166
 6699SOL    HW131556   4.059   3.775  13.747  1.4855 -0.1688  1.3621
 6699SOL    HW231557   4.172   3.686  13.728 -0.0843  0.7759  4.1811
 6700SOL     OW31558   3.543   4.495   3.447  0.4680 -0.2808 -0.5676
 6700SOL    HW131559   3.565   4.567   3.387 -0.5055 -0.5290 -1.2200
 6700SOL    HW231560   3.619   4.439   3.434 -0.0756 -0.8776 -1.1467
 6701SOL     OW31561   3.805   1.032  17.301  0.0326 -0.0891  0.1277
 6701SOL    HW131562   3.856   0.972  17.247 -2.1967 -1.1739 -0.7966
 6701SOL    HW231563   3.777   0.971  17.370  0.6690 -0.4450  0.0764
 6702SOL     OW31564   1.251   2.751   7.344 -0.0712 -0.1611  0.2961
 6702SOL    HW131565   1.322   2.688   7.333  2.0303  2.4604 -1.3159
 6702SOL    HW231566   1.219   2.733   7.432 -1.1287  2.6646  0.4813
 6703SOL     OW31567   1.532   3.652   4.994  0.1816 -0.1687 -0.0494
 6703SOL    HW131568   1.603   3.681   5.051  1.0013  0.4109 -1.3743
 6703SOL    HW231569   1.555   3.706   4.919  2.3702  0.3837  1.0164
 6704SOL     OW31570   0.284   0.734  17.593  0.1752 -0.0731  0.3673
 6704SOL    HW131571   0.332   0.694  17.665  0.4781 -1.5593 -0.6613
 6704SOL    HW231572   0.354   0.786  17.553  0.2780 -1.2246 -0.9344
 6705SOL     OW31573   0.397   1.391   8.942  0.7044 -0.3518  0.6670
 6705SOL    HW131574   0.331   1.322   8.954 -1.8926  2.0479  0.2985
 6705SOL    HW231575   0.334   1.462   8.927  2.2369  1.7373  4.1571
 6706SOL     OW31576   1.258   4.449   9.600  0.5998  0.3785 -0.3551
 6706SOL    HW131577   1.351   4.433   9.614  0.3120 -2.4750 -1.7564
 6706SOL    HW231578   1.264   4.503   9.522 -1.1426  1.1142  0.0099
 6707SOL     OW31579   4.039   1.299   7.096 -0.8790 -0.6948  0.3482
 6707SOL    HW131580   4.118   1.353   7.106 -1.0012 -0.2575 -1.0154
 6707SOL    HW231581   4.076   1.217   7.130  1.3727 -0.5531 -1.7552
 6708SOL     OW31582   3.729   3.347   3.494 -0.0205  0.4497 -0.1500
 6708SOL    HW131583   3.770   3.432   3.478 -0.5126  0.6291 -0.4656
 6708SOL    HW231584   3.638   3.372   3.478  1.0990  3.8631 -1.3099
 6709SOL     OW31585   4.489   1.577   0.602  0.8415 -0.0369  0.4832
 6709SOL    HW131586   4.406   1.530   0.604 -0.2461  1.8338 -0.3195
 6709SOL    HW231587   4.546   1.528   0.543  1.5741  1.8185 -0.3649
 6710SOL     OW31588   0.470   0.592   3.457  0.2670 -0.4732 -0.0056
 6710SOL    HW131589   0.451   0.498   3.462 -1.9979  0.0548  1.5060
 6710SOL    HW231590   0.565   0.585   3.451  0.1831 -0.3028 -1.3699
 6711SOL     OW31591   1.418   1.480   6.309 -0.4256  0.0266  0.1337
 6711SOL    HW131592   1.391   1.568   6.335  2.0771  1.3064 -1.6024
 6711SOL    HW231593   1.466   1.491   6.227  0.1730 -0.5014  0.4133
 6712SOL     OW31594   3.731   3.555  14.301  0.6542 -0.0948  0.6311
 6712SOL    HW131595   3.781   3.476  14.323  2.9777  1.4531  0.8745
 6712SOL    HW231596   3.646   3.514  14.314 -0.0965  1.0203 -0.7122
 6713SOL     OW31597   4.632   3.321   1.120 -0.0073  0.1176 -0.0830
 6713SOL    HW131598   4.577   3.242   1.120  1.4148 -0.8781  0.3866
 6713SOL    HW231599   4.581   3.389   1.077 -0.3250  0.9554  1.6383
 6714SOL     OW31600   2.043   1.719   9.161  0.4378 -0.3233 -0.3998
 6714SOL    HW131601   2.053   1.807   9.123 -0.7645  0.3082  0.7516
 6714SOL    HW231602   2.133   1.694   9.181 -0.4569 -2.1233  1.3108
 6715SOL     OW31603   1.756   1.248   1.267 -0.2495 -0.2183  0.3376
 6715SOL    HW131604   1.727   1.264   1.357 -0.8684 -1.6100  0.3908
 6715SOL    HW231605   1.703   1.176   1.232 -1.8115  0.7278  0.7298
 6716SOL     OW31606   2.004   2.408  10.731  0.2686  0.2341  0.2982
 6716SOL    HW131607   2.077   2.464  10.756  0.4557 -0.0744  0.4229
 6716SOL    HW231608   1.954   2.405  10.813 -1.1337  0.3739 -0.5369
 6717SOL     OW31609   4.265   3.972   5.411 -0.7120  0.2271  0.1093
 6717SOL    HW131610   4.197   3.959   5.345  0.2288 -2.8801 -0.2572
 6717SOL    HW231611   4.214   3.999   5.487 -1.3019 -0.0527 -0.1859
 6718SOL     OW31612   0.416   2.124   3.284 -0.3389  0.5830 -0.7645
 6718SOL    HW131613   0.445   2.125   3.375  0.0220 -1.1460 -0.8586
 6718SOL    HW231614   0.323   2.116   3.304  0.0402 -2.3597 -0.2043
 6719SOL     OW31615   1.485   2.808   8.661  0.5253 -0.1172 -0.1525
 6719SOL    HW131616   1.502   2.787   8.752 -0.0223  0.0188 -0.0167
 6719SOL    HW231617   1.399   2.851   8.664  0.1128 -1.1569  3.2304
 6720SOL     OW31618   3.601   1.639  14.846  0.4813 -0.6355  0.0149
 6720SOL    HW131619   3.564   1.651  14.759 -0.0806 -1.1556  0.1834
 6720SOL    HW231620   3.661   1.568  14.827  1.4439  0.6002 -1.5934
 6721SOL     OW31621   1.837   4.213   5.552 -0.1164 -0.4964 -0.3118
 6721SOL    HW131622   1.900   4.147   5.526  0.7839 -0.3541  1.5079
 6721SOL    HW231623   1.826   4.187   5.643 -1.7137 -1.2313 -0.7142
 6722SOL     OW31624   2.830   3.195   0.949 -0.1993  0.3764  0.3350
 6722SOL    HW131625   2.746   3.240   0.960 -0.3861  0.0120  0.3991
 6722SOL    HW231626   2.833   3.150   1.033 -0.6644 -0.1624  0.0656
 6723SOL     OW31627   3.946   3.523   2.745  0.1151  0.1331  0.0699
 6723SOL    HW131628   3.877   3.548   2.684  1.5630  0.7302 -1.2969
 6723SOL    HW231629   3.896   3.547   2.824  0.9314  1.6059  0.1366
 6724SOL     OW31630   1.439   0.019   6.697 -0.0218  0.0266  0.4306
 6724SOL    HW131631   1.386   0.097   6.710 -2.3109 -1.0704 -2.0738
 6724SOL    HW231632   1.478   0.028   6.610 -0.2194  0.1391  0.3544
 6725SOL     OW31633   0.449   0.334  16.140 -0.6037 -0.3494  0.0396
 6725SOL    HW131634   0.487   0.246  16.140 -0.2217 -0.1866 -0.7991
 6725SOL    HW231635   0.486   0.378  16.063 -2.2692  0.9540 -0.0057
 6726SOL     OW31636   3.370   3.558  14.864  0.5369  0.2006  0.0677
 6726SOL    HW131637   3.398   3.618  14.794  0.4637 -0.6260 -0.6701
 6726SOL    HW231638   3.444   3.498  14.859  0.3917 -0.0601  1.0968
 6727SOL     OW31639   1.074   4.551   0.217  0.0104  0.5007  0.6608
 6727SOL    HW131640   1.029   4.594   0.144 -0.2092 -0.3715  0.2735
 6727SOL    HW231641   1.136   4.499   0.164 -1.5584 -0.8642  0.1433
 6728SOL     OW31642   3.663   3.944  11.237  0.2005 -0.5568  0.3725
 6728SOL    HW131643   3.617   3.907  11.312  0.0595 -0.8605  0.1383
 6728SOL    HW231644   3.739   3.987  11.274 -0.2466  0.3433  0.2580
 6729SOL     OW31645   3.650   2.633   2.331  0.1044 -0.6206  0.4508
 6729SOL    HW131646   3.565   2.676   2.346 -0.6251 -1.9317  0.0071
 6729SOL    HW231647   3.702   2.654   2.409  2.2349  0.2522 -1.2160
 6730SOL     OW31648   2.486   0.412  13.911  0.3420 -0.7841 -0.7105
 6730SOL    HW131649   2.574   0.374  13.912  0.3130 -0.8507 -0.6831
 6730SOL    HW231650   2.468   0.439  14.001 -3.7065 -2.5027 -1.0048
 6731SOL     OW31651   4.346   3.954  12.208  0.1782  0.1229 -0.1144
 6731SOL    HW131652   4.428   3.941  12.257  0.0516  0.4321  0.1858
 6731SOL    HW231653   4.338   3.882  12.146 -0.2939 -0.1522  0.2743
 6732SOL     OW31654   3.773   3.433  15.906  0.4838 -0.2666 -0.4173
 6732SOL    HW131655   3.864   3.404  15.905  0.6317  0.1949 -0.3992
 6732SOL    HW231656   3.780   3.492  15.981  0.2661 -1.6666  0.6968
 6733SOL     OW31657   2.733   2.907   5.289  0.2139  0.4385 -0.0335
 6733SOL    HW131658   2.805   2.846   5.301 -0.6117 -0.7069 -0.8497
 6733SOL    HW231659   2.733   2.939   5.199 -1.3987 -0.1673 -0.2557
 6734SOL     OW31660   1.999   0.886   7.929 -0.4036  0.6371  0.6111
 6734SOL    HW131661   2.087   0.846   7.928 -0.6059  0.1862  1.2943
 6734SOL    HW231662   2.002   0.958   7.991  0.1795  1.5365 -0.4508
 6735SOL     OW31663   3.421   3.730   5.846  0.3756  0.2151  0.1238
 6735SOL    HW131664   3.368   3.785   5.904 -1.9987  0.5201 -2.3419
 6735SOL    HW231665   3.421   3.652   5.901  1.2506  0.2419  0.1598
 6736SOL     OW31666   0.147   0.213   7.121  0.0250  0.5989 -0.0598
 6736SOL    HW131667   0.092   0.138   7.098 -0.7627  0.8604  0.9952
 6736SOL    HW231668   0.208   0.169   7.180 -0.1881 -0.6432 -0.7648
 6737SOL     OW31669   1.045   0.234   2.390 -0.2294 -0.5076 -0.0582
 6737SOL    HW131670   0.988   0.247   2.314 -0.1096 -1.0182 -0.2313
 6737SOL    HW231671   1.006   0.151   2.415  1.0817 -0.9472  0.5272
 6738SOL     OW31672   3.519   3.546   9.891 -0.0905 -0.0992 -0.3727
 6738SOL    HW131673   3.608   3.510   9.898  0.1322 -0.1136 -2.9413
 6738SOL    HW231674   3.513   3.571   9.798  0.5028  0.4381 -0.2673
 6739SOL     OW31675   0.393   0.580   6.414  0.0479 -0.4326 -0.1620
 6739SOL    HW131676   0.389   0.674   6.434 -2.5744 -0.2083 -1.7676
 6739SOL    HW231677   0.479   0.560   6.451  0.6374  1.0405 -0.7477
 6740SOL     OW31678   2.915   1.751  10.268  0.4365  0.3059  0.5408
 6740SOL    HW131679   2.982   1.791  10.323  2.3260 -1.5651 -0.3963
 6740SOL    HW231680   2.951   1.664  10.251  1.5181  0.6011  1.3421
 6741SOL     OW31681   1.380   3.886   8.655  0.0016 -0.3589 -0.2256
 6741SOL    HW131682   1.457   3.885   8.599 -1.0356  0.8607 -1.6668
 6741SOL    HW231683   1.313   3.850   8.596  0.6436 -1.9449  0.0194
 6742SOL     OW31684   0.156   4.436   7.484  0.5964  0.1842  0.4070
 6742SOL    HW131685   0.223   4.376   7.516  1.9946  0.3659 -2.2606
 6742SOL    HW231686   0.201   4.518   7.498 -2.1281  1.7493  0.0548
 6743SOL     OW31687   1.076   2.454   4.977  0.6671 -0.5667 -0.2408
 6743SOL    HW131688   1.043   2.372   4.939 -3.5780  0.0055  2.1568
 6743SOL    HW231689   1.121   2.490   4.901 -0.7697 -1.5857 -1.5712
 6744SOL     OW31690   0.543   3.984  11.601  0.3477  0.3241 -0.2851
 6744SOL    HW131691   0.616   4.037  11.570  0.7325  0.4250  0.7707
 6744SOL    HW231692   0.565   3.958  11.691  2.1808  0.2184 -0.7538
 6745SOL     OW31693   2.381   2.304   6.536 -0.7560 -0.1198 -0.2029
 6745SOL    HW131694   2.399   2.380   6.481  1.0446 -1.4853 -1.4605
 6745SOL    HW231695   2.418   2.326   6.622 -1.9525 -0.6551  0.4529
 6746SOL     OW31696   1.464   2.621   6.842 -0.2878  0.0209 -0.4155
 6746SOL    HW131697   1.418   2.547   6.880  1.3374 -0.2864  0.9786
 6746SOL    HW231698   1.516   2.663   6.912  0.8976 -0.7285 -0.8389
 6747SOL     OW31699   2.376   3.621  16.229 -0.5910 -0.3659  0.0970
 6747SOL    HW131700   2.305   3.633  16.166 -1.8508  0.8850  1.7469
 6747SOL    HW231701   2.370   3.526  16.237  1.1973 -0.5665 -0.9266
 6748SOL     OW31702   1.245   3.414   0.223  0.5659  0.3707 -0.1028
 6748SOL    HW131703   1.242   3.500   0.264 -1.4874  0.5232 -0.6047
 6748SOL    HW231704   1.188   3.364   0.282 -0.2482  0.7686 -0.5493
 6749SOL     OW31705   3.605   4.492   6.804  0.7247  0.1000  0.2712
 6749SOL    HW131706   3.572   4.441   6.879 -0.1515  0.5101  0.1719
 6749SOL    HW231707   3.528   4.478   6.747 -0.9443 -0.0536  2.5547
 6750SOL     OW31708   2.259   0.824   4.994  0.7607 -0.2917  0.2915
 6750SOL    HW131709   2.300   0.811   4.908  0.0578 -1.3783  0.1123
 6750SOL    HW231710   2.217   0.738   5.006  1.3152 -0.3058  2.1499
 6751SOL     OW31711   1.474   0.599  10.998 -0.0459 -0.1500  0.2335
 6751SOL    HW131712   1.505   0.540  11.067  2.6111  0.9063 -0.0385
 6751SOL    HW231713   1.432   0.541  10.934 -0.1863  2.0185 -1.6068
 6752SOL     OW31714   2.912   1.983   1.782 -0.4405 -0.0303  0.0278
 6752SOL    HW131715   2.933   1.961   1.691 -0.7411  2.2802 -0.6180
 6752SOL    HW231716   2.976   2.044   1.818 -1.0641  1.3865 -1.2371
 6753SOL     OW31717   3.062   0.950   8.349  0.3270  0.2367 -0.0940
 6753SOL    HW131718   3.136   1.009   8.367  0.9503 -0.3196 -0.8088
 6753SOL    HW231719   3.018   0.953   8.433  0.0817 -0.3253 -0.2016
 6754SOL     OW31720   0.178   1.283  15.054  0.0747  0.1690  0.1212
 6754SOL    HW131721   0.108   1.338  15.091 -0.5741  0.4617 -1.5335
 6754SOL    HW231722   0.127   1.208  15.024  0.3575 -0.2456  0.6776
 6755SOL     OW31723   4.531   4.367   3.562 -0.0093  0.6826 -0.0120
 6755SOL    HW131724   4.624   4.374   3.582  0.3769  2.6012 -2.3945
 6755SOL    HW231725   4.527   4.272   3.571  0.8099  0.4388 -2.1737
 6756SOL     OW31726   2.569   2.680   3.732  0.6979  0.4453 -0.8709
 6756SOL    HW131727   2.506   2.752   3.745  0.2997  0.0083 -0.3642
 6756SOL    HW231728   2.553   2.643   3.646 -1.6499 -1.4560  0.3864
 6757SOL     OW31729   3.474   3.461  17.609 -0.1766  0.6724 -0.1246
 6757SOL    HW131730   3.419   3.392  17.647  0.8214  1.0718  2.0417
 6757SOL    HW231731   3.521   3.425  17.533 -2.4525 -0.3728 -1.0330
 6758SOL     OW31732   0.204   3.903   6.080  0.4991 -0.0922  0.7888
 6758SOL    HW131733   0.143   3.967   6.118  0.6700  0.2523  0.4828
 6758SOL    HW231734   0.271   3.957   6.037 -0.1392  0.3514  0.3476
 6759SOL     OW31735   2.028   4.692   6.652 -0.1030 -0.5308  0.7053
 6759SOL    HW131736   1.955   0.012   6.608  0.9641  0.4488 -0.1056
 6759SOL    HW231737   2.008   4.599   6.645 -0.7091 -0.3483 -0.0455
 6760SOL     OW31738   4.099   2.577  11.109 -0.4888  0.1629  0.1975
 6760SOL    HW131739   4.179   2.602  11.156 -0.9699  1.5944  0.2648
 6760SOL    HW231740   4.098   2.652  11.050 -4.4635 -1.3088 -1.6209
 6761SOL     OW31741   1.628   3.741  15.688  0.3206 -0.4409 -0.1473
 6761SOL    HW131742   1.629   3.764  15.595  2.1737  0.2786  0.0603
 6761SOL    HW231743   1.669   3.814  15.734  0.6208 -0.2982 -0.6359
 6762SOL     OW31744   0.670   1.772   2.274  0.0279 -0.3518  0.0292
 6762SOL    HW131745   0.744   1.724   2.238 -1.2663 -2.7539  0.5286
 6762SOL    HW231746   0.619   1.709   2.327  0.0407  0.3330  0.8542
 6763SOL     OW31747   0.734   1.686   5.688 -0.4604  0.3566 -0.3912
 6763SOL    HW131748   0.803   1.703   5.624  2.0129 -1.1116  1.8739
 6763SOL    HW231749   0.756   1.602   5.728 -1.3353  0.1137 -0.4152
 6764SOL     OW31750   3.557   1.800  16.965 -0.4513 -0.0181 -0.2868
 6764SOL    HW131751   3.622   1.774  16.900 -0.8392  1.5455 -1.3089
 6764SOL    HW231752   3.538   1.887  16.930  1.4794 -0.9895 -3.7838
 6765SOL     OW31753   0.247   0.126   5.014  0.3833  0.3731  0.2591
 6765SOL    HW131754   0.207   0.087   5.092 -0.6454 -0.4081 -0.6695
 6765SOL    HW231755   0.231   0.218   5.039 -0.0132  0.6925 -1.1878
 6766SOL     OW31756   0.333   4.347   5.851 -0.2815  0.4447 -0.1090
 6766SOL    HW131757   0.403   4.391   5.898 -0.0548 -1.1430  1.0266
 6766SOL    HW231758   0.270   4.418   5.838 -0.5854 -0.1969 -2.1544
 6767SOL     OW31759   0.982   0.577   9.181  0.2941 -0.2300  0.0414
 6767SOL    HW131760   0.888   0.565   9.193  0.1605  2.5905  1.7347
 6767SOL    HW231761   1.026   0.523   9.247  0.7263  0.1064  0.0335
 6768SOL     OW31762   2.925   2.892  15.360 -0.5971 -0.2656  0.2178
 6768SOL    HW131763   3.012   2.911  15.395 -0.9658  0.4840  0.7240
 6768SOL    HW231764   2.941   2.842  15.279 -0.4011 -0.4051  0.3424
 6769SOL     OW31765   1.615   0.857   0.223  0.6018  0.5308 -0.9616
 6769SOL    HW131766   1.576   0.814   0.147 -2.3578  0.5407  0.5545
 6769SOL    HW231767   1.706   0.867   0.196  1.5396 -1.7546  1.4314
 6770SOL     OW31768   2.852   0.743   1.717  0.5918  0.5648  1.1012
 6770SOL    HW131769   2.892   0.716   1.635 -2.2937  1.0231 -0.4597
 6770SOL    HW231770   2.760   0.746   1.690  0.7052  2.8888  1.0055
 6771SOL     OW31771   2.725   2.666  10.783 -0.6791  0.1146  0.0847
 6771SOL    HW131772   2.763   2.753  10.794  1.8909 -1.0396  0.5220
 6771SOL    HW231773   2.686   2.679  10.697  0.0238 -3.4757 -0.7934
 6772SOL     OW31774   1.017   1.676   4.838  0.3982 -0.0473  0.7417
 6772SOL    HW131775   0.925   1.666   4.813 -0.1141  2.0237  1.7533
 6772SOL    HW231776   1.027   1.764   4.874  1.1161  0.6221 -1.0893
 6773SOL     OW31777   2.833   1.368   2.251  0.0429 -0.7349 -0.2495
 6773SOL    HW131778   2.843   1.451   2.297  0.2154 -1.3511  0.8231
 6773SOL    HW231779   2.918   1.336   2.280  0.4559 -1.6247 -2.4316
 6774SOL     OW31780   4.381   1.367   2.564  0.2673 -0.2861  0.2759
 6774SOL    HW131781   4.386   1.446   2.510  2.5313 -0.3027  0.4696
 6774SOL    HW231782   4.474   1.362   2.585 -0.2080 -2.6410  1.7477
 6775SOL     OW31783   3.663   0.990  15.973 -0.1429 -0.0355 -0.3721
 6775SOL    HW131784   3.647   0.939  15.894  0.8200 -0.3545 -0.3659
 6775SOL    HW231785   3.585   1.045  15.972  1.1302  1.7876  0.0633
 6776SOL     OW31786   4.134   3.228   1.100 -0.6044 -0.4074 -0.4004
 6776SOL    HW131787   4.158   3.162   1.035 -0.3782 -0.8981  0.1717
 6776SOL    HW231788   4.092   3.292   1.044  0.3887 -0.7224 -1.5023
 6777SOL     OW31789   0.674   1.054   2.623 -0.7459  0.1895 -0.4430
 6777SOL    HW131790   0.673   0.958   2.625  4.6075  0.1220 -2.9216
 6777SOL    HW231791   0.624   1.073   2.544  1.7750  0.0808 -2.0492
 6778SOL     OW31792   0.363   3.881   5.552 -0.1274  0.1340 -0.1324
 6778SOL    HW131793   0.371   3.974   5.574 -0.8405 -0.0428  0.8591
 6778SOL    HW231794   0.315   3.860   5.632  1.1147  1.8940  1.0699
 6779SOL     OW31795   0.778   0.781   0.161  0.2804  0.5223  0.0455
 6779SOL    HW131796   0.801   0.690   0.181 -1.5879  0.0486  0.1043
 6779SOL    HW231797   0.790   0.825   0.245 -0.9620  0.6755  0.1444
 6780SOL     OW31798   3.578   2.634  11.817  0.3953  0.0156 -0.2395
 6780SOL    HW131799   3.566   2.724  11.787  0.2150  0.0913  0.0608
 6780SOL    HW231800   3.491   2.613  11.850  0.0108  1.8362 -0.0872
 6781SOL     OW31801   3.412   2.053   5.804  0.3524  0.2367  0.5714
 6781SOL    HW131802   3.357   2.102   5.864 -2.4615 -0.6853 -1.2328
 6781SOL    HW231803   3.468   2.001   5.862  1.0856 -0.2534 -0.5649
 6782SOL     OW31804   3.365   3.946   2.175  0.0093 -0.4797  0.3321
 6782SOL    HW131805   3.426   3.992   2.232 -0.1133  0.4708 -0.3050
 6782SOL    HW231806   3.309   3.907   2.242  1.6202 -0.7187  1.5277
 6783SOL     OW31807   4.219   1.062   7.168 -0.7695  0.6750 -0.0009
 6783SOL    HW131808   4.232   1.013   7.087 -0.1604  0.8085  0.0197
 6783SOL    HW231809   4.233   1.001   7.240 -2.8324  1.9646  1.4991
 6784SOL     OW31810   1.543   3.740  16.244  0.7664  0.3369  0.2980
 6784SOL    HW131811   1.526   3.649  16.217 -0.1476  0.9141 -1.0690
 6784SOL    HW231812   1.530   3.791  16.164  2.3511 -0.8117 -0.6935
 6785SOL     OW31813   2.451   3.801   7.660 -0.0649  0.3472  0.0548
 6785SOL    HW131814   2.384   3.794   7.727 -0.5921 -0.7038 -0.5962
 6785SOL    HW231815   2.524   3.829   7.715 -0.7257  1.6784  0.2585
 6786SOL     OW31816   2.737   2.877   4.295 -0.0514  0.7958  0.3284
 6786SOL    HW131817   2.756   2.970   4.303  1.1542  0.5821  0.0098
 6786SOL    HW231818   2.644   2.888   4.275  0.3492  1.0832 -1.3453
 6787SOL     OW31819   1.278   1.570  15.304 -0.0612 -0.4771  0.0395
 6787SOL    HW131820   1.318   1.483  15.299  0.3325 -0.1942 -1.7014
 6787SOL    HW231821   1.353   1.625  15.328  0.5737 -1.8068  1.0946
 6788SOL     OW31822   3.755   0.037   7.349  0.9949 -0.0248  0.5871
 6788SOL    HW131823   3.755   0.116   7.294  1.5990 -0.9918 -0.7832
 6788SOL    HW231824   3.666   0.035   7.384 -0.7000  1.6006 -3.6324
 6789SOL     OW31825   0.798   3.131   1.159 -0.0909 -0.0729  0.0407
 6789SOL    HW131826   0.718   3.147   1.209  0.2774  2.1420 -0.1115
 6789SOL    HW231827   0.851   3.207   1.182 -1.8996  0.9409  0.9015
 6790SOL     OW31828   4.693   3.926  11.815 -0.6109 -0.5920  0.2855
 6790SOL    HW131829   4.718   4.008  11.771 -1.0340 -0.9317 -0.5845
 6790SOL    HW231830   0.039   3.869  11.782 -1.5304 -1.0779 -0.7726
 6791SOL     OW31831   1.711   3.286   4.797  0.1414 -0.0557  0.2348
 6791SOL    HW131832   1.713   3.329   4.882  1.1454  2.7548 -1.1879
 6791SOL    HW231833   1.632   3.331   4.766 -0.3752 -1.6771 -0.8240
 6792SOL     OW31834   4.391   1.144   7.363 -0.3397 -0.1086  0.2110
 6792SOL    HW131835   4.364   1.138   7.272 -0.3575  1.4808  0.1006
 6792SOL    HW231836   4.353   1.059   7.383  1.4548 -0.3910  2.4756
 6793SOL     OW31837   4.314   0.236   7.633 -0.3475 -0.0864  0.3200
 6793SOL    HW131838   4.362   0.306   7.588  0.1621 -0.3864  0.4023
 6793SOL    HW231839   4.231   0.283   7.645 -0.3416 -0.5027  2.0721
 6794SOL     OW31840   0.941   1.433  16.828  0.2205 -0.3215  0.4745
 6794SOL    HW131841   0.846   1.443  16.827  0.0817 -1.5364  1.6930
 6794SOL    HW231842   0.960   1.340  16.824 -3.3178 -0.9698 -1.0405
 6795SOL     OW31843   2.596   4.528   5.947 -0.1392  0.5087 -0.3631
 6795SOL    HW131844   2.518   4.506   5.998  0.8186 -0.8454  0.5341
 6795SOL    HW231845   2.550   4.576   5.877  0.1482  1.9786  0.4475
 6796SOL     OW31846   2.611   3.001   7.778 -0.2023 -0.4418 -0.1503
 6796SOL    HW131847   2.680   2.939   7.755 -0.5942 -0.3884 -1.4552
 6796SOL    HW231848   2.638   3.005   7.870  0.8849 -0.7036 -0.4539
 6797SOL     OW31849   3.270   3.355   6.116  0.5310  0.3838  0.3341
 6797SOL    HW131850   3.304   3.428   6.168 -1.0554  1.0618  0.4348
 6797SOL    HW231851   3.351   3.305   6.116 -2.1018 -3.8903 -2.7476
 6798SOL     OW31852   1.066   2.192   5.568 -0.1870  0.4158 -0.1584
 6798SOL    HW131853   1.056   2.284   5.541  0.8608  0.8958  1.0851
 6798SOL    HW231854   1.115   2.154   5.495 -1.0603 -0.3306 -0.3452
 6799SOL     OW31855   3.911   2.363   0.913 -0.2146 -0.3309  0.1455
 6799SOL    HW131856   3.832   2.344   0.862 -0.3765  0.2278  0.1896
 6799SOL    HW231857   3.977   2.370   0.844  2.0423 -1.7276  2.1469
 6800SOL     OW31858   4.165   4.164   7.981  0.7477 -0.0799  0.0581
 6800SOL    HW131859   4.183   4.142   8.073  0.3102  0.1416  0.1969
 6800SOL    HW231860   4.116   4.084   7.962  1.3107 -0.3649 -0.1949
 6801SOL     OW31861   1.103   4.574   7.790 -0.1194  0.7353 -0.3192
 6801SOL    HW131862   1.087   4.483   7.814 -0.5988  1.8000  3.3713
 6801SOL    HW231863   1.124   4.564   7.697 -1.3601  0.0152 -0.5285
 6802SOL     OW31864   0.749   1.565   7.169 -0.9774 -0.6622 -0.5101
 6802SOL    HW131865   0.813   1.520   7.224 -1.9595  1.2297  2.1943
 6802SOL    HW231866   0.754   1.655   7.202  0.3118 -1.0255  0.2927
 6803SOL     OW31867   4.195   2.443   6.633 -1.0819  0.2865 -0.4309
 6803SOL    HW131868   4.282   2.449   6.671 -0.8994 -1.1907 -0.6283
 6803SOL    HW231869   4.188   2.349   6.617 -2.8456  0.9836 -3.8478
 6804SOL     OW31870   0.004   1.778   0.925 -0.4686 -0.0990  0.4369
 6804SOL    HW131871   0.059   1.701   0.940 -0.8052 -0.4560 -0.1637
 6804SOL    HW231872   4.660   1.759   0.991 -2.3351  0.1667 -1.3804
 6805SOL     OW31873   4.260   3.771   6.348 -0.2540 -0.3612  0.2522
 6805SOL    HW131874   4.253   3.826   6.270  3.3523  1.7271  1.4164
 6805SOL    HW231875   4.194   3.805   6.408 -1.3653 -0.6856 -0.7613
 6806SOL     OW31876   4.252   1.699  10.784 -0.0919  0.0520  0.1647
 6806SOL    HW131877   4.316   1.662  10.844 -0.6138 -1.9557 -0.5294
 6806SOL    HW231878   4.273   1.791  10.799  2.3471 -0.8507  2.2099
 6807SOL     OW31879   4.681   3.790   7.302 -0.3874 -0.1846  0.0790
 6807SOL    HW131880   4.626   3.815   7.228  1.2933  0.1670 -1.0292
 6807SOL    HW231881   4.629   3.712   7.325  0.6737 -1.1880 -0.9247
 6808SOL     OW31882   3.063   3.769  14.875  0.1666 -0.1480  0.0481
 6808SOL    HW131883   3.136   3.713  14.902  0.1949  0.0860  0.4477
 6808SOL    HW231884   2.992   3.707  14.890  1.3759 -1.4875  0.2639
 6809SOL     OW31885   0.040   3.771   5.220  0.3684  0.1804 -0.5040
 6809SOL    HW131886   0.082   3.826   5.155 -0.2011  0.9855 -0.1874
 6809SOL    HW231887   0.029   3.690   5.170  1.9907  0.9425 -2.0633
 6810SOL     OW31888   0.843   3.897   1.872 -0.0456  0.1112  0.3272
 6810SOL    HW131889   0.752   3.868   1.864  0.2406 -0.1993 -1.8095
 6810SOL    HW231890   0.877   3.846   1.799  0.2999 -0.6082  0.9947
 6811SOL     OW31891   2.004   1.417   2.433 -0.0706 -0.3942 -0.0072
 6811SOL    HW131892   2.009   1.381   2.522 -2.3138 -2.0990 -0.5754
 6811SOL    HW231893   1.982   1.335   2.389  0.2325  0.2182 -1.2806
 6812SOL     OW31894   4.351   3.923  16.531  0.3796  0.1219  0.1491
 6812SOL    HW131895   4.265   3.945  16.494  1.5767  2.0105 -1.5186
 6812SOL    HW231896   4.321   3.864  16.601 -0.6291  0.5437  0.0781
 6813SOL     OW31897   2.875   3.465   0.092  0.1660  0.1883  1.0607
 6813SOL    HW131898   2.920   3.384   0.069  1.6690  0.8313  1.6992
 6813SOL    HW231899   2.886   3.528   0.021 -0.2768 -1.0526 -0.1102
 6814SOL     OW31900   2.202   1.804   8.317  0.7893 -0.3805 -0.8025
 6814SOL    HW131901   2.158   1.846   8.391 -1.4490  1.1949 -3.0059
 6814SOL    HW231902   2.289   1.843   8.312 -0.6982  2.8502 -2.1946
 6815SOL     OW31903   4.081   3.477   6.482 -0.0792 -0.6871 -0.1579
 6815SOL    HW131904   4.003   3.461   6.535  1.9394 -0.6847  2.8474
 6815SOL    HW231905   4.062   3.427   6.403 -1.6889  1.2227 -0.9852
 6816SOL     OW31906   3.877   2.014  17.031  0.3703 -0.0868 -0.5787
 6816SOL    HW131907   3.909   2.100  17.003  0.9736 -0.8381 -2.1959
 6816SOL    HW231908   3.784   2.037  17.039  0.1093 -0.6720 -1.9056
 6817SOL     OW31909   1.255   0.488  15.680 -0.5351 -0.5685  0.6272
 6817SOL    HW131910   1.336   0.523  15.717  0.5877 -2.1414 -0.3161
 6817SOL    HW231911   1.193   0.529  15.740 -1.0250  0.7470 -0.7928
 6818SOL     OW31912   4.161   1.697   4.448  0.1441  0.1139  0.4604
 6818SOL    HW131913   4.103   1.732   4.516 -2.4504  0.3963 -1.8959
 6818SOL    HW231914   4.100   1.642   4.399 -1.0331 -0.4267  2.5268
 6819SOL     OW31915   3.209   1.515  14.130  0.4126  0.1690 -0.1090
 6819SOL    HW131916   3.130   1.567  14.141  0.0251 -0.5218  0.3544
 6819SOL    HW231917   3.188   1.431  14.171  2.5754 -1.0875 -1.5450
 6820SOL     OW31918   3.062   4.064  14.076  0.6985 -0.1260 -0.6009
 6820SOL    HW131919   2.992   3.998  14.084  0.0564  0.5355 -0.7997
 6820SOL    HW231920   3.106   4.052  14.161 -2.2181  2.2037  1.2434
 6821SOL     OW31921   2.829   1.443   0.548 -0.1830  0.5584 -0.3372
 6821SOL    HW131922   2.860   1.517   0.601  0.6180  0.6707 -0.9643
 6821SOL    HW231923   2.912   1.415   0.510  0.3621  1.3060  0.3185
 6822SOL     OW31924   1.477   0.699   7.340  0.6541  0.0777  0.1095
 6822SOL    HW131925   1.440   0.634   7.400 -2.4554  1.0548 -0.7518
 6822SOL    HW231926   1.534   0.640   7.289  0.4007 -0.5803  0.5872
 6823SOL     OW31927   1.271   2.534  15.307  0.7202  0.3540  0.0815
 6823SOL    HW131928   1.337   2.570  15.366  1.0385  3.5224 -2.2326
 6823SOL    HW231929   1.242   2.616  15.266  0.8094 -0.2636 -1.2222
 6824SOL     OW31930   3.901   2.615  11.754  0.1175 -0.1276  0.1848
 6824SOL    HW131931   3.863   2.644  11.670  1.7918 -0.3652 -0.6573
 6824SOL    HW231932   3.863   2.527  11.755 -0.5293  0.1426 -0.4593
 6825SOL     OW31933   0.563   1.933   0.999  0.3430  0.1740  0.0566
 6825SOL    HW131934   0.576   2.001   1.065  0.0262  0.9431 -0.6799
 6825SOL    HW231935   0.628   1.868   1.026 -1.3228 -1.6815 -0.3996
 6826SOL     OW31936   1.756   0.314   9.879 -0.0892 -0.3165  0.4549
 6826SOL    HW131937   1.844   0.332   9.912  0.6140 -2.7800 -0.0568
 6826SOL    HW231938   1.770   0.289   9.788 -0.1417  0.9246  0.1162
 6827SOL     OW31939   0.047   0.362   2.668  0.1558  0.1799 -0.6423
 6827SOL    HW131940   0.113   0.429   2.688  1.7085 -1.5049 -0.1988
 6827SOL    HW231941   0.014   0.400   2.586  1.3893  1.0537 -0.7433
 6828SOL     OW31942   4.483   2.026   7.556 -0.0111  0.2508 -0.2459
 6828SOL    HW131943   4.427   1.967   7.506  0.7907 -1.6455  1.1021
 6828SOL    HW231944   4.572   1.989   7.557  0.4766  1.4961  2.4272
 6829SOL     OW31945   1.293   3.731  10.755 -0.1601 -0.0206 -0.3166
 6829SOL    HW131946   1.359   3.799  10.739 -3.8933  3.2308 -1.8564
 6829SOL    HW231947   1.289   3.747  10.849 -0.2432 -0.1803 -0.2930
 6830SOL     OW31948   4.380   4.432  13.017 -0.5665  0.5901  0.4470
 6830SOL    HW131949   4.315   4.474  12.960 -0.4906  0.7151  0.4538
 6830SOL    HW231950   4.355   4.459  13.106 -0.4099 -0.6068  0.8556
 6831SOL     OW31951   3.329   1.108  14.577  0.3702  0.2290  0.0900
 6831SOL    HW131952   3.318   1.081  14.485 -0.5306 -1.2527  0.6269
 6831SOL    HW231953   3.411   1.066  14.603  0.4455  0.5302  0.3350
 6832SOL     OW31954   4.258   4.549   5.990  0.6695  0.6170  0.5306
 6832SOL    HW131955   4.244   4.628   5.938 -0.8886  0.1259  0.2228
 6832SOL    HW231956   4.353   4.549   6.001  0.8348  1.4124 -0.9711
 6833SOL     OW31957   1.939   0.697  13.570 -0.8134  0.0909 -0.6881
 6833SOL    HW131958   1.894   0.684  13.486  1.1545  1.8214 -2.0073
 6833SOL    HW231959   1.862   0.737  13.611  0.9477  2.1959  0.5671
 6834SOL     OW31960   3.783   2.280   1.866  0.1514 -0.0814 -0.1118
 6834SOL    HW131961   3.790   2.204   1.924  0.7351 -1.0208 -1.4028
 6834SOL    HW231962   3.787   2.246   1.776  1.2327  0.4688 -0.2768
 6835SOL     OW31963   1.427   2.582   6.341  0.4263 -0.5987 -0.5109
 6835SOL    HW131964   1.448   2.653   6.280  0.7258 -0.7323 -0.5627
 6835SOL    HW231965   1.369   2.532   6.284 -1.4921 -0.2022  1.1060
 6836SOL     OW31966   4.716   2.863   3.283  0.1689 -0.3439  0.3948
 6836SOL    HW131967   0.071   2.913   3.304 -1.1723  1.5641  0.8426
 6836SOL    HW231968   4.685   2.863   3.374  0.4723 -0.8327  0.4991
 6837SOL     OW31969   1.992   2.050   2.330  0.4227  0.2721 -1.0835
 6837SOL    HW131970   1.966   1.960   2.350 -1.7801  1.3213  0.7344
 6837SOL    HW231971   2.001   2.050   2.234 -0.0655 -0.9711 -1.1258
 6838SOL     OW31972   4.065   0.224   4.274  0.5213  0.3511 -0.6282
 6838SOL    HW131973   4.088   0.220   4.181  3.2910  0.0929  0.0593
 6838SOL    HW231974   4.053   0.317   4.290  1.8373 -0.2226  3.5612
 6839SOL     OW31975   3.841   1.377   8.118  0.3839  0.0229 -0.1751
 6839SOL    HW131976   3.935   1.394   8.127  0.1364  0.3281  2.0003
 6839SOL    HW231977   3.826   1.328   8.199  2.4482 -0.1527  0.1115
 6840SOL     OW31978   3.663   0.108   7.951 -0.3643 -0.6337 -0.0233
 6840SOL    HW131979   3.632   0.031   7.903  0.0469 -0.8270  0.0196
 6840SOL    HW231980   3.750   0.070   7.963 -0.4864 -0.6890  0.6988
 6841SOL     OW31981   0.472   2.677   3.826  0.2821 -0.6321 -0.3449
 6841SOL    HW131982   0.485   2.583   3.815  1.0578 -0.5864  0.1379
 6841SOL    HW231983   0.395   2.692   3.772  1.0336 -0.2204 -1.3143
 6842SOL     OW31984   2.013   3.620   4.077 -0.5978  0.0404  0.3914
 6842SOL    HW131985   1.953   3.561   4.032 -1.3889  1.9947 -1.1399
 6842SOL    HW231986   1.948   3.637   4.145 -0.7925 -2.0650  0.7282
 6843SOL     OW31987   2.036   4.582   5.807  0.3957  0.6374  0.8912
 6843SOL    HW131988   1.972   4.566   5.876  0.4117 -0.7066  0.5829
 6843SOL    HW231989   2.006   4.522   5.739  3.3952  2.0618 -1.6651
 6844SOL     OW31990   2.334   4.342  16.240 -0.6626  0.3378  0.0677
 6844SOL    HW131991   2.243   4.359  16.266 -1.5819  1.1477 -3.6447
 6844SOL    HW231992   2.345   4.247  16.249  2.5699  0.8417  1.0755
 6845SOL     OW31993   2.825   1.959   8.255 -0.0921 -0.1101 -0.4124
 6845SOL    HW131994   2.836   1.882   8.200  1.5719 -1.1359  1.3793
 6845SOL    HW231995   2.730   1.962   8.265  0.1034  2.4846  0.8305
 6846SOL     OW31996   1.389   1.755   3.478 -0.0965  0.5068  0.5070
 6846SOL    HW131997   1.445   1.762   3.555  0.5497 -1.3201  0.1908
 6846SOL    HW231998   1.340   1.837   3.487  2.1045  2.1725 -2.6615
 6847SOL     OW31999   3.070   1.187   8.120 -0.8030 -0.2571  0.0686
 6847SOL    HW132000   3.116   1.180   8.037 -0.8241 -1.2754  0.1419
 6847SOL    HW232001   3.140   1.172   8.184  2.3976  1.0538 -3.1262
 6848SOL     OW32002   3.933   4.390  15.358 -0.0238 -0.7611  0.3721
 6848SOL    HW132003   3.927   4.475  15.400  0.0282 -1.4627  1.8087
 6848SOL    HW232004   3.989   4.405  15.282 -0.5896  2.2404  0.5425
 6849SOL     OW32005   1.412   4.522   7.369  0.6095 -0.2446 -0.0762
 6849SOL    HW132006   1.473   4.495   7.438  1.2044 -1.6228 -1.1413
 6849SOL    HW232007   1.426   4.458   7.299 -1.6231  1.3412 -1.9647
 6850SOL     OW32008   1.488   4.179   8.505  0.3976  0.4345  0.0615
 6850SOL    HW132009   1.548   4.248   8.476  1.8361 -0.9956 -0.3825
 6850SOL    HW232010   1.515   4.108   8.446  1.8729  0.5578  0.5885
 6851SOL     OW32011   4.198   3.529   4.050  0.1896  0.3736  0.3996
 6851SOL    HW132012   4.240   3.556   3.969 -1.4031 -0.7795 -0.8036
 6851SOL    HW232013   4.254   3.568   4.118  0.3830 -0.6372  0.8110
 6852SOL     OW32014   0.158   3.748   4.257  0.0202 -0.1135 -0.1041
 6852SOL    HW132015   0.253   3.733   4.256 -0.2866 -2.0676  0.8166
 6852SOL    HW232016   0.151   3.809   4.331  2.2931  1.2633 -1.0128
 6853SOL     OW32017   4.480   1.746   4.701  0.1419  0.3650 -0.1546
 6853SOL    HW132018   4.391   1.743   4.737  0.8393  1.9830  1.7479
 6853SOL    HW232019   4.476   1.832   4.659  1.0341  0.7733  0.5846
 6854SOL     OW32020   1.595   2.698   5.285 -0.4567  0.2875 -0.1509
 6854SOL    HW132021   1.536   2.622   5.286 -0.9825  0.7251  2.4002
 6854SOL    HW232022   1.628   2.679   5.197  0.0263  0.6928 -0.0592
 6855SOL     OW32023   4.663   0.561   9.730 -0.0344 -0.1064  0.0345
 6855SOL    HW132024   4.700   0.586   9.645 -0.7718  1.1790  0.0837
 6855SOL    HW232025   4.721   0.498   9.772 -1.1940 -2.0481 -1.2579
 6856SOL     OW32026   2.618   2.653   8.187  0.3633  0.0467  0.3850
 6856SOL    HW132027   2.657   2.739   8.204  1.6041 -0.9931  2.8160
 6856SOL    HW232028   2.545   2.651   8.248  1.6222  0.5826  1.9217
 6857SOL     OW32029   0.652   1.218   4.490  0.3844 -0.3675 -0.4229
 6857SOL    HW132030   0.580   1.155   4.486  0.9515 -0.9559 -1.3257
 6857SOL    HW232031   0.729   1.165   4.470  0.1308 -1.2856  1.0569
 6858SOL     OW32032   0.993   3.097  10.707 -0.3046  0.5221 -0.0767
 6858SOL    HW132033   0.907   3.060  10.689 -0.1026 -0.8053  1.7039
 6858SOL    HW232034   1.008   3.062  10.795  0.6738 -0.5947 -0.6847
 6859SOL     OW32035   2.524   3.936  16.720  0.2361 -0.3995 -0.0378
 6859SOL    HW132036   2.453   4.000  16.724  1.5307  1.1410 -1.5136
 6859SOL    HW232037   2.501   3.902  16.634 -2.0471 -2.0209  1.2240
 6860SOL     OW32038   4.416   0.269  14.979  0.5113 -0.1889  0.2354
 6860SOL    HW132039   4.482   0.274  14.910 -0.9328 -0.7519 -1.1988
 6860SOL    HW232040   4.463   0.234  15.055 -1.6488  0.4593  1.8696
 6861SOL     OW32041   3.745   0.451  14.748 -0.0369 -0.1792  0.4051
 6861SOL    HW132042   3.683   0.395  14.702 -0.9158  0.0190  1.3714
 6861SOL    HW232043   3.823   0.398  14.728  0.6648  1.2325 -0.6238
 6862SOL     OW32044   0.748   1.332   6.212  0.3859  0.7333  0.1458
 6862SOL    HW132045   0.756   1.419   6.250  0.3710  1.2614 -1.0619
 6862SOL    HW232046   0.800   1.275   6.268 -1.2893 -2.2224 -1.2724
 6863SOL     OW32047   2.092   0.032   7.810  0.2344 -0.2190 -0.4694
 6863SOL    HW132048   2.055   4.667   7.803  1.6706 -0.7610 -1.3663
 6863SOL    HW232049   2.074   0.056   7.901 -1.0455 -0.9604 -0.5386
 6864SOL     OW32050   0.898   4.031   7.610 -0.0312  0.0323  0.2078
 6864SOL    HW132051   0.829   4.022   7.544  0.7278 -1.2921 -0.3933
 6864SOL    HW232052   0.858   4.101   7.661  1.4944  1.4134 -0.5154
 6865SOL     OW32053   0.316   4.004  10.724 -0.0463 -0.3561  0.0248
 6865SOL    HW132054   0.234   3.960  10.746  0.0261 -0.9924 -0.9382
 6865SOL    HW232055   0.370   3.992  10.802  0.6715 -0.5721 -0.4979
 6866SOL     OW32056   1.496   2.967  17.018 -0.5348 -0.1635  0.1679
 6866SOL    HW132057   1.583   2.953  17.055 -1.4088 -1.0164  1.9187
 6866SOL    HW232058   1.503   3.000  16.928  0.6047 -4.7161 -1.3889
 6867SOL     OW32059   2.971   3.554   8.567  0.0022 -0.3941 -0.2222
 6867SOL    HW132060   3.065   3.544   8.549  0.3927  1.5035  0.7850
 6867SOL    HW232061   2.973   3.649   8.581 -1.9491 -0.0441 -2.4166
 6868SOL     OW32062   3.493   4.086   8.303  0.2002  0.0980  0.3111
 6868SOL    HW132063   3.528   4.014   8.251  1.0832 -0.3625  1.5575
 6868SOL    HW232064   3.575   4.119   8.339  0.4452 -1.7132  1.3969
 6869SOL     OW32065   3.338   3.534  15.911 -0.5896 -0.2292  0.5896
 6869SOL    HW132066   3.285   3.555  15.835  1.7528  2.5609 -0.2762
 6869SOL    HW232067   3.411   3.498  15.859  0.3012 -1.2754  2.5550
 6870SOL     OW32068   3.062   3.816  14.566  0.3149  0.5452 -0.4330
 6870SOL    HW132069   3.039   3.801  14.657  0.6036 -0.6636 -0.5554
 6870SOL    HW232070   3.122   3.745  14.543  0.4517  0.4300  0.2760
 6871SOL     OW32071   1.074   4.548  13.981 -0.7696 -0.0982  0.3735
 6871SOL    HW132072   1.099   4.489  13.910  0.2585 -0.3284  0.9363
 6871SOL    HW232073   0.989   4.580  13.949 -1.4273 -0.2852  1.9355
 6872SOL     OW32074   0.690   3.946   2.225  0.0781 -0.1992  0.6441
 6872SOL    HW132075   0.655   3.882   2.287  1.0762 -0.1712  1.2455
 6872SOL    HW232076   0.633   3.927   2.151  0.2076 -1.3764  0.8369
 6873SOL     OW32077   0.906   3.586   6.914 -0.5518 -0.4995  0.2744
 6873SOL    HW132078   0.870   3.669   6.947  0.2603 -0.8177  1.9291
 6873SOL    HW232079   0.841   3.568   6.846  0.1983 -1.3495 -0.2046
 6874SOL     OW32080   3.037   3.359   6.752  0.1007  0.6379  0.1812
 6874SOL    HW132081   2.941   3.353   6.750  0.2253 -1.4185  0.6037
 6874SOL    HW232082   3.043   3.430   6.816  0.7798  1.6570 -1.0271
 6875SOL     OW32083   3.867   3.079   4.012 -0.2151 -0.1207 -0.1753
 6875SOL    HW132084   3.950   3.034   4.000 -1.4570 -3.0515  2.1333
 6875SOL    HW232085   3.823   3.070   3.928 -1.9850 -0.0930  0.7407
 6876SOL     OW32086   3.200   0.805   8.159  0.2769 -0.2177 -0.4193
 6876SOL    HW132087   3.117   0.760   8.177 -0.3606  1.0764 -0.1803
 6876SOL    HW232088   3.208   0.877   8.221  0.0034 -1.4453  1.0331
 6877SOL     OW32089   4.077   2.780   8.064  0.0355  0.1065 -0.5457
 6877SOL    HW132090   4.153   2.759   8.117  0.3827 -0.2668 -1.1859
 6877SOL    HW232091   4.071   2.872   8.091 -1.6605  0.4916 -2.2202
 6878SOL     OW32092   0.816   1.828   7.223  0.1396  0.6324 -0.2229
 6878SOL    HW132093   0.785   1.873   7.302 -1.8718 -1.0355 -0.0523
 6878SOL    HW232094   0.771   1.876   7.154 -0.2293  0.3727 -0.1659
 6879SOL     OW32095   0.332   0.812   0.875  0.0702  0.3238 -0.2110
 6879SOL    HW132096   0.260   0.837   0.934  0.2161 -1.8675  0.9082
 6879SOL    HW232097   0.387   0.766   0.938  0.6657  2.4689  0.8282
 6880SOL     OW32098   1.115   1.871   4.989  0.4316  0.2070 -0.3501
 6880SOL    HW132099   1.088   1.897   5.077 -2.8671 -1.2816 -0.9237
 6880SOL    HW232100   1.208   1.885   5.007  0.5919 -1.5371  0.2330
 6881SOL     OW32101   3.438   2.201  10.892  0.4865 -1.0564  0.2617
 6881SOL    HW132102   3.500   2.129  10.889 -0.0037 -1.4894  0.4146
 6881SOL    HW232103   3.498   2.268  10.926 -1.0089  0.2029  0.4545
 6882SOL     OW32104   0.096   4.405  14.165  0.3239 -0.0691 -0.0473
 6882SOL    HW132105   0.094   4.392  14.260 -1.5445  1.0941  0.0676
 6882SOL    HW232106   0.092   4.501  14.157  3.6260  0.1030  0.3292
 6883SOL     OW32107   3.446   0.226   5.130  0.1661 -0.3748  0.3706
 6883SOL    HW132108   3.395   0.280   5.190  0.0647  0.6084 -0.5977
 6883SOL    HW232109   3.417   0.251   5.042  0.4783 -0.2975  0.2906
 6884SOL     OW32110   2.252   0.228   2.254  0.6818  0.2670 -0.6343
 6884SOL    HW132111   2.176   0.199   2.205  0.4401 -2.0448  1.0988
 6884SOL    HW232112   2.253   0.322   2.239  1.8236  0.1974 -1.0336
 6885SOL     OW32113   1.293   1.881  12.399  0.2183 -0.1473 -0.1753
 6885SOL    HW132114   1.320   1.918  12.484 -1.7334 -0.2791  0.4853
 6885SOL    HW232115   1.313   1.790  12.419  0.1331 -0.5161 -1.7834
 6886SOL     OW32116   3.007   1.933  10.006  0.1882  0.1904 -0.0336
 6886SOL    HW132117   2.994   1.914  10.098 -0.5301  1.1409  0.0546
 6886SOL    HW232118   2.977   2.023   9.994 -1.6126 -0.5025 -0.6430
 6887SOL     OW32119   3.279   1.569   7.569 -0.2857 -0.0840 -0.3007
 6887SOL    HW132120   3.269   1.540   7.659  0.7588  0.8935  0.1204
 6887SOL    HW232121   3.200   1.527   7.535 -0.8654  1.1104 -0.4274
 6888SOL     OW32122   0.658   0.379   6.594 -0.5228 -0.3205 -0.5509
 6888SOL    HW132123   0.680   0.312   6.660 -0.7732 -0.8680 -1.0243
 6888SOL    HW232124   0.567   0.354   6.579 -0.6424  0.5601 -1.2957
 6889SOL     OW32125   3.424   4.291  11.478 -0.7028  0.1180  0.0724
 6889SOL    HW132126   3.342   4.273  11.523  0.1166  0.7583  1.8028
 6889SOL    HW232127   3.468   4.217  11.519  0.1831 -0.1459 -1.3129
 6890SOL     OW32128   1.370   3.431   2.557 -0.3910 -0.5310 -0.4689
 6890SOL    HW132129   1.279   3.417   2.532  0.0649 -0.7026 -1.9926
 6890SOL    HW232130   1.389   3.505   2.500 -1.3629 -0.1861 -0.3455
 6891SOL     OW32131   2.509   0.557  16.707 -0.3170  1.2788  1.0551
 6891SOL    HW132132   2.427   0.564  16.755 -0.7155 -0.7232  0.6451
 6891SOL    HW232133   2.512   0.638  16.655 -0.4709  1.7954  1.8574
 6892SOL     OW32134   4.270   2.007  10.892 -0.6837 -0.5980  0.4079
 6892SOL    HW132135   4.258   1.999  10.986 -1.5864 -1.6060  0.2103
 6892SOL    HW232136   4.364   2.002  10.875 -0.9015 -2.5735 -0.1823
 6893SOL     OW32137   1.449   1.293   4.705 -0.2275  0.2456  0.0752
 6893SOL    HW132138   1.508   1.232   4.749 -0.9606 -0.3201  0.2620
 6893SOL    HW232139   1.502   1.373   4.713 -0.2295  0.1628  1.0054
 6894SOL     OW32140   1.432   2.592   1.977  0.6059 -0.3415 -0.0402
 6894SOL    HW132141   1.422   2.687   1.990 -1.1509 -0.5931  0.3995
 6894SOL    HW232142   1.459   2.561   2.063  0.2081 -2.4057 -0.6735
 6895SOL     OW32143   1.440   1.159   8.105  0.2933 -0.3621  0.7353
 6895SOL    HW132144   1.397   1.081   8.069 -1.2108  1.6951 -1.8963
 6895SOL    HW232145   1.522   1.122   8.140  0.0883  0.2806  1.8944
 6896SOL     OW32146   4.709   3.654   4.612  0.4222  0.1598  0.0304
 6896SOL    HW132147   0.059   3.712   4.589  0.2606  0.4440  0.2225
 6896SOL    HW232148   4.694   3.668   4.706  3.4004  2.1684  0.2039
 6897SOL     OW32149   0.383   4.443   9.036  0.0845 -0.6329  0.4736
 6897SOL    HW132150   0.435   4.486   9.104 -1.2497 -2.1711  2.4794
 6897SOL    HW232151   0.305   4.498   9.028  0.3479 -0.2245  0.7076
 6898SOL     OW32152   2.597   3.406  11.919 -0.0754 -0.2070 -0.4202
 6898SOL    HW132153   2.513   3.404  11.966  0.7502  0.7686  1.0794
 6898SOL    HW232154   2.661   3.436  11.984 -1.9533  1.3078  0.7257
 6899SOL     OW32155   1.792   0.266   9.607  0.7688 -0.3413  0.2495
 6899SOL    HW132156   1.739   0.326   9.556 -1.4610 -0.6938  2.1528
 6899SOL    HW232157   1.720   0.204   9.619 -1.4709  1.8927 -1.7700
 6900SOL     OW32158   1.567   4.515   6.006 -0.3862  0.1957 -0.1961
 6900SOL    HW132159   1.605   4.584   5.952 -1.2600  0.7381 -0.1307
 6900SOL    HW232160   1.560   4.443   5.943 -1.2716 -1.2970  1.5929
 6901SOL     OW32161   1.761   0.179   2.741  0.1387 -0.3059  0.0567
 6901SOL    HW132162   1.814   0.118   2.792 -0.8526  0.4629  2.0250
 6901SOL    HW232163   1.810   0.184   2.659  1.8290  0.5851  1.1151
 6902SOL     OW32164   2.801   1.681   8.179  0.6718 -0.2181  0.1056
 6902SOL    HW132165   2.847   1.683   8.095 -1.1365 -2.0605 -0.9182
 6902SOL    HW232166   2.742   1.607   8.173 -0.1059  0.4083  0.0472
 6903SOL     OW32167   0.494   1.551   3.069 -0.0971  0.2913 -0.7335
 6903SOL    HW132168   0.437   1.614   3.027 -1.9096 -0.4037  0.6503
 6903SOL    HW232169   0.549   1.512   3.001  0.8161 -2.8746  1.8047
 6904SOL     OW32170   2.518   3.188   1.794  0.7583 -0.1321  0.2855
 6904SOL    HW132171   2.549   3.175   1.884  0.7959 -1.2298  0.1220
 6904SOL    HW232172   2.593   3.162   1.740 -0.8484 -1.7436 -1.1889
 6905SOL     OW32173   4.475   2.634   1.046 -0.3256  0.2738 -0.3552
 6905SOL    HW132174   4.490   2.676   0.962 -0.0110 -0.8911 -0.8914
 6905SOL    HW232175   4.547   2.571   1.037 -1.3555 -1.2189  1.7594
 6906SOL     OW32176   1.837   4.050   5.803  0.5092  0.3035  0.3796
 6906SOL    HW132177   1.827   3.976   5.744  0.5529  0.7762 -0.2193
 6906SOL    HW232178   1.793   4.015   5.881 -0.9844 -0.3413 -0.7559
 6907SOL     OW32179   0.513   0.127   9.150 -0.7224  0.6229 -0.0007
 6907SOL    HW132180   0.435   0.092   9.191  0.5549 -1.2964  0.8043
 6907SOL    HW232181   0.505   0.106   9.057  1.1353 -0.7127  0.1245
 6908SOL     OW32182   3.301   0.152   2.971 -0.0256 -0.1047  0.2292
 6908SOL    HW132183   3.383   0.110   2.946  0.7242  1.8844 -0.6853
 6908SOL    HW232184   3.307   0.227   2.912 -0.4086  0.3550  0.7740
 6909SOL     OW32185   3.437   1.073  12.323  0.0887 -0.4057 -0.5391
 6909SOL    HW132186   3.434   1.156  12.371 -1.1040 -0.4841 -0.4698
 6909SOL    HW232187   3.440   1.112  12.236  2.5530 -0.5236 -0.5119
 6910SOL     OW32188   1.115   3.176   4.535 -0.3432 -0.0080 -0.0942
 6910SOL    HW132189   1.037   3.228   4.514 -0.2711 -0.4211 -1.3695
 6910SOL    HW232190   1.107   3.163   4.630 -1.2086 -1.3443 -0.3491
 6911SOL     OW32191   1.996   1.870   3.511 -0.1392  0.0671  0.6037
 6911SOL    HW132192   2.055   1.799   3.487 -1.2430 -0.3712 -0.8089
 6911SOL    HW232193   1.980   1.904   3.423  0.2855 -0.9260  0.1430
 6912SOL     OW32194   1.657   3.798  13.366 -0.1441 -0.0312 -0.4335
 6912SOL    HW132195   1.655   3.771  13.458 -1.3997 -0.2536 -0.5359
 6912SOL    HW232196   1.659   3.709  13.331 -1.2344  0.6674 -2.2490
 6913SOL     OW32197   0.551   1.761   8.242 -0.4034 -0.1726  0.2767
 6913SOL    HW132198   0.502   1.736   8.163  0.8336  0.8995 -0.8239
 6913SOL    HW232199   0.478   1.784   8.299 -0.2790 -0.7354  0.6663
 6914SOL     OW32200   2.238   3.899  11.798  0.0558  0.5091  0.1347
 6914SOL    HW132201   2.316   3.889  11.853 -0.2412  1.6638  0.7538
 6914SOL    HW232202   2.166   3.921  11.857  0.3949  0.0532  0.7228
 6915SOL     OW32203   3.230   1.792   3.719  0.2581  0.3029 -0.5642
 6915SOL    HW132204   3.157   1.789   3.781  0.8411 -2.0349  0.0045
 6915SOL    HW232205   3.182   1.817   3.640  2.1276  1.4480 -1.3503
 6916SOL     OW32206   1.181   1.432   2.843 -0.3141 -0.2018  0.6516
 6916SOL    HW132207   1.088   1.418   2.825  0.5533 -3.4748 -1.2534
 6916SOL    HW232208   1.192   1.372   2.917 -3.3043 -1.2265  0.2461
 6917SOL     OW32209   4.308   4.670  16.806  0.0428  0.1771  0.5540
 6917SOL    HW132210   4.333   4.649  16.716 -1.9800  0.9224 -0.1742
 6917SOL    HW232211   4.233   4.610  16.810  0.4059 -0.2608  0.7850
 6918SOL     OW32212   0.860   1.366   2.371 -0.1680 -0.0571  0.2310
 6918SOL    HW132213   0.785   1.374   2.312 -1.2674 -2.0424  1.3881
 6918SOL    HW232214   0.877   1.272   2.366  0.8972  0.0719  1.4791
 6919SOL     OW32215   2.705   1.172   4.783 -0.1433  0.2530  0.3842
 6919SOL    HW132216   2.752   1.203   4.859  1.6375 -2.0861  0.2508
 6919SOL    HW232217   2.649   1.105   4.822  0.0487 -0.1682 -0.0609
 6920SOL     OW32218   2.066   4.169   2.041  0.3983  0.4188  0.5631
 6920SOL    HW132219   2.047   4.133   2.128  1.4902 -0.3339  0.4923
 6920SOL    HW232220   1.982   4.151   1.998  0.2615  0.6893  0.7203
 6921SOL     OW32221   0.329   3.922   7.914  0.1957 -0.1519  0.4741
 6921SOL    HW132222   0.326   4.011   7.950  0.9021  0.4179 -0.8663
 6921SOL    HW232223   0.280   3.931   7.832  0.9859 -1.9392 -0.1948
 6922SOL     OW32224   0.014   2.920   6.817  0.2275 -0.7663 -0.0381
 6922SOL    HW132225   4.689   2.905   6.898 -0.4219 -1.1292 -0.4961
 6922SOL    HW232226   4.662   2.929   6.759 -1.2245 -1.8359  1.7013
 6923SOL     OW32227   4.710   2.057   0.927 -0.4102  0.0004 -0.2122
 6923SOL    HW132228   0.024   2.064   1.015  1.6272  3.2577 -1.3440
 6923SOL    HW232229   0.006   1.966   0.904 -0.1508  0.5381 -2.1194
 6924SOL     OW32230   0.581   2.671   7.006  0.2138  0.1186 -0.2676
 6924SOL    HW132231   0.660   2.689   6.955 -0.6392  1.0207 -1.2857
 6924SOL    HW232232   0.598   2.579   7.026 -0.4995  0.0201 -0.1087
 6925SOL     OW32233   0.008   3.811   6.634 -0.4457  0.6619 -0.5950
 6925SOL    HW132234   4.642   3.785   6.610 -0.9766  1.5068  0.4614
 6925SOL    HW232235   4.708   3.884   6.691 -1.9882 -0.8446  0.6827
 6926SOL     OW32236   0.982   2.468   6.632 -0.3936  0.2700  0.1494
 6926SOL    HW132237   1.064   2.420   6.624 -0.5585  0.2032 -1.1129
 6926SOL    HW232238   0.939   2.443   6.550  1.1779  1.4699 -1.0201
 6927SOL     OW32239   1.417   1.364   5.045  0.5362  0.4024  0.1551
 6927SOL    HW132240   1.459   1.328   4.967 -0.8988  0.8182 -0.8185
 6927SOL    HW232241   1.340   1.403   5.002 -1.4997 -5.1320 -1.3038
 6928SOL     OW32242   2.278   3.480   8.237  0.0281  0.0808  0.1927
 6928SOL    HW132243   2.272   3.493   8.142  1.6238  1.7317  0.3160
 6928SOL    HW232244   2.371   3.457   8.237 -0.6627 -2.5885 -0.8242
 6929SOL     OW32245   2.142   1.660   7.583 -0.6135  0.5742 -0.4388
 6929SOL    HW132246   2.084   1.736   7.591 -3.1648 -1.0826 -3.0127
 6929SOL    HW232247   2.188   1.670   7.666  0.1321 -0.5579 -0.7178
 6930SOL     OW32248   2.494   1.714   8.985  0.0423 -0.3936 -0.1629
 6930SOL    HW132249   2.579   1.687   8.952  0.8706  1.1134  0.7042
 6930SOL    HW232250   2.457   1.631   9.015 -0.8662 -0.4579 -1.4711
 6931SOL     OW32251   4.366   2.813   5.688  0.1686  0.1276 -0.1331
 6931SOL    HW132252   4.444   2.861   5.660 -0.0294  0.2390 -0.4978
 6931SOL    HW232253   4.319   2.896   5.700  0.8232  0.5294 -0.3454
 6932SOL     OW32254   0.780   2.364  12.818  0.1739  0.0371  0.0121
 6932SOL    HW132255   0.778   2.268  12.818 -0.2629  0.0306  2.6197
 6932SOL    HW232256   0.778   2.377  12.913 -1.4248  2.9500 -0.4378
 6933SOL     OW32257   3.030   0.528   3.124 -0.9723  0.4395 -0.0367
 6933SOL    HW132258   3.023   0.531   3.029  1.3197  0.9704 -0.1813
 6933SOL    HW232259   3.122   0.512   3.146 -1.0378 -1.5989 -1.2578
 6934SOL     OW32260   3.967   2.546   2.230 -0.3509  0.0084  0.2999
 6934SOL    HW132261   3.991   2.469   2.178 -1.0562 -0.2665  0.3783
 6934SOL    HW232262   3.914   2.501   2.296  0.5984  1.8034  2.3105
 6935SOL     OW32263   0.897   2.272  15.604  0.8450  0.5428 -0.8126
 6935SOL    HW132264   0.933   2.244  15.520  1.4812  1.4845 -0.8622
 6935SOL    HW232265   0.895   2.188  15.649 -3.1813  0.4100 -1.2010
 6936SOL     OW32266   0.330   3.007   4.301 -0.8157  0.5851 -0.2540
 6936SOL    HW132267   0.251   3.061   4.294  0.9421  3.4169  1.9491
 6936SOL    HW232268   0.325   2.985   4.394 -2.8095 -0.4373 -0.5977
 6937SOL     OW32269   2.994   3.862  12.287  0.3763  0.0088  0.5026
 6937SOL    HW132270   2.947   3.912  12.353 -0.5837  1.4401 -1.2666
 6937SOL    HW232271   2.941   3.782  12.289  2.1740 -1.1374  2.5943
 6938SOL     OW32272   1.435   4.275   2.511 -0.2017  0.5772 -0.1066
 6938SOL    HW132273   1.476   4.238   2.590  1.2673 -1.1091 -1.6565
 6938SOL    HW232274   1.506   4.315   2.461 -0.3588 -1.6768 -2.0917
 6939SOL     OW32275   4.504   1.312  16.168  0.1456 -0.9285  0.4688
 6939SOL    HW132276   4.502   1.378  16.238  0.4261  1.8522 -2.1020
 6939SOL    HW232277   4.598   1.318  16.155  0.4519  0.6444  3.3753
 6940SOL     OW32278   2.513   1.973   8.924 -0.5697  0.4254 -0.5520
 6940SOL    HW132279   2.428   2.001   8.956 -0.8607 -2.3102  1.1254
 6940SOL    HW232280   2.511   1.879   8.943  2.1071  0.3614 -0.5898
 6941SOL     OW32281   2.375   0.219   1.852 -0.3579 -0.6000 -0.1985
 6941SOL    HW132282   2.454   0.235   1.904 -1.0532 -0.6600  0.8510
 6941SOL    HW232283   2.404   0.205   1.762  4.0354  0.3355  1.0592
 6942SOL     OW32284   1.850   0.499   2.252  0.0692 -0.0815 -0.0777
 6942SOL    HW132285   1.909   0.561   2.294 -1.3782 -0.3939  2.4425
 6942SOL    HW232286   1.853   0.527   2.161 -0.2521  0.3562  0.0439
 6943SOL     OW32287   2.870   0.416   4.091  0.3858 -0.5499 -0.1428
 6943SOL    HW132288   2.836   0.372   4.013  2.2495 -1.5550 -0.3821
 6943SOL    HW232289   2.809   0.489   4.093 -0.5638 -1.2765 -1.6675
 6944SOL     OW32290   1.735   1.474  16.850  0.4337 -0.5441  0.2225
 6944SOL    HW132291   1.743   1.498  16.757  2.9831 -1.7824  0.1258
 6944SOL    HW232292   1.798   1.403  16.862  1.5889  0.3088 -0.8531
 6945SOL     OW32293   1.407   3.462  10.643 -0.3868  0.5788 -0.2998
 6945SOL    HW132294   1.467   3.507  10.703  1.2915 -3.4876  1.0630
 6945SOL    HW232295   1.394   3.528  10.575  1.4803  0.9355 -0.3043
 6946SOL     OW32296   0.808   1.414  11.497  0.4102  0.5859  0.3064
 6946SOL    HW132297   0.714   1.425  11.514  0.7393  1.1523  1.7803
 6946SOL    HW232298   0.845   1.481  11.555  1.5463  0.5096 -0.3248
 6947SOL     OW32299   1.815   2.761   6.391  0.4528 -0.3204  0.1056
 6947SOL    HW132300   1.811   2.819   6.315  0.3675  2.2204  2.0429
 6947SOL    HW232301   1.724   2.735   6.404 -0.1716  1.7742  0.0253
 6948SOL     OW32302   0.661   1.952   1.791 -0.1739 -0.7190 -0.2238
 6948SOL    HW132303   0.675   1.946   1.885 -1.3752 -1.6571 -0.0971
 6948SOL    HW232304   0.739   2.001   1.766 -0.8042  0.4586  0.1455
 6949SOL     OW32305   2.740   4.676   4.856 -0.5020 -0.3723  0.1019
 6949SOL    HW132306   2.710   4.715   4.774 -0.0282 -1.2430 -0.4908
 6949SOL    HW232307   2.664   4.619   4.869 -0.5132  0.2187  2.4832
 6950SOL     OW32308   2.184   4.263   5.366 -0.0416 -0.1044  0.4276
 6950SOL    HW132309   2.267   4.286   5.324  0.3192 -0.6264  0.8569
 6950SOL    HW232310   2.137   4.346   5.360 -0.7637 -0.4869  0.8424
 6951SOL     OW32311   3.914   1.059   4.574  0.1164 -0.3344  0.8462
 6951SOL    HW132312   3.900   1.108   4.493 -0.3435  0.9150  1.6825
 6951SOL    HW232313   3.845   0.995   4.554  0.6066 -0.1952 -1.3449
 6952SOL     OW32314   3.120   0.920  16.715  0.5888 -0.4632  0.4073
 6952SOL    HW132315   3.181   0.989  16.690 -1.3243  1.2982  0.6476
 6952SOL    HW232316   3.119   0.864  16.637 -1.6009  0.1719  0.0042
 6953SOL     OW32317   1.048   4.609   8.755 -0.0961 -0.2681 -0.1658
 6953SOL    HW132318   1.069   4.516   8.747 -0.8929 -0.4314 -0.3871
 6953SOL    HW232319   0.958   4.596   8.786 -0.5845  0.9161 -1.0966
 6954SOL     OW32320   1.830   3.117   6.586 -0.5132  0.1724  0.1828
 6954SOL    HW132321   1.810   3.078   6.671 -2.4866  1.1813  0.1806
 6954SOL    HW232322   1.906   3.066   6.558 -0.4347 -1.0099  2.5519
 6955SOL     OW32323   1.934   2.697  11.318  0.4873  0.0710  0.1541
 6955SOL    HW132324   1.871   2.681  11.388  1.8850 -0.7414  1.2143
 6955SOL    HW232325   2.010   2.641  11.334 -0.1514 -0.3654  1.6783
 6956SOL     OW32326   0.267   0.885   0.399 -0.3257  0.1265  0.3382
 6956SOL    HW132327   0.204   0.899   0.470 -0.4490 -1.0116  0.4525
 6956SOL    HW232328   0.240   0.953   0.337  1.4466 -0.0213 -0.6056
 6957SOL     OW32329   1.079   4.141   7.079  0.0890 -0.6065 -0.0120
 6957SOL    HW132330   1.143   4.082   7.118  0.7596  0.6745  0.8155
 6957SOL    HW232331   1.055   4.089   7.002 -2.1306  3.4255 -2.0443
 6958SOL     OW32332   0.092   4.063   7.174 -0.1636  0.0787  0.3294
 6958SOL    HW132333   4.721   4.065   7.193 -0.3988 -1.7785 -0.6401
 6958SOL    HW232334   0.120   4.154   7.179 -0.0634  0.1673 -1.7530
 6959SOL     OW32335   3.998   1.366  12.739  0.1107  0.0556  0.3932
 6959SOL    HW132336   4.038   1.385  12.655  2.0882  1.3683  1.6300
 6959SOL    HW232337   4.008   1.271  12.749 -2.7211 -0.3472 -0.8559
 6960SOL     OW32338   4.216   4.142   0.824  0.3911 -0.4240 -0.0991
 6960SOL    HW132339   4.196   4.235   0.814 -1.1356 -0.4985  2.2510
 6960SOL    HW232340   4.311   4.146   0.822  0.4333  0.1847  2.7552
 6961SOL     OW32341   1.786   1.385   5.556  0.1379  0.7517 -0.1747
 6961SOL    HW132342   1.873   1.382   5.595 -0.3156 -0.7826  0.6915
 6961SOL    HW232343   1.801   1.338   5.473  0.9827  0.6315  0.0453
 6962SOL     OW32344   3.171   3.268  16.989 -0.3516  0.6775 -0.0201
 6962SOL    HW132345   3.079   3.280  17.014 -0.1823  2.1040 -0.0758
 6962SOL    HW232346   3.179   3.209  16.914  1.2462 -1.0977  1.5435
 6963SOL     OW32347   0.728   3.718   3.443  0.6746 -0.1215  0.4307
 6963SOL    HW132348   0.793   3.788   3.448  1.7828 -1.0023 -1.5387
 6963SOL    HW232349   0.659   3.761   3.393  1.3088  0.7698  0.3068
 6964SOL     OW32350   0.966   0.037   6.613 -1.0567 -0.2003 -0.1321
 6964SOL    HW132351   0.904   0.053   6.543 -0.0076  2.5363 -0.4620
 6964SOL    HW232352   0.923   0.083   6.686 -1.2860 -2.8695  1.4037
 6965SOL     OW32353   3.684   4.154  12.512  0.4311  0.0555  0.1528
 6965SOL    HW132354   3.733   4.180  12.433  0.1713  1.3936  0.4315
 6965SOL    HW232355   3.754   4.135  12.574 -0.0969 -2.0447  0.0911
 6966SOL     OW32356   0.181   0.680   0.191  0.1166 -0.0595 -0.3539
 6966SOL    HW132357   0.271   0.648   0.195  0.2801  0.1905 -2.3298
 6966SOL    HW232358   0.180   0.769   0.227 -3.1057  0.8512 -2.6564
 6967SOL     OW32359   3.550   2.771   2.823 -0.2704 -0.1369  0.3783
 6967SOL    HW132360   3.622   2.788   2.883 -0.0834 -0.3937  0.2271
 6967SOL    HW232361   3.529   2.857   2.785  0.3683  0.5810  1.6595
 6968SOL     OW32362   4.077   2.895   0.522 -0.6318 -0.2532 -0.2057
 6968SOL    HW132363   4.127   2.818   0.493  2.0829  1.2399  0.5656
 6968SOL    HW232364   4.028   2.863   0.597 -0.5084 -0.3182 -0.1519
 6969SOL     OW32365   3.728   2.879   5.897 -0.2083 -0.2262 -0.1049
 6969SOL    HW132366   3.708   2.812   5.832 -1.8033 -1.4964  1.6772
 6969SOL    HW232367   3.811   2.917   5.868 -1.5669  1.8800 -1.1905
 6970SOL     OW32368   0.569   2.080  14.059 -0.0944  0.3738 -0.2984
 6970SOL    HW132369   0.618   2.063  13.979  0.7819  0.6893  0.1772
 6970SOL    HW232370   0.483   2.099  14.022 -0.3745 -0.1457  0.0918
 6971SOL     OW32371   1.015   1.180  16.489 -0.0689 -0.7217  0.0540
 6971SOL    HW132372   1.082   1.236  16.529 -0.9363 -0.0938  0.6373
 6971SOL    HW232373   0.937   1.204  16.538  0.8451  2.5084 -0.0516
 6972SOL     OW32374   2.966   2.370   4.693 -0.6622 -0.1444  0.3806
 6972SOL    HW132375   2.870   2.366   4.697 -0.6385  2.2598  3.5765
 6972SOL    HW232376   2.981   2.453   4.648 -0.5731 -0.7756 -0.7626
 6973SOL     OW32377   2.799   2.429   3.238 -0.2259 -0.2053  0.2749
 6973SOL    HW132378   2.729   2.450   3.176  0.0572  1.3448  0.4818
 6973SOL    HW232379   2.829   2.348   3.197  0.9130  0.8530 -1.0212
 6974SOL     OW32380   1.625   4.227   1.740 -0.0760  0.6538 -0.0390
 6974SOL    HW132381   1.584   4.186   1.664  1.0263 -0.6045  0.0534
 6974SOL    HW232382   1.671   4.300   1.699 -0.9213  1.2588  0.0729
 6975SOL     OW32383   4.172   1.769   5.678 -0.0648 -0.0856 -0.2583
 6975SOL    HW132384   4.104   1.833   5.656 -1.6374 -1.4681  0.6105
 6975SOL    HW232385   4.226   1.761   5.599  1.8819  0.2701  1.0419
 6976SOL     OW32386   0.319   0.292  11.242  0.1272  0.1341  0.1977
 6976SOL    HW132387   0.305   0.198  11.235 -0.7817  0.6266 -4.8303
 6976SOL    HW232388   0.414   0.285  11.255  0.4157  3.1210 -0.1741
 6977SOL     OW32389   0.589   3.140   9.181  0.1014 -0.0868 -0.0515
 6977SOL    HW132390   0.592   3.182   9.267  1.7177 -1.5749  0.6142
 6977SOL    HW232391   0.669   3.178   9.145 -0.4338 -0.5317 -1.7401
 6978SOL     OW32392   4.029   0.615   3.700 -0.5374 -0.0382 -0.2937
 6978SOL    HW132393   4.052   0.596   3.791 -1.8799 -0.6413 -0.0820
 6978SOL    HW232394   3.968   0.543   3.684  0.6289 -0.5397 -2.4356
 6979SOL     OW32395   2.120   3.785   5.902 -0.2101  0.2081 -0.4136
 6979SOL    HW132396   2.089   3.831   5.980  0.7736  2.1442 -1.1657
 6979SOL    HW232397   2.077   3.702   5.921 -0.5184  0.9568  2.1460
 6980SOL     OW32398   3.075   4.084   2.488  0.1449 -0.4486  0.1607
 6980SOL    HW132399   3.010   4.149   2.515  0.1433 -0.4165  0.0792
 6980SOL    HW232400   3.098   4.113   2.400 -2.0341  0.2651 -0.1653
 6981SOL     OW32401   2.199   1.359   7.918  0.0159 -0.1733  0.1074
 6981SOL    HW132402   2.171   1.344   7.828 -0.0553 -0.1504  0.1262
 6981SOL    HW232403   2.126   1.406   7.957 -0.3110  0.1588 -0.9001
 6982SOL     OW32404   0.118   1.935   6.789  0.0883  0.0404  0.1785
 6982SOL    HW132405   0.077   1.851   6.809 -1.7894 -0.0300 -4.1694
 6982SOL    HW232406   0.160   1.916   6.706 -1.9095  0.9400 -1.0247
 6983SOL     OW32407   0.184   0.029   8.767  0.5279  0.3513 -0.2332
 6983SOL    HW132408   0.132   4.672   8.775  1.7028 -0.2986  0.9478
 6983SOL    HW232409   0.212   0.035   8.675 -0.0370 -0.3777 -0.4529
 6984SOL     OW32410   2.380   1.584  11.672  0.5896 -0.4529 -0.2247
 6984SOL    HW132411   2.329   1.566  11.594 -1.3957  2.8848  0.2953
 6984SOL    HW232412   2.428   1.503  11.690  3.3258  1.5978  1.8367
 6985SOL     OW32413   2.455   0.614   6.404 -0.0117 -0.2661 -0.2831
 6985SOL    HW132414   2.507   0.579   6.477 -0.4449  0.6453  0.4639
 6985SOL    HW232415   2.369   0.626   6.443  0.6537  1.4346  0.6940
 6986SOL     OW32416   0.539   0.479  13.802 -0.7147  0.3008  0.2117
 6986SOL    HW132417   0.629   0.504  13.779 -1.1713  2.0896  0.3475
 6986SOL    HW232418   0.537   0.496  13.896 -0.3614  2.2638 -0.1312
 6987SOL     OW32419   3.196   0.223   7.665  0.8098 -0.5435 -0.5131
 6987SOL    HW132420   3.213   0.161   7.736  0.6460  0.2021  0.1705
 6987SOL    HW232421   3.262   0.208   7.597  0.9176  0.7806 -0.6959
 6988SOL     OW32422   1.271   2.160   0.632 -0.5586  0.7210  0.0085
 6988SOL    HW132423   1.364   2.181   0.617 -0.4493 -0.1531 -0.4806
 6988SOL    HW232424   1.244   2.139   0.543 -2.0551 -4.3280  1.7000
 6989SOL     OW32425   0.776   4.576  16.648 -0.4463  0.3294 -0.3277
 6989SOL    HW132426   0.823   4.659  16.653 -0.9943  0.5458  1.4376
 6989SOL    HW232427   0.685   4.603  16.662 -0.4774  1.6248 -3.1344
 6990SOL     OW32428   3.222   4.457   2.584  0.0846 -0.4538 -0.1797
 6990SOL    HW132429   3.275   4.442   2.505 -1.3986 -0.1023 -1.2358
 6990SOL    HW232430   3.139   4.478   2.542  0.9483  0.2797 -1.5190
 6991SOL     OW32431   4.422   3.658   2.703 -0.4102 -0.3035 -0.4608
 6991SOL    HW132432   4.448   3.611   2.624 -0.4868 -1.8522  0.4429
 6991SOL    HW232433   4.361   3.719   2.661 -1.8478 -2.0644 -0.9213
 6992SOL     OW32434   4.217   3.283   5.784 -0.0650  0.1474 -0.1429
 6992SOL    HW132435   4.168   3.332   5.850 -2.6167 -0.2130 -1.7680
 6992SOL    HW232436   4.172   3.301   5.702  0.7840  4.0343  0.2357
 6993SOL     OW32437   0.383   2.516   4.147 -0.6832 -0.1838 -0.2097
 6993SOL    HW132438   0.479   2.519   4.139 -0.7177 -0.3240 -0.6672
 6993SOL    HW232439   0.363   2.605   4.119 -0.8548 -0.1146  0.1366
 6994SOL     OW32440   4.711   1.658   8.201  0.1779  0.1354  0.2433
 6994SOL    HW132441   4.662   1.739   8.185 -0.7661 -0.2977  0.8950
 6994SOL    HW232442   4.685   1.612   8.122  6.1959 -0.5405 -1.3166
 6995SOL     OW32443   0.626   3.229   9.686 -0.8090  0.4129  0.0993
 6995SOL    HW132444   0.560   3.282   9.730  0.2339  2.8528 -1.2579
 6995SOL    HW232445   0.656   3.183   9.765  1.6705  2.1679  0.1826
 6996SOL     OW32446   2.856   3.868  15.429 -0.1077  0.2110  0.2031
 6996SOL    HW132447   2.890   3.822  15.352 -1.3713  0.2670 -0.4044
 6996SOL    HW232448   2.858   3.794  15.489 -1.9369  0.0357  0.0521
 6997SOL     OW32449   2.568   0.920   1.868 -0.3856  0.2214 -0.4154
 6997SOL    HW132450   2.648   0.887   1.908 -0.1879  0.7992 -0.3418
 6997SOL    HW232451   2.590   0.888   1.780  0.5922 -0.3107  0.0352
 6998SOL     OW32452   2.731   1.802  15.672  0.1827 -0.4939 -0.3435
 6998SOL    HW132453   2.642   1.776  15.696  0.3800  1.3032  2.3789
 6998SOL    HW232454   2.759   1.734  15.611 -0.2533 -2.0728  1.2193
 6999SOL     OW32455   4.053   4.284   6.666 -0.0360  0.0095  0.1012
 6999SOL    HW132456   4.143   4.312   6.655  0.0300  0.1388  0.9410
 6999SOL    HW232457   4.004   4.359   6.632 -2.8057 -1.5576  0.5582
 7000SOL     OW32458   0.117   2.145   8.258  0.6826  0.1324 -0.6930
 7000SOL    HW132459   0.088   2.227   8.218 -2.2984 -0.1451  0.8719
 7000SOL    HW232460   0.208   2.165   8.281  0.4263 -1.6256  1.9083
 7001SOL     OW32461   0.351   0.681   4.042  0.2621 -0.0919  0.0281
 7001SOL    HW132462   0.396   0.741   4.101  0.4015 -0.4354  0.2693
 7001SOL    HW232463   0.355   0.608   4.103  0.8341  0.1193  0.2391
 7002SOL     OW32464   4.021   2.875   8.591 -0.0677  0.2333 -0.4297
 7002SOL    HW132465   3.953   2.888   8.524 -1.7502 -1.5611  0.9302
 7002SOL    HW232466   3.990   2.929   8.663  0.8639  2.0841 -1.4230
 7003SOL     OW32467   0.136   4.346   3.607  0.2443 -0.1504 -0.1227
 7003SOL    HW132468   0.167   4.420   3.659  0.8336 -1.1986  1.0026
 7003SOL    HW232469   0.166   4.370   3.520 -0.8635 -0.2429 -0.5365
 7004SOL     OW32470   0.125   4.498   3.195 -0.4751 -0.0397  1.0451
 7004SOL    HW132471   0.034   4.527   3.184 -0.2656 -0.1462 -1.0056
 7004SOL    HW232472   0.169   4.572   3.238  1.2845 -1.0373  0.9589
 7005SOL     OW32473   0.072   2.466   7.843  0.4322 -0.0568 -0.1679
 7005SOL    HW132474   0.053   2.423   7.927  0.8337 -1.0749 -0.6047
 7005SOL    HW232475   4.720   2.524   7.831  2.8797  2.9922 -0.5994
 7006SOL     OW32476   2.238   2.439   7.006  0.3576 -0.3943  0.2576
 7006SOL    HW132477   2.174   2.401   6.946 -1.9774 -0.0526  2.5361
 7006SOL    HW232478   2.307   2.374   7.017 -0.3009 -1.2710 -0.8058
 7007SOL     OW32479   0.046   1.043  15.810  0.1543  0.1483  0.5036
 7007SOL    HW132480   0.078   1.118  15.860 -0.4871  0.9425 -0.2772
 7007SOL    HW232481   0.124   0.996  15.782 -1.5903 -0.7524 -2.7698
 7008SOL     OW32482   0.700   2.625   5.290 -0.2148  0.3527 -0.2449
 7008SOL    HW132483   0.625   2.570   5.314 -1.6396  2.0753 -0.7375
 7008SOL    HW232484   0.774   2.575   5.257 -0.5931 -0.4575  0.1322
 7009SOL     OW32485   4.502   4.722   8.191  0.6724 -0.0910 -0.0560
 7009SOL    HW132486   4.494   0.095   8.193 -2.3706 -0.3683  1.1280
 7009SOL    HW232487   4.411   4.698   8.207  1.1929 -1.4566  0.7881
 7010SOL     OW32488   1.958   0.804  17.567 -0.2949  0.4099  0.3200
 7010SOL    HW132489   1.902   0.831  17.494 -0.6666 -2.6828 -0.5229
 7010SOL    HW232490   2.042   0.791  17.524  0.1764  1.3957  0.9227
 7011SOL     OW32491   1.629   1.833  16.009 -0.3134  0.7331  0.5764
 7011SOL    HW132492   1.606   1.811  16.100  2.3808 -2.8264  0.3908
 7011SOL    HW232493   1.643   1.927  16.016  2.4364  0.2682  1.2242
 7012SOL     OW32494   0.196   3.425   6.738 -0.1555 -0.6195 -0.5195
 7012SOL    HW132495   0.259   3.386   6.798  0.6389  0.9793 -0.3422
 7012SOL    HW232496   0.197   3.519   6.755  2.1394 -0.6100 -0.6901
 7013SOL     OW32497   2.202   0.401   9.869 -0.5984 -0.5237 -0.2233
 7013SOL    HW132498   2.258   0.362   9.802  0.4614  0.3473  0.1471
 7013SOL    HW232499   2.233   0.491   9.859 -1.7212 -0.1424 -0.2991
 7014SOL     OW32500   2.885   3.026   8.470  0.3308 -0.7713  0.3323
 7014SOL    HW132501   2.822   3.077   8.520  0.6294  0.1568 -0.2331
 7014SOL    HW232502   2.957   3.024   8.533  0.0297 -2.1251  0.6196
 7015SOL     OW32503   4.154   2.026   9.215  0.1395 -0.3879 -0.1846
 7015SOL    HW132504   4.097   1.956   9.248  0.1101  0.4743  1.5869
 7015SOL    HW232505   4.122   2.062   9.133  0.6135  0.0981 -0.1499
 7016SOL     OW32506   2.529   0.156   5.108  0.7587 -0.2586 -0.2626
 7016SOL    HW132507   2.476   0.145   5.030 -0.3566  0.7482  0.3523
 7016SOL    HW232508   2.497   0.232   5.157  0.4661 -1.1429  0.9210
 7017SOL     OW32509   2.897   1.070   9.310  0.6521 -0.1514 -0.4319
 7017SOL    HW132510   2.931   0.982   9.327  1.0393  0.1437  0.3120
 7017SOL    HW232511   2.873   1.091   9.400  1.6501 -1.5064  0.1515
 7018SOL     OW32512   2.953   0.311   8.160 -0.2214  0.0334 -0.4878
 7018SOL    HW132513   2.881   0.330   8.100 -2.3748  1.7532  2.5786
 7018SOL    HW232514   2.968   0.396   8.203  1.0107 -1.8654  2.8194
 7019SOL     OW32515   0.996   2.167  12.041 -0.0841 -0.6599  0.1317
 7019SOL    HW132516   0.995   2.119  11.959 -1.5941  1.7401 -1.2698
 7019SOL    HW232517   0.966   2.105  12.107 -1.4523 -1.1820 -0.9831
 7020SOL     OW32518   4.614   2.966   3.786  0.3686 -0.4294  0.0396
 7020SOL    HW132519   4.519   2.964   3.791  0.3339 -0.6379 -0.7526
 7020SOL    HW232520   4.642   2.892   3.841  0.3322 -0.0551  0.5613
 7021SOL     OW32521   2.604   3.586   4.823 -0.8793 -0.5506 -0.4684
 7021SOL    HW132522   2.569   3.591   4.912  1.2583  0.5651  0.3041
 7021SOL    HW232523   2.654   3.505   4.830 -2.0161 -1.2977 -1.0174
 7022SOL     OW32524   0.723   3.512   5.813  0.2081  0.0620  0.0366
 7022SOL    HW132525   0.692   3.593   5.773  0.1054  0.5408  1.0744
 7022SOL    HW232526   0.779   3.478   5.743 -1.1041  0.0093 -0.9795
 7023SOL     OW32527   4.635   4.170  12.330 -0.5611 -0.4276  0.4353
 7023SOL    HW132528   4.671   4.201  12.413  0.9180 -0.0648 -0.3413
 7023SOL    HW232529   4.559   4.118  12.355 -0.1209 -0.5646  1.5013
 7024SOL     OW32530   2.581   1.472   9.075  0.1085  0.1602 -0.0734
 7024SOL    HW132531   2.526   1.394   9.078 -0.5165  0.5886 -0.3871
 7024SOL    HW232532   2.614   1.478   9.164  1.2057  1.1329 -0.5526
 7025SOL     OW32533   3.795   1.636   6.297 -0.2799 -0.3310  0.7979
 7025SOL    HW132534   3.742   1.707   6.261  0.0976 -0.7007 -0.4827
 7025SOL    HW232535   3.823   1.603   6.212 -1.2350 -1.3987  0.8941
 7026SOL     OW32536   1.585   0.908   5.769 -0.1008 -0.1149  0.0535
 7026SOL    HW132537   1.657   0.900   5.831 -0.3414 -0.9013  0.2328
 7026SOL    HW232538   1.528   0.942   5.838 -0.7417 -2.9222  0.9012
 7027SOL     OW32539   3.849   3.279   2.512 -0.2128  0.4940 -0.0325
 7027SOL    HW132540   3.770   3.331   2.498  0.1201  1.4743  1.6184
 7027SOL    HW232541   3.837   3.259   2.605  0.6915 -0.5916 -0.1521
 7028SOL     OW32542   2.235   0.610   6.553 -1.0324 -0.1133  0.0809
 7028SOL    HW132543   2.218   0.516   6.563 -2.8663  0.4489  2.3148
 7028SOL    HW232544   2.207   0.640   6.640 -0.4884 -2.5920  1.1079
 7029SOL     OW32545   3.015   4.296   1.730  0.5408  0.4304 -0.3432
 7029SOL    HW132546   3.036   4.267   1.641 -0.7924 -1.6730  0.0094
 7029SOL    HW232547   2.998   4.216   1.779  0.0192 -0.1650 -1.4771
 7030SOL     OW32548   2.018   0.212   6.048  0.0258 -0.0162  0.1661
 7030SOL    HW132549   1.938   0.185   6.003  0.3491  1.4113 -1.2803
 7030SOL    HW232550   2.090   0.198   5.987 -0.0285 -1.5609  0.4599
 7031SOL     OW32551   3.270   3.771   2.376  0.4645  0.2780  0.3580
 7031SOL    HW132552   3.325   3.693   2.377  0.0490 -0.0186 -1.6899
 7031SOL    HW232553   3.182   3.734   2.374  0.4203  0.4404 -0.4206
 7032SOL     OW32554   0.346   3.994  11.876  0.7858 -0.0099  0.0255
 7032SOL    HW132555   0.323   4.066  11.817 -0.3412 -0.3496  0.0513
 7032SOL    HW232556   0.415   4.040  11.923  1.0540 -0.8825  0.4822
 7033SOL     OW32557   2.955   1.486   5.713 -0.4773 -0.4561 -1.1073
 7033SOL    HW132558   2.962   1.582   5.717  0.5315 -0.6492  1.7215
 7033SOL    HW232559   2.862   1.472   5.725 -0.3261 -3.2549 -3.3823
 7034SOL     OW32560   0.808   1.985   9.120  0.4211 -0.1623 -0.2665
 7034SOL    HW132561   0.777   1.913   9.176 -1.3604  0.0555 -0.9843
 7034SOL    HW232562   0.744   1.983   9.050 -2.2444  4.0397  2.0168
 7035SOL     OW32563   3.577   4.271   6.565 -0.1599 -0.1968 -0.2683
 7035SOL    HW132564   3.640   4.201   6.583 -0.7488 -0.9980 -1.2611
 7035SOL    HW232565   3.634   4.348   6.565 -2.6005  1.5888  1.0939
 7036SOL     OW32566   2.386   1.216   4.681  0.1339 -0.3677 -0.0389
 7036SOL    HW132567   2.304   1.228   4.634 -0.6126 -0.2422  1.2934
 7036SOL    HW232568   2.453   1.222   4.613 -0.4918 -2.4036 -0.8074
 7037SOL     OW32569   0.438   3.850   6.556 -0.6552  0.6672 -0.2814
 7037SOL    HW132570   0.462   3.803   6.476 -0.9775 -0.7161  0.4349
 7037SOL    HW232571   0.514   3.909   6.561 -0.4077  0.2758  0.5178
 7038SOL     OW32572   0.971   1.264  11.682  0.2354  0.2590  0.0791
 7038SOL    HW132573   0.929   1.330  11.737 -1.0472 -0.0958 -0.4820
 7038SOL    HW232574   1.047   1.304  11.641  0.9238 -1.1225 -0.0199
 7039SOL     OW32575   0.117   2.087   5.422  0.5405 -0.4171  0.6185
 7039SOL    HW132576   0.072   2.029   5.360 -0.0274  1.1438 -0.4277
 7039SOL    HW232577   0.116   2.170   5.374 -2.8574 -0.8365  0.0074
 7040SOL     OW32578   3.334   4.486   4.747 -0.1858  0.2292 -0.4293
 7040SOL    HW132579   3.329   4.390   4.744 -0.1520  0.2260 -0.3880
 7040SOL    HW232580   3.341   4.516   4.657 -1.5301  1.0728 -0.2528
 7041SOL     OW32581   0.677   0.803   6.912 -0.1145 -0.1917  0.5692
 7041SOL    HW132582   0.619   0.731   6.935  0.1729 -1.5488 -2.8649
 7041SOL    HW232583   0.684   0.795   6.816 -0.9921  0.6561  0.4313
 7042SOL     OW32584   4.415   0.665   4.064 -0.8469  0.1450  0.0471
 7042SOL    HW132585   4.508   0.680   4.082 -0.5650 -0.9394 -0.4802
 7042SOL    HW232586   4.381   0.654   4.153 -1.8733  1.2173 -0.2060
 7043SOL     OW32587   1.744   0.662   5.167 -0.0859 -0.2031  0.3905
 7043SOL    HW132588   1.795   0.581   5.165  0.4326  0.1543 -0.8260
 7043SOL    HW232589   1.717   0.667   5.076 -0.9369 -1.0219  0.5896
 7044SOL     OW32590   0.541   1.297   2.153  0.5102  0.1389 -0.2314
 7044SOL    HW132591   0.577   1.375   2.112 -1.9684  1.3548 -0.0544
 7044SOL    HW232592   0.526   1.242   2.076 -1.1663  2.8619 -1.8578
 7045SOL     OW32593   0.414   1.842  11.031 -0.3493  0.3203 -0.0232
 7045SOL    HW132594   0.359   1.915  11.001  0.7667  0.9838 -0.4444
 7045SOL    HW232595   0.419   1.855  11.125  0.8684  0.1524 -0.0665
 7046SOL     OW32596   2.013   1.575   9.869  0.0740  0.3220 -0.0765
 7046SOL    HW132597   1.920   1.599   9.868  0.5481  2.0961 -0.4274
 7046SOL    HW232598   2.052   1.657   9.839 -0.7584 -0.0087 -2.0973
 7047SOL     OW32599   1.873   3.890   3.996 -0.3013  0.1291  0.5679
 7047SOL    HW132600   1.964   3.890   4.025 -0.2528  0.5507  0.4057
 7047SOL    HW232601   1.859   3.982   3.977 -0.7040 -0.2128 -0.8186
 7048SOL     OW32602   4.210   2.580   1.025  0.5701 -0.4758 -0.4575
 7048SOL    HW132603   4.221   2.499   0.976 -0.0176 -0.1335 -1.1734
 7048SOL    HW232604   4.300   2.613   1.026  0.2607  0.2955  1.1688
 7049SOL     OW32605   4.070   0.431   6.813  0.5214  0.4276  0.2034
 7049SOL    HW132606   4.095   0.499   6.875 -1.2794  0.1729  1.2082
 7049SOL    HW232607   4.074   0.486   6.735  1.3585 -0.6815 -0.5420
 7050SOL     OW32608   1.524   3.324   4.137 -0.1858  0.0791 -0.0265
 7050SOL    HW132609   1.501   3.411   4.102 -1.7575  0.7704  2.7907
 7050SOL    HW232610   1.442   3.277   4.126 -0.4230  0.0633  1.8466
 7051SOL     OW32611   1.412   0.595   5.088 -0.7598 -0.2146 -0.3944
 7051SOL    HW132612   1.441   0.645   5.164 -0.2557  1.3921 -1.6579
 7051SOL    HW232613   1.372   0.657   5.028  0.6008  0.6489 -0.4118
 7052SOL     OW32614   4.440   4.099   6.386 -0.4719 -0.1685  0.2139
 7052SOL    HW132615   4.454   4.192   6.367  0.0201  0.0076  1.4325
 7052SOL    HW232616   4.526   4.069   6.417  0.4314  1.6284 -0.5720
 7053SOL     OW32617   2.271   0.549   4.749 -0.5239  0.2967  0.1972
 7053SOL    HW132618   2.227   0.499   4.680 -0.3340 -0.2080  0.4506
 7053SOL    HW232619   2.300   0.489   4.817 -0.0968  1.4929  1.0759
 7054SOL     OW32620   2.159   0.752   7.121 -0.2501  0.4717  0.0304
 7054SOL    HW132621   2.165   0.843   7.149 -0.6359  0.6710 -0.5133
 7054SOL    HW232622   2.202   0.756   7.035 -3.0254  1.6677 -1.3410
 7055SOL     OW32623   2.142   4.196   6.930 -0.1077 -0.0721  0.2984
 7055SOL    HW132624   2.127   4.274   6.984  0.2221 -0.6086  1.1737
 7055SOL    HW232625   2.205   4.225   6.864  1.4295 -3.5098  0.2522
 7056SOL     OW32626   0.635   1.575   4.360 -0.2513  0.4659  0.2146
 7056SOL    HW132627   0.623   1.669   4.372  3.9807  1.1978 -1.2420
 7056SOL    HW232628   0.692   1.550   4.433  0.9108  0.0955 -0.8152
 7057SOL     OW32629   4.284   1.422   7.145  0.1757 -0.1865 -0.0927
 7057SOL    HW132630   4.364   1.475   7.142  0.2495 -0.3320 -0.7233
 7057SOL    HW232631   4.246   1.465   7.221  0.8496  1.5317 -0.7370
 7058SOL     OW32632   4.608   1.175   8.096  0.2114  0.4869  0.2172
 7058SOL    HW132633   4.604   1.150   8.004 -1.4692  0.4231  0.3065
 7058SOL    HW232634   4.663   1.100   8.118 -1.0187 -1.6008 -3.7355
 7059SOL     OW32635   0.000   2.189  13.878 -0.2717 -0.4373  0.3911
 7059SOL    HW132636   0.049   2.263  13.913 -0.4376 -0.3906  0.5208
 7059SOL    HW232637   0.077   2.156  13.831  0.4513  0.8245  0.6820
 7060SOL     OW32638   0.479   2.222   1.507 -0.0659  0.3887 -0.0387
 7060SOL    HW132639   0.465   2.272   1.427  0.5125  1.2060  0.3787
 7060SOL    HW232640   0.447   2.135   1.481 -1.6286  0.9682 -0.0563
 7061SOL     OW32641   1.001   3.585   3.735 -0.0270  0.2342  0.0374
 7061SOL    HW132642   0.913   3.624   3.735 -0.0575  0.1632 -0.2799
 7061SOL    HW232643   1.043   3.622   3.658 -3.1518 -1.2186 -2.3847
 7062SOL     OW32644   0.873   3.657   1.400 -0.3222 -0.3854 -0.1061
 7062SOL    HW132645   0.941   3.591   1.390 -0.2548 -0.7691  2.9979
 7062SOL    HW232646   0.911   3.725   1.344 -0.5727 -0.1821 -0.0328
 7063SOL     OW32647   1.716   2.671   8.631 -0.3253  0.0098 -0.6525
 7063SOL    HW132648   1.638   2.725   8.639  0.2268  0.5444  1.1457
 7063SOL    HW232649   1.678   2.583   8.626  0.9666 -0.5866  0.0694
 7064SOL     OW32650   4.450   4.705   0.885 -0.8140  1.1253 -0.1989
 7064SOL    HW132651   4.438   0.004   0.793 -0.5124  2.5695  0.1069
 7064SOL    HW232652   4.387   0.042   0.924 -1.2352  1.3373 -1.2208
 7065SOL     OW32653   1.699   2.206   3.895  0.1825  0.3986 -0.1087
 7065SOL    HW132654   1.766   2.271   3.916  0.1908  0.6241 -0.8417
 7065SOL    HW232655   1.614   2.245   3.913 -0.9284 -1.5555 -1.1148
 7066SOL     OW32656   2.899   3.035   2.130  0.3482  0.0866  0.0670
 7066SOL    HW132657   2.863   2.948   2.145 -0.9599  0.3733 -1.3670
 7066SOL    HW232658   2.846   3.090   2.188  2.5443  0.3585  1.8146
 7067SOL     OW32659   3.483   3.815  15.984 -0.2072  0.6123 -0.0724
 7067SOL    HW132660   3.389   3.798  15.987 -0.6363  3.2207  1.2920
 7067SOL    HW232661   3.512   3.794  16.072 -2.0577  1.4506  0.7334
 7068SOL     OW32662   1.166   1.878   0.760 -0.3646  0.2597  0.1150
 7068SOL    HW132663   1.174   1.819   0.834  0.1762  0.4490  0.2116
 7068SOL    HW232664   1.155   1.820   0.685  0.2477  0.3376 -0.0386
 7069SOL     OW32665   3.985   3.427   1.851  0.0855  0.5628 -0.3590
 7069SOL    HW132666   3.890   3.431   1.846 -0.0560 -2.2936  0.2181
 7069SOL    HW232667   4.003   3.488   1.922  0.5006 -1.9138  1.6587
 7070SOL     OW32668   1.806   0.244   1.853 -0.2796 -0.3521  0.2643
 7070SOL    HW132669   1.790   0.153   1.877  1.6233 -0.4999  1.0024
 7070SOL    HW232670   1.901   0.256   1.861 -0.0321 -1.7162 -0.6899
 7071SOL     OW32671   2.356   0.150   7.106 -0.5140  0.4443 -0.2122
 7071SOL    HW132672   2.317   0.218   7.052  0.4045  0.4863 -0.8150
 7071SOL    HW232673   2.306   0.173   7.185 -0.4726 -0.9062  0.2049
 7072SOL     OW32674   1.593   3.131   6.805  0.1780  0.5517  0.4059
 7072SOL    HW132675   1.680   3.102   6.832  0.0965 -0.3041 -0.2501
 7072SOL    HW232676   1.533   3.065   6.839  0.8482 -1.3383 -2.0959
 7073SOL     OW32677   4.149   2.337  11.470  0.2276 -0.4898  0.3523
 7073SOL    HW132678   4.137   2.397  11.544 -0.4716 -1.3799  0.9555
 7073SOL    HW232679   4.230   2.292  11.490  0.2895 -0.9022 -0.8713
 7074SOL     OW32680   1.497   1.810   6.634  0.3027 -0.4941  0.1477
 7074SOL    HW132681   1.445   1.738   6.669  0.9585  0.6410  3.4426
 7074SOL    HW232682   1.588   1.789   6.653  0.3422 -2.9413 -2.7624
 7075SOL     OW32683   0.371   0.553  16.709  0.1216  0.4055  0.4388
 7075SOL    HW132684   0.278   0.566  16.727 -0.0693 -1.9525  1.2793
 7075SOL    HW232685   0.396   0.472  16.755 -1.4282 -0.7034 -0.6833
 7076SOL     OW32686   2.751   0.595   5.661  0.4995 -0.1869 -0.1698
 7076SOL    HW132687   2.661   0.621   5.678  0.7963 -0.2346  1.4256
 7076SOL    HW232688   2.760   0.522   5.722 -0.2054  0.8635  1.1990
 7077SOL     OW32689   4.535   0.896   0.718 -0.2613  0.1957 -0.1993
 7077SOL    HW132690   4.505   0.969   0.663 -2.8175  0.8895  2.0766
 7077SOL    HW232691   4.547   0.939   0.802  0.0798  0.0035 -0.1530
 7078SOL     OW32692   1.040   4.334   8.725  1.1185 -0.1253 -0.1909
 7078SOL    HW132693   0.991   4.266   8.770  4.2692 -0.5850  2.5052
 7078SOL    HW232694   1.013   4.304   8.638 -1.1998  1.0135  0.1390
 7079SOL     OW32695   2.932   1.661   7.952 -0.5209  0.5055 -0.5365
 7079SOL    HW132696   2.960   1.575   7.919 -0.5283 -0.0106  0.7867
 7079SOL    HW232697   2.858   1.679   7.895 -0.5674 -0.1546 -0.6873
 7080SOL     OW32698   2.402   0.098   6.512  0.0609 -0.3842 -0.0159
 7080SOL    HW132699   2.363   0.182   6.486 -0.2702 -0.5796 -0.1441
 7080SOL    HW232700   2.495   0.114   6.498  0.1739  1.0408  2.2802
 7081SOL     OW32701   3.113   3.589  12.178  0.3438 -0.2043 -0.3176
 7081SOL    HW132702   3.040   3.562  12.122  0.2633 -0.2825 -0.1762
 7081SOL    HW232703   3.145   3.505  12.211  1.6810  0.3587 -0.1970
 7082SOL     OW32704   3.900   1.646  15.973 -0.9405  0.1460 -0.5281
 7082SOL    HW132705   3.935   1.558  15.990 -3.7667 -1.0596 -0.9154
 7082SOL    HW232706   3.871   1.620  15.885 -0.8400 -0.3400 -0.4160
 7083SOL     OW32707   1.151   0.225  16.802 -0.2920 -0.6951  0.0407
 7083SOL    HW132708   1.167   0.319  16.804 -0.3836 -0.7178  1.7764
 7083SOL    HW232709   1.228   0.199  16.852  0.5992 -1.6801 -1.8526
 7084SOL     OW32710   2.112   4.151  10.206 -0.1527  0.0065  0.8754
 7084SOL    HW132711   2.121   4.114  10.294  0.4567  0.2533  0.9135
 7084SOL    HW232712   2.199   4.136  10.169 -0.4568 -1.1203  0.6191
 7085SOL     OW32713   3.717   1.368   2.566 -0.4350 -0.1863 -0.0231
 7085SOL    HW132714   3.754   1.285   2.537  0.6364 -0.2201  1.4252
 7085SOL    HW232715   3.802   1.407   2.584 -0.2129 -0.6345 -0.1115
 7086SOL     OW32716   2.849   2.188   3.085  0.6589 -0.7780 -0.3023
 7086SOL    HW132717   2.784   2.118   3.089  2.1677 -2.0768  1.5337
 7086SOL    HW232718   2.836   2.222   2.997  0.0768  1.5420  0.6861
 7087SOL     OW32719   2.967   1.129  12.244 -0.1266  0.1429  0.0557
 7087SOL    HW132720   2.895   1.101  12.302 -0.3510  0.5798 -0.0107
 7087SOL    HW232721   2.945   1.077  12.167  0.7211  0.1792 -0.2109
 7088SOL     OW32722   3.261   0.404   6.871 -0.1622  0.2721 -0.0009
 7088SOL    HW132723   3.303   0.415   6.786 -1.9069 -2.8911 -1.2628
 7088SOL    HW232724   3.268   0.308   6.868 -0.9520  0.2771 -2.4851
 7089SOL     OW32725   0.105   3.233  15.747  0.3373 -0.2346 -0.1744
 7089SOL    HW132726   0.052   3.165  15.706 -2.6383  1.7085  0.4344
 7089SOL    HW232727   0.187   3.221  15.700  0.8224 -0.3390  0.7051
 7090SOL     OW32728   4.287   0.142   5.127 -0.0089  0.0488  0.6067
 7090SOL    HW132729   4.305   0.158   5.220  1.3178 -1.3060  0.5734
 7090SOL    HW232730   4.210   0.198   5.116  0.1642  0.2866  0.6274
 7091SOL     OW32731   0.165   2.007   3.036  0.0588 -1.3482  0.3880
 7091SOL    HW132732   0.215   2.035   2.959 -0.5282 -0.0546  0.4739
 7091SOL    HW232733   0.076   2.033   3.012  0.9467 -0.2243 -1.6773
 7092SOL     OW32734   3.347   2.650  15.189 -0.6815 -0.0151 -0.1393
 7092SOL    HW132735   3.422   2.702  15.161 -0.3733 -1.7042 -2.5156
 7092SOL    HW232736   3.387   2.563  15.182  1.0109  0.7086  0.4308
 7093SOL     OW32737   1.480   1.391  11.631  0.4089  0.1380  0.0282
 7093SOL    HW132738   1.505   1.477  11.597  1.4538 -0.3961 -0.5551
 7093SOL    HW232739   1.548   1.342  11.584 -0.9587 -0.8134 -0.9523
 7094SOL     OW32740   1.852   1.371  12.089  0.7871 -0.3386  0.2000
 7094SOL    HW132741   1.894   1.450  12.056  1.9198 -2.1832 -2.7742
 7094SOL    HW232742   1.826   1.400  12.176 -0.9956  0.3977 -0.5730
 7095SOL     OW32743   3.214   3.506   7.945 -0.0069  0.2559 -0.3791
 7095SOL    HW132744   3.302   3.538   7.922  0.1522  0.3389  0.3472
 7095SOL    HW232745   3.197   3.574   8.009 -0.6869  0.1799 -0.4849
 7096SOL     OW32746   3.638   4.614   5.874 -0.1263  0.0421 -0.6209
 7096SOL    HW132747   3.552   4.655   5.863 -0.2825 -0.5096 -1.4342
 7096SOL    HW232748   3.694   4.684   5.908  0.4248 -0.2656 -0.8874
 7097SOL     OW32749   2.001   0.391   4.028 -0.0044 -0.4717  0.1493
 7097SOL    HW132750   2.053   0.434   4.096  0.9264 -3.5060  1.3097
 7097SOL    HW232751   1.924   0.362   4.077  1.1115 -1.2939  1.3878
 7098SOL     OW32752   3.019   3.178   2.508 -0.5547  0.5807 -0.4432
 7098SOL    HW132753   3.048   3.251   2.453 -2.0348 -1.3661 -3.7738
 7098SOL    HW232754   2.927   3.167   2.481 -1.1034  1.0752  1.2428
 7099SOL     OW32755   1.615   0.418   6.586 -0.0465 -0.2097 -0.6096
 7099SOL    HW132756   1.676   0.356   6.625  1.5398  1.5704 -0.2481
 7099SOL    HW232757   1.551   0.418   6.657  0.1399 -2.0845 -0.4276
 7100SOL     OW32758   2.039   2.644   9.344  0.4383  0.1808 -0.2464
 7100SOL    HW132759   2.093   2.595   9.405 -0.3692  0.7438  0.9148
 7100SOL    HW232760   2.031   2.735   9.373 -1.2804  0.1022 -0.4558
 7101SOL     OW32761   2.816   4.026  11.949  0.3838 -0.5792 -0.2164
 7101SOL    HW132762   2.830   4.031  11.854 -0.9442  0.6144 -0.3504
 7101SOL    HW232763   2.726   3.994  11.952 -0.1787  1.0810  0.3860
 7102SOL     OW32764   2.626   3.779   7.304  0.1395 -0.5351 -0.5323
 7102SOL    HW132765   2.590   3.802   7.218 -2.3374 -0.9579  0.3982
 7102SOL    HW232766   2.617   3.685   7.316 -1.6354  0.0055  2.2656
 7103SOL     OW32767   3.904   2.810   6.138  0.0845  0.0461 -0.2353
 7103SOL    HW132768   3.823   2.760   6.126 -0.7271  1.1481  0.6556
 7103SOL    HW232769   3.908   2.839   6.047  1.4314  0.0301 -0.1867
 7104SOL     OW32770   2.137   3.671   3.643  0.2796 -0.2541 -0.0958
 7104SOL    HW132771   2.058   3.617   3.652  0.1992 -0.2133 -0.5732
 7104SOL    HW232772   2.173   3.669   3.731 -0.2474 -0.3366  0.1191
 7105SOL     OW32773   0.301   0.547   6.035 -0.2049 -0.0942 -0.0784
 7105SOL    HW132774   0.337   0.515   5.952 -1.9739 -3.6222  0.4994
 7105SOL    HW232775   0.363   0.618   6.053  0.7947 -1.5692  2.1389
 7106SOL     OW32776   1.996   3.838  13.483  0.3518  0.0456 -0.3161
 7106SOL    HW132777   1.991   3.833  13.388 -0.1117  2.2090 -0.3872
 7106SOL    HW232778   1.984   3.746  13.508  0.5441  0.5857  1.8218
 7107SOL     OW32779   1.671   4.363   4.247 -0.1378 -0.0366  0.7752
 7107SOL    HW132780   1.716   4.282   4.223 -0.1012  0.2548 -0.1394
 7107SOL    HW232781   1.731   4.422   4.202 -0.1648 -0.6598 -0.0694
 7108SOL     OW32782   2.037   2.674   2.945  0.1837 -0.0555 -0.2155
 7108SOL    HW132783   2.119   2.693   2.990 -0.9673  1.0461  1.4222
 7108SOL    HW232784   2.069   2.635   2.864 -1.9225  2.8708 -2.4731
 7109SOL     OW32785   3.086   1.872   3.492 -0.1923  0.1081  0.0405
 7109SOL    HW132786   3.079   1.808   3.421 -2.8035 -0.6334  0.9559
 7109SOL    HW232787   3.004   1.867   3.541 -1.1228  1.2645 -1.3917
 7110SOL     OW32788   1.008   3.809   6.445  0.2427 -0.2306  0.0401
 7110SOL    HW132789   0.916   3.829   6.428  0.0647 -2.4737 -1.5911
 7110SOL    HW232790   1.023   3.870   6.517 -0.3231 -0.9076  0.7372
 7111SOL     OW32791   0.114   0.339   6.523 -0.5855 -0.4052 -0.0266
 7111SOL    HW132792   0.123   0.370   6.613 -0.3827  0.1561 -0.2406
 7111SOL    HW232793   0.145   0.419   6.480 -1.8188  0.3535  0.4843
 7112SOL     OW32794   3.932   4.464   4.941 -0.2355 -0.0477 -0.1376
 7112SOL    HW132795   3.983   4.464   4.860  2.2981 -1.6532  1.4298
 7112SOL    HW232796   4.002   4.497   4.997  1.7192 -0.5186 -2.3197
 7113SOL     OW32797   0.707   3.478   7.922  0.8878  0.3543  0.6561
 7113SOL    HW132798   0.732   3.569   7.905 -0.0932  0.3183 -1.0321
 7113SOL    HW232799   0.709   3.437   7.836  3.4129  0.9657  0.4316
 7114SOL     OW32800   1.109   1.530   5.476 -0.0662  0.9339  0.2349
 7114SOL    HW132801   1.160   1.450   5.467  1.1434  1.4723  2.4110
 7114SOL    HW232802   1.156   1.592   5.420  0.7901 -1.6750 -1.9387
 7115SOL     OW32803   3.312   3.829  15.664  0.0175  0.7603 -0.0770
 7115SOL    HW132804   3.376   3.821  15.593  0.2527  2.5712 -0.0834
 7115SOL    HW232805   3.241   3.767  15.646  1.3054 -0.7076 -0.0976
 7116SOL     OW32806   1.832   3.043   3.048 -0.2672  0.4281  0.4412
 7116SOL    HW132807   1.787   3.011   2.969 -0.1495 -0.7685  0.8593
 7116SOL    HW232808   1.889   3.113   3.018  0.6381 -0.3073  0.4474
 7117SOL     OW32809   3.654   3.598   7.224 -0.5361  0.1628 -0.1471
 7117SOL    HW132810   3.563   3.616   7.202  0.1844  0.5491 -2.8812
 7117SOL    HW232811   3.682   3.558   7.141 -2.5368  1.1831 -1.3072
 7118SOL     OW32812   0.199   1.898  11.519 -0.3366  0.3858  0.4629
 7118SOL    HW132813   0.291   1.919  11.534  0.2416 -0.9328 -1.3451
 7118SOL    HW232814   0.173   1.863  11.604  1.4954 -0.2737  0.7514
 7119SOL     OW32815   0.419   4.088   4.380 -0.5861 -0.2330 -0.1947
 7119SOL    HW132816   0.436   4.035   4.459  3.4577 -0.2911 -1.1053
 7119SOL    HW232817   0.465   4.042   4.310  2.3737 -0.0031  1.5698
 7120SOL     OW32818   3.682   2.305   7.888 -0.3982  0.2424 -0.3442
 7120SOL    HW132819   3.660   2.389   7.849 -1.7229 -0.0486 -0.2226
 7120SOL    HW232820   3.723   2.261   7.814 -2.2017  0.3908 -1.4128
 7121SOL     OW32821   0.581   0.875   3.068  0.4427 -0.1715  0.1844
 7121SOL    HW132822   0.558   0.866   3.160  0.6849 -0.2734  0.2352
 7121SOL    HW232823   0.493   0.877   3.029  0.1800 -0.7396  0.7559
 7122SOL     OW32824   0.287   1.888   5.170 -0.1971 -1.2180 -0.2208
 7122SOL    HW132825   0.323   1.965   5.216  1.1586 -1.6772 -0.4996
 7122SOL    HW232826   0.193   1.895   5.186 -0.4936  0.2706 -2.6711
 7123SOL     OW32827   3.874   4.258   7.452  0.7663  0.5335  0.8916
 7123SOL    HW132828   3.945   4.246   7.515  2.1547  1.0865 -0.5837
 7123SOL    HW232829   3.914   4.207   7.382 -0.2983 -0.3557  0.9186
 7124SOL     OW32830   3.683   2.003  10.311 -0.8430  0.0183 -0.0342
 7124SOL    HW132831   3.760   2.055  10.290 -0.2576 -0.4151  1.0407
 7124SOL    HW232832   3.723   1.917  10.305 -1.4841 -0.1549 -1.8662
 7125SOL     OW32833   0.097   2.927   6.469  0.2160 -0.6717 -0.0694
 7125SOL    HW132834   0.003   2.911   6.465 -0.0554  0.7705  0.3336
 7125SOL    HW232835   0.098   3.015   6.507 -2.0311 -1.7720  2.5558
 7126SOL     OW32836   4.433   4.101   5.572  0.2253  0.1443  0.1985
 7126SOL    HW132837   4.385   4.063   5.498  0.8676  0.6716 -0.4837
 7126SOL    HW232838   4.505   4.148   5.530 -0.8414  2.0373  0.4903
 7127SOL     OW32839   2.313   2.182  10.035  0.1892  0.1797  0.2257
 7127SOL    HW132840   2.321   2.177  10.130 -0.6052 -0.0507  0.2817
 7127SOL    HW232841   2.217   2.181  10.028  0.1894  1.5951  0.0547
 7128SOL     OW32842   1.474   1.822   8.403 -0.1340  0.1003  0.4454
 7128SOL    HW132843   1.540   1.881   8.440 -0.6311  0.5406  0.6287
 7128SOL    HW232844   1.509   1.810   8.314 -2.4288  1.9805 -0.7061
 7129SOL     OW32845   1.248   3.305   7.852  0.0932 -0.0534  0.2844
 7129SOL    HW132846   1.276   3.251   7.778 -2.9967  0.4459 -1.2453
 7129SOL    HW232847   1.195   3.370   7.808  4.0787  1.8771 -1.6918
 7130SOL     OW32848   2.164   4.197  11.237  0.0028 -0.5072 -0.1497
 7130SOL    HW132849   2.143   4.149  11.317 -0.4499  0.5998  0.3885
 7130SOL    HW232850   2.203   4.131  11.179 -0.3290 -0.3729 -0.5262
 7131SOL     OW32851   1.901   0.862  16.006  0.6236  0.1086 -0.5990
 7131SOL    HW132852   1.809   0.881  16.024  0.9785 -1.0620  2.4738
 7131SOL    HW232853   1.925   0.936  15.951  0.7454 -0.0989 -0.8248
 7132SOL     OW32854   0.032   3.107   8.256  0.5444  0.3197  0.0496
 7132SOL    HW132855   0.034   3.165   8.180 -1.3404  1.4609  0.8804
 7132SOL    HW232856   0.077   3.032   8.218 -0.1575  0.8908 -1.8687
 7133SOL     OW32857   3.890   0.008  16.840 -0.0586 -0.4341 -0.5105
 7133SOL    HW132858   3.895   4.667  16.769 -1.2730  0.5435 -1.4551
 7133SOL    HW232859   3.937   4.685  16.911 -1.3659 -1.1023 -0.0867
 7134SOL     OW32860   0.108   2.495   1.402  0.5602 -0.4958 -0.0365
 7134SOL    HW132861   0.013   2.497   1.416  0.7811 -2.9985  1.9467
 7134SOL    HW232862   0.136   2.466   1.489  0.0939  0.2500  0.3589
 7135SOL     OW32863   3.198   1.775  17.587  0.2038 -0.7909 -0.1812
 7135SOL    HW132864   3.193   1.731  17.502 -1.2903 -1.4375  0.2379
 7135SOL    HW232865   3.279   1.737  17.621 -0.5698 -0.3517  2.1828
 7136SOL     OW32866   0.305   0.239   7.545 -0.2307 -0.1650  0.4244
 7136SOL    HW132867   0.304   0.325   7.587 -0.1292 -1.3179  2.7276
 7136SOL    HW232868   0.352   0.192   7.613 -0.6243 -0.2584  0.6266
 7137SOL     OW32869   1.072   3.849   5.246 -0.7748  0.3331 -0.3114
 7137SOL    HW132870   1.136   3.867   5.177 -0.6063 -0.1753 -0.2926
 7137SOL    HW232871   1.027   3.772   5.210 -1.2720  1.2505 -1.6787
 7138SOL     OW32872   2.743   4.521  11.753  0.2153  0.0999 -0.1412
 7138SOL    HW132873   2.711   4.431  11.752 -2.1509  0.9342  0.6312
 7138SOL    HW232874   2.768   4.517  11.846 -1.1398 -0.1311  0.2182
 7139SOL     OW32875   0.002   0.684   2.326  0.5624  0.0488 -0.3327
 7139SOL    HW132876   0.001   0.597   2.366 -1.0258  0.5847  0.8184
 7139SOL    HW232877   0.025   0.744   2.397 -0.5079 -1.8712  1.6351
 7140SOL     OW32878   2.030   2.917   3.239 -0.0247  0.7349  0.1101
 7140SOL    HW132879   1.948   2.934   3.193 -0.3597 -0.7718  0.1343
 7140SOL    HW232880   2.068   2.837   3.202 -0.9637 -0.1416  1.0799
 7141SOL     OW32881   4.631   4.648   6.588 -0.0616 -0.8399  0.4797
 7141SOL    HW132882   4.666   4.721   6.536 -0.7891 -2.1164 -1.8250
 7141SOL    HW232883   4.606   4.693   6.669 -1.9891 -0.9061 -0.0742
 7142SOL     OW32884   2.023   3.894   2.402 -0.0404 -0.0134 -0.2475
 7142SOL    HW132885   2.097   3.857   2.451 -0.7082 -3.3715 -1.7787
 7142SOL    HW232886   1.951   3.860   2.455  1.1809 -2.0969  0.0699
 7143SOL     OW32887   1.623   1.212   6.782  0.2726 -0.3496  0.0206
 7143SOL    HW132888   1.675   1.132   6.772  0.2347 -0.0640 -2.3881
 7143SOL    HW232889   1.566   1.201   6.858 -0.0621 -1.3866 -0.3770
 7144SOL     OW32890   2.704   0.088  10.766  0.2688 -0.1863 -0.2229
 7144SOL    HW132891   2.634   0.073  10.830  0.4584  0.9084  0.2363
 7144SOL    HW232892   2.709   0.182  10.747  0.2142 -0.2269 -0.4296
 7145SOL     OW32893   0.231   4.168   6.744  0.1273 -0.4216  0.1142
 7145SOL    HW132894   0.227   4.257   6.778  0.6464 -0.6980  0.9018
 7145SOL    HW232895   0.271   4.177   6.658 -2.2827 -0.5353 -1.0298
 7146SOL     OW32896   2.627   3.653   6.469 -0.0979  0.1314  0.1577
 7146SOL    HW132897   2.610   3.559   6.465 -1.7535  0.4071  0.7799
 7146SOL    HW232898   2.680   3.664   6.549  1.9158 -0.6035 -1.0733
 7147SOL     OW32899   4.571   1.712   0.173 -0.0144 -0.3188 -0.4956
 7147SOL    HW132900   4.612   1.719   0.259 -1.4825  0.8304  0.1278
 7147SOL    HW232901   4.519   1.793   0.169  2.2343  1.1889  0.9743
 7148SOL     OW32902   2.710   2.672  17.400  0.0317 -0.4839 -0.5940
 7148SOL    HW132903   2.672   2.728  17.332  0.8458  0.5294 -0.2183
 7148SOL    HW232904   2.651   2.687  17.474 -0.1402 -0.4830 -0.7302
 7149SOL     OW32905   1.725   1.652   6.384  0.5471 -0.1239 -0.1088
 7149SOL    HW132906   1.673   1.582   6.344 -0.9161  0.5452  0.5897
 7149SOL    HW232907   1.805   1.638   6.333 -0.5582 -0.1365 -1.8504
 7150SOL     OW32908   3.046   0.187   4.762 -0.1763  0.6675 -0.6007
 7150SOL    HW132909   3.049   0.198   4.667  1.9853  0.3625 -0.5650
 7150SOL    HW232910   3.062   0.093   4.768 -1.8404  0.3077 -1.6453
 7151SOL     OW32911   4.479   4.013  12.512 -0.1716 -0.1649  0.4729
 7151SOL    HW132912   4.498   3.937  12.567  0.0281 -0.1949  0.3646
 7151SOL    HW232913   4.394   3.989  12.477 -0.5742 -1.2415  2.1552
 7152SOL     OW32914   0.904   2.705   9.744  0.3096 -0.0050 -0.2016
 7152SOL    HW132915   0.886   2.772   9.809 -0.3566 -0.6148  0.2359
 7152SOL    HW232916   0.818   2.664   9.748 -1.3282  3.5343  1.2170
 7153SOL     OW32917   4.379   1.692   9.643  0.3864 -0.0044  0.3019
 7153SOL    HW132918   4.389   1.786   9.656  2.8129 -0.0636 -1.3133
 7153SOL    HW232919   4.356   1.669   9.734 -1.1357  0.2240 -0.0267
 7154SOL     OW32920   0.541   1.193   2.840  0.0939  0.7517 -0.3509
 7154SOL    HW132921   0.467   1.159   2.790  0.5481  0.3510 -0.7431
 7154SOL    HW232922   0.617   1.172   2.786 -0.2654  1.1294 -1.0099
 7155SOL     OW32923   2.034   3.060   5.031  0.0717  1.0063  0.0203
 7155SOL    HW132924   2.059   3.020   4.948  0.6108 -1.1008  1.1947
 7155SOL    HW232925   1.962   3.004   5.062  1.2952  0.0746  1.1770
 7156SOL     OW32926   2.070   3.370   3.461  0.5060  0.6281  0.2726
 7156SOL    HW132927   2.038   3.421   3.535  0.7171 -0.3594  1.0347
 7156SOL    HW232928   2.152   3.417   3.445  0.9490  0.0778  0.9496
 7157SOL     OW32929   2.706   0.279  13.089 -0.3871 -0.3486  0.1657
 7157SOL    HW132930   2.654   0.211  13.046  1.0726 -1.3973  0.0599
 7157SOL    HW232931   2.634   0.335  13.119 -0.5536 -0.1681 -0.5699
 7158SOL     OW32932   1.174   1.251   4.689  0.3067  0.5009 -0.6207
 7158SOL    HW132933   1.267   1.254   4.668  0.7788  1.7289  1.6290
 7158SOL    HW232934   1.146   1.338   4.662  0.6615  0.1698 -2.0488
 7159SOL     OW32935   1.461   3.240  11.172  0.1272  0.5185  0.5808
 7159SOL    HW132936   1.376   3.217  11.134 -0.1301  1.2217  0.7345
 7159SOL    HW232937   1.514   3.259  11.095 -1.1788 -2.4237 -1.0557
 7160SOL     OW32938   2.461   1.257   7.860  0.3983 -0.5309  0.2016
 7160SOL    HW132939   2.372   1.280   7.887  0.8268  0.9995  0.3325
 7160SOL    HW232940   2.439   1.247   7.767  2.9666 -2.9950 -0.1567
 7161SOL     OW32941   0.876   1.268   7.989 -0.0953 -0.1038  0.1522
 7161SOL    HW132942   0.793   1.300   8.025  0.8392  0.7054  1.5425
 7161SOL    HW232943   0.944   1.313   8.038  1.4240 -1.3375 -0.8343
 7162SOL     OW32944   3.489   4.103   5.857 -0.1908  0.9822  0.5287
 7162SOL    HW132945   3.506   4.059   5.940 -1.2899 -2.3708 -1.0096
 7162SOL    HW232946   3.412   4.158   5.872  1.0593  2.7905  0.2944
 7163SOL     OW32947   0.221   0.922  16.253  1.1754  0.2462  0.2983
 7163SOL    HW132948   0.183   0.862  16.317 -1.2225  1.2911 -0.1741
 7163SOL    HW232949   0.269   0.864  16.194  1.3050  0.6310  0.0267
 7164SOL     OW32950   4.449   2.968   6.699 -0.2660 -0.1981  0.0305
 7164SOL    HW132951   4.466   3.046   6.646  1.8657 -0.4160  0.3852
 7164SOL    HW232952   4.429   3.014   6.781 -1.0230 -1.6830  0.6676
 7165SOL     OW32953   1.455   3.497   4.710 -0.0702  0.1980  0.7521
 7165SOL    HW132954   1.438   3.591   4.716  0.8718  0.4003  0.3586
 7165SOL    HW232955   1.407   3.484   4.628  1.3578 -1.4734  0.1770
 7166SOL     OW32956   2.149   3.781   3.157 -0.2367 -0.2804  0.3786
 7166SOL    HW132957   2.136   3.768   3.063 -0.1936 -1.0282  0.4762
 7166SOL    HW232958   2.240   3.758   3.174  0.8001  1.6847 -2.3455
 7167SOL     OW32959   1.287   2.357  12.671  0.4455  0.4481 -0.1460
 7167SOL    HW132960   1.265   2.267  12.698  0.2783  0.4431 -0.3007
 7167SOL    HW232961   1.331   2.384  12.752 -0.3960  1.9296 -0.1804
 7168SOL     OW32962   2.109   2.048   9.693 -0.2388  0.1162  0.5344
 7168SOL    HW132963   2.046   2.076   9.759  0.3758 -0.3194  1.2953
 7168SOL    HW232964   2.193   2.084   9.723  0.5002 -0.2464 -1.0783
 7169SOL     OW32965   1.455   1.387   5.966  0.1738  0.2374  0.0673
 7169SOL    HW132966   1.534   1.416   6.012  2.4113 -3.9552 -1.0959
 7169SOL    HW232967   1.467   1.437   5.885  1.2396 -0.8958 -0.4662
 7170SOL     OW32968   3.554   0.850  10.767  0.0801  0.1062  0.1217
 7170SOL    HW132969   3.512   0.842  10.681 -0.0925  0.8887  0.1351
 7170SOL    HW232970   3.540   0.762  10.803  1.8783  0.2654  1.2245
 7171SOL     OW32971   4.232   3.763   1.244  0.0211  0.2366  0.5014
 7171SOL    HW132972   4.171   3.824   1.287 -1.2811 -2.6585  2.7836
 7171SOL    HW232973   4.224   3.788   1.152 -0.8002  0.2313  0.5673
 7172SOL     OW32974   3.464   3.801   4.451 -0.4654 -0.4520 -0.2105
 7172SOL    HW132975   3.459   3.712   4.485 -0.2885 -0.3309  0.1384
 7172SOL    HW232976   3.442   3.792   4.358  2.3192  1.9793 -1.1176
 7173SOL     OW32977   4.413   0.371   3.660 -0.0470  0.0007 -0.7366
 7173SOL    HW132978   4.331   0.343   3.619 -1.3579 -0.1318  1.9684
 7173SOL    HW232979   4.404   0.342   3.751 -0.1681 -2.5866 -1.5735
 7174SOL     OW32980   1.901   0.170  12.164 -0.0880 -0.0480  0.5286
 7174SOL    HW132981   1.848   0.213  12.231  1.2718  0.0392  1.5401
 7174SOL    HW232982   1.919   0.251  12.115  1.1083 -0.2684  0.6026
 7175SOL     OW32983   2.445   0.504  16.257 -0.9415 -0.1114 -0.0420
 7175SOL    HW132984   2.381   0.537  16.320  0.6520 -0.9783  2.0443
 7175SOL    HW232985   2.416   0.417  16.229 -1.5754 -0.3936  1.5098
 7176SOL     OW32986   3.041   4.597   6.291  0.1578  0.2553  0.4506
 7176SOL    HW132987   2.961   4.611   6.240  1.1891 -1.3647 -1.5823
 7176SOL    HW232988   3.098   4.668   6.261  1.0145 -0.3430  0.6740
 7177SOL     OW32989   1.517   1.402   7.935 -0.4013  0.2374 -0.7231
 7177SOL    HW132990   1.425   1.424   7.918 -0.6934 -0.5126 -0.1201
 7177SOL    HW232991   1.497   1.324   7.987 -1.8813  2.0073  1.3588
 7178SOL     OW32992   2.946   2.289  16.211  0.5704  0.2932  0.6761
 7178SOL    HW132993   2.927   2.231  16.284 -1.9167 -0.4318 -0.5206
 7178SOL    HW232994   2.914   2.226  16.146  1.2016  0.5862  0.0838
 7179SOL     OW32995   0.188   2.912   8.131 -0.1766 -0.1131 -0.0866
 7179SOL    HW132996   0.252   2.937   8.065 -0.2855  0.0311 -0.1370
 7179SOL    HW232997   0.228   2.860   8.200  0.2267  0.6345  0.2321
 7180SOL     OW32998   3.158   2.313   3.949  0.4030  0.1755  0.0937
 7180SOL    HW132999   3.072   2.271   3.962  0.2855  0.1069 -0.8895
 7180SOL    HW233000   3.157   2.375   4.022 -2.7785  0.3552 -0.0852
 7181SOL     OW33001   3.927   1.497   6.013  0.2191  0.5778  0.5884
 7181SOL    HW133002   4.015   1.498   5.975  0.5087  0.7027  1.2505
 7181SOL    HW233003   3.950   1.427   6.073 -1.1973 -1.0537 -0.8017
 7182SOL     OW33004   2.003   1.394  15.528 -0.1884  0.7674 -0.1095
 7182SOL    HW133005   2.072   1.418  15.467 -0.5451  0.9777 -0.4315
 7182SOL    HW233006   1.965   1.481  15.538  0.8680  1.2524 -0.4003
 7183SOL     OW33007   0.851   3.414   1.159  0.3477  0.3163  0.2286
 7183SOL    HW133008   0.811   3.378   1.080  0.9394  2.6297 -1.1242
 7183SOL    HW233009   0.801   3.495   1.168 -0.1063  0.2270 -1.4342
 7184SOL     OW33010   0.309   3.279   3.659 -0.4109 -0.0276  0.3794
 7184SOL    HW133011   0.226   3.234   3.671  0.0974 -0.7555  1.1854
 7184SOL    HW233012   0.285   3.372   3.663 -1.4334 -0.2746 -0.2622
 7185SOL     OW33013   2.770   1.522  10.165  0.1862  0.1345 -0.3273
 7185SOL    HW133014   2.705   1.508  10.234  0.1111 -1.8257 -0.7662
 7185SOL    HW233015   2.759   1.443  10.111 -1.5679 -0.2844  0.6460
 7186SOL     OW33016   1.556   0.145   9.687 -0.0810  0.1788  0.0629
 7186SOL    HW133017   1.498   0.214   9.654 -0.9589 -1.0375 -0.9384
 7186SOL    HW233018   1.505   0.066   9.700  0.0725 -0.2327 -1.8580
 7187SOL     OW33019   4.492   3.412   6.049 -0.2590 -0.2706  0.0788
 7187SOL    HW133020   4.460   3.322   6.059 -1.5228  0.2855  1.0943
 7187SOL    HW233021   4.447   3.461   6.119 -2.1687 -1.3439 -0.3947
 7188SOL     OW33022   2.493   2.803  15.023 -0.2112  0.0535 -0.3370
 7188SOL    HW133023   2.444   2.771  15.099 -1.6243  0.0950 -1.2410
 7188SOL    HW233024   2.498   2.725  14.968  2.7442 -1.8968  2.6606
 7189SOL     OW33025   1.158   2.444   5.514 -0.2415 -0.0569  0.4937
 7189SOL    HW133026   1.070   2.479   5.504  0.4330  1.8792  1.4443
 7189SOL    HW233027   1.214   2.522   5.518 -0.9607  0.4993 -0.4946
 7190SOL     OW33028   2.985   1.616  17.669 -0.1967  0.6050 -0.1987
 7190SOL    HW133029   3.070   1.661  17.668  1.4908 -2.5462  1.8468
 7190SOL    HW233030   2.943   1.638   0.058  1.2363  0.0792  0.6658
 7191SOL     OW33031   0.577   0.641   5.431  0.0704 -0.3940  0.2773
 7191SOL    HW133032   0.492   0.599   5.417 -0.6245  1.2027 -0.2831
 7191SOL    HW233033   0.571   0.705   5.361 -1.4049 -2.3498 -1.3865
 7192SOL     OW33034   1.694   1.386  13.223  0.5743  0.0672 -0.2439
 7192SOL    HW133035   1.682   1.403  13.130 -1.3787  0.2796  0.0388
 7192SOL    HW233036   1.769   1.437  13.253  1.3297 -0.9910 -0.3285
 7193SOL     OW33037   2.046   1.330   0.923 -0.0565 -0.0956 -0.1729
 7193SOL    HW133038   2.087   1.295   1.002 -0.6171  0.1771  0.2351
 7193SOL    HW233039   1.965   1.366   0.960  0.6287  1.0101  0.2605
 7194SOL     OW33040   1.560   1.461  17.075  0.5293  0.2725 -0.0870
 7194SOL    HW133041   1.538   1.539  17.126 -0.5670 -1.4575  2.0919
 7194SOL    HW233042   1.636   1.487  17.023  1.5304  2.2473  2.3712
 7195SOL     OW33043   0.569   4.526   8.157  0.0779 -0.1423 -0.3405
 7195SOL    HW133044   0.477   4.524   8.133 -0.1778 -1.5272  0.7276
 7195SOL    HW233045   0.577   4.464   8.230  1.2539  0.4085  0.0028
 7196SOL     OW33046   1.491   1.152   9.810 -0.4911  0.2338  0.2222
 7196SOL    HW133047   1.436   1.132   9.886 -0.5076 -1.2195 -0.1733
 7196SOL    HW233048   1.569   1.204   9.830  0.6917 -0.8290 -1.5839
 7197SOL     OW33049   1.513   4.091   1.537  0.3715  0.3349 -0.0065
 7197SOL    HW133050   1.507   3.996   1.532  3.8268  0.2399 -2.3458
 7197SOL    HW233051   1.434   4.120   1.490 -0.0497  0.6350  0.8875
 7198SOL     OW33052   4.448   3.194   2.760  0.0059 -0.1098  0.1913
 7198SOL    HW133053   4.492   3.205   2.675  0.3796  0.1876  0.4217
 7198SOL    HW233054   4.386   3.127   2.733  0.4117  0.2301 -1.5983
 7199SOL     OW33055   2.012   3.648   8.251 -0.0835  0.5776  0.6480
 7199SOL    HW133056   2.000   3.715   8.318 -1.6605 -1.4461  2.3965
 7199SOL    HW233057   1.999   3.568   8.302  0.9901  0.7279  1.1508
 7200SOL     OW33058   0.094   4.417   9.213  0.2183 -0.2544 -0.2301
 7200SOL    HW133059   0.048   4.395   9.132 -2.5473  0.1758  1.2163
 7200SOL    HW233060   0.127   4.501   9.180  2.4234 -1.1301 -0.2157
 7201SOL     OW33061   3.782   2.805   5.476  0.2086 -0.4524  0.7077
 7201SOL    HW133062   3.743   2.892   5.480  0.5396 -0.3184  0.9319
 7201SOL    HW233063   3.858   2.823   5.421 -1.9482  0.2701 -2.0739
 7202SOL     OW33064   0.403   1.384   7.246  0.0563 -0.1315  0.8483
 7202SOL    HW133065   0.489   1.363   7.283 -0.2125 -0.6990  1.1554
 7202SOL    HW233066   0.428   1.361   7.156 -2.5483 -0.1816  0.1285
 7203SOL     OW33067   3.016   4.233   1.200  0.3128  0.1595  0.0212
 7203SOL    HW133068   2.979   4.321   1.188 -0.0044 -0.1028 -0.8797
 7203SOL    HW233069   3.053   4.215   1.114  2.1344  0.9164  0.6393
 7204SOL     OW33070   3.345   4.374  15.653 -0.3319  0.1375 -0.1509
 7204SOL    HW133071   3.425   4.418  15.623  0.4500 -0.7589  0.5966
 7204SOL    HW233072   3.382   4.285  15.661 -1.1632 -0.2220 -0.3160
 7205SOL     OW33073   0.724   2.222  12.016  0.1472 -0.1251  0.3954
 7205SOL    HW133074   0.816   2.226  11.989 -0.4257  2.9792 -1.0953
 7205SOL    HW233075   0.712   2.304  12.063 -5.8511 -0.8518  0.1413
 7206SOL     OW33076   0.849   1.898   7.558  0.1116  0.4103  0.1654
 7206SOL    HW133077   0.784   1.940   7.501  1.3522  1.1876 -0.6603
 7206SOL    HW233078   0.888   1.976   7.598 -0.4649 -0.0275  1.5654
 7207SOL     OW33079   2.355   3.323   6.485 -0.0680 -0.3931  0.5649
 7207SOL    HW133080   2.273   3.372   6.478  1.2609  1.4561 -2.1050
 7207SOL    HW233081   2.345   3.285   6.572 -0.2487  0.1395  0.7807
 7208SOL     OW33082   1.633   0.358  14.229  0.4418  0.4393  0.3260
 7208SOL    HW133083   1.576   0.282  14.245  2.1425 -0.8611  0.1896
 7208SOL    HW233084   1.715   0.334  14.272  0.3012  1.3205  1.1052
 7209SOL     OW33085   0.200   3.717  16.812 -0.6535 -0.7234  0.3338
 7209SOL    HW133086   0.194   3.737  16.906 -1.3053 -1.2814  0.4192
 7209SOL    HW233087   0.219   3.623  16.812  0.0374 -0.5770  0.5816
 7210SOL     OW33088   1.568   3.564   2.258 -0.0474 -0.1916  0.4001
 7210SOL    HW133089   1.631   3.570   2.330 -0.1094  1.4359  0.3242
 7210SOL    HW233090   1.607   3.503   2.196 -0.1380 -0.0852  0.2390
 7211SOL     OW33091   1.646   4.076  14.874 -0.0981 -0.1969 -0.3291
 7211SOL    HW133092   1.741   4.083  14.864  0.3251 -0.0265  3.7611
 7211SOL    HW233093   1.622   4.042  14.787 -0.1001  0.7007 -0.6758
 7212SOL     OW33094   3.807   3.754   8.151 -0.0847 -0.1885 -0.2870
 7212SOL    HW133095   3.803   3.669   8.107 -2.1730 -1.5912  2.6654
 7212SOL    HW233096   3.863   3.740   8.227  0.3714  1.9902 -0.2035
 7213SOL     OW33097   3.316   0.521   3.164 -0.0793  0.0698 -0.2682
 7213SOL    HW133098   3.335   0.612   3.190 -0.1107 -0.1323  0.4733
 7213SOL    HW233099   3.395   0.499   3.114  0.8873  0.6026  1.0192
 7214SOL     OW33100   1.480   0.546   3.190 -0.1183 -0.0897  0.4088
 7214SOL    HW133101   1.572   0.521   3.203  0.2941  0.9316 -0.5172
 7214SOL    HW233102   1.459   0.488   3.117 -1.0015 -0.8571  1.2785
 7215SOL     OW33103   1.874   4.330   6.357  0.4169 -0.6515 -0.4548
 7215SOL    HW133104   1.784   4.328   6.390  0.1485  1.3998 -1.0880
 7215SOL    HW233105   1.872   4.414   6.311  0.0025 -0.5142 -0.1886
 7216SOL     OW33106   3.955   2.766   7.417  0.2227  0.5432 -0.2211
 7216SOL    HW133107   3.969   2.845   7.364  0.6248  1.7272  1.6602
 7216SOL    HW233108   3.977   2.708   7.344  0.3289  0.6658 -0.2870
 7217SOL     OW33109   1.014   0.554   3.924 -0.0090 -0.8689 -0.2638
 7217SOL    HW133110   0.922   0.565   3.950  0.6942  0.0785  1.7546
 7217SOL    HW233111   1.000   0.589   3.836 -1.3608 -2.3220 -0.6303
 7218SOL     OW33112   3.695   3.191  15.828  0.1316  0.1622  0.6886
 7218SOL    HW133113   3.763   3.210  15.764 -0.0682 -3.2983 -0.5359
 7218SOL    HW233114   3.692   3.279  15.867  2.2988  1.1536 -1.4093
 7219SOL     OW33115   1.962   0.448  15.831 -0.2751 -0.1356  0.2946
 7219SOL    HW133116   1.990   0.524  15.779 -0.5319  0.5298  1.1150
 7219SOL    HW233117   1.967   0.368  15.780  0.5660  0.6652 -0.8857
 7220SOL     OW33118   4.422   0.319   6.033 -0.5022 -0.1716 -0.3047
 7220SOL    HW133119   4.330   0.344   6.025  0.0208  1.9968  0.4411
 7220SOL    HW233120   4.450   0.343   5.945 -0.1440 -1.7376 -0.6155
 7221SOL     OW33121   1.378   2.609   2.941  0.2999  0.1941 -0.5820
 7221SOL    HW133122   1.361   2.584   2.850  1.6996 -2.3166 -0.1661
 7221SOL    HW233123   1.428   2.534   2.974 -0.1226  1.2988  2.5921
 7222SOL     OW33124   4.319   1.974  13.551 -0.2282  0.1803 -0.5611
 7222SOL    HW133125   4.299   1.893  13.598 -0.7348  0.5245 -0.1763
 7222SOL    HW233126   4.262   1.958  13.475  1.3317 -1.4097 -1.3752
 7223SOL     OW33127   3.921   3.753  13.458  0.0727  0.0567  0.2941
 7223SOL    HW133128   3.994   3.810  13.434 -0.5267  0.8922  0.4266
 7223SOL    HW233129   3.944   3.739  13.549 -1.5626 -1.9172  0.3882
 7224SOL     OW33130   4.537   3.234  17.144 -0.0994  0.5765  0.0465
 7224SOL    HW133131   4.524   3.191  17.228 -1.2198  0.8992  0.0361
 7224SOL    HW233132   4.630   3.214  17.152 -0.0598  0.2804 -1.1340
 7225SOL     OW33133   2.452   1.413   3.744  0.0918  0.0294  0.4365
 7225SOL    HW133134   2.498   1.405   3.828  0.4461  2.8024  0.5320
 7225SOL    HW233135   2.360   1.434   3.762  0.2369 -0.9170  2.2360
 7226SOL     OW33136   4.522   4.641   1.435  0.1787 -0.4664  0.2240
 7226SOL    HW133137   4.538   4.610   1.346 -1.8736 -2.9706  0.7305
 7226SOL    HW233138   4.428   4.625   1.444 -0.4092  2.4982 -0.5677
 7227SOL     OW33139   1.358   2.248   2.487  0.1610 -0.1491 -0.2763
 7227SOL    HW133140   1.276   2.291   2.511  0.0723  0.5561 -1.8239
 7227SOL    HW233141   1.397   2.269   2.572  1.2024 -1.2173 -0.4791
 7228SOL     OW33142   1.885   4.338   5.150 -0.4332 -0.2869  0.5928
 7228SOL    HW133143   1.942   4.385   5.089 -1.2447  0.5379  0.4586
 7228SOL    HW233144   1.926   4.355   5.235 -0.2922 -1.7987  0.8129
 7229SOL     OW33145   2.154   2.500   8.501 -0.3348 -0.5495  0.0538
 7229SOL    HW133146   2.179   2.584   8.538 -2.0900 -0.6262  1.4157
 7229SOL    HW233147   2.203   2.507   8.419 -0.5588  1.2591  0.0770
 7230SOL     OW33148   1.641   4.445   8.413 -0.3024 -0.4684 -0.2591
 7230SOL    HW133149   1.651   4.451   8.318 -1.9873  2.6962 -0.2599
 7230SOL    HW233150   1.731   4.428   8.438  0.0331  0.1137 -1.0710
 7231SOL     OW33151   4.462   1.958   6.379  0.0297 -0.8726  0.0518
 7231SOL    HW133152   4.516   1.994   6.310 -0.1914 -2.7562 -1.1150
 7231SOL    HW233153   4.536   1.916   6.424 -2.1259 -2.9227  1.7263
 7232SOL     OW33154   3.951   2.179   7.318 -0.4082  0.0762  0.1953
 7232SOL    HW133155   3.975   2.195   7.227  0.0115 -1.1515  0.0828
 7232SOL    HW233156   3.861   2.211   7.328 -0.4236 -0.3994  1.6731
 7233SOL     OW33157   2.175   2.047   7.628 -0.0167  0.3132 -0.4615
 7233SOL    HW133158   2.118   2.018   7.556 -1.2824  0.1077  0.6278
 7233SOL    HW233159   2.261   2.056   7.587  0.6752  1.9706  1.3564
 7234SOL     OW33160   2.639   1.883  17.447  0.9083 -0.4962  0.7302
 7234SOL    HW133161   2.639   1.914  17.357  0.5144  0.0030  0.9058
 7234SOL    HW233162   2.549   1.900  17.474  1.0443  1.1595  0.1197
 7235SOL     OW33163   1.565   2.297   9.206 -0.1907  0.1680 -0.3913
 7235SOL    HW133164   1.642   2.347   9.232 -2.2920  1.7520  2.7728
 7235SOL    HW233165   1.523   2.285   9.291  0.3351  2.4083  0.1776
 7236SOL     OW33166   3.070   2.450   8.322  0.5253 -0.4513 -0.2080
 7236SOL    HW133167   3.015   2.374   8.340 -1.0734  0.7341 -0.0759
 7236SOL    HW233168   3.027   2.528   8.357  1.0192  0.1207 -0.8627
 7237SOL     OW33169   4.191   1.719   3.864  0.3733  0.0543 -0.1890
 7237SOL    HW133170   4.266   1.750   3.814  0.3565 -1.5978 -1.2466
 7237SOL    HW233171   4.179   1.631   3.829 -0.8018 -0.2749  1.0470
 7238SOL     OW33172   3.362   3.944  13.631 -0.8198  0.0895 -0.6696
 7238SOL    HW133173   3.349   3.852  13.605 -0.4830 -1.3190  4.1299
 7238SOL    HW233174   3.456   3.957  13.639 -0.4602 -1.6078 -2.0484
 7239SOL     OW33175   0.247   0.710   5.588 -0.1499 -0.8608 -0.1202
 7239SOL    HW133176   0.177   0.721   5.653  0.1015  0.4810 -0.0869
 7239SOL    HW233177   0.221   0.634   5.536 -1.9845  0.0393 -0.5208
 7240SOL     OW33178   1.376   3.538   0.561 -0.3274  0.0461  0.1978
 7240SOL    HW133179   1.336   3.593   0.493  0.3535  0.3622  0.0527
 7240SOL    HW233180   1.402   3.612   0.616  1.0588 -0.1872 -0.1459
 7241SOL     OW33181   2.095   2.962   5.720  0.1019  0.1799 -0.1664
 7241SOL    HW133182   2.025   2.998   5.667 -1.3718 -0.2395  1.4975
 7241SOL    HW233183   2.072   3.004   5.803 -0.4360 -1.0301  0.3105
 7242SOL     OW33184   1.207   4.404   5.296  0.4233 -0.2141 -0.1424
 7242SOL    HW133185   1.184   4.320   5.333 -0.8142  0.5439  0.8029
 7242SOL    HW233186   1.192   4.467   5.366  2.1171  1.3714 -1.1865
 7243SOL     OW33187   2.370   0.619  15.621  0.0159 -0.6841 -0.3566
 7243SOL    HW133188   2.337   0.697  15.665  2.1587 -0.0359  0.1137
 7243SOL    HW233189   2.298   0.590  15.565  0.5186  0.6331 -1.6763
 7244SOL     OW33190   0.883   0.146  15.006  0.0659  0.3630 -0.5073
 7244SOL    HW133191   0.879   0.051  15.014  0.3015  0.3434 -0.6251
 7244SOL    HW233192   0.960   0.174  15.057  0.6911 -2.5997  0.1443
 7245SOL     OW33193   2.760   1.801   5.708 -0.5449 -0.2857 -0.3223
 7245SOL    HW133194   2.765   1.867   5.777  2.1200  0.0550 -0.8131
 7245SOL    HW233195   2.675   1.763   5.729 -0.9078  0.9106  0.3490
 7246SOL     OW33196   2.171   2.902  10.728  0.1178 -0.0689  0.7185
 7246SOL    HW133197   2.235   2.938  10.666  0.0200 -0.1694  0.5606
 7246SOL    HW233198   2.092   2.948  10.701 -1.1665 -2.8575 -0.2900
 7247SOL     OW33199   3.442   1.004   5.358 -0.4928 -0.7301  0.1395
 7247SOL    HW133200   3.519   1.059   5.344 -1.0144  0.2404  1.0963
 7247SOL    HW233201   3.467   0.947   5.286  1.4659 -0.3616  0.5381
 7248SOL     OW33202   3.963   3.673   8.360 -0.4679  0.0478 -0.2419
 7248SOL    HW133203   3.985   3.581   8.343 -2.3063 -0.6609  1.2554
 7248SOL    HW233204   4.007   3.696   8.442  1.0773 -0.5137 -0.9028
 7249SOL     OW33205   3.104   3.178  15.912  0.3725 -0.5552  0.4305
 7249SOL    HW133206   3.173   3.206  15.851  0.3776 -1.0877  0.1888
 7249SOL    HW233207   3.102   3.250  15.975 -1.2951  0.5618 -0.9019
 7250SOL     OW33208   2.471   1.771   4.394  0.1302 -0.4196  0.5032
 7250SOL    HW133209   2.480   1.821   4.313 -2.8542 -2.7683 -1.2610
 7250SOL    HW233210   2.547   1.717   4.374 -1.0445 -1.9377  0.2127
 7251SOL     OW33211   2.568   2.463  10.113  0.1369 -0.3051 -0.2604
 7251SOL    HW133212   2.647   2.517  10.116  0.5868 -0.8618 -2.4869
 7251SOL    HW233213   2.507   2.528  10.149  1.3387  0.1985  0.8714
 7252SOL     OW33214   0.268   2.021  10.881 -0.2443 -1.1231 -0.1258
 7252SOL    HW133215   0.276   2.013  10.786 -0.9214  1.9960 -0.4576
 7252SOL    HW233216   0.243   2.114  10.882  0.7130 -0.8470 -1.0063
 7253SOL     OW33217   4.457   2.149   6.873  0.3853 -0.1074  0.4047
 7253SOL    HW133218   4.547   2.162   6.902 -0.0174  2.1540  0.5885
 7253SOL    HW233219   4.444   2.055   6.886  3.0266 -0.3142  1.4836
 7254SOL     OW33220   0.936   4.172   8.547  0.3785  0.1435  0.6629
 7254SOL    HW133221   0.889   4.092   8.572  0.0741  0.9099  2.5628
 7254SOL    HW233222   1.022   4.145   8.515  0.0838  0.4705 -0.3967
 7255SOL     OW33223   1.785   2.500   9.326  0.1548 -0.5576 -0.7814
 7255SOL    HW133224   1.871   2.540   9.316 -1.1169  2.1662 -1.1371
 7255SOL    HW233225   1.732   2.574   9.295  0.5153 -0.3670 -0.9349
 7256SOL     OW33226   3.987   0.866  16.178 -0.3051  0.5258  0.2198
 7256SOL    HW133227   3.927   0.853  16.250 -0.3891  1.2374  0.2793
 7256SOL    HW233228   3.955   0.949  16.140  0.3436  0.8801  0.4449
 7257SOL     OW33229   4.528   1.938   3.924  0.4730  0.1631  0.1213
 7257SOL    HW133230   4.564   2.018   3.885  0.1803  0.9636  1.4829
 7257SOL    HW233231   4.493   1.890   3.849  1.5319 -0.8748  0.2942
 7258SOL     OW33232   0.812   4.694  11.267 -0.2727  0.5220 -0.6687
 7258SOL    HW133233   0.780   4.639  11.339 -1.1939 -0.2535 -1.6605
 7258SOL    HW233234   0.906   4.675  11.270 -0.3053  0.3784 -0.5408
 7259SOL     OW33235   2.290   0.909   8.326  0.2339 -0.1546 -0.0083
 7259SOL    HW133236   2.289   0.929   8.419 -0.8824  3.4294 -0.7966
 7259SOL    HW233237   2.223   0.841   8.329 -0.5696  0.6192 -0.4903
 7260SOL     OW33238   3.664   2.360   4.485  0.2841 -0.3302 -0.1211
 7260SOL    HW133239   3.616   2.331   4.407  2.0613 -0.6526 -1.0966
 7260SOL    HW233240   3.719   2.432   4.455  0.5932 -0.6159 -0.2413
 7261SOL     OW33241   2.458   0.747   8.117 -0.1686  0.6058 -0.0655
 7261SOL    HW133242   2.421   0.815   8.173 -2.6600 -0.6144 -0.2361
 7261SOL    HW233243   2.549   0.773   8.103  0.3768 -0.3336  1.6618
 7262SOL     OW33244   1.169   3.809   1.642 -0.4176  0.1165  0.3587
 7262SOL    HW133245   1.172   3.765   1.557  0.0572 -0.1441  0.5121
 7262SOL    HW233246   1.075   3.828   1.649 -0.6656 -1.1676  0.4322
 7263SOL     OW33247   0.884   4.490   0.939  0.4405  0.3953  0.0392
 7263SOL    HW133248   0.799   4.534   0.939 -0.1656 -0.8072  1.5555
 7263SOL    HW233249   0.924   4.521   0.858  0.2355 -1.1254 -0.6401
 7264SOL     OW33250   4.600   1.307   4.810 -0.4912  0.1506  0.3642
 7264SOL    HW133251   4.576   1.217   4.789  0.6595 -0.2486  0.7422
 7264SOL    HW233252   4.611   1.342   4.722  1.2866  0.7573  0.8222
 7265SOL     OW33253   0.858   2.155  16.376 -0.4370  0.2094 -0.1082
 7265SOL    HW133254   0.919   2.224  16.401  0.0487  0.2687 -1.4326
 7265SOL    HW233255   0.896   2.117  16.296  2.3342  1.1068  0.7895
 7266SOL     OW33256   2.205   1.411   8.571  0.1469 -0.3917 -0.1695
 7266SOL    HW133257   2.243   1.440   8.654  1.1791  1.1583 -1.1783
 7266SOL    HW233258   2.261   1.450   8.503 -0.3016 -2.3081 -1.6322
 7267SOL     OW33259   4.092   1.124   8.297 -0.0281  0.3355  0.3251
 7267SOL    HW133260   4.147   1.161   8.366  1.7279 -2.8134  0.6300
 7267SOL    HW233261   4.017   1.096   8.348 -0.0832 -0.3806 -0.1487
 7268SOL     OW33262   3.889   4.101   4.206 -0.1215  0.9349  0.5788
 7268SOL    HW133263   3.984   4.090   4.204 -0.2760 -0.1563 -0.7872
 7268SOL    HW233264   3.872   4.189   4.240 -0.7031  1.5539 -1.3179
 7269SOL     OW33265   0.342   2.256   8.405  0.1804 -0.0823  0.0374
 7269SOL    HW133266   0.404   2.221   8.469  1.9391  1.7704 -0.6544
 7269SOL    HW233267   0.388   2.335   8.378  0.1547  0.3340  1.2237
 7270SOL     OW33268   1.217   4.443   2.484  0.1499  0.5823 -0.2084
 7270SOL    HW133269   1.292   4.387   2.504  0.0786  0.4238 -0.3819
 7270SOL    HW233270   1.221   4.520   2.540  0.2034 -1.0208  1.9936
 7271SOL     OW33271   2.510   0.074   6.918 -0.0444 -0.1758  0.2650
 7271SOL    HW133272   2.444   0.050   6.853 -0.6015 -0.0509  0.7843
 7271SOL    HW233273   2.443   0.104   6.980  1.1746  2.6647  0.1942
 7272SOL     OW33274   1.643   3.323  10.569  0.4810 -0.8785 -0.6799
 7272SOL    HW133275   1.654   3.249  10.629 -1.5977 -0.3010  0.4292
 7272SOL    HW233276   1.550   3.342  10.581  0.5150  0.9571 -3.3559
 7273SOL     OW33277   2.135   3.685   6.858  0.1191  0.6184  0.6626
 7273SOL    HW133278   2.059   3.628   6.850  0.4579  0.5153 -1.9348
 7273SOL    HW233279   2.109   3.762   6.909 -0.0856  0.7154  0.4137
 7274SOL     OW33280   2.153   0.003   1.624 -0.0907 -0.0878  0.6418
 7274SOL    HW133281   2.091   4.685   1.685  0.9113  1.0429  2.3783
 7274SOL    HW233282   2.230   4.678   1.653  1.4602  2.2479  0.3546
 7275SOL     OW33283   3.365   0.868   4.858  0.0102 -0.0329 -0.4050
 7275SOL    HW133284   3.420   0.926   4.806  0.7362 -0.5870 -0.2643
 7275SOL    HW233285   3.287   0.924   4.859  0.1796  0.2058 -0.4205
 7276SOL     OW33286   0.178   2.771   1.712 -0.0168 -0.4356 -0.3571
 7276SOL    HW133287   0.186   2.692   1.765 -0.0169 -0.8900 -1.0352
 7276SOL    HW233288   0.260   2.813   1.740 -0.6639  0.6303 -0.0493
 7277SOL     OW33289   1.409   1.559   7.618 -0.0013 -0.4584  0.7482
 7277SOL    HW133290   1.499   1.570   7.588 -0.3857 -1.3619 -0.7659
 7277SOL    HW233291   1.362   1.605   7.547  2.1283 -0.5627 -0.7245
 7278SOL     OW33292   4.183   2.269  11.190 -0.6972 -0.8732 -0.0928
 7278SOL    HW133293   4.219   2.310  11.269  0.2720  0.4774 -1.2309
 7278SOL    HW233294   4.255   2.209  11.172  0.5374  0.2133  1.2882
 7279SOL     OW33295   2.349   2.862   7.074 -0.2704 -0.0378  0.4509
 7279SOL    HW133296   2.334   2.803   7.000 -3.2614  1.9962 -0.5289
 7279SOL    HW233297   2.353   2.794   7.141 -0.3285 -1.0037 -0.5192
 7280SOL     OW33298   0.234   3.774   7.582 -0.6931  0.2549 -0.0041
 7280SOL    HW133299   0.216   3.714   7.654  3.9918  0.3773  1.2431
 7280SOL    HW233300   0.316   3.733   7.554 -0.3567  1.5258 -0.8635
 7281SOL     OW33301   3.414   0.853  14.161 -0.7169 -0.2561 -0.1610
 7281SOL    HW133302   3.325   0.856  14.126 -0.8496 -0.5556  0.1484
 7281SOL    HW233303   3.421   0.935  14.211 -1.4755  0.3865 -1.1147
 7282SOL     OW33304   3.327   0.355  12.599 -0.4538  0.1863 -0.1275
 7282SOL    HW133305   3.312   0.269  12.640 -2.2204  0.8877  0.6911
 7282SOL    HW233306   3.354   0.320  12.514 -0.5599  1.0613 -0.5162
 7283SOL     OW33307   0.745   2.865   4.502  0.4354 -0.3296  0.0087
 7283SOL    HW133308   0.665   2.891   4.458  0.9552  1.7448  0.3178
 7283SOL    HW233309   0.813   2.924   4.469 -0.0529  1.0713  1.4730
 7284SOL     OW33310   3.003   1.035   7.489  0.1781  0.6388  0.5592
 7284SOL    HW133311   3.071   1.062   7.550 -0.7184  1.1408  1.3496
 7284SOL    HW233312   2.931   1.007   7.546  0.3793 -0.9387  0.0174
 7285SOL     OW33313   1.415   1.678  14.614  0.0856  0.0044 -0.5246
 7285SOL    HW133314   1.456   1.637  14.538 -0.4744 -0.8355 -0.3722
 7285SOL    HW233315   1.322   1.679  14.592 -0.3554 -0.8413  1.2859
 7286SOL     OW33316   0.466   1.298   6.999  0.3254 -0.5498 -0.0316
 7286SOL    HW133317   0.441   1.249   6.921 -0.5053 -0.4754  0.1806
 7286SOL    HW233318   0.446   1.388   6.975 -0.7346 -0.9371 -0.5780
 7287SOL     OW33319   4.352   3.687   2.162 -0.2044  0.3180  0.1329
 7287SOL    HW133320   4.407   3.750   2.116  1.1522 -0.5261  0.6071
 7287SOL    HW233321   4.407   3.680   2.241 -0.2500  1.0489  0.2373
 7288SOL     OW33322   2.165   1.541   1.653  0.0803  1.0208 -0.2474
 7288SOL    HW133323   2.222   1.474   1.692  0.2686  1.2252 -0.1767
 7288SOL    HW233324   2.208   1.552   1.569 -1.1135  1.8978 -0.7441
 7289SOL     OW33325   3.906   3.224   8.384 -0.3797 -0.3141  0.2481
 7289SOL    HW133326   3.829   3.281   8.381 -0.1704  0.0261  1.2999
 7289SOL    HW233327   3.966   3.284   8.428 -0.9956  0.6554 -0.2366
 7290SOL     OW33328   1.389   3.548   6.629 -0.5033  0.2963 -0.5942
 7290SOL    HW133329   1.420   3.567   6.541 -0.7947  0.0565 -0.7476
 7290SOL    HW233330   1.372   3.454   6.628 -5.2066  1.1420 -0.0160
 7291SOL     OW33331   0.176   0.914   1.080  0.1097 -0.0266  0.2221
 7291SOL    HW133332   0.134   0.834   1.112  2.6130 -1.2414  0.4606
 7291SOL    HW233333   0.213   0.951   1.159 -0.7309 -1.2747  1.2035
 7292SOL     OW33334   0.990   0.151   8.348  0.1080  0.6503 -0.1266
 7292SOL    HW133335   1.081   0.133   8.325  0.2791 -1.6185  2.2896
 7292SOL    HW233336   0.964   0.061   8.369 -0.3038  0.7275 -0.3037
 7293SOL     OW33337   3.617   2.655  17.266 -0.4923 -0.0878  0.0680
 7293SOL    HW133338   3.643   2.696  17.348 -1.2733 -1.3588  0.9419
 7293SOL    HW233339   3.693   2.665  17.208  1.4808  0.9818  2.8545
 7294SOL     OW33340   4.568   2.120   3.422  0.3668 -0.2996  0.0325
 7294SOL    HW133341   4.641   2.180   3.437  1.1720 -1.7148  1.6890
 7294SOL    HW233342   4.533   2.160   3.342  0.9794 -1.5682 -0.8847
 7295SOL     OW33343   0.621   2.361   6.656  0.3672  0.6475  0.0854
 7295SOL    HW133344   0.535   2.388   6.687 -1.4083 -0.8062 -3.5390
 7295SOL    HW233345   0.677   2.433   6.683  1.2702  0.4044 -1.1477
 7296SOL     OW33346   0.897   1.725   6.734  0.1480 -0.0822 -0.0160
 7296SOL    HW133347   0.846   1.650   6.765 -1.5843  1.1053  0.0243
 7296SOL    HW233348   0.960   1.684   6.675 -1.0788 -0.0562 -1.3493
 7297SOL     OW33349   4.658   4.183   7.519 -0.2890  0.6060  0.2628
 7297SOL    HW133350   4.700   4.097   7.524  1.6554  1.6239  1.6060
 7297SOL    HW233351   4.585   4.164   7.461 -0.3901  0.1886  0.5257
 7298SOL     OW33352   4.234   1.081   0.734  0.1657 -0.1164 -0.3307
 7298SOL    HW133353   4.259   0.995   0.700 -1.1951  0.3456 -2.4954
 7298SOL    HW233354   4.144   1.057   0.753 -0.4581  1.5942 -1.1770
 7299SOL     OW33355   3.629   0.685  14.665 -0.0936 -0.2402 -0.4858
 7299SOL    HW133356   3.676   0.607  14.693 -0.4013 -0.3015 -0.1492
 7299SOL    HW233357   3.644   0.690  14.571  0.1254 -1.0018 -0.4912
 7300SOL     OW33358   1.821   1.070   5.589  0.1446  0.1705  0.3090
 7300SOL    HW133359   1.901   1.020   5.572  0.7345  0.6322  1.7383
 7300SOL    HW233360   1.839   1.090   5.681 -0.5107 -2.4507  1.0089
 7301SOL     OW33361   2.766   2.851   4.754 -0.1460  0.1223 -0.2049
 7301SOL    HW133362   2.741   2.921   4.694  1.5945  2.5446  1.8750
 7301SOL    HW233363   2.750   2.776   4.696 -1.0494 -0.6158  0.9892
 7302SOL     OW33364   3.414   2.048   5.043  0.1646  0.6005  0.0010
 7302SOL    HW133365   3.494   2.042   5.095 -0.1225  2.1623  0.6410
 7302SOL    HW233366   3.368   2.115   5.094  0.8504  0.3723  0.9167
 7303SOL     OW33367   1.537   0.221   6.107  0.0414  0.1896  0.0346
 7303SOL    HW133368   1.537   0.283   6.181 -0.5641 -0.1792  0.3449
 7303SOL    HW233369   1.557   0.132   6.138  1.6357 -0.7205 -3.6123
 7304SOL     OW33370   0.999   1.793  17.654 -0.0715  0.1245 -0.2245
 7304SOL    HW133371   0.988   1.809  17.560 -0.5338  1.3417  0.0428
 7304SOL    HW233372   1.090   1.764  17.641  0.2435  0.6324  0.8238
 7305SOL     OW33373   4.136   2.076   4.710 -0.7856 -0.0935 -0.1898
 7305SOL    HW133374   4.076   2.150   4.707  1.0199  1.4409  1.2154
 7305SOL    HW233375   4.171   2.086   4.622 -1.0534 -0.1638 -0.3023
 7306SOL     OW33376   1.248   0.503   7.182  0.0366  0.3663  0.1616
 7306SOL    HW133377   1.278   0.463   7.263 -0.2821  0.7296  0.4594
 7306SOL    HW233378   1.305   0.580   7.172 -0.6510  0.7724 -0.6411
 7307SOL     OW33379   1.530   0.350   6.323 -0.5380  0.4179  0.1921
 7307SOL    HW133380   1.582   0.374   6.399  1.6814 -2.4160 -0.4400
 7307SOL    HW233381   1.492   0.437   6.312 -3.3499 -0.8807 -0.3577
 7308SOL     OW33382   2.259   4.558   2.216 -0.0714 -0.6064  0.0475
 7308SOL    HW133383   2.339   4.579   2.169 -0.1379 -0.3337  0.0544
 7308SOL    HW233384   2.276   4.471   2.252  1.1697 -0.0020  0.9435
 7309SOL     OW33385   0.454   3.409  14.308  0.0520  0.4539 -0.2122
 7309SOL    HW133386   0.447   3.350  14.233 -0.3546  0.1680  0.0532
 7309SOL    HW233387   0.533   3.376  14.351 -0.0464  0.8843  0.3129
 7310SOL     OW33388   1.973   3.075   3.471 -0.8265 -0.3242  0.2388
 7310SOL    HW133389   1.981   3.013   3.398  0.0514  0.3665 -0.2489
 7310SOL    HW233390   1.984   3.161   3.432  0.4759 -0.3853  0.4617
 7311SOL     OW33391   3.293   2.607   6.755 -0.2503  0.2671  0.1687
 7311SOL    HW133392   3.303   2.524   6.801 -0.2720  1.5585  2.4823
 7311SOL    HW233393   3.237   2.585   6.680 -0.3687 -1.7077  0.8409
 7312SOL     OW33394   2.209   1.908   0.934 -0.5044  0.6781 -0.3551
 7312SOL    HW133395   2.280   1.862   0.978 -1.7003  0.6054  1.5065
 7312SOL    HW233396   2.241   1.998   0.929  0.0082  0.6683  2.9919
 7313SOL     OW33397   2.636   1.246   7.394 -0.2066  0.2926 -0.4903
 7313SOL    HW133398   2.657   1.155   7.414 -1.4389  0.1979  0.3182
 7313SOL    HW233399   2.658   1.261   7.302 -5.7149  0.5759 -1.7709
 7314SOL     OW33400   3.398   0.031  11.965 -0.0978 -0.1800  0.1904
 7314SOL    HW133401   3.392   0.084  11.886 -0.5245  1.1046  1.0752
 7314SOL    HW233402   3.354   0.073  12.039  1.9202 -0.2177  1.4187
 7315SOL     OW33403   0.158   3.103   1.105 -0.0986 -0.2426  0.1657
 7315SOL    HW133404   0.108   3.042   1.050  1.8458 -0.5858 -1.1890
 7315SOL    HW233405   0.091   3.128   1.169 -0.1741  0.3381 -0.1462
 7316SOL     OW33406   2.368   2.675   8.888  0.2460 -0.3185 -0.6888
 7316SOL    HW133407   2.298   2.730   8.925  0.5257  0.9984 -2.1124
 7316SOL    HW233408   2.434   2.698   8.953 -0.4434 -1.3732  0.3884
 7317SOL     OW33409   3.027   2.140   1.419  0.6510  0.2557  0.1404
 7317SOL    HW133410   3.033   2.196   1.342  0.2481  2.3927  1.6535
 7317SOL    HW233411   3.103   2.169   1.469  2.8306 -2.1720 -1.7885
 7318SOL     OW33412   2.551   3.387  11.643 -0.3808 -0.8100 -0.0073
 7318SOL    HW133413   2.617   3.319  11.630  0.2711 -0.6435  2.5071
 7318SOL    HW233414   2.561   3.402  11.737 -1.3741  2.3751 -0.4291
 7319SOL     OW33415   4.549   0.152  10.476  0.5023  0.9017  0.6337
 7319SOL    HW133416   4.482   0.088  10.454  1.5267 -0.6053  1.8128
 7319SOL    HW233417   4.556   0.151  10.572 -0.2298 -2.3059  0.6556
 7320SOL     OW33418   0.701   2.702  14.655  0.0285 -0.1213  0.3795
 7320SOL    HW133419   0.752   2.667  14.581 -0.2935 -3.0867  1.5529
 7320SOL    HW233420   0.616   2.666  14.631  0.8994 -0.8361 -1.6147
 7321SOL     OW33421   0.355   1.079  12.242  0.3563  0.0639 -0.1918
 7321SOL    HW133422   0.261   1.079  12.259  0.2299 -0.5565 -0.9429
 7321SOL    HW233423   0.384   0.993  12.272 -0.3827 -1.0723 -2.8019
 7322SOL     OW33424   2.212   3.803   1.772 -0.1625  0.0784 -0.6636
 7322SOL    HW133425   2.176   3.890   1.787 -3.7222 -1.6007  0.6269
 7322SOL    HW233426   2.134   3.747   1.769 -1.2258  1.4361  1.7101
 7323SOL     OW33427   3.774   1.337   3.542 -0.2771  0.7133 -0.0281
 7323SOL    HW133428   3.791   1.246   3.568 -1.4618  0.7062  0.7498
 7323SOL    HW233429   3.838   1.353   3.473  1.2927  0.3351  1.3415
 7324SOL     OW33430   1.710   2.257   6.647 -0.0050  0.1175 -0.9019
 7324SOL    HW133431   1.730   2.286   6.736 -0.4018 -3.1008  0.2134
 7324SOL    HW233432   1.763   2.178   6.645 -2.3179 -1.4935  1.6839
 7325SOL     OW33433   1.498   4.005  14.324 -0.1884 -0.6362 -0.5777
 7325SOL    HW133434   1.415   3.983  14.367  0.2725  2.8109  2.0391
 7325SOL    HW233435   1.500   4.097  14.349 -1.5026 -0.2011 -2.0634
 7326SOL     OW33436   0.405   4.048   5.958  0.1157 -0.7859 -0.3358
 7326SOL    HW133437   0.455   3.974   5.922  1.2116 -0.3622  0.3009
 7326SOL    HW233438   0.473   4.115   5.962  0.6654 -1.3115 -0.9275
 7327SOL     OW33439   4.112   2.898   5.112 -0.1234 -0.1376  0.4799
 7327SOL    HW133440   4.074   2.855   5.036  0.5014  0.6334 -0.2622
 7327SOL    HW233441   4.119   2.979   5.062  0.0369 -0.7768 -0.5177
 7328SOL     OW33442   3.692   2.030   1.489 -0.3923  0.3758 -0.2735
 7328SOL    HW133443   3.648   2.075   1.561 -2.5298 -0.5872 -0.9665
 7328SOL    HW233444   3.614   2.012   1.438 -1.1675 -0.9295  1.3489
 7329SOL     OW33445   1.997   2.250   7.417  0.0500 -0.8730 -0.1400
 7329SOL    HW133446   1.994   2.158   7.390  0.1069 -1.4705  1.9174
 7329SOL    HW233447   1.934   2.280   7.351  0.4352  0.3734  0.0476
 7330SOL     OW33448   2.016   0.417   9.006 -0.1253  0.2115  0.3231
 7330SOL    HW133449   1.978   0.331   9.020  0.2005 -0.1120 -0.7896
 7330SOL    HW233450   2.068   0.408   8.926 -1.4445 -0.4016 -0.4695
 7331SOL     OW33451   3.940   2.997  16.893  0.4215  0.2994  0.8124
 7331SOL    HW133452   3.847   3.019  16.886  0.5068  1.2485  2.6813
 7331SOL    HW233453   3.966   2.972  16.804  0.0235 -0.6932  0.9808
 7332SOL     OW33454   1.181   4.250   3.188  0.2504 -0.1440 -0.1302
 7332SOL    HW133455   1.087   4.265   3.190  0.0867 -1.2481  0.3400
 7332SOL    HW233456   1.188   4.172   3.243 -0.8463 -0.0120  0.1956
 7333SOL     OW33457   0.300   4.673  16.181 -0.5334 -0.1360  0.2640
 7333SOL    HW133458   0.295   4.578  16.189 -0.4937 -0.2581 -1.1106
 7333SOL    HW233459   0.384   4.689  16.224 -0.7158  0.9236  0.2362
 7334SOL     OW33460   3.549   1.618  13.408  0.0359  0.3470 -0.0067
 7334SOL    HW133461   3.489   1.591  13.477 -0.3604 -0.3943 -0.6450
 7334SOL    HW233462   3.608   1.670  13.463 -1.1118  2.7052 -0.9963
 7335SOL     OW33463   2.694   1.929   7.778  0.6950  0.5443 -0.1939
 7335SOL    HW133464   2.644   1.853   7.747  0.5265  0.3207  0.6356
 7335SOL    HW233465   2.649   1.950   7.860 -1.2899  2.0351 -1.6860
 7336SOL     OW33466   0.801   2.537  16.340 -0.3070  0.5639 -0.8458
 7336SOL    HW133467   0.779   2.621  16.299  0.5364  0.0253 -2.4233
 7336SOL    HW233468   0.732   2.522  16.404 -0.5991  1.1033 -1.0299
 7337SOL     OW33469   4.681   2.500   5.875  0.2257  0.1191 -0.0385
 7337SOL    HW133470   4.632   2.580   5.857  1.2521  0.8107  0.2913
 7337SOL    HW233471   0.007   2.534   5.950  1.1673  0.9955 -1.0473
 7338SOL     OW33472   1.357   4.358   0.461 -0.1489 -0.1658  0.0151
 7338SOL    HW133473   1.370   4.264   0.449  0.7477  0.1581 -1.5776
 7338SOL    HW233474   1.406   4.363   0.543  0.8311 -0.8926 -0.5228
 7339SOL     OW33475   4.002   3.502   7.847  0.3943 -0.5626 -0.1995
 7339SOL    HW133476   4.011   3.597   7.840  0.6353 -0.5940 -0.3411
 7339SOL    HW233477   4.094   3.475   7.848  0.5478 -0.0149  0.0753
 7340SOL     OW33478   1.317   1.297   9.652 -0.2365  0.1313  0.3441
 7340SOL    HW133479   1.378   1.257   9.715 -1.0600  0.3490  1.2813
 7340SOL    HW233480   1.283   1.365   9.710 -0.9109 -0.9047  1.1709
 7341SOL     OW33481   0.956   3.294   7.931  0.2793  0.5767  0.3774
 7341SOL    HW133482   0.954   3.380   7.972 -1.0665 -0.6824  2.9922
 7341SOL    HW233483   1.038   3.296   7.882 -0.4137  3.5321 -0.6195
 7342SOL     OW33484   2.885   1.607   2.372  0.1692 -0.4443 -0.1750
 7342SOL    HW133485   2.962   1.662   2.356 -0.2442  0.1262 -0.1864
 7342SOL    HW233486   2.907   1.571   2.459  1.8261 -0.1192 -0.4512
 7343SOL     OW33487   0.342   4.430   6.756  0.5368 -0.4743 -0.3768
 7343SOL    HW133488   0.399   4.500   6.787  1.4697 -1.7076  0.6553
 7343SOL    HW233489   0.294   4.474   6.685 -0.8645  2.5396  2.4298
 7344SOL     OW33490   3.608   1.674   8.796 -0.4758  0.6706 -0.0521
 7344SOL    HW133491   3.595   1.582   8.820  1.8829 -0.0816 -1.6334
 7344SOL    HW233492   3.598   1.662   8.702  1.0142  2.0883 -0.3998
 7345SOL     OW33493   0.881   3.510  16.535  0.0975 -0.0470 -0.3049
 7345SOL    HW133494   0.862   3.566  16.611  0.1166  0.7774 -0.9008
 7345SOL    HW233495   0.854   3.570  16.465 -1.2303 -0.8596 -0.4942
 7346SOL     OW33496   0.022   0.326   9.493 -0.0179 -0.7634  0.1261
 7346SOL    HW133497   0.025   0.422   9.499  0.6251 -0.8442  1.0841
 7346SOL    HW233498   4.664   0.315   9.442 -0.1734  1.2957 -0.0802
 7347SOL     OW33499   0.955   2.449  14.840  0.0259 -0.5852 -0.4926
 7347SOL    HW133500   1.043   2.482  14.854 -0.7061  0.4477  1.6494
 7347SOL    HW233501   0.958   2.375  14.901  1.9697  0.2381  0.3818
 7348SOL     OW33502   3.796   1.294  17.390  0.2765  0.9119  0.4331
 7348SOL    HW133503   3.813   1.202  17.373  1.5464  0.9337  1.6308
 7348SOL    HW233504   3.731   1.320  17.324  1.5260 -0.9808 -1.5433
 7349SOL     OW33505   0.559   0.460   2.165 -0.0648 -0.2632 -0.0898
 7349SOL    HW133506   0.563   0.364   2.166  1.1810 -0.2024  1.0371
 7349SOL    HW233507   0.590   0.486   2.252  1.5757 -3.0442  0.1563
 7350SOL     OW33508   0.290   1.658   0.641 -0.0666  0.4607  0.1327
 7350SOL    HW133509   0.367   1.628   0.689  1.0784  3.2917  0.0505
 7350SOL    HW233510   0.319   1.648   0.550 -0.5448  0.4748 -0.0233
 7351SOL     OW33511   0.152   3.896   4.971 -0.3720 -0.4148  0.0462
 7351SOL    HW133512   0.220   3.963   4.977 -2.2072  1.3871  0.7538
 7351SOL    HW233513   0.177   3.854   4.888  0.6444 -1.4572  0.8821
 7352SOL     OW33514   4.038   3.085   6.277 -0.1040 -0.0288 -0.0789
 7352SOL    HW133515   4.080   3.035   6.207  0.4335  0.6972 -0.2683
 7352SOL    HW233516   4.104   3.067   6.344  0.2426  1.6021  0.0109
 7353SOL     OW33517   4.588   1.805   5.519  0.5829 -0.0276  0.1006
 7353SOL    HW133518   4.549   1.891   5.502  1.7219 -0.1262 -3.0022
 7353SOL    HW233519   4.582   1.803   5.614 -1.7907  2.2962 -0.0112
 7354SOL     OW33520   0.000   4.328   8.966 -0.9139  0.2105  0.2091
 7354SOL    HW133521   4.666   4.285   8.903  0.6536 -0.7893 -0.5423
 7354SOL    HW233522   0.059   4.257   8.993 -1.7907 -0.1188  1.2220
 7355SOL     OW33523   3.479   3.924   6.374 -0.6272  0.5306  0.0830
 7355SOL    HW133524   3.438   4.010   6.368 -0.9449  0.3686 -0.0930
 7355SOL    HW233525   3.572   3.943   6.364 -0.2554 -1.0022  0.5600
 7356SOL     OW33526   1.120   2.262  11.718  0.3941  0.7773 -0.5720
 7356SOL    HW133527   1.169   2.279  11.637 -0.7201 -2.3024 -1.8852
 7356SOL    HW233528   1.166   2.308  11.789 -0.7850 -0.4333  0.9730
 7357SOL     OW33529   3.053   1.484   3.944 -0.3476  0.3889  0.6253
 7357SOL    HW133530   2.969   1.464   3.901 -0.6074  1.5119  0.6013
 7357SOL    HW233531   3.071   1.572   3.912 -2.5265  0.4934 -0.3435
 7358SOL     OW33532   3.736   1.571  15.746 -0.9531  0.1170 -0.1521
 7358SOL    HW133533   3.664   1.526  15.702 -1.8560  1.2824  0.1228
 7358SOL    HW233534   3.772   1.620  15.672 -1.1497  0.4230 -0.0485
 7359SOL     OW33535   0.725   1.402  10.108 -0.1520  0.5740 -0.3653
 7359SOL    HW133536   0.698   1.493  10.124  0.8261  0.3256  2.6315
 7359SOL    HW233537   0.687   1.396  10.020 -0.8698 -2.3750  0.1575
 7360SOL     OW33538   3.824   2.515   7.354  0.0042 -0.4561  0.0858
 7360SOL    HW133539   3.792   2.431   7.387 -1.1698  0.8367  2.2671
 7360SOL    HW233540   3.747   2.559   7.391  0.1811 -0.4801  0.4803
 7361SOL     OW33541   1.779   2.068  16.858 -0.0007  0.3921  0.2983
 7361SOL    HW133542   1.853   2.031  16.907  0.4753 -1.9088 -2.1708
 7361SOL    HW233543   1.771   2.009  16.783 -0.9399  0.5343  0.2910
 7362SOL     OW33544   0.914   1.579   4.160 -0.2157 -0.5368  0.1570
 7362SOL    HW133545   0.852   1.523   4.206 -0.1394 -0.6734  0.0932
 7362SOL    HW233546   0.927   1.542   4.073  3.1212 -0.0558  0.4646
 7363SOL     OW33547   0.706   4.165   7.081  0.3101 -0.5671 -0.1921
 7363SOL    HW133548   0.783   4.218   7.062 -0.0453  0.3517  0.9064
 7363SOL    HW233549   0.690   4.205   7.167 -0.3472  2.7025 -1.8220
 7364SOL     OW33550   2.856   0.836   3.141 -0.7882  0.1199 -0.3999
 7364SOL    HW133551   2.849   0.854   3.047  1.7760 -1.4909 -0.8954
 7364SOL    HW233552   2.893   0.917   3.177  0.8981 -0.3147 -1.1899
 7365SOL     OW33553   4.080   1.654   8.619  0.0084  0.4877 -0.5151
 7365SOL    HW133554   3.993   1.682   8.644  0.4149  0.3936  0.9819
 7365SOL    HW233555   4.069   1.561   8.601 -0.0678  0.4001  0.0015
 7366SOL     OW33556   2.971   0.929   3.869 -0.3387 -0.0974 -0.0226
 7366SOL    HW133557   2.991   0.849   3.918 -1.8907 -0.0811  0.6575
 7366SOL    HW233558   3.007   0.891   3.789 -1.0930 -0.2325 -0.2990
 7367SOL     OW33559   4.236   0.919   7.396  0.2386 -0.7141 -0.2245
 7367SOL    HW133560   4.185   0.844   7.368 -3.0283  1.1872  0.6319
 7367SOL    HW233561   4.232   0.910   7.491  0.5457  0.7514 -0.0710
 7368SOL     OW33562   0.338   3.739   6.256  0.3831 -0.2089 -0.2303
 7368SOL    HW133563   0.259   3.726   6.308 -1.1721  0.1532 -2.5057
 7368SOL    HW233564   0.296   3.786   6.184  1.7187 -0.2694 -1.0528
 7369SOL     OW33565   4.110   0.269   5.768  0.1891 -0.4117 -0.0673
 7369SOL    HW133566   4.026   0.289   5.809  0.3369 -2.5324  1.2409
 7369SOL    HW233567   4.104   0.315   5.684  2.3084  0.4601  0.2484
 7370SOL     OW33568   3.516   3.855   4.863  0.4450  0.1155  0.1348
 7370SOL    HW133569   3.500   3.948   4.847 -0.6192  0.2767  2.2517
 7370SOL    HW233570   3.607   3.860   4.833  0.0503 -0.9901 -1.2676
 7371SOL     OW33571   3.151   2.085  10.868  0.0544  0.1946 -0.0894
 7371SOL    HW133572   3.095   2.154  10.833  0.1339  0.4710  0.3254
 7371SOL    HW233573   3.237   2.124  10.852 -0.5589  1.4539 -0.3126
 7372SOL     OW33574   0.585   2.130  14.336 -0.7135  0.3215  0.1147
 7372SOL    HW133575   0.568   2.119  14.242 -0.3290  1.7878 -0.1377
 7372SOL    HW233576   0.496   2.163  14.349 -0.3319  1.3000  0.2483
 7373SOL     OW33577   2.866   2.568   6.748 -0.1384  0.1331  0.0195
 7373SOL    HW133578   2.918   2.610   6.679 -2.1030  1.0352 -0.9176
 7373SOL    HW233579   2.778   2.602   6.734 -0.7999 -1.4556  0.4029
 7374SOL     OW33580   3.842   2.428   4.693  0.4858  0.3728  0.2976
 7374SOL    HW133581   3.865   2.501   4.635  1.8042 -0.7516 -0.5725
 7374SOL    HW233582   3.771   2.389   4.641  1.7899 -0.4348 -0.8802
 7375SOL     OW33583   2.634   1.773   3.651  0.0338  0.3656  0.4525
 7375SOL    HW133584   2.652   1.679   3.647  4.4926  1.2839 -1.1203
 7375SOL    HW233585   2.601   1.791   3.563  0.6250 -1.1501 -0.0924
 7376SOL     OW33586   1.243   4.082  11.899 -0.0185  0.3702 -0.0846
 7376SOL    HW133587   1.174   4.021  11.874  0.0741  0.4032 -0.4124
 7376SOL    HW233588   1.178   4.142  11.938  0.4711 -0.3203  1.7949
 7377SOL     OW33589   4.043   0.309   7.689 -0.0122  0.3489  0.3447
 7377SOL    HW133590   4.048   0.214   7.684 -1.1287  0.4362 -2.2542
 7377SOL    HW233591   3.949   0.314   7.702 -0.0143 -0.8545  0.8209
 7378SOL     OW33592   1.868   3.865   5.339  0.0036 -0.5720  0.4466
 7378SOL    HW133593   1.937   3.811   5.377 -1.0061 -2.1054  0.0852
 7378SOL    HW233594   1.897   3.951   5.370 -1.3517 -0.5739  1.6967
 7379SOL     OW33595   2.868   0.458   5.897  0.3762  0.1987  0.2432
 7379SOL    HW133596   2.805   0.470   5.968 -0.0502 -1.5835  0.1800
 7379SOL    HW233597   2.900   0.370   5.919 -0.6114 -1.0290 -3.2116
 7380SOL     OW33598   4.355   3.086   5.214  0.7934  0.3038 -0.3235
 7380SOL    HW133599   4.355   3.012   5.276 -0.8877  1.3830  0.9498
 7380SOL    HW233600   4.282   3.059   5.159  1.1262  0.5180 -0.8685
 7381SOL     OW33601   3.777   1.546   2.907 -0.9575  0.7312 -0.2085
 7381SOL    HW133602   3.784   1.454   2.882 -1.8240 -0.0986  2.6957
 7381SOL    HW233603   3.861   1.558   2.952 -0.0623 -2.1150 -1.1219
 7382SOL     OW33604   4.240   0.068  15.156 -0.1059  0.0897 -0.1865
 7382SOL    HW133605   4.183   0.100  15.087  0.1870  1.2569  0.1077
 7382SOL    HW233606   4.262   0.144  15.210 -2.5651 -0.8754  2.1750
 7383SOL     OW33607   0.757   2.403  14.014  0.0263  0.2907  0.4753
 7383SOL    HW133608   0.773   2.354  13.934 -2.3951  0.2498  0.0119
 7383SOL    HW233609   0.662   2.401  14.023 -0.0576  1.5635 -0.1008
 7384SOL     OW33610   3.131   4.227   4.583 -0.4404  0.3457 -0.5102
 7384SOL    HW133611   3.224   4.237   4.564 -0.3812 -0.0246 -0.4221
 7384SOL    HW233612   3.105   4.167   4.512 -0.5266  1.7767 -1.6983
 7385SOL     OW33613   1.569   1.857   3.718 -0.0861 -0.2872  0.1280
 7385SOL    HW133614   1.595   1.862   3.810  1.1448 -0.8401 -0.1876
 7385SOL    HW233615   1.536   1.946   3.703 -2.0189 -1.3494 -1.8707
 7386SOL     OW33616   2.954   3.425  15.764 -0.5198 -0.4389  0.2493
 7386SOL    HW133617   2.931   3.464  15.848 -1.7859 -2.0994  0.6758
 7386SOL    HW233618   2.891   3.354  15.748  0.1754 -0.6512 -1.6097
 7387SOL     OW33619   2.470   3.666  15.413 -0.0649 -0.4565  0.3082
 7387SOL    HW133620   2.496   3.623  15.494  1.0602 -0.1777  0.0921
 7387SOL    HW233621   2.375   3.662  15.406  0.0207 -1.2457 -0.2866
 7388SOL     OW33622   2.693   0.359   7.755  0.4358 -0.4972  0.8566
 7388SOL    HW133623   2.687   0.451   7.729 -0.4692 -0.5273  0.9300
 7388SOL    HW233624   2.665   0.311   7.677  1.5765 -1.4621  1.0330
 7389SOL     OW33625   1.448   2.742  10.734  0.2586  0.4148 -0.2080
 7389SOL    HW133626   1.515   2.681  10.704  1.5280  1.2193  0.9677
 7389SOL    HW233627   1.485   2.830  10.725  0.6240  0.6219  3.4934
 7390SOL     OW33628   0.346   3.618  14.955 -0.0497  0.2789 -0.2693
 7390SOL    HW133629   0.440   3.600  14.964  0.1812  0.8572 -1.4902
 7390SOL    HW233630   0.348   3.702  14.909 -0.2135  1.7940  2.5175
 7391SOL     OW33631   0.517   3.030   8.240  0.0566  0.1213 -0.0754
 7391SOL    HW133632   0.493   3.122   8.232 -1.7115 -0.3405 -0.1511
 7391SOL    HW233633   0.608   3.033   8.268  0.0439  0.1302 -0.0350
 7392SOL     OW33634   3.231   3.608   3.244  0.0905  0.3545  0.5613
 7392SOL    HW133635   3.226   3.682   3.183  1.6266  0.6499  0.7826
 7392SOL    HW233636   3.313   3.564   3.221 -0.0033 -0.3860  1.6481
 7393SOL     OW33637   3.283   2.465  13.263  0.0455  0.7748  0.6671
 7393SOL    HW133638   3.192   2.473  13.237  0.5035  3.1071 -0.2690
 7393SOL    HW233639   3.303   2.375  13.239 -0.3097  0.9280 -0.2189
 7394SOL     OW33640   2.231   0.081  10.285 -0.2776  0.4137 -0.1909
 7394SOL    HW133641   2.261   0.153  10.341 -0.3761  0.3537 -0.0612
 7394SOL    HW233642   2.244   0.109  10.194  0.3129 -0.6744 -0.4415
 7395SOL     OW33643   1.206   0.972   9.949 -0.4039  0.4197  0.1361
 7395SOL    HW133644   1.185   0.972   9.856  2.2985 -0.4423 -0.4855
 7395SOL    HW233645   1.120   0.985   9.990 -0.3150  0.2582  0.3770
 7396SOL     OW33646   2.949   2.447   3.607 -0.9009  0.6230  0.1605
 7396SOL    HW133647   2.979   2.493   3.685  2.6210  0.6776 -1.2416
 7396SOL    HW233648   2.925   2.360   3.641  0.7358 -0.4640 -1.4687
 7397SOL     OW33649   2.126   2.009   7.164  0.2882 -0.0162 -0.9002
 7397SOL    HW133650   2.052   2.037   7.217  1.6395  1.5410  0.1511
 7397SOL    HW233651   2.195   2.027   7.227 -0.5168 -0.9232  0.2371
 7398SOL     OW33652   2.233   3.790   8.249  0.0844  0.1315 -0.4032
 7398SOL    HW133653   2.304   3.736   8.215 -0.8052 -1.1655 -0.2032
 7398SOL    HW233654   2.167   3.721   8.252 -0.7406  1.0147  1.7838
 7399SOL     OW33655   0.819   1.038   6.372 -0.6568 -0.1891  0.5458
 7399SOL    HW133656   0.854   0.966   6.424  1.8829  1.6066  1.3063
 7399SOL    HW233657   0.889   1.043   6.307  0.8494  0.0858  2.1925
 7400SOL     OW33658   3.378   4.709   7.778 -0.5539  0.0740 -0.2773
 7400SOL    HW133659   3.384   4.678   7.688  0.2102 -2.1793  0.5628
 7400SOL    HW233660   3.466   4.682   7.801 -0.3063 -0.2835 -1.6223
 7401SOL     OW33661   2.056   1.186  12.778  0.2977  0.2374 -0.9091
 7401SOL    HW133662   1.992   1.254  12.798  1.3342  1.6053 -2.2574
 7401SOL    HW233663   2.116   1.231  12.719  1.0447 -0.1579 -0.4463
 7402SOL     OW33664   1.481   3.374   6.085  0.4372 -0.2176 -0.1876
 7402SOL    HW133665   1.563   3.421   6.101  0.3973 -0.5726  1.0277
 7402SOL    HW233666   1.417   3.443   6.069  2.0809  1.1737 -0.8332
 7403SOL     OW33667   4.242   1.781   8.297 -0.2566 -0.0775 -0.2374
 7403SOL    HW133668   4.217   1.733   8.218  0.9898 -2.2030  0.6603
 7403SOL    HW233669   4.173   1.848   8.302 -0.5687 -0.4499  0.4560
 7404SOL     OW33670   2.630   1.228   1.622  0.3103 -0.1559  0.1487
 7404SOL    HW133671   2.669   1.310   1.652 -0.8527  1.4880 -2.8476
 7404SOL    HW233672   2.694   1.175   1.574  0.2972 -0.0990  0.0691
 7405SOL     OW33673   1.174   0.444   8.259 -0.7775  0.2971 -0.1208
 7405SOL    HW133674   1.109   0.424   8.327  1.8725 -1.6013  1.8320
 7405SOL    HW233675   1.113   0.490   8.200  0.0962  3.4405  1.4317
 7406SOL     OW33676   3.067   4.627   6.575  0.1674  0.3341  0.5256
 7406SOL    HW133677   3.061   4.626   6.479  0.9597 -2.2949  0.5219
 7406SOL    HW233678   2.994   4.568   6.593 -0.5027  1.0276  0.1269
 7407SOL     OW33679   1.302   3.780   6.297 -0.1444  0.2949 -0.0000
 7407SOL    HW133680   1.371   3.841   6.324  0.8764 -0.7112 -0.3484
 7407SOL    HW233681   1.229   3.830   6.332  0.5958  0.9967  0.5417
 7408SOL     OW33682   3.938   0.016   2.795  0.0405 -0.0921 -0.3916
 7408SOL    HW133683   3.944   4.647   2.772  1.8004  0.4319 -1.9663
 7408SOL    HW233684   3.918   0.059   2.712  0.6296  1.2971  0.1808
 7409SOL     OW33685   4.697   4.663   6.236  0.8139  0.5338 -0.2130
 7409SOL    HW133686   4.702   0.031   6.207 -2.9941 -0.1154 -3.0310
 7409SOL    HW233687   4.701   4.684   6.329 -0.7347  1.8016 -0.4167
 7410SOL     OW33688   2.057   1.252   8.765 -0.6221  0.7463  0.1035
 7410SOL    HW133689   1.998   1.317   8.804  1.7211  4.0705 -1.9305
 7410SOL    HW233690   2.093   1.292   8.686  0.2621  2.3313  1.3072
 7411SOL     OW33691   2.712   1.319  17.366  0.4930 -0.4031 -0.7056
 7411SOL    HW133692   2.752   1.232  17.368  0.9283 -0.2674 -3.3362
 7411SOL    HW233693   2.772   1.374  17.317  0.4448  0.0850 -0.2246
 7412SOL     OW33694   2.447   4.300  13.691 -0.5179  0.3507 -0.2844
 7412SOL    HW133695   2.449   4.211  13.654 -1.5235 -0.1194  0.7715
 7412SOL    HW233696   2.377   4.295  13.756  0.4922 -1.1745  0.7022
 7413SOL     OW33697   0.941   4.513  12.096 -0.3470  0.4832 -0.2991
 7413SOL    HW133698   0.910   4.512  12.187  0.8242  1.3457  0.1024
 7413SOL    HW233699   0.898   4.594  12.069 -0.2768  0.3954 -0.6638
 7414SOL     OW33700   2.031   1.378   8.356  0.3172 -0.1941 -0.4707
 7414SOL    HW133701   2.102   1.394   8.418 -0.6241 -2.0254  1.0740
 7414SOL    HW233702   2.023   1.464   8.315 -1.6219  0.8799  2.1563
 7415SOL     OW33703   0.271   2.337   3.744  0.5253  0.3201  0.3840
 7415SOL    HW133704   0.275   2.316   3.837 -3.3919 -1.1307  0.2578
 7415SOL    HW233705   0.247   2.252   3.708  2.2582  0.9004 -2.1349
 7416SOL     OW33706   3.478   1.211   8.742  0.3684 -0.0758 -0.5209
 7416SOL    HW133707   3.463   1.124   8.780  1.2387  1.4944  3.3940
 7416SOL    HW233708   3.394   1.254   8.757 -0.6857 -2.8640  1.4740
 7417SOL     OW33709   2.304   2.340   7.507  0.5030  0.4542 -0.2114
 7417SOL    HW133710   2.289   2.255   7.464  1.4625  0.5998 -0.8363
 7417SOL    HW233711   2.395   2.325   7.532  0.3333  1.7765  1.1959
 7418SOL     OW33712   2.419   3.180   4.868  0.5624  0.3365  0.1354
 7418SOL    HW133713   2.455   3.167   4.956  2.1221 -1.0035 -0.6888
 7418SOL    HW233714   2.355   3.110   4.862  0.7308  0.1163  0.9993
 7419SOL     OW33715   4.622   2.501   2.333 -0.2469 -0.1267  0.0928
 7419SOL    HW133716   4.641   2.555   2.256  0.8223 -1.1307 -0.3626
 7419SOL    HW233717   4.638   2.415   2.293  0.3700 -0.7556  1.6844
 7420SOL     OW33718   0.475   3.369  10.576  0.7291  1.0669  0.0186
 7420SOL    HW133719   0.495   3.441  10.516  1.2375 -0.6654 -1.9131
 7420SOL    HW233720   0.566   3.341  10.585  0.2027 -1.1690 -1.5263
 7421SOL     OW33721   0.746   2.222   4.678 -0.3369  0.1728 -1.1664
 7421SOL    HW133722   0.783   2.135   4.691  1.2324  0.9393 -0.5362
 7421SOL    HW233723   0.703   2.239   4.762  0.0125 -0.8884 -0.7694
 7422SOL     OW33724   1.821   0.547  15.574  0.1026  0.1958  0.1047
 7422SOL    HW133725   1.909   0.581  15.593  1.1861 -1.7700 -1.4797
 7422SOL    HW233726   1.809   0.487  15.648 -1.4219  3.6536  2.6989
 7423SOL     OW33727   2.673   0.835   5.914  0.3278  0.2932 -0.2316
 7423SOL    HW133728   2.605   0.892   5.950 -2.6236 -1.9482 -2.3127
 7423SOL    HW233729   2.706   0.785   5.989  1.6498 -0.1403 -1.0931
 7424SOL     OW33730   3.467   0.082  10.500 -0.2740 -0.3023 -0.4176
 7424SOL    HW133731   3.501   0.168  10.473  0.4499 -0.6189 -0.5020
 7424SOL    HW233732   3.433   0.050  10.417  0.2779 -1.8237 -0.0568
 7425SOL     OW33733   0.236   1.351  14.467 -0.2273  0.1089  0.2312
 7425SOL    HW133734   0.315   1.311  14.502  1.0502 -0.9309 -3.8666
 7425SOL    HW233735   0.251   1.441  14.495 -0.8269  1.0205 -2.3394
 7426SOL     OW33736   1.089   0.400   8.828 -0.5057 -0.0543  0.2513
 7426SOL    HW133737   1.051   0.348   8.899 -1.5633  3.5358  2.2847
 7426SOL    HW233738   1.088   0.334   8.759  1.3443 -0.6519  0.8094
 7427SOL     OW33739   3.152   2.435  16.286  0.2976 -0.1288 -0.2759
 7427SOL    HW133740   3.145   2.474  16.199 -2.2072  0.4752  0.2069
 7427SOL    HW233741   3.076   2.377  16.280  0.5537 -0.6826  1.6963
 7428SOL     OW33742   4.130   1.137  14.973  0.2037 -0.2377 -0.3811
 7428SOL    HW133743   4.183   1.119  14.895 -0.9364 -0.3343 -1.1395
 7428SOL    HW233744   4.156   1.072  15.037 -0.2870 -1.5764 -1.5481
 7429SOL     OW33745   0.905   3.536   4.391  0.8368  0.1005  0.5379
 7429SOL    HW133746   0.874   3.517   4.302 -1.6148 -0.9479  1.6117
 7429SOL    HW233747   0.949   3.617   4.367  2.9529 -0.7057  1.7016
 7430SOL     OW33748   1.534   0.022   5.504  0.6294  0.1402 -0.3050
 7430SOL    HW133749   1.457   0.038   5.448  0.1894  1.4906  0.6932
 7430SOL    HW233750   1.565   0.113   5.506  1.1035  0.0202 -2.1707
 7431SOL     OW33751   0.820   0.120  10.300 -0.1378  0.0980 -0.6763
 7431SOL    HW133752   0.895   0.143  10.246  1.5337 -1.5766  0.9557
 7431SOL    HW233753   0.830   0.025  10.290  3.0005  0.4181 -0.5838
 7432SOL     OW33754   2.423   3.473   9.754  0.1322 -0.5040 -0.1699
 7432SOL    HW133755   2.455   3.498   9.668  1.0224  0.7670  0.5382
 7432SOL    HW233756   2.495   3.485   9.817 -0.8921 -2.8036  1.4799
 7433SOL     OW33757   3.362   2.678   4.428  0.0005  0.1069  0.5508
 7433SOL    HW133758   3.275   2.642   4.415  0.2568 -0.2616 -0.1446
 7433SOL    HW233759   3.399   2.663   4.341  0.1190  1.6964  0.3241
 7434SOL     OW33760   0.237   3.999  15.954  0.9203 -0.5209  0.6997
 7434SOL    HW133761   0.180   4.005  15.877  1.5656  0.7254  0.3156
 7434SOL    HW233762   0.282   4.084  15.949  0.0601 -0.0683  0.5768
 7435SOL     OW33763   3.340   2.699   3.599  0.2781 -0.0281 -0.1041
 7435SOL    HW133764   3.374   2.636   3.536 -0.9194  0.1353 -0.9037
 7435SOL    HW233765   3.301   2.642   3.665 -0.4524 -0.2382 -0.7217
 7436SOL     OW33766   4.327   3.973   6.110  0.2343  0.3184 -0.0105
 7436SOL    HW133767   4.339   4.040   6.178 -1.1892  0.3994  0.1644
 7436SOL    HW233768   4.333   4.033   6.036 -0.2720 -1.0647 -1.1508
 7437SOL     OW33769   2.419   1.162   1.802  0.5311  0.8177 -0.0793
 7437SOL    HW133770   2.479   1.183   1.731  0.7271 -0.0940 -0.1817
 7437SOL    HW233771   2.462   1.089   1.847 -0.4327 -0.6502 -1.5503
 7438SOL     OW33772   2.785   4.023   4.363 -0.3788  0.5034 -0.0310
 7438SOL    HW133773   2.832   4.039   4.281 -0.3688 -0.7941 -0.2759
 7438SOL    HW233774   2.788   3.928   4.365  1.1016  0.5549 -0.0265
 7439SOL     OW33775   3.994   2.679  16.143 -0.1767 -0.1633  0.6963
 7439SOL    HW133776   3.944   2.662  16.063  0.3561 -0.3432  0.4016
 7439SOL    HW233777   4.068   2.620  16.129 -1.3667 -1.3110 -0.7886
 7440SOL     OW33778   2.606   1.850   7.215  0.0163 -0.0762  0.4904
 7440SOL    HW133779   2.589   1.889   7.300 -0.6079 -1.9475  1.2281
 7440SOL    HW233780   2.517   1.822   7.197 -0.3697  1.8007 -0.4810
 7441SOL     OW33781   0.812   0.261  13.988  0.0888 -0.4468 -0.1972
 7441SOL    HW133782   0.759   0.220  14.056  1.5514 -3.0157 -0.6271
 7441SOL    HW233783   0.791   0.352  14.012  0.9694  0.1571 -1.6795
 7442SOL     OW33784   0.687   1.250   5.957  0.7587 -0.4550 -0.3839
 7442SOL    HW133785   0.758   1.190   5.935  1.0819 -0.0320 -0.5048
 7442SOL    HW233786   0.704   1.268   6.050  1.4469  1.5942 -0.8907
 7443SOL     OW33787   2.160   2.184   8.642 -0.2332 -0.2389  0.3953
 7443SOL    HW133788   2.206   2.266   8.628  0.1393 -0.7182 -1.1731
 7443SOL    HW233789   2.073   2.210   8.673 -1.0661 -1.3037 -1.0780
 7444SOL     OW33790   3.163   1.610  15.359  0.2619 -0.4774  0.3004
 7444SOL    HW133791   3.242   1.556  15.360  1.1163  0.7661 -1.4555
 7444SOL    HW233792   3.106   1.570  15.293  1.0350  0.5730 -0.9750
 7445SOL     OW33793   0.965   4.068   9.389  0.2615  0.0589 -0.0117
 7445SOL    HW133794   1.032   4.069   9.321  0.6454  1.4366  0.4006
 7445SOL    HW233795   0.994   4.142   9.442 -0.7731 -1.6843  2.9886
 7446SOL     OW33796   0.499   1.350  14.576  0.4425 -0.8697 -0.0972
 7446SOL    HW133797   0.578   1.349  14.630 -0.1234 -0.6509  0.7384
 7446SOL    HW233798   0.533   1.345  14.487  0.5212  2.2332 -0.2364
 7447SOL     OW33799   3.339   4.400   3.835 -0.1124  0.3779 -0.4197
 7447SOL    HW133800   3.432   4.409   3.814  0.1569 -2.0308 -0.2600
 7447SOL    HW233801   3.305   4.437   3.754  0.5925 -1.3468 -1.5077
 7448SOL     OW33802   3.772   1.198  16.720  0.1006  0.2305  0.1300
 7448SOL    HW133803   3.779   1.126  16.658  1.3296  2.2865 -2.1119
 7448SOL    HW233804   3.853   1.186  16.770 -1.2304 -1.4203  1.9352
 7449SOL     OW33805   2.747   0.204  16.492 -0.2214  0.3115  0.0245
 7449SOL    HW133806   2.700   0.158  16.423 -0.5631  0.8791 -0.1263
 7449SOL    HW233807   2.683   0.272  16.514 -0.2141 -0.2885  1.9401
 7450SOL     OW33808   2.125   1.557   5.310 -0.6490  0.3891 -0.5227
 7450SOL    HW133809   2.136   1.607   5.229 -0.1921 -0.1643 -0.8067
 7450SOL    HW233810   2.197   1.494   5.308 -2.0829 -1.2700  0.1489
 7451SOL     OW33811   1.382   2.299   7.316 -0.0127  0.6790  0.1844
 7451SOL    HW133812   1.320   2.285   7.245  1.3469 -2.4589 -0.3859
 7451SOL    HW233813   1.436   2.221   7.308  0.0582  0.8504 -1.0230
 7452SOL     OW33814   2.504   3.746   6.087  0.0370  0.2159  0.7159
 7452SOL    HW133815   2.445   3.672   6.074  2.4813 -1.6270  0.1167
 7452SOL    HW233816   2.510   3.751   6.182 -1.7497 -2.5897  0.9846
 7453SOL     OW33817   2.441   1.580   7.513  0.1000  0.1103  0.2425
 7453SOL    HW133818   2.455   1.527   7.435 -1.3422 -2.3057  1.6084
 7453SOL    HW233819   2.346   1.593   7.512 -0.1561 -1.7687  0.0530
 7454SOL     OW33820   2.243   3.731   2.514  0.0281  0.7296 -0.0463
 7454SOL    HW133821   2.318   3.699   2.463  0.9080 -2.3411  3.1386
 7454SOL    HW233822   2.291   3.756   2.594 -1.2504  0.6218  0.7525
 7455SOL     OW33823   2.791   1.224   4.410  0.0965 -0.0265  0.2383
 7455SOL    HW133824   2.857   1.214   4.479 -0.1664 -1.2256  0.3120
 7455SOL    HW233825   2.837   1.282   4.350 -2.5527  0.6792 -1.1403
 7456SOL     OW33826   0.695   1.501   9.257  0.1353  0.2921 -0.1097
 7456SOL    HW133827   0.778   1.456   9.275  0.2668  0.6828  0.2605
 7456SOL    HW233828   0.680   1.455   9.174  2.2005  2.0859 -1.5034
 7457SOL     OW33829   4.417   3.110  16.936  0.4032 -0.2630  0.7437
 7457SOL    HW133830   4.458   3.143  17.016  0.2261  1.9749 -0.0915
 7457SOL    HW233831   4.335   3.075  16.969 -1.1544  1.7595 -1.0222
 7458SOL     OW33832   2.580   2.170   4.561 -0.0961  0.1308  0.0878
 7458SOL    HW133833   2.560   2.076   4.567 -0.8329  0.3564  1.0801
 7458SOL    HW233834   2.620   2.186   4.646  0.9659  1.5606 -0.6965
 7459SOL     OW33835   4.542   3.095  16.341 -0.5869  0.0668 -0.0392
 7459SOL    HW133836   4.576   3.105  16.430  0.2433 -0.3211 -0.3156
 7459SOL    HW233837   4.626   3.093  16.295 -0.9166 -1.2439 -0.5949
 7460SOL     OW33838   1.538   3.322  16.947  0.4682  0.7116  0.4295
 7460SOL    HW133839   1.548   3.359  16.859  0.4974  0.6795  0.4196
 7460SOL    HW233840   1.544   3.227  16.946 -2.3875  0.5437 -1.0151
 7461SOL     OW33841   0.928   2.967   4.117 -0.0115 -0.0570 -0.9372
 7461SOL    HW133842   0.918   2.879   4.080 -1.8769 -0.7188  1.1718
 7461SOL    HW233843   0.978   3.014   4.050 -0.6607  0.7548 -0.8546
 7462SOL     OW33844   0.597   3.829  15.685 -0.2321 -0.4224  0.0491
 7462SOL    HW133845   0.619   3.914  15.724 -1.5032  0.2782 -0.7684
 7462SOL    HW233846   0.512   3.804  15.720  0.2388 -3.1804 -0.7411
 7463SOL     OW33847   3.098   3.207  16.717 -0.6612  0.4456  0.1776
 7463SOL    HW133848   3.016   3.223  16.671  2.2273 -2.3370 -5.9591
 7463SOL    HW233849   3.150   3.256  16.653  1.3993 -2.1516 -0.1325
 7464SOL     OW33850   2.050   3.653   7.636  0.1686  0.0768  0.4067
 7464SOL    HW133851   2.067   3.708   7.560 -1.9274  0.8002  0.4420
 7464SOL    HW233852   1.969   3.679   7.680  0.1914 -1.1778  1.1999
 7465SOL     OW33853   1.682   4.692   4.999 -0.3571 -0.3158  0.2794
 7465SOL    HW133854   1.610   4.712   4.939 -0.1037 -1.9310 -0.5752
 7465SOL    HW233855   1.640   4.654   5.076 -1.3745 -2.1014 -1.1639
 7466SOL     OW33856   4.114   1.129   5.960 -0.5481 -0.1521  0.5795
 7466SOL    HW133857   4.045   1.130   5.893  0.9088  1.2403 -0.9309
 7466SOL    HW233858   4.194   1.106   5.913 -0.6639  0.4824  0.0653
 7467SOL     OW33859   2.377   3.427   3.993  0.2528 -0.0798  0.2866
 7467SOL    HW133860   2.359   3.408   4.085 -0.8956  2.1367  0.5459
 7467SOL    HW233861   2.299   3.388   3.953  0.8448 -1.4379  0.4602
 7468SOL     OW33862   3.224   3.640  16.480  0.6809 -0.5128  0.3855
 7468SOL    HW133863   3.203   3.717  16.532 -0.7185 -1.8641  1.8014
 7468SOL    HW233864   3.314   3.625  16.508  0.3251 -1.9007  0.7945
 7469SOL     OW33865   0.813   0.318   3.188 -0.0599 -0.7124  0.0682
 7469SOL    HW133866   0.841   0.227   3.181  1.5628 -0.2177  0.1743
 7469SOL    HW233867   0.875   0.343   3.256 -1.1550  2.1705  0.0313
 7470SOL     OW33868   3.136   3.743   4.361 -0.0703 -0.5140 -0.5919
 7470SOL    HW133869   3.048   3.717   4.335 -0.5382 -0.7525  1.2150
 7470SOL    HW233870   3.157   3.686   4.435  1.3007 -1.6535 -1.8526
 7471SOL     OW33871   2.213   2.000   1.988  0.2805 -0.7085  0.3919
 7471SOL    HW133872   2.261   1.958   2.060  0.7364  1.1207  1.1344
 7471SOL    HW233873   2.281   1.997   1.920  0.4442 -2.1026  0.6113
 7472SOL     OW33874   2.959   4.038  14.893  0.0462  0.3610  0.1810
 7472SOL    HW133875   2.996   3.951  14.878 -0.6268 -0.3430  2.6002
 7472SOL    HW233876   3.036   4.092  14.908 -0.5019  1.4969 -1.1139
 7473SOL     OW33877   0.848   3.660   6.032  0.1158 -0.1185 -0.9790
 7473SOL    HW133878   0.796   3.604   5.974 -0.4781 -0.1291 -0.4331
 7473SOL    HW233879   0.841   3.745   5.989  0.8006  0.3554 -0.1455
 7474SOL     OW33880   4.171   1.110  13.974  0.2717 -0.0180  0.2230
 7474SOL    HW133881   4.188   1.196  14.012 -0.0334  0.1227  0.0450
 7474SOL    HW233882   4.077   1.127  13.971  0.3192 -0.0594 -1.3356
 7475SOL     OW33883   0.155   0.379  13.958  0.1611 -0.2251 -0.5758
 7475SOL    HW133884   0.175   0.443  13.891  1.3181 -0.9483 -0.9313
 7475SOL    HW233885   0.079   0.332  13.924 -1.3878  0.9157  1.3302
 7476SOL     OW33886   1.095   3.197   8.431  0.1484 -0.0312  0.6366
 7476SOL    HW133887   1.102   3.111   8.389 -2.8585 -0.0832  0.2538
 7476SOL    HW233888   1.139   3.255   8.370  1.6941 -1.4407  0.3958
 7477SOL     OW33889   1.155   3.195   5.890 -0.6072 -0.0924 -0.2857
 7477SOL    HW133890   1.121   3.252   5.959  1.2829 -0.3669  0.8972
 7477SOL    HW233891   1.248   3.217   5.895 -0.0095 -3.2384  2.6582
 7478SOL     OW33892   3.099   4.131   6.492  0.4144 -0.1880 -0.7560
 7478SOL    HW133893   3.119   4.191   6.420 -1.2294  0.3102 -0.7834
 7478SOL    HW233894   3.183   4.121   6.536  0.5811 -2.4297 -1.5881
 7479SOL     OW33895   4.376   0.934   5.232 -0.4721 -0.1638 -0.2819
 7479SOL    HW133896   4.418   1.008   5.188 -0.0804  0.5914  1.3625
 7479SOL    HW233897   4.332   0.882   5.164  0.2094 -0.7343 -0.2871
 7480SOL     OW33898   1.875   3.419   8.378 -0.4004 -0.4404 -0.3813
 7480SOL    HW133899   1.845   3.349   8.320 -0.0716 -0.9018  0.0105
 7480SOL    HW233900   1.927   3.366   8.438 -1.8762 -2.0014 -0.4867
 7481SOL     OW33901   2.463   4.007   1.990  0.1366  0.3328 -0.2578
 7481SOL    HW133902   2.401   4.061   1.941 -0.6346 -0.3749 -0.0504
 7481SOL    HW233903   2.550   4.046   1.978  1.7175 -2.9974  0.2949
 7482SOL     OW33904   0.210   1.966  12.719  0.8761 -0.0036  0.1127
 7482SOL    HW133905   0.212   2.028  12.646 -0.8312 -0.5731 -0.4174
 7482SOL    HW233906   0.175   2.022  12.788  2.0784  0.6122  0.2166
 7483SOL     OW33907   4.546   4.604   2.741 -0.1607 -0.5666  0.2812
 7483SOL    HW133908   4.580   4.685   2.779 -3.7234  1.3092 -0.5168
 7483SOL    HW233909   4.461   4.627   2.704  0.7147 -1.3007 -2.1787
 7484SOL     OW33910   0.537   3.152   0.133 -0.0740 -0.6383  0.2220
 7484SOL    HW133911   0.551   3.198   0.216  0.4811  0.7523 -0.6490
 7484SOL    HW233912   0.626   3.142   0.097 -0.2489  1.7222 -0.8613
 7485SOL     OW33913   0.155   3.200   7.602 -0.2990 -0.1677 -0.1014
 7485SOL    HW133914   0.228   3.262   7.603 -0.3639 -0.1051  0.9404
 7485SOL    HW233915   0.197   3.123   7.563 -1.1142 -0.8271  0.3382
 7486SOL     OW33916   3.543   1.694   7.437  0.1131 -0.6490 -0.2683
 7486SOL    HW133917   3.466   1.644   7.465 -0.0257 -0.3937 -0.2001
 7486SOL    HW233918   3.606   1.654   7.498 -0.1127 -0.1757  0.2766
 7487SOL     OW33919   2.585   0.338   2.827  0.2253 -0.0756 -0.0465
 7487SOL    HW133920   2.649   0.308   2.892 -0.2003 -0.0102  0.4066
 7487SOL    HW233921   2.624   0.425   2.819 -0.3596  0.1302 -0.6307
 7488SOL     OW33922   0.034   2.035  14.190  0.2950  0.4343 -0.2634
 7488SOL    HW133923   0.005   1.986  14.113 -0.2140  0.8333 -0.3212
 7488SOL    HW233924   4.686   2.091  14.219 -0.8881  0.5463 -3.3836
 7489SOL     OW33925   0.383   3.787  15.832 -0.4642 -0.7659 -0.3085
 7489SOL    HW133926   0.313   3.721  15.836 -0.2211 -0.9721  0.4507
 7489SOL    HW233927   0.350   3.846  15.900  2.4140 -0.1697  0.5384
 7490SOL     OW33928   0.374   3.095   5.975 -0.1626 -0.7167 -0.0801
 7490SOL    HW133929   0.428   3.162   6.016 -2.0822  1.2199 -0.6652
 7490SOL    HW233930   0.297   3.146   5.946 -1.3817 -2.2503  0.4768
 7491SOL     OW33931   4.712   1.867   4.895  0.0733  0.2000  0.7136
 7491SOL    HW133932   4.637   1.845   4.840  0.8509  1.3956 -0.8456
 7491SOL    HW233933   4.683   1.835   4.980  0.3262  1.0457  1.1250
 7492SOL     OW33934   3.634   2.463   4.127 -0.4988 -0.7949 -0.3413
 7492SOL    HW133935   3.560   2.410   4.158 -1.6457 -0.2677 -2.1837
 7492SOL    HW233936   3.603   2.540   4.173 -2.5855 -1.4009 -0.7283
 7493SOL     OW33937   4.237   4.636   6.478  0.3574  0.2686  0.1092
 7493SOL    HW133938   4.208   4.643   6.387 -0.1767 -0.7206  0.2000
 7493SOL    HW233939   4.279   4.550   6.482 -0.1491  0.1110  2.4176
 7494SOL     OW33940   0.212   2.825   0.726 -0.1522  0.3217  0.3356
 7494SOL    HW133941   0.152   2.778   0.784  1.1991  0.5036  1.8837
 7494SOL    HW233942   0.273   2.851   0.795 -1.9693  1.3567  1.5495
 7495SOL     OW33943   0.723   1.988   7.028 -0.1466  0.7306  0.0899
 7495SOL    HW133944   0.790   2.027   6.972 -1.1095  5.2815  2.1507
 7495SOL    HW233945   0.645   2.022   6.983 -0.1132  0.6818 -0.0061
 7496SOL     OW33946   0.164   0.511  14.759 -0.5850 -0.4628 -0.5037
 7496SOL    HW133947   0.168   0.599  14.721  2.5697 -0.3221  0.1627
 7496SOL    HW233948   0.104   0.475  14.693 -0.3583 -1.2970 -0.2534
 7497SOL     OW33949   3.518   1.349  15.158  0.5583  0.2942  0.0107
 7497SOL    HW133950   3.441   1.293  15.155  1.5879 -1.1937  1.2641
 7497SOL    HW233951   3.559   1.327  15.075 -0.0159  2.2415 -0.7983
 7498SOL     OW33952   0.553   1.357  10.755  0.3881  0.0906  0.3033
 7498SOL    HW133953   0.462   1.370  10.782  0.0655 -1.0916 -0.1889
 7498SOL    HW233954   0.554   1.415  10.679  1.2756  0.3653  0.5264
 7499SOL     OW33955   3.450   3.956  10.448  0.0598  0.2542  0.4585
 7499SOL    HW133956   3.514   4.014  10.407  2.0995 -1.5047  1.1333
 7499SOL    HW233957   3.368   3.999  10.425 -0.9031 -0.8894  1.7152
 7500SOL     OW33958   1.517   0.046   5.805  0.4839 -0.5291  0.0093
 7500SOL    HW133959   1.519   0.065   5.711  1.7952 -0.8948 -0.0384
 7500SOL    HW233960   1.422   0.053   5.817  0.2930 -0.8144 -1.2692
 7501SOL     OW33961   4.242   0.716   5.083  0.2314 -0.2166  0.3678
 7501SOL    HW133962   4.257   0.666   5.163  0.7493 -1.7755 -0.7005
 7501SOL    HW233963   4.155   0.684   5.057  0.4955 -1.4322  0.9771
 7502SOL     OW33964   2.993   1.878   8.538  0.0643 -0.6615  0.5441
 7502SOL    HW133965   2.900   1.901   8.536 -0.4649 -2.7373  1.7703
 7502SOL    HW233966   3.028   1.965   8.520 -0.6669 -0.9844 -2.5416
 7503SOL     OW33967   0.412   1.240  12.020  0.2706 -0.9508 -0.5044
 7503SOL    HW133968   0.413   1.166  12.082  0.3596 -0.9681 -0.5268
 7503SOL    HW233969   0.505   1.258  12.003  0.4880 -0.4300  1.2400
 7504SOL     OW33970   2.758   1.309   7.847  0.4546  0.2817 -0.1360
 7504SOL    HW133971   2.670   1.274   7.830  1.5739 -3.6369  2.1770
 7504SOL    HW233972   2.794   1.242   7.905  0.6992  0.6767  0.1668
 7505SOL     OW33973   3.914   0.064   7.979 -0.3365 -0.0401  0.0404
 7505SOL    HW133974   3.991   0.120   7.971  1.3618 -2.0442  2.5253
 7505SOL    HW233975   3.960   4.710   8.012  0.0144 -0.5144 -1.5484
 7506SOL     OW33976   1.211   0.344   9.283  0.3009 -0.1434  0.1092
 7506SOL    HW133977   1.116   0.343   9.296  0.4769 -0.5853  1.4031
 7506SOL    HW233978   1.236   0.309   9.369  1.3535 -0.8350 -0.4788
 7507SOL     OW33979   4.226   2.959   2.416  0.3617  0.2554  0.1732
 7507SOL    HW133980   4.263   2.942   2.329  0.5735 -0.8669  0.4871
 7507SOL    HW233981   4.141   2.997   2.393  0.2840 -0.8927 -1.4293
 7508SOL     OW33982   0.757   2.653  14.911  0.4495  0.0506  0.1966
 7508SOL    HW133983   0.727   2.686  14.826 -0.1583 -0.6176  0.1509
 7508SOL    HW233984   0.806   2.579  14.877  1.2190  0.4513  0.4271
 7509SOL     OW33985   0.836   3.535   4.121  0.1146 -0.1966 -0.2389
 7509SOL    HW133986   0.928   3.560   4.109 -0.0406  0.7599  0.5999
 7509SOL    HW233987   0.809   3.539   4.030 -0.8349 -0.0926  0.0542
 7510SOL     OW33988   1.478   3.251   0.260 -0.6243 -0.2667 -0.0648
 7510SOL    HW133989   1.418   3.310   0.214 -1.5291 -1.0296  0.1249
 7510SOL    HW233990   1.539   3.317   0.291 -1.2030 -0.1274  0.7807
 7511SOL     OW33991   1.904   2.641   9.976 -0.7632 -0.1599  0.1579
 7511SOL    HW133992   1.911   2.652   9.881  0.1798 -0.1312  0.2308
 7511SOL    HW233993   1.864   2.555   9.980  1.5128 -1.3483 -2.7107
 7512SOL     OW33994   0.350   4.254   8.279 -0.1083 -0.8160  0.2698
 7512SOL    HW133995   0.358   4.330   8.336 -5.0706 -0.5487  0.6483
 7512SOL    HW233996   0.376   4.189   8.344  1.2089 -1.0777 -0.5223
 7513SOL     OW33997   1.482   0.334   6.811  0.0379  1.0237 -1.2661
 7513SOL    HW133998   1.494   0.243   6.838  1.3631  2.2102  2.1953
 7513SOL    HW233999   1.386   0.337   6.814  0.0416 -0.0974  0.4890
 7514SOL     OW34000   3.692   3.874  13.341  0.4097  0.0507  0.2090
 7514SOL    HW134001   3.703   3.913  13.428 -2.3713  1.3823 -0.0207
 7514SOL    HW234002   3.754   3.801  13.345  0.4411  0.1498  1.4534
 7515SOL     OW34003   2.118   0.359   2.680  0.0876 -0.0668  0.0030
 7515SOL    HW134004   2.159   0.422   2.621 -0.5986 -0.1177 -0.5253
 7515SOL    HW234005   2.188   0.297   2.698  0.3719  0.4855  0.8039
 7516SOL     OW34006   2.359   0.533   6.146  0.0874 -0.5923 -0.4031
 7516SOL    HW134007   2.400   0.568   6.225  0.9804 -0.6416 -0.8448
 7516SOL    HW234008   2.307   0.456   6.168 -0.1370 -0.8700 -1.9345
 7517SOL     OW34009   3.205   0.043   4.529  0.2382  0.2856  0.2341
 7517SOL    HW134010   3.264   4.701   4.491 -2.2776 -2.8058  1.5504
 7517SOL    HW234011   3.191   0.108   4.460 -1.5134 -1.1374 -0.7620
 7518SOL     OW34012   4.008   1.862   1.289  0.1154  0.1462  0.1648
 7518SOL    HW134013   4.103   1.865   1.301 -0.4465  1.0637  4.7183
 7518SOL    HW234014   3.998   1.771   1.261  2.0090  0.3310 -1.0612
 7519SOL     OW34015   2.513   3.733  16.523 -0.8061  0.5472 -0.0711
 7519SOL    HW134016   2.472   3.720  16.438  0.3646 -0.5625 -0.4671
 7519SOL    HW234017   2.431   3.735  16.573 -1.0329  2.0070 -0.5017
 7520SOL     OW34018   3.782   4.567   8.266  0.4022 -0.0314 -0.1530
 7520SOL    HW134019   3.860   4.618   8.285 -1.4010  2.0529  1.5810
 7520SOL    HW234020   3.808   4.501   8.201 -0.0542 -0.4204  0.0550
 7521SOL     OW34021   3.761   2.731   0.463 -0.2968 -0.0490  0.3315
 7521SOL    HW134022   3.771   2.690   0.549 -1.2167 -4.0181 -1.4280
 7521SOL    HW234023   3.825   2.689   0.406  0.9832  0.1691  1.6031
 7522SOL     OW34024   3.307   4.689   6.648 -0.3663  0.3349  0.1769
 7522SOL    HW134025   3.342   4.600   6.642 -1.0142  0.1840 -1.3857
 7522SOL    HW234026   3.219   4.674   6.615  0.2410 -2.3813 -0.2430
 7523SOL     OW34027   1.605   2.600   0.821  0.6370  0.8778  0.2165
 7523SOL    HW134028   1.608   2.667   0.890 -1.2007  1.2064 -0.0317
 7523SOL    HW234029   1.527   2.558   0.858  0.6795  1.2647  0.7621
 7524SOL     OW34030   2.323   2.046   7.939  0.7463  0.3786 -0.4390
 7524SOL    HW134031   2.304   2.089   7.856  2.2424 -1.9752 -2.0202
 7524SOL    HW234032   2.242   2.057   7.988  0.6801  2.8209 -1.1080
 7525SOL     OW34033   1.428   1.485   8.937 -0.5841 -0.3460  0.2500
 7525SOL    HW134034   1.450   1.570   8.977 -0.8743  0.2951 -0.9598
 7525SOL    HW234035   1.341   1.477   8.975 -1.3111 -0.6048 -1.4777
 7526SOL     OW34036   4.107   2.635  14.149  0.8915 -0.5179  0.5742
 7526SOL    HW134037   4.130   2.626  14.242  1.3790 -1.0259  0.3962
 7526SOL    HW234038   4.178   2.689  14.115 -0.7164  1.0172 -0.3879
 7527SOL     OW34039   1.729   1.051   6.216 -0.1298  0.4502  0.6796
 7527SOL    HW134040   1.790   1.107   6.263  0.7556 -0.5900  0.7588
 7527SOL    HW234041   1.777   1.021   6.139  0.7307 -0.7179  1.6816
 7528SOL     OW34042   1.667   1.075   2.660 -0.0690  0.4925 -0.2737
 7528SOL    HW134043   1.615   1.153   2.641  0.7981  1.2422  0.4055
 7528SOL    HW234044   1.653   1.081   2.754  1.0228 -0.1649 -0.0661
 7529SOL     OW34045   0.745   4.564   1.574  0.0584 -0.0327  0.9020
 7529SOL    HW134046   0.751   4.640   1.516  1.2723 -0.1667  0.8547
 7529SOL    HW234047   0.773   4.617   1.649  0.5195 -1.2427  1.5929
 7530SOL     OW34048   4.593   3.250   3.272 -0.3825  0.2648  0.0294
 7530SOL    HW134049   4.658   3.203   3.219 -2.7327 -2.4083 -0.4747
 7530SOL    HW234050   4.554   3.311   3.209 -0.4014 -0.6382 -0.8311
 7531SOL     OW34051   1.976   1.644   8.274 -0.3646 -0.6133 -0.0108
 7531SOL    HW134052   1.906   1.667   8.334 -0.2954 -1.3068  0.3426
 7531SOL    HW234053   2.056   1.677   8.315  0.6804 -2.1548 -0.7649
 7532SOL     OW34054   0.193   0.463   0.447  0.4088  0.3473 -0.3432
 7532SOL    HW134055   0.253   0.390   0.428  1.8578  1.1267  1.2320
 7532SOL    HW234056   0.211   0.473   0.541  1.1422  0.6515 -0.5148
 7533SOL     OW34057   0.908   0.703  11.108  0.1477  0.6291  0.2104
 7533SOL    HW134058   0.954   0.643  11.167 -1.7793 -0.1902  0.8658
 7533SOL    HW234059   0.818   0.678  11.130  1.3962 -1.3091  3.1534
 7534SOL     OW34060   1.236   0.222  13.751 -0.4138  0.5176 -0.0415
 7534SOL    HW134061   1.148   0.235  13.714 -1.0924 -2.1598  0.5806
 7534SOL    HW234062   1.249   0.282  13.825 -0.5347  0.1706  0.2643
 7535SOL     OW34063   2.698   3.543   4.536 -0.6754 -0.3375  0.2882
 7535SOL    HW134064   2.637   3.519   4.606  0.3096  2.0040  1.9468
 7535SOL    HW234065   2.777   3.495   4.557 -0.4172 -0.3368 -0.6660
 7536SOL     OW34066   3.401   2.979   3.548  0.1141 -0.1108  0.0151
 7536SOL    HW134067   3.447   2.993   3.631  1.7923 -2.3323 -0.5276
 7536SOL    HW234068   3.353   2.896   3.548  0.6589 -0.4226 -0.9007
 7537SOL     OW34069   3.897   4.304   4.463  0.2481  0.1911 -0.5076
 7537SOL    HW134070   3.828   4.321   4.398 -0.9218 -0.9110  0.4412
 7537SOL    HW234071   3.942   4.388   4.459  0.3012  0.2601  2.1103
 7538SOL     OW34072   4.632   3.514   8.393 -0.1286 -0.3780 -0.0676
 7538SOL    HW134073   4.697   3.492   8.326  0.2910 -3.6643  1.4065
 7538SOL    HW234074   4.587   3.584   8.346  1.2579  0.4903 -0.0893
 7539SOL     OW34075   2.176   1.670   5.044  0.3128  0.2485  0.4700
 7539SOL    HW134076   2.265   1.657   5.078  0.1944  0.1258  0.7352
 7539SOL    HW234077   2.185   1.604   4.976 -1.7955  1.4826 -0.9736
 7540SOL     OW34078   1.581   1.765  16.250 -0.3482 -0.1243  0.0119
 7540SOL    HW134079   1.521   1.838  16.264  1.6692  1.2935  1.3007
 7540SOL    HW234080   1.586   1.710  16.328 -0.6497  1.0945  0.8809
 7541SOL     OW34081   3.238   1.872   7.514 -0.1384  0.0707  0.1823
 7541SOL    HW134082   3.233   1.812   7.440 -1.2843  0.1987  0.1557
 7541SOL    HW234083   3.170   1.832   7.568 -0.3333 -0.6117 -0.5660
 7542SOL     OW34084   0.680   0.449   8.552  0.3049 -0.3161  0.0588
 7542SOL    HW134085   0.671   0.518   8.487 -2.1566  0.2238  0.9882
 7542SOL    HW234086   0.754   0.466   8.609 -1.7847  2.1998  2.0022
 7543SOL     OW34087   4.654   1.727  16.959 -0.0110  0.0530 -0.0261
 7543SOL    HW134088   4.597   1.803  16.971 -1.8881 -1.3832  0.0901
 7543SOL    HW234089   4.598   1.662  16.917 -0.8289  0.5705  0.2788
 7544SOL     OW34090   3.712   3.153   5.564  0.6501  0.0931  0.9911
 7544SOL    HW134091   3.693   3.189   5.477 -1.7723 -1.3818  0.9023
 7544SOL    HW234092   3.698   3.233   5.615  1.0461  0.6803  0.1716
 7545SOL     OW34093   3.100   2.390   2.512  0.2010  0.3617  0.0529
 7545SOL    HW134094   3.066   2.479   2.523  0.1588  0.4291 -0.5952
 7545SOL    HW234095   3.148   2.403   2.430 -0.6049  2.1515 -0.1321
 7546SOL     OW34096   0.883   4.413   5.500 -0.0623 -0.2081 -0.5302
 7546SOL    HW134097   0.794   4.427   5.530 -0.7202 -1.4464 -1.9127
 7546SOL    HW234098   0.887   4.475   5.427 -3.8833  0.6475  0.0015
 7547SOL     OW34099   2.471   1.412  17.465  0.1861  0.5545 -0.9699
 7547SOL    HW134100   2.550   1.361  17.449  0.8898  1.4072 -0.1922
 7547SOL    HW234101   2.498   1.480  17.403 -5.0824 -0.3863 -4.3607
 7548SOL     OW34102   1.532   3.005  14.722 -0.0626  0.0952  0.5824
 7548SOL    HW134103   1.539   2.909  14.724  0.9621  0.1719  0.3989
 7548SOL    HW234104   1.485   3.010  14.639  0.8989 -0.9801 -0.0235
 7549SOL     OW34105   0.344   0.494   5.388 -0.4186 -0.1368  0.5650
 7549SOL    HW134106   0.376   0.417   5.342  0.3790 -0.7098  2.0953
 7549SOL    HW234107   0.291   0.541   5.323 -0.7777 -1.3441 -0.0096
 7550SOL     OW34108   0.032   1.419  14.295 -0.0825  0.0730  0.3592
 7550SOL    HW134109   0.073   1.505  14.285 -0.2387  0.0139 -0.8830
 7550SOL    HW234110   0.104   1.371  14.335 -0.8166 -0.5124  0.9647
 7551SOL     OW34111   3.425   2.506  13.504  0.0983 -0.5711 -0.5200
 7551SOL    HW134112   3.382   2.492  13.419 -0.8552  0.1363 -0.1420
 7551SOL    HW234113   3.492   2.437  13.505 -0.5019 -1.1110  2.6477
 7552SOL     OW34114   0.528   3.522  12.525 -0.1085  0.0480 -0.3390
 7552SOL    HW134115   0.579   3.449  12.492  0.0252  0.0787 -0.2009
 7552SOL    HW234116   0.451   3.473  12.553 -0.7271  0.6228 -1.0360
 7553SOL     OW34117   2.252   1.315   2.119  0.3975 -0.1922 -0.1355
 7553SOL    HW134118   2.310   1.355   2.055 -0.5427  2.9559  0.9686
 7553SOL    HW234119   2.231   1.389   2.175  2.6100 -0.0088  0.4532
 7554SOL     OW34120   1.361   3.963   0.872  0.8456  0.3119 -0.2600
 7554SOL    HW134121   1.425   4.026   0.839  0.9070  0.8201  0.8151
 7554SOL    HW234122   1.286   4.023   0.877 -0.7166 -1.6628 -0.2277
 7555SOL     OW34123   1.818   1.081   9.650  0.0964  0.0881 -0.3606
 7555SOL    HW134124   1.800   1.042   9.565  0.7822 -2.0069  0.4610
 7555SOL    HW234125   1.834   1.175   9.638 -3.5415  0.9909  1.6908
 7556SOL     OW34126   1.271   0.372   5.451 -0.1294  0.4942 -0.0827
 7556SOL    HW134127   1.355   0.417   5.438 -0.1936  1.1490  1.7021
 7556SOL    HW234128   1.292   0.279   5.450  2.8805  1.1618  1.2790
 7557SOL     OW34129   2.161   4.689   7.536  0.2434 -0.9378 -0.1728
 7557SOL    HW134130   2.241   4.661   7.581  0.3561  0.3203  0.4132
 7557SOL    HW234131   2.101   0.002   7.601  0.0544 -1.5926  0.0137
 7558SOL     OW34132   3.774   4.216   6.290 -0.2892 -0.0114  0.2147
 7558SOL    HW134133   3.829   4.291   6.266 -0.8758  0.1773 -0.5533
 7558SOL    HW234134   3.806   4.188   6.376  0.7441 -1.1324 -0.5381
 7559SOL     OW34135   1.149   0.788   5.927  0.5666 -0.7537  0.3964
 7559SOL    HW134136   1.221   0.752   5.978 -1.3293 -0.7261  3.0754
 7559SOL    HW234137   1.175   0.876   5.898 -0.5351 -0.9953 -1.3351
 7560SOL     OW34138   4.601   1.414   6.126 -0.2192 -0.4159  0.1900
 7560SOL    HW134139   4.620   1.360   6.203  0.6789 -0.1637  0.1477
 7560SOL    HW234140   4.686   1.398   6.086 -0.3039  1.8083 -0.8978
 7561SOL     OW34141   2.491   1.280   5.626 -0.4726 -0.0929  0.7539
 7561SOL    HW134142   2.494   1.201   5.572  1.3839 -0.1833  1.0066
 7561SOL    HW234143   2.464   1.341   5.557 -0.1161 -0.8090 -0.0138
 7562SOL     OW34144   0.956   4.488  12.969  0.5335  0.4125  0.0319
 7562SOL    HW134145   0.993   4.520  13.051 -0.3346 -0.8929  0.9341
 7562SOL    HW234146   1.027   4.452  12.916  0.4011 -0.8300  0.6952
 7563SOL     OW34147   4.663   1.875  12.619  0.8622  0.6393  0.1803
 7563SOL    HW134148   4.678   1.878  12.524  0.5914  1.4037  0.1628
 7563SOL    HW234149   0.031   1.881  12.648  0.4138 -2.2777  2.1202
 7564SOL     OW34150   2.315   0.691   5.907 -0.2894 -0.7103 -0.3704
 7564SOL    HW134151   2.295   0.634   5.982  1.4422 -0.2281  0.4482
 7564SOL    HW234152   2.315   0.780   5.943  1.3989 -1.1165  0.6439
 7565SOL     OW34153   2.589   3.303  15.425 -0.0824  0.2416 -0.2521
 7565SOL    HW134154   2.497   3.329  15.428 -0.4593 -1.0515 -0.6660
 7565SOL    HW234155   2.590   3.246  15.348  0.5601 -0.2825  0.1470
 7566SOL     OW34156   0.236   1.241   4.131  0.0569 -0.0235  0.2746
 7566SOL    HW134157   0.168   1.174   4.144 -0.9907  0.8682 -0.5467
 7566SOL    HW234158   0.213   1.268   4.042  2.1288 -3.5496 -1.3445
 7567SOL     OW34159   2.741   3.790   7.717 -0.1761  0.0893 -0.5010
 7567SOL    HW134160   2.748   3.713   7.660 -1.7326 -0.0854 -0.4633
 7567SOL    HW234161   2.768   3.749   7.799  1.5770  1.1447 -0.5551
 7568SOL     OW34162   2.523   4.612   7.226  0.1077  0.5972  0.2752
 7568SOL    HW134163   2.432   4.617   7.255  0.4903  0.7145  1.4680
 7568SOL    HW234164   2.515   4.572   7.139  3.2322 -0.1559  0.3063
 7569SOL     OW34165   3.258   0.798  17.132 -0.4828  0.4357  0.5098
 7569SOL    HW134166   3.208   0.717  17.124  2.7427 -1.4717 -0.5534
 7569SOL    HW234167   3.212   0.859  17.076 -1.9873 -0.8453  0.3568
 7570SOL     OW34168   0.060   0.474   7.080  0.1454 -0.1901  0.0461
 7570SOL    HW134169   0.092   0.388   7.107  0.5166  0.7588  2.6213
 7570SOL    HW234170   4.713   0.482   7.144 -0.1256 -0.9359 -0.1601
 7571SOL     OW34171   2.330   0.909   8.581 -0.1038  0.3190  0.4021
 7571SOL    HW134172   2.341   0.819   8.612  1.1716 -0.4779 -2.3431
 7571SOL    HW234173   2.276   0.940   8.654 -0.0246  0.2236  0.5009
 7572SOL     OW34174   0.114   0.624  16.727 -0.1206  0.4833 -0.4683
 7572SOL    HW134175   0.143   0.694  16.785  0.5782 -0.8855  0.8572
 7572SOL    HW234176   0.020   0.628  16.746 -0.3796  0.4818 -1.7231
 7573SOL     OW34177   2.818   3.170   8.260 -0.4318 -0.2329  0.3839
 7573SOL    HW134178   2.898   3.216   8.235 -0.9551  0.4957  0.0620
 7573SOL    HW234179   2.842   3.127   8.342 -0.3512 -0.1889  0.3835
 7574SOL     OW34180   2.708   0.052   0.823 -0.0000  0.7296  0.4797
 7574SOL    HW134181   2.795   0.082   0.795 -0.3456  1.3458  0.0862
 7574SOL    HW234182   2.660   0.099   0.756 -3.0167  0.2884  2.3651
 7575SOL     OW34183   2.948   1.676   8.943  0.4530  0.2509  0.2595
 7575SOL    HW134184   2.876   1.705   8.887  1.0762  0.4566 -0.4487
 7575SOL    HW234185   2.911   1.600   8.987 -2.9301  2.0822  0.5158
 7576SOL     OW34186   2.884   3.791   8.338 -0.3454 -0.1275  0.1776
 7576SOL    HW134187   2.904   3.880   8.369 -1.5057 -0.8458  3.0042
 7576SOL    HW234188   2.804   3.759   8.380  0.4416  1.4383  2.8161
 7577SOL     OW34189   1.604   1.495   2.844  0.0368 -0.0669  0.4412
 7577SOL    HW134190   1.667   1.567   2.841  1.6830 -1.5806 -1.0609
 7577SOL    HW234191   1.526   1.538   2.807 -0.1290 -0.8603 -0.1164
 7578SOL     OW34192   1.845   0.196   2.418  0.5485 -0.3164 -0.5690
 7578SOL    HW134193   1.915   0.253   2.384  0.2682  0.8275  0.7193
 7578SOL    HW234194   1.782   0.191   2.346 -0.1067 -0.8815  0.0497
 7579SOL     OW34195   2.343   1.490   3.208 -0.1998 -0.2844  0.1159
 7579SOL    HW134196   2.325   1.474   3.301 -1.2030  3.2270  0.5018
 7579SOL    HW234197   2.300   1.573   3.186 -1.6119 -0.7656  1.0041
 7580SOL     OW34198   2.658   0.800   3.321  0.0987  0.2973  0.2457
 7580SOL    HW134199   2.610   0.753   3.253  1.9640  0.4152 -1.1454
 7580SOL    HW234200   2.726   0.829   3.261  1.2194  0.3905  1.5530
 7581SOL     OW34201   4.585   4.591   3.152  0.4804  0.1819  0.0941
 7581SOL    HW134202   4.612   4.608   3.061 -0.0709  3.4949  0.5506
 7581SOL    HW234203   4.492   4.574   3.139  0.6711 -0.4854 -0.4099
 7582SOL     OW34204   0.887   1.932  10.256  0.2458 -0.3880 -0.0743
 7582SOL    HW134205   0.872   1.838  10.268  0.3989 -0.4577 -0.4479
 7582SOL    HW234206   0.826   1.954  10.185  0.6274 -0.5901 -0.4666
 7583SOL     OW34207   3.893   4.450   6.938  0.3811 -0.1567  0.1197
 7583SOL    HW134208   3.897   4.536   6.981  2.6636  0.5042 -1.4103
 7583SOL    HW234209   3.813   4.456   6.887 -0.7394  1.8309  2.0840
 7584SOL     OW34210   3.819   1.415   7.364 -0.0700 -0.3929  0.2657
 7584SOL    HW134211   3.882   1.459   7.420 -0.0622 -0.5316  0.3666
 7584SOL    HW234212   3.839   1.326   7.392  2.4130  0.0631 -0.0881
 7585SOL     OW34213   4.665   3.260   6.596  0.6485 -0.4059  0.0358
 7585SOL    HW134214   4.712   3.342   6.588  0.8818 -0.5988 -0.5594
 7585SOL    HW234215   4.683   3.241   6.688  2.9435  0.6289 -0.2121
 7586SOL     OW34216   4.552   2.854   4.711 -0.1005 -0.5049 -0.5880
 7586SOL    HW134217   4.575   2.807   4.792  0.1169 -1.5118 -1.2346
 7586SOL    HW234218   4.635   2.899   4.696 -0.5033  1.4525  3.0093
 7587SOL     OW34219   3.195   1.366  13.833 -0.2816 -0.2350  0.4918
 7587SOL    HW134220   3.116   1.379  13.887  1.1975 -0.6454  2.7638
 7587SOL    HW234221   3.205   1.443  13.778  1.6289 -0.2638  0.7916
 7588SOL     OW34222   1.668   0.769   2.106  0.1771 -0.0854 -0.2947
 7588SOL    HW134223   1.697   0.703   2.043  0.4225 -0.1532 -0.1100
 7588SOL    HW234224   1.690   0.727   2.189  0.5700  1.8891  0.5981
 7589SOL     OW34225   0.162   0.064  17.284 -0.0887  0.3105  0.6965
 7589SOL    HW134226   0.185   0.152  17.313 -0.2919  0.7832 -0.5962
 7589SOL    HW234227   0.168   0.013  17.365  0.2470  0.1536  0.5753
 7590SOL     OW34228   1.589   4.020   8.277 -0.1985 -0.0068 -0.6061
 7590SOL    HW134229   1.501   3.983   8.285 -0.3375 -0.1736 -3.0358
 7590SOL    HW234230   1.571   4.077   8.202  1.9888 -0.8742 -1.7725
 7591SOL     OW34231   1.114   3.947   2.682 -0.6892 -0.1819 -0.4354
 7591SOL    HW134232   1.039   3.961   2.624 -0.6254 -0.7803 -0.6616
 7591SOL    HW234233   1.140   4.037   2.701  2.0349 -0.4112 -3.1011
 7592SOL     OW34234   4.210   1.692   8.922 -0.0378 -0.5890  0.2500
 7592SOL    HW134235   4.248   1.744   8.993 -2.6985 -1.1287  2.0422
 7592SOL    HW234236   4.126   1.665   8.960 -0.7245  0.4725 -0.5369
 7593SOL     OW34237   0.656   3.806   4.040  0.0028 -0.2593  0.6605
 7593SOL    HW134238   0.594   3.858   4.090  0.0153 -0.7646  1.1936
 7593SOL    HW234239   0.606   3.726   4.056  1.3178 -0.3871  4.1047
 7594SOL     OW34240   4.117   1.743  16.108  0.1706  0.0214 -0.4878
 7594SOL    HW134241   4.167   1.682  16.052  0.8748 -1.2318  1.5056
 7594SOL    HW234242   4.029   1.724  16.077  0.4101 -0.0982 -1.1105
 7595SOL     OW34243   2.588   1.931  13.172  0.7090 -0.1474  0.8925
 7595SOL    HW134244   2.537   1.857  13.206  1.1978 -1.6889 -1.7559
 7595SOL    HW234245   2.679   1.908  13.193  0.7053 -0.0934  0.9680
 7596SOL     OW34246   0.020   4.006   5.737 -0.2799  0.0184 -0.2305
 7596SOL    HW134247   0.083   3.935   5.727 -2.0617 -1.4056 -1.2996
 7596SOL    HW234248   0.035   4.049   5.653 -1.7616  2.1554  0.6113
 7597SOL     OW34249   4.130   4.496   3.361  0.4450  0.5297  0.3176
 7597SOL    HW134250   4.219   4.524   3.383  0.5528 -0.1905  0.7702
 7597SOL    HW234251   4.089   4.499   3.448  2.1431  1.0215  1.1062
 7598SOL     OW34252   4.356   0.942   9.336 -0.5171  0.8391 -0.2119
 7598SOL    HW134253   4.348   1.017   9.394 -1.9067  0.5336 -0.0198
 7598SOL    HW234254   4.433   0.898   9.373 -1.6785 -1.6636 -0.8016
 7599SOL     OW34255   3.814   1.843   3.028  0.8486 -0.7527  0.3133
 7599SOL    HW134256   3.751   1.788   3.074 -0.7259  0.5398 -0.3093
 7599SOL    HW234257   3.884   1.851   3.092  0.1907 -0.1738  0.9541
 7600SOL     OW34258   0.123   3.004   0.518  0.0893  0.0361  1.0934
 7600SOL    HW134259   0.062   3.062   0.565 -2.5811 -1.3387 -0.6477
 7600SOL    HW234260   0.149   2.944   0.587 -0.7232 -0.3584  1.0610
 7601SOL     OW34261   2.485   3.393   2.592 -0.0738 -0.6112  0.5865
 7601SOL    HW134262   2.479   3.380   2.687  0.3981 -0.2509  0.6679
 7601SOL    HW234263   2.393   3.420   2.586 -0.0154 -0.1077  1.8623
 7602SOL     OW34264   0.566   0.771   2.617  0.3417 -0.0284 -0.1022
 7602SOL    HW134265   0.625   0.771   2.693  0.6137  0.2143 -0.3100
 7602SOL    HW234266   0.576   0.679   2.593  0.3201  0.0782 -0.5096
 7603SOL     OW34267   3.739   3.899   6.314  0.5919 -0.2064 -0.0579
 7603SOL    HW134268   3.793   3.957   6.260  0.6055  0.5419  0.7557
 7603SOL    HW234269   3.779   3.813   6.303 -0.5698 -0.4475 -2.2448
 7604SOL     OW34270   0.094   4.175   2.309  0.7081 -0.6427  0.1238
 7604SOL    HW134271   0.155   4.137   2.246  2.6823 -1.9541  2.8034
 7604SOL    HW234272   0.124   4.265   2.307  0.0393 -0.5059 -3.5009
 7605SOL     OW34273   0.379   1.343   8.048 -0.3239 -0.5135 -0.2544
 7605SOL    HW134274   0.359   1.259   8.007 -0.8978 -0.9619  0.9553
 7605SOL    HW234275   0.326   1.336   8.127  0.7370 -1.7789  0.3521
 7606SOL     OW34276   0.773   3.740   3.801 -0.3314  0.2074  0.3067
 7606SOL    HW134277   0.812   3.826   3.785  1.6674 -0.6930  0.3943
 7606SOL    HW234278   0.733   3.762   3.885 -0.3355  1.0401  0.0839
 7607SOL     OW34279   0.117   1.893  16.883  0.5494  0.7717  0.6482
 7607SOL    HW134280   0.040   1.839  16.897  1.1454  0.7764  3.9301
 7607SOL    HW234281   0.176   1.846  16.942  0.3300  0.9764  1.0328
 7608SOL     OW34282   2.532   2.300   8.073  0.0304 -0.4518  0.2347
 7608SOL    HW134283   2.517   2.219   8.024 -2.2934 -1.0545  1.9549
 7608SOL    HW234284   2.510   2.369   8.009 -0.0839  0.0502  0.8195
 7609SOL     OW34285   0.603   2.926  17.300 -0.2392  0.6061  0.1532
 7609SOL    HW134286   0.681   2.946  17.352  2.0237 -3.8978 -1.4603
 7609SOL    HW234287   0.583   2.836  17.327  1.7592 -0.2692 -1.2488
 7610SOL     OW34288   0.451   2.345   7.819  0.0027 -0.1207  0.5740
 7610SOL    HW134289   0.502   2.294   7.882 -0.4119 -0.0104  0.9984
 7610SOL    HW234290   0.512   2.407   7.781 -0.6972 -1.0528 -2.0662
 7611SOL     OW34291   3.311   2.351  10.442 -0.7184 -0.2221  0.1628
 7611SOL    HW134292   3.302   2.277  10.502  0.8823  0.3667  1.1127
 7611SOL    HW234293   3.350   2.317  10.361 -0.3790  1.1792 -0.2479
 7612SOL     OW34294   2.045   2.627  13.405 -0.0423 -0.8391  0.2657
 7612SOL    HW134295   2.034   2.706  13.459  0.9771 -1.2844  1.1210
 7612SOL    HW234296   2.100   2.652  13.330 -1.7487  1.5007 -0.2159
 7613SOL     OW34297   4.395   3.245   7.398 -0.0543  0.4432 -0.0346
 7613SOL    HW134298   4.472   3.244   7.456 -0.5721 -0.2606  0.6466
 7613SOL    HW234299   4.339   3.180   7.440 -0.1379  0.4022 -0.2125
 7614SOL     OW34300   2.504   3.755   2.089 -0.1562  0.1355  0.0740
 7614SOL    HW134301   2.482   3.680   2.034  1.0831  0.9233 -1.4945
 7614SOL    HW234302   2.529   3.818   2.022 -0.1023  1.2925  1.1886
 7615SOL     OW34303   4.417   2.101  11.179  0.1049  0.7971  0.4355
 7615SOL    HW134304   4.512   2.096  11.165  0.3984  2.9375  1.7198
 7615SOL    HW234305   4.404   2.057  11.263 -2.5268  0.8704  0.0687
 7616SOL     OW34306   3.747   0.643   4.781  0.5633  0.2359 -0.0106
 7616SOL    HW134307   3.682   0.623   4.848  1.4675 -2.6530  0.0032
 7616SOL    HW234308   3.800   0.564   4.790 -1.3998 -0.9664  1.0899
 7617SOL     OW34309   2.594   1.719   1.105  0.7089  0.4374  0.2078
 7617SOL    HW134310   2.500   1.706   1.098  0.0851  3.3153  3.1412
 7617SOL    HW234311   2.624   1.663   1.033  0.1215 -0.6583  0.8169
 7618SOL     OW34312   0.480   0.613   6.999  0.3396  0.1041  0.7994
 7618SOL    HW134313   0.517   0.571   7.077 -0.4001 -2.5958 -0.3016
 7618SOL    HW234314   0.392   0.634   7.031  0.4765  1.1254  0.4969
 7619SOL     OW34315   4.667   1.937   8.122 -0.2991  0.3433  0.8179
 7619SOL    HW134316   4.653   1.975   8.035  0.5366  0.2882  0.6675
 7619SOL    HW234317   0.036   1.961   8.128 -0.4254  0.8588  0.7372
 7620SOL     OW34318   0.565   4.019   9.304  0.5015  0.0858  0.5530
 7620SOL    HW134319   0.603   3.979   9.382 -2.7253 -0.0543  2.0611
 7620SOL    HW234320   0.632   3.996   9.240  2.1777  2.7801  1.3403
 7621SOL     OW34321   3.587   0.695  12.109 -0.2487 -0.9160 -0.0146
 7621SOL    HW134322   3.665   0.751  12.114 -2.0066  1.4776  0.5836
 7621SOL    HW234323   3.531   0.761  12.067  0.0825  0.0106  0.9898
 7622SOL     OW34324   4.226   1.638  10.509  0.5473 -0.4802  0.0738
 7622SOL    HW134325   4.309   1.661  10.467  0.8178  0.1390  0.9481
 7622SOL    HW234326   4.249   1.627  10.602 -1.4423 -0.8875  0.5031
 7623SOL     OW34327   1.607   0.243   4.859 -0.3796 -0.6947 -0.5738
 7623SOL    HW134328   1.553   0.245   4.938  2.2804  0.0162  1.2284
 7623SOL    HW234329   1.580   0.328   4.823 -0.6082 -0.9475 -0.9904
 7624SOL     OW34330   2.508   3.841  17.515  0.1278 -0.5199 -0.0285
 7624SOL    HW134331   2.547   3.925  17.540 -1.0333 -0.5904  1.9914
 7624SOL    HW234332   2.419   3.872  17.501  0.6703  0.6036 -1.1121
 7625SOL     OW34333   4.174   3.549   2.442 -0.3238 -0.3015  0.0823
 7625SOL    HW134334   4.198   3.466   2.400 -1.8142 -1.1456  0.8806
 7625SOL    HW234335   4.096   3.584   2.398  0.2136  0.5321 -0.2073
 7626SOL     OW34336   1.804   2.955   7.345 -0.3653  0.3406 -0.1087
 7626SOL    HW134337   1.857   3.031   7.369 -0.5927  1.1252 -2.0363
 7626SOL    HW234338   1.879   2.896   7.353 -0.1630  0.8026  1.3068
 7627SOL     OW34339   2.540   1.580  14.651  0.6511 -0.3678 -0.0534
 7627SOL    HW134340   2.500   1.565  14.565  1.7392 -2.2143 -0.2264
 7627SOL    HW234341   2.529   1.490  14.683 -0.5474 -0.8848 -1.8691
 7628SOL     OW34342   1.610   1.820   8.142  0.2829 -0.3681  0.5336
 7628SOL    HW134343   1.664   1.839   8.065 -1.7147 -0.9614 -1.0023
 7628SOL    HW234344   1.619   1.725   8.132  1.2659  0.0264 -2.1812
 7629SOL     OW34345   1.416   3.258   2.999 -0.5146  0.0243  0.5510
 7629SOL    HW134346   1.422   3.353   3.011 -2.5310  0.4698 -1.9685
 7629SOL    HW234347   1.401   3.247   2.905  2.7341  0.8018 -0.0548
 7630SOL     OW34348   0.737   3.056   7.157 -0.0082 -0.1824 -0.4309
 7630SOL    HW134349   0.666   3.120   7.150 -0.5998 -0.7225  0.5946
 7630SOL    HW234350   0.768   3.041   7.068 -0.7439  1.1879 -0.9124
 7631SOL     OW34351   2.115   0.675  11.306  0.2024 -0.2296  0.9200
 7631SOL    HW134352   2.155   0.597  11.267  0.2752  0.2167  0.1039
 7631SOL    HW234353   2.178   0.744  11.286  1.6483 -1.9745 -0.5837
 7632SOL     OW34354   0.703   1.460   8.390  0.6212 -0.1409 -0.3259
 7632SOL    HW134355   0.684   1.496   8.304  0.6220 -1.0635 -0.7070
 7632SOL    HW234356   0.799   1.451   8.386  0.4175 -1.7829 -1.3631
 7633SOL     OW34357   4.152   3.065   7.947 -0.2373  0.3856  0.0628
 7633SOL    HW134358   4.216   3.121   7.990  0.2833  0.7446 -1.1673
 7633SOL    HW234359   4.199   3.024   7.875 -1.2874 -1.1058  0.2316
 7634SOL     OW34360   4.012   2.607   0.379  0.4515  0.4466 -0.1293
 7634SOL    HW134361   4.003   2.512   0.382  0.7191  0.3627 -2.1730
 7634SOL    HW234362   4.104   2.608   0.406  0.6807  0.6827 -0.9203
 7635SOL     OW34363   0.543   2.775   5.632  0.4712  0.1511  0.0146
 7635SOL    HW134364   0.638   2.763   5.640  0.5884  0.4941 -0.8268
 7635SOL    HW234365   0.525   2.806   5.721 -0.8034  1.2045 -0.6195
 7636SOL     OW34366   4.677   1.602  11.276  0.8537  0.3418  0.3137
 7636SOL    HW134367   4.639   1.515  11.263 -2.1795  1.1912  3.5073
 7636SOL    HW234368   4.598   1.654  11.282  0.3180 -0.4306 -0.0341
 7637SOL     OW34369   0.649   3.449  16.201 -0.5537 -0.1746  0.7013
 7637SOL    HW134370   0.588   3.522  16.205  0.8395  1.0330 -0.1400
 7637SOL    HW234371   0.729   3.501  16.197 -1.5295  1.2048 -0.9444
 7638SOL     OW34372   0.166   2.392   5.581  0.0516  0.4367  0.1083
 7638SOL    HW134373   0.242   2.429   5.626  0.4625 -0.6207  0.3090
 7638SOL    HW234374   0.119   2.355   5.656 -2.8104  0.4310 -1.7152
 7639SOL     OW34375   3.180   2.237  11.870  0.8917  0.1610 -0.0787
 7639SOL    HW134376   3.205   2.174  11.938  3.1277  1.5461  0.3696
 7639SOL    HW234377   3.266   2.261  11.836  0.5415 -0.6326 -1.5330
 7640SOL     OW34378   1.124   1.149   5.066  0.5857  0.1002  0.0362
 7640SOL    HW134379   1.108   1.087   4.996 -0.1294 -0.8027  0.9927
 7640SOL    HW234380   1.037   1.189   5.062  0.2988 -0.5879 -0.4528
 7641SOL     OW34381   3.727   2.661   0.942  0.2221 -0.3035  0.0402
 7641SOL    HW134382   3.790   2.686   1.009  0.0780  0.2726 -0.0438
 7641SOL    HW234383   3.701   2.744   0.903 -0.5622 -0.3008  0.5907
 7642SOL     OW34384   2.546   2.989   0.572 -0.2536  0.2411 -0.2132
 7642SOL    HW134385   2.513   2.904   0.540  2.0585 -0.4989 -0.6275
 7642SOL    HW234386   2.607   3.028   0.510 -1.6891  2.1586 -0.4127
 7643SOL     OW34387   0.214   3.568  15.906  0.1613 -0.3211 -0.3194
 7643SOL    HW134388   0.287   3.508  15.922  1.8014  1.7146 -0.2697
 7643SOL    HW234389   0.174   3.593  15.989  1.8261  1.8863 -0.1990
 7644SOL     OW34390   1.506   0.569  14.669 -0.0767 -0.3306 -0.1891
 7644SOL    HW134391   1.530   0.486  14.710 -0.6037  0.0664  0.9209
 7644SOL    HW234392   1.419   0.588  14.703  0.6817 -0.9049  2.0876
 7645SOL     OW34393   4.597   0.272   4.332 -0.1100  0.2265 -0.7799
 7645SOL    HW134394   4.508   0.303   4.314 -0.4336 -0.5720 -0.5719
 7645SOL    HW234395   4.624   0.341   4.391  0.2856  0.1777 -0.9052
 7646SOL     OW34396   4.600   0.904   9.432  0.3296 -0.4162 -0.2372
 7646SOL    HW134397   4.586   0.910   9.527  0.5837  2.1551 -0.3606
 7646SOL    HW234398   4.689   0.939   9.428  0.8156 -1.5330  0.8216
 7647SOL     OW34399   1.904   0.546   8.644  0.3709  0.5055 -0.7280
 7647SOL    HW134400   1.812   0.573   8.653 -0.0142 -0.9486 -0.3165
 7647SOL    HW234401   1.953   0.622   8.673 -1.3239  1.5708 -0.6274
 7648SOL     OW34402   2.301   3.374  15.454  0.1194  0.4448  0.3925
 7648SOL    HW134403   2.302   3.407  15.544  0.7038  0.5342  0.3554
 7648SOL    HW234404   2.249   3.294  15.453  0.9636 -0.0796 -1.6749
 7649SOL     OW34405   2.547   3.339   5.327  0.1938  0.4717  0.1566
 7649SOL    HW134406   2.516   3.430   5.324  1.0260  0.7533  0.1491
 7649SOL    HW234407   2.485   3.297   5.386 -0.3582  1.5556  0.3571
 7650SOL     OW34408   1.357   2.779  13.392  0.9577 -0.7799  0.2549
 7650SOL    HW134409   1.412   2.857  13.403  0.3068 -0.0909 -1.3051
 7650SOL    HW234410   1.382   2.738  13.475  2.1654  1.0746  0.8368
 7651SOL     OW34411   2.583   3.835   8.194 -0.0976  0.1515 -0.3826
 7651SOL    HW134412   2.529   3.776   8.142  0.7398  1.3156 -2.5991
 7651SOL    HW234413   2.635   3.772   8.244  0.4574  0.4060 -0.6377
 7652SOL     OW34414   4.534   2.721   6.569 -0.4247 -0.1769 -0.4684
 7652SOL    HW134415   4.482   2.686   6.496 -1.7257 -0.4538  0.5900
 7652SOL    HW234416   4.492   2.806   6.588  2.0869  0.6244  1.3792
 7653SOL     OW34417   1.374   1.233   2.102 -0.0736  0.3539  0.6129
 7653SOL    HW134418   1.350   1.304   2.162 -0.5389  1.2129 -0.5837
 7653SOL    HW234419   1.469   1.241   2.099 -0.1814  1.3803 -0.1021
 7654SOL     OW34420   0.176   4.645  17.052  0.4653  0.2941 -0.3583
 7654SOL    HW134421   0.184   4.679  17.141  0.0497  2.2013 -1.0633
 7654SOL    HW234422   0.084   4.620  17.048  0.4712 -0.0330  1.7446
 7655SOL     OW34423   2.372   0.751   4.476 -0.2309  0.4731 -0.2925
 7655SOL    HW134424   2.407   0.663   4.460 -0.8071 -0.0790  1.5382
 7655SOL    HW234425   2.401   0.793   4.395  2.5794 -0.3828  0.2837
 7656SOL     OW34426   2.852   3.643  15.565  0.3988  0.5397  0.1103
 7656SOL    HW134427   2.767   3.601  15.578  1.2702 -1.1532  0.3247
 7656SOL    HW234428   2.907   3.574  15.603 -2.5541 -0.5805  2.4393
 7657SOL     OW34429   3.942   2.814   6.954  0.5030 -0.8560  0.1019
 7657SOL    HW134430   3.958   2.908   6.950  0.4260 -0.8045  1.0749
 7657SOL    HW234431   4.004   2.782   6.889  0.0565  0.9998 -1.2548
 7658SOL     OW34432   1.141   3.397   1.070  0.6645 -0.3157 -0.1250
 7658SOL    HW134433   1.228   3.430   1.051  1.3279 -2.8763 -1.5238
 7658SOL    HW234434   1.091   3.476   1.091  2.3991  0.2848  1.7371
 7659SOL     OW34435   0.070   2.570   6.121  0.2741 -0.1178 -0.2963
 7659SOL    HW134436   0.100   2.484   6.150  2.2336  1.0693  1.1794
 7659SOL    HW234437   0.131   2.625   6.169  1.1594 -1.2737 -0.0920
 7660SOL     OW34438   2.151   4.208   4.869 -0.2598  0.2558  0.2911
 7660SOL    HW134439   2.233   4.176   4.830 -0.8506 -1.1177  0.1978
 7660SOL    HW234440   2.159   4.181   4.961 -0.8472  0.1410  0.3040
 7661SOL     OW34441   0.785   0.855   3.945 -0.1242 -0.3748  0.4080
 7661SOL    HW134442   0.845   0.901   3.886 -0.3958  0.7963  1.0439
 7661SOL    HW234443   0.838   0.838   4.023  1.2845 -1.6602 -0.8366
 7662SOL     OW34444   4.104   3.075   1.639  0.3351 -0.1739  0.0008
 7662SOL    HW134445   4.153   3.085   1.721 -0.5706 -1.4946  0.7035
 7662SOL    HW234446   4.051   2.996   1.651  1.2015 -0.9730 -1.4654
 7663SOL     OW34447   1.628   2.003  12.946  0.3335  0.9307 -0.1993
 7663SOL    HW134448   1.715   2.042  12.950  1.2523 -1.0641 -0.7178
 7663SOL    HW234449   1.612   2.021  12.853 -0.0118 -2.2361 -0.7404
 7664SOL     OW34450   1.133   2.990   0.395  0.0493 -0.3735 -0.2786
 7664SOL    HW134451   1.040   2.980   0.379 -0.1170  1.2283 -0.2495
 7664SOL    HW234452   1.130   2.995   0.490  1.7244 -1.6498 -0.1420
 7665SOL     OW34453   2.734   4.063   1.925  0.1038 -0.0449  0.2160
 7665SOL    HW134454   2.720   3.989   1.866  0.1840  2.3584 -2.8211
 7665SOL    HW234455   2.824   4.083   1.899  0.0650 -0.0144  0.1067
 7666SOL     OW34456   0.486   0.360   5.127 -0.0404 -0.5582 -0.0310
 7666SOL    HW134457   0.401   0.403   5.117  1.0754  1.8089  0.8049
 7666SOL    HW234458   0.502   0.318   5.042 -1.8733 -0.6388 -0.3421
 7667SOL     OW34459   1.829   3.031   5.331  0.9213  0.3576 -0.4171
 7667SOL    HW134460   1.803   2.948   5.371  0.0766 -0.3002 -2.3351
 7667SOL    HW234461   1.781   3.034   5.248  0.8051  0.7380 -0.3412
 7668SOL     OW34462   1.685   4.183  14.543 -0.5370  0.6101  0.2358
 7668SOL    HW134463   1.618   4.212  14.481 -0.4747 -0.3501 -0.2773
 7668SOL    HW234464   1.733   4.264  14.557  0.4452 -0.2945  2.1333
 7669SOL     OW34465   4.086   4.649   3.152  0.5153 -0.2628  0.4825
 7669SOL    HW134466   4.098   4.602   3.235 -1.9075 -0.7130  0.5641
 7669SOL    HW234467   4.167   4.619   3.109  1.0640  1.7850  0.0954
 7670SOL     OW34468   3.932   2.310  11.932 -0.1781  0.2832  0.7922
 7670SOL    HW134469   3.853   2.350  11.969 -0.1862  1.9047 -0.9846
 7670SOL    HW234470   3.977   2.290  12.014 -0.0540 -1.0446  0.4014
 7671SOL     OW34471   4.085   2.190  14.354 -0.0950 -0.0552  0.0805
 7671SOL    HW134472   4.046   2.222  14.272  2.9774 -0.9727 -1.7352
 7671SOL    HW234473   4.048   2.244  14.424  1.7426 -0.1412  1.0994
 7672SOL     OW34474   1.864   4.474   5.983  0.0032  0.0334  0.1560
 7672SOL    HW134475   1.872   4.543   6.049  2.1745  1.6559 -1.8166
 7672SOL    HW234476   1.780   4.431   5.997 -0.1516  0.2717 -0.0599
 7673SOL     OW34477   2.763   2.478   0.714  0.4365 -0.0817 -0.2048
 7673SOL    HW134478   2.762   2.565   0.675  2.9911  0.8368  1.7221
 7673SOL    HW234479   2.683   2.430   0.695 -0.9075  2.5711 -1.2691
 7674SOL     OW34480   4.709   4.670   1.725  0.2839  0.2495  0.0184
 7674SOL    HW134481   0.029   4.716   1.797 -1.2286  2.8820 -0.7666
 7674SOL    HW234482   4.707   4.580   1.760 -1.1269  0.0920 -0.4793
 7675SOL     OW34483   0.333   3.314   4.595  0.3375 -0.1571  0.0114
 7675SOL    HW134484   0.240   3.328   4.581  1.0383  3.7969 -0.6064
 7675SOL    HW234485   0.338   3.222   4.622  0.0455 -0.5274 -1.1923
 7676SOL     OW34486   2.105   0.703   6.328 -0.1607  0.2682  0.7529
 7676SOL    HW134487   2.146   0.669   6.406 -1.1083  0.5072  1.3606
 7676SOL    HW234488   2.015   0.671   6.323 -0.1760  0.7684 -2.1736
 7677SOL     OW34489   2.033   3.083   1.758 -0.9031 -0.8306  0.1690
 7677SOL    HW134490   2.026   3.178   1.745  0.5784 -0.5507  1.3583
 7677SOL    HW234491   2.067   3.054   1.674 -0.8770  3.6736 -1.3952
 7678SOL     OW34492   0.538   1.160  15.943 -0.0011  0.1257 -0.0515
 7678SOL    HW134493   0.577   1.125  16.022 -0.2690 -2.0535 -0.8716
 7678SOL    HW234494   0.498   1.241  15.976 -2.6394 -1.2145  0.0745
 7679SOL     OW34495   2.417   4.029   4.259 -0.1786 -0.3269 -0.1180
 7679SOL    HW134496   2.426   4.124   4.255 -0.1210 -0.3624 -0.8624
 7679SOL    HW234497   2.406   4.020   4.164 -0.2183 -1.2134 -0.0366
 7680SOL     OW34498   0.471   0.637   9.050  0.3174 -0.6139  0.7354
 7680SOL    HW134499   0.396   0.658   8.995  0.3045  3.0677  2.1630
 7680SOL    HW234500   0.466   0.717   9.102 -0.7424  0.3126 -0.7790
 7681SOL     OW34501   2.174   4.382   6.473  0.1467  0.0683 -0.3239
 7681SOL    HW134502   2.206   4.464   6.436 -0.1304  0.7353  0.9303
 7681SOL    HW234503   2.118   4.344   6.405 -0.2396 -2.4863  1.4056
 7682SOL     OW34504   0.324   0.569   3.177  0.1552  0.5935  0.0793
 7682SOL    HW134505   0.377   0.541   3.103 -0.5926 -2.6782  0.7695
 7682SOL    HW234506   0.386   0.564   3.250  1.6265 -0.4265 -1.2555
 7683SOL     OW34507   3.961   2.296  10.875 -0.1318  0.2708  0.2600
 7683SOL    HW134508   3.958   2.248  10.958  1.0793  0.1309  0.2205
 7683SOL    HW234509   4.039   2.256  10.837 -2.1752 -1.1434 -2.4653
 7684SOL     OW34510   0.986   4.564   3.435 -0.4760  0.4354  0.5397
 7684SOL    HW134511   0.938   4.609   3.365  0.4479  2.0257  0.9141
 7684SOL    HW234512   1.078   4.568   3.410 -0.5092  1.3158  0.5558
 7685SOL     OW34513   3.018   3.817   6.507  0.6118 -0.2085  0.5185
 7685SOL    HW134514   3.030   3.817   6.602 -0.8724 -0.8093  0.7068
 7685SOL    HW234515   2.944   3.876   6.493 -1.0049 -2.6701 -1.2159
 7686SOL     OW34516   3.645   3.298  13.295  0.1596  0.4537 -0.1301
 7686SOL    HW134517   3.634   3.342  13.211 -0.6180  1.5960  0.5724
 7686SOL    HW234518   3.678   3.372  13.345 -0.7272  0.9334 -0.2576
 7687SOL     OW34519   3.408   4.094  15.584  0.7913  0.1919 -0.0989
 7687SOL    HW134520   3.346   4.101  15.511 -0.2469 -1.3060  0.6291
 7687SOL    HW234521   3.393   4.006  15.619 -0.6145 -0.0621 -1.3232
 7688SOL     OW34522   1.562   2.957  13.458 -0.3129  0.3192 -0.3068
 7688SOL    HW134523   1.630   2.968  13.524 -0.4700 -1.2448  0.0971
 7688SOL    HW234524   1.614   2.954  13.377  0.9292 -0.5173  0.5189
 7689SOL     OW34525   0.861   4.311   2.753 -0.6086 -0.3298  0.2257
 7689SOL    HW134526   0.851   4.216   2.765 -2.2736  0.3209  3.9023
 7689SOL    HW234527   0.902   4.341   2.834 -0.1826 -2.0999  0.6827
 7690SOL     OW34528   2.542   1.089   3.328 -0.1028 -0.6740  0.3817
 7690SOL    HW134529   2.563   0.999   3.304 -0.1139 -0.5587 -0.0556
 7690SOL    HW234530   2.448   1.086   3.347  0.0898 -2.4376  1.1214
 7691SOL     OW34531   1.692   4.579   7.002 -0.0363 -0.2667  0.3501
 7691SOL    HW134532   1.713   4.497   6.958 -0.9607 -1.5157  2.2020
 7691SOL    HW234533   1.710   4.638   6.929  2.4266 -0.7662  0.5506
 7692SOL     OW34534   0.985   0.925   7.640 -0.2299 -0.1391 -0.6923
 7692SOL    HW134535   1.079   0.927   7.625  0.3068  1.3999  2.7641
 7692SOL    HW234536   0.952   1.007   7.676 -0.0624 -0.9374  1.3071
 7693SOL     OW34537   0.498   2.193   7.178  0.1253  0.5455  0.3701
 7693SOL    HW134538   0.512   2.268   7.235  0.5507  0.4872  0.3442
 7693SOL    HW234539   0.580   2.144   7.183 -0.7938 -0.9688  0.8475
 7694SOL     OW34540   3.756   2.491  12.035  0.0604 -0.0552  0.2165
 7694SOL    HW134541   3.678   2.520  11.986 -0.9580  0.0796  1.9050
 7694SOL    HW234542   3.714   2.472  12.119 -1.6825  1.3718 -0.3245
 7695SOL     OW34543   2.786   2.610   7.016  0.1982  0.5747 -0.4503
 7695SOL    HW134544   2.726   2.667   6.968  0.1139 -0.0565 -1.0960
 7695SOL    HW234545   2.864   2.608   6.962  0.1667  0.9586 -0.5115
 7696SOL     OW34546   2.392   4.442   6.101 -0.3124 -0.4066  0.0270
 7696SOL    HW134547   2.385   4.450   6.196  0.7889 -3.9107  0.4168
 7696SOL    HW234548   2.363   4.351   6.094  1.4354 -0.8654 -1.3801
 7697SOL     OW34549   4.452   2.029   2.207  0.2340  0.7465 -0.0094
 7697SOL    HW134550   4.422   2.037   2.298 -0.0563 -0.8312  0.0213
 7697SOL    HW234551   4.521   1.964   2.217  1.7685  1.8506 -3.5971
 7698SOL     OW34552   1.151   0.272   4.242 -0.6558  0.9808  0.2985
 7698SOL    HW134553   1.153   0.249   4.150  0.8456  1.2007  0.2890
 7698SOL    HW234554   1.225   0.233   4.287 -1.2336 -2.5982 -1.9225
 7699SOL     OW34555   4.494   0.017   5.725 -0.2131 -0.0186 -0.0003
 7699SOL    HW134556   4.419   0.048   5.776  0.6942  2.2335 -0.0319
 7699SOL    HW234557   4.477   0.074   5.651  0.4247 -0.5384 -0.5528
 7700SOL     OW34558   0.203   0.916   5.202 -0.0955  0.2118 -0.1671
 7700SOL    HW134559   0.210   0.941   5.294 -4.0457 -0.2878  0.2663
 7700SOL    HW234560   0.113   0.936   5.179  0.0718  1.8663  0.5792
 7701SOL     OW34561   3.931   4.485   6.337 -0.0112 -0.3629  0.3249
 7701SOL    HW134562   3.907   4.546   6.268  1.2936  1.0837  1.1402
 7701SOL    HW234563   4.027   4.484   6.337 -0.0201 -0.1714 -1.9306
 7702SOL     OW34564   1.556   4.280   4.911  0.0727 -0.2513 -0.1584
 7702SOL    HW134565   1.461   4.294   4.906  0.1939  0.7033  0.1814
 7702SOL    HW234566   1.562   4.272   5.007 -1.1342  1.6036  0.0950
 7703SOL     OW34567   1.075   2.950   8.330  0.6273 -0.0983 -0.2701
 7703SOL    HW134568   1.139   2.919   8.265  0.5475  1.1648 -0.9608
 7703SOL    HW234569   1.066   2.876   8.390  1.4732  1.3230  1.6095
 7704SOL     OW34570   0.336   3.253   6.924  0.1134  0.5959 -0.4996
 7704SOL    HW134571   0.416   3.223   6.882  0.8880 -1.0567  2.1139
 7704SOL    HW234572   0.350   3.225   7.015 -0.8033  0.0690 -0.5139
 7705SOL     OW34573   2.145   2.554   4.728  0.2203  0.2551  0.3355
 7705SOL    HW134574   2.081   2.495   4.768  0.6946 -0.9668 -0.6986
 7705SOL    HW234575   2.216   2.495   4.703 -0.5283 -1.1066  1.3957
 7706SOL     OW34576   4.565   3.516   2.505  0.1026  0.9078 -0.2584
 7706SOL    HW134577   4.634   3.450   2.509 -0.0416  0.9332  3.3564
 7706SOL    HW234578   4.582   3.554   2.419  0.2879 -0.7809 -0.9783
 7707SOL     OW34579   4.592   4.010   7.798  0.5354 -0.1539  0.0609
 7707SOL    HW134580   4.661   3.944   7.802  0.2553 -0.4948 -0.6844
 7707SOL    HW234581   4.587   4.034   7.890 -0.0030 -3.2962  0.8539
 7708SOL     OW34582   1.478   1.835   2.595 -0.9364  0.1904  0.1292
 7708SOL    HW134583   1.418   1.892   2.642 -0.7645 -0.0506  0.6396
 7708SOL    HW234584   1.431   1.755   2.620 -1.2475  0.3533  0.0602
 7709SOL     OW34585   4.259   4.102   4.447 -0.2308 -0.4607  0.1425
 7709SOL    HW134586   4.266   4.139   4.535  0.7125 -0.3560  0.0159
 7709SOL    HW234587   4.351   4.091   4.425  0.1532 -1.2145  2.1567
 7710SOL     OW34588   3.444   3.409   1.106  0.6884  0.3700 -0.1651
 7710SOL    HW134589   3.518   3.363   1.145 -0.1719  0.2998  1.3951
 7710SOL    HW234590   3.379   3.413   1.177  0.5000  3.3273 -0.4698
 7711SOL     OW34591   2.659   4.634   2.772  0.7195 -0.2825  0.3782
 7711SOL    HW134592   2.627   4.546   2.794 -0.9306  0.5127  1.1712
 7711SOL    HW234593   2.747   4.635   2.809  0.5566 -0.9689  0.7988
 7712SOL     OW34594   0.099   1.023   7.237 -0.0867  0.2714 -0.6044
 7712SOL    HW134595   0.113   0.983   7.151  4.1014  2.5891 -1.0350
 7712SOL    HW234596   0.187   1.010   7.272  0.8664 -0.8378 -3.4654
 7713SOL     OW34597   1.921   0.243   7.195  0.5729 -0.3944  0.2175
 7713SOL    HW134598   1.949   0.294   7.119 -0.1859 -1.8428 -1.0342
 7713SOL    HW234599   2.006   0.204   7.216  1.8263  0.6926 -2.8481
 7714SOL     OW34600   2.348   3.238   6.720 -0.7164  0.1005  0.1728
 7714SOL    HW134601   2.279   3.196   6.772  0.3288 -0.3271  1.2218
 7714SOL    HW234602   2.422   3.180   6.742  1.2167  2.1803 -0.8758
 7715SOL     OW34603   3.953   3.407   5.383  0.6210  0.0657  0.3382
 7715SOL    HW134604   3.908   3.482   5.346  1.3755  0.8609  1.0425
 7715SOL    HW234605   3.934   3.349   5.309  0.4880  0.1978  0.2701
 7716SOL     OW34606   0.405   4.064  10.423 -0.5758 -0.0941  0.1807
 7716SOL    HW134607   0.378   3.980  10.387 -1.4560  0.4918 -0.5156
 7716SOL    HW234608   0.374   4.052  10.513  2.1861 -1.2042  1.0092
 7717SOL     OW34609   1.163   3.957   7.343 -1.0173  1.1786 -0.4798
 7717SOL    HW134610   1.129   3.888   7.286 -3.3048  0.4090  1.7896
 7717SOL    HW234611   1.252   3.936   7.315 -1.4828 -3.0564  1.1532
 7718SOL     OW34612   0.087   1.278   4.983  0.6987  0.9025  0.1326
 7718SOL    HW134613   0.026   1.308   4.916  1.1790 -1.8464 -1.5399
 7718SOL    HW234614   0.087   1.182   4.987  2.6681  0.8744 -0.5209
 7719SOL     OW34615   2.771   0.101   7.278 -0.4680 -0.0866  0.0488
 7719SOL    HW134616   2.692   0.054   7.249 -0.8345 -0.0166  0.9462
 7719SOL    HW234617   2.784   0.172   7.216 -0.5766  1.6713  2.0469
 7720SOL     OW34618   0.297   3.436   0.557  0.2789 -0.1142  0.4880
 7720SOL    HW134619   0.241   3.397   0.624  1.2213 -1.5246  0.4381
 7720SOL    HW234620   0.379   3.453   0.604  1.1689 -1.8498 -0.4466
 7721SOL     OW34621   1.734   2.869   6.131  0.6233 -0.5112  0.3659
 7721SOL    HW134622   1.720   2.960   6.107 -1.3598 -0.9385 -0.1054
 7721SOL    HW234623   1.644   2.838   6.145  0.9887 -1.5690  0.3668
 7722SOL     OW34624   1.128   4.131   0.939  0.3867  0.0130  1.0232
 7722SOL    HW134625   1.037   4.150   0.961 -0.6225 -0.7401 -2.5654
 7722SOL    HW234626   1.155   4.205   0.884 -0.3822 -1.3066 -1.1085
 7723SOL     OW34627   0.113   1.579   4.813  1.2474 -0.2984  0.0596
 7723SOL    HW134628   0.055   1.553   4.742 -0.5934  0.3030  1.3343
 7723SOL    HW234629   0.113   1.674   4.808  1.7394 -0.2706  0.5362
 7724SOL     OW34630   1.601   1.582   7.208  0.2372 -0.0447 -0.0532
 7724SOL    HW134631   1.509   1.554   7.203  0.8649 -1.7412 -2.2425
 7724SOL    HW234632   1.638   1.502   7.169 -1.5286 -0.3351 -1.1461
 7725SOL     OW34633   4.602   4.696  12.095 -0.0966  0.3547 -0.4359
 7725SOL    HW134634   4.570   4.606  12.098 -0.2092  0.3587 -1.6528
 7725SOL    HW234635   4.627   4.712  12.186 -0.7493 -0.6404 -0.0798
 7726SOL     OW34636   1.652   3.098   2.119 -0.2142 -0.2876 -0.5994
 7726SOL    HW134637   1.677   3.015   2.158  0.7300  0.5920  0.6624
 7726SOL    HW234638   1.700   3.090   2.036  1.5397 -0.4417  0.4404
 7727SOL     OW34639   0.449   4.001   8.966  0.0285 -0.4736 -0.2348
 7727SOL    HW134640   0.531   3.974   8.925 -0.7873 -1.5899 -1.1227
 7727SOL    HW234641   0.438   3.932   9.032  0.6106  1.4849  1.9119
 7728SOL     OW34642   1.920   1.319   2.001 -0.2250 -0.4653  0.1154
 7728SOL    HW134643   1.939   1.332   2.094  0.2941 -0.8066  0.0555
 7728SOL    HW234644   1.938   1.407   1.967  1.9860 -0.7762  0.4591
 7729SOL     OW34645   0.201   4.637   9.074 -0.1174 -0.7411 -0.6280
 7729SOL    HW134646   0.128   4.689   9.041  0.3123 -0.2581 -0.8063
 7729SOL    HW234647   0.234   4.682   9.152 -0.7144 -2.2508  0.5188
 7730SOL     OW34648   3.839   1.741   2.530  0.2923 -0.0893 -0.5548
 7730SOL    HW134649   3.861   1.653   2.561 -1.0681 -0.4637 -0.6542
 7730SOL    HW234650   3.787   1.767   2.605 -0.1916  1.1880 -1.3305
 7731SOL     OW34651   2.894   0.031   3.033 -0.4188 -0.3936  0.1311
 7731SOL    HW134652   2.856   4.686   3.088  0.2721 -2.0613 -1.4671
 7731SOL    HW234653   2.944   4.701   2.971  0.4926  1.6466 -0.8731
 7732SOL     OW34654   1.218   3.699  16.024 -0.6208  0.1284  0.0618
 7732SOL    HW134655   1.159   3.768  16.054 -1.5659 -0.2245 -0.9726
 7732SOL    HW234656   1.247   3.725  15.937  1.4817  1.2800  1.1077
 7733SOL     OW34657   2.923   1.292   8.326 -0.1518  0.0835  0.1773
 7733SOL    HW134658   2.834   1.260   8.343  0.6701 -2.9374 -1.2380
 7733SOL    HW234659   2.944   1.237   8.251  2.2001  0.0418  0.8854
 7734SOL     OW34660   4.406   0.830  10.191  0.0614 -0.5102 -0.2646
 7734SOL    HW134661   4.425   0.888  10.265  1.7375 -1.1013 -0.2070
 7734SOL    HW234662   4.438   0.887  10.121  1.8653 -2.3969 -1.0091
 7735SOL     OW34663   1.501   3.708   3.219 -0.0758  0.3096  0.0291
 7735SOL    HW134664   1.436   3.742   3.158  0.2007  0.1173 -0.3710
 7735SOL    HW234665   1.511   3.790   3.268  0.7895 -0.2709  0.8123
 7736SOL     OW34666   1.776   2.289   6.927  0.1166 -0.0597 -0.3035
 7736SOL    HW134667   1.762   2.214   6.985  0.5122  0.5803  0.6214
 7736SOL    HW234668   1.702   2.341   6.959  2.2330  1.4975  2.1089
 7737SOL     OW34669   1.549   1.391  12.974 -0.2356  0.3471 -0.0532
 7737SOL    HW134670   1.558   1.401  12.880 -0.0656  0.9014  0.0244
 7737SOL    HW234671   1.463   1.348  12.983 -1.8184  3.8064  1.4945
 7738SOL     OW34672   0.015   2.556   2.569 -0.0139  0.2886  0.5370
 7738SOL    HW134673   4.686   2.535   2.492 -1.3486 -0.1428  1.5594
 7738SOL    HW234674   4.684   2.549   2.648 -0.4348  0.4752  0.2580
 7739SOL     OW34675   1.087   4.304   5.628 -0.2110  0.6358 -0.2072
 7739SOL    HW134676   1.100   4.232   5.566  0.0238  0.0095  0.5683
 7739SOL    HW234677   0.996   4.321   5.603 -0.8133  0.2586  1.7436
 7740SOL     OW34678   0.021   2.870   1.005  0.5090 -0.0796 -0.3699
 7740SOL    HW134679   4.696   2.824   1.074 -0.3726 -2.5238 -2.6167
 7740SOL    HW234680   0.042   2.794   0.951 -0.0629 -0.8530  0.4918
 7741SOL     OW34681   0.790   0.514  13.693  1.0381  0.0227 -0.6805
 7741SOL    HW134682   0.869   0.461  13.688  1.6046  0.7529  0.5043
 7741SOL    HW234683   0.818   0.587  13.749  1.9760 -0.0959 -0.9983
 7742SOL     OW34684   1.097   4.158   5.331  0.5301 -0.1855 -0.0970
 7742SOL    HW134685   1.013   4.119   5.356  0.5399  0.8776  1.5482
 7742SOL    HW234686   1.153   4.084   5.309  0.0939  0.3798 -3.0652
 7743SOL     OW34687   4.166   0.171   7.924 -0.1037  0.9593 -0.0783
 7743SOL    HW134688   4.205   0.225   7.855  0.9405  0.3710  0.0412
 7743SOL    HW234689   4.196   0.082   7.904  0.1267  0.7350  1.2909
 7744SOL     OW34690   1.638   0.868   1.634  0.1693 -0.7334 -0.2015
 7744SOL    HW134691   1.606   0.912   1.713 -0.1082 -3.3494  1.1250
 7744SOL    HW234692   1.555   0.844   1.593 -0.2124 -0.0264  0.1657
 7745SOL     OW34693   4.173   2.373   2.901  0.6388  0.0041 -0.3105
 7745SOL    HW134694   4.238   2.435   2.865  0.8295  1.0477  1.8257
 7745SOL    HW234695   4.131   2.350   2.818 -0.9234  0.9302  0.2423
 7746SOL     OW34696   1.520   4.298   4.484  0.9505 -0.5144  0.6006
 7746SOL    HW134697   1.589   4.332   4.542  1.1814  0.8049 -0.4394
 7746SOL    HW234698   1.577   4.297   4.407 -0.3879  0.7953 -0.3889
 7747SOL     OW34699   1.074   3.611  10.689 -0.0443 -0.2005 -0.0084
 7747SOL    HW134700   1.040   3.694  10.721  0.3677 -0.2781  0.6391
 7747SOL    HW234701   1.164   3.633  10.712 -0.3662 -0.7348  1.7310
 7748SOL     OW34702   1.039   2.624   7.850  0.1884 -0.7471  0.3944
 7748SOL    HW134703   0.967   2.564   7.831 -0.8413  0.5670  0.1236
 7748SOL    HW234704   0.998   2.710   7.850  0.8618 -0.4208  0.0308
 7749SOL     OW34705   0.942   2.135   8.088 -0.0464 -0.4681 -0.3549
 7749SOL    HW134706   0.852   2.104   8.084 -0.7578  1.7367 -1.5935
 7749SOL    HW234707   0.962   2.153   8.180 -0.1981 -0.0934 -0.3937
 7750SOL     OW34708   1.014   3.355  16.304 -0.0352 -0.0811 -0.0354
 7750SOL    HW134709   0.945   3.412  16.336  1.0221  1.8061 -1.1443
 7750SOL    HW234710   1.011   3.372  16.210  1.2499  0.1676 -0.0338
 7751SOL     OW34711   0.645   1.848  14.361  0.1128  0.1641  0.2234
 7751SOL    HW134712   0.630   1.941  14.342 -1.5068 -0.3030 -0.8390
 7751SOL    HW234713   0.732   1.838  14.321 -0.0638  1.2617 -0.4427
 7752SOL     OW34714   3.138   0.985  16.990  0.9408 -0.3401  0.5540
 7752SOL    HW134715   3.095   0.977  16.905  0.0184 -0.5144  1.0370
 7752SOL    HW234716   3.184   1.068  16.974 -1.0473  0.7042  0.3099
 7753SOL     OW34717   1.918   4.495   5.581  0.5596  0.5853  0.3248
 7753SOL    HW134718   1.881   4.412   5.551  0.6157  0.3304  0.9453
 7753SOL    HW234719   1.846   4.551   5.611  0.8557 -0.1771  2.5045
 7754SOL     OW34720   3.540   3.701   0.838  0.0249 -0.0825 -0.2785
 7754SOL    HW134721   3.447   3.711   0.817  0.0470 -0.2312 -0.4466
 7754SOL    HW234722   3.574   3.764   0.775  1.5631 -0.2852  0.3481
 7755SOL     OW34723   3.403   1.489   9.409  0.4881  0.4225 -0.4927
 7755SOL    HW134724   3.340   1.486   9.337 -1.1128 -2.2502  1.0335
 7755SOL    HW234725   3.409   1.584   9.420  1.4889  0.5809 -2.3590
 7756SOL     OW34726   4.078   0.810   5.870  0.2537 -0.0346  0.3188
 7756SOL    HW134727   4.038   0.742   5.924  0.2161 -0.8373 -0.7294
 7756SOL    HW234728   4.168   0.777   5.864 -0.0784 -1.2821  2.1568
 7757SOL     OW34729   3.918   0.828   7.293  0.1875 -0.1664 -0.4299
 7757SOL    HW134730   3.986   0.764   7.313  1.2112  1.6230  1.8752
 7757SOL    HW234731   3.886   0.800   7.208  2.0818 -0.9987 -0.8533
 7758SOL     OW34732   3.874   1.822   1.536 -0.0116 -0.0656  0.1375
 7758SOL    HW134733   3.902   1.810   1.445  0.5132 -0.4882  0.3568
 7758SOL    HW234734   3.803   1.886   1.542  1.9945  2.3230 -1.7010
 7759SOL     OW34735   4.141   1.384   8.153  0.6629 -0.4803  1.2409
 7759SOL    HW134736   4.129   1.298   8.194 -2.4209  0.6032  2.5871
 7759SOL    HW234737   4.230   1.367   8.121  1.0198  0.8973  1.5354
 7760SOL     OW34738   3.457   3.512  15.169 -0.2628  0.0459 -0.3527
 7760SOL    HW134739   3.497   3.519  15.255  1.1035 -1.0722 -0.9006
 7760SOL    HW234740   3.528   3.481  15.112 -0.1498 -1.0398  0.3886
 7761SOL     OW34741   3.327   4.292  12.299  0.6077  0.1259 -0.5697
 7761SOL    HW134742   3.272   4.340  12.361  1.1149  0.1171 -0.1120
 7761SOL    HW234743   3.278   4.209  12.294 -1.8869  1.4579  1.3611
 7762SOL     OW34744   1.038   1.976   4.611 -0.2337 -0.5330 -0.6174
 7762SOL    HW134745   1.102   1.923   4.565  0.4624  0.7572 -1.1551
 7762SOL    HW234746   1.033   2.054   4.556  3.2209  1.3762  1.7614
 7763SOL     OW34747   0.744   2.415   5.705  0.1326 -0.1111 -0.2297
 7763SOL    HW134748   0.809   2.393   5.772 -0.2003 -1.9973 -0.5435
 7763SOL    HW234749   0.790   2.425   5.622  0.5291  0.4846  0.0653
 7764SOL     OW34750   1.899   4.577   6.259 -0.2865  0.3518 -0.3832
 7764SOL    HW134751   1.857   4.661   6.275 -0.7607  0.0825 -0.2159
 7764SOL    HW234752   1.989   4.600   6.236 -0.3077  0.1772 -0.6453
 7765SOL     OW34753   2.359   2.463  15.130  0.3954 -0.7607 -0.0171
 7765SOL    HW134754   2.429   2.494  15.072  0.9829 -0.6497  0.7632
 7765SOL    HW234755   2.336   2.542  15.178 -1.1707 -1.7262  0.8207
 7766SOL     OW34756   2.569   3.513   4.285 -0.0774  0.5075  0.4354
 7766SOL    HW134757   2.541   3.600   4.313 -2.8486 -0.9793  2.2749
 7766SOL    HW234758   2.619   3.492   4.365 -2.7412 -1.9402  1.4659
 7767SOL     OW34759   1.180   1.078   2.250 -0.1691  0.0908 -0.7212
 7767SOL    HW134760   1.226   1.140   2.193 -2.5230  0.2337 -2.4512
 7767SOL    HW234761   1.156   1.131   2.326  1.5686  0.7125 -0.5981
 7768SOL     OW34762   2.382   1.329   3.484 -0.1072  0.3234 -0.0445
 7768SOL    HW134763   2.342   1.243   3.495  1.1073 -0.1913  0.3631
 7768SOL    HW234764   2.391   1.365   3.572 -1.4471 -0.3844  0.3731
 7769SOL     OW34765   3.093   3.616   2.070  0.0319  0.0169 -0.1806
 7769SOL    HW134766   3.052   3.639   1.986 -0.0967  3.3399  0.7941
 7769SOL    HW234767   3.026   3.593   2.135  0.9318 -4.6727 -0.8637
 7770SOL     OW34768   0.058   0.593   9.465  0.0504 -0.2964 -0.3470
 7770SOL    HW134769   0.151   0.572   9.460 -0.1817 -1.3161 -0.4235
 7770SOL    HW234770   0.048   0.663   9.400 -0.9519  0.5965  0.7671
 7771SOL     OW34771   0.725   1.913   2.925  0.2266  0.5157  0.3673
 7771SOL    HW134772   0.715   1.821   2.902  1.8310  0.6582 -0.9507
 7771SOL    HW234773   0.773   1.940   2.846  0.6481  0.7789  0.7121
 7772SOL     OW34774   2.271   3.130  14.957  0.1939 -0.2121  0.2273
 7772SOL    HW134775   2.249   3.212  15.001  0.6712  0.6382 -1.1099
 7772SOL    HW234776   2.276   3.079  15.037  0.9230  0.7423  0.7886
 7773SOL     OW34777   1.286   3.265   8.158  0.4425  0.3514  0.1917
 7773SOL    HW134778   1.306   3.278   8.065  1.0577  1.6565  0.5088
 7773SOL    HW234779   1.319   3.175   8.168 -1.2788 -0.2632  0.2898
 7774SOL     OW34780   3.202   4.438  12.076 -0.3874 -0.3344  0.1866
 7774SOL    HW134781   3.129   4.384  12.108  0.3675 -1.2921  0.2822
 7774SOL    HW234782   3.275   4.414  12.133 -0.5608  0.4327  0.7320
 7775SOL     OW34783   2.251   1.634   1.955 -0.1721  0.4793 -0.3200
 7775SOL    HW134784   2.270   1.672   1.869 -1.7147 -0.2611 -0.9939
 7775SOL    HW234785   2.310   1.558   1.950 -0.1659  0.5358 -1.0730
 7776SOL     OW34786   1.083   3.725  12.017  0.4198 -0.3668 -1.1743
 7776SOL    HW134787   1.031   3.680  12.083  2.2026  2.5277  2.2063
 7776SOL    HW234788   1.021   3.787  11.978 -0.7975 -0.6721  0.2799
 7777SOL     OW34789   4.434   0.629   2.393  0.6715  0.3679 -0.2649
 7777SOL    HW134790   4.446   0.690   2.466 -0.6194 -1.0508  1.1528
 7777SOL    HW234791   4.462   0.545   2.428 -1.5417  0.1708  1.0545
 7778SOL     OW34792   0.027   0.625   7.554  0.2902  0.3412  0.5161
 7778SOL    HW134793   0.112   0.616   7.510  0.1229  3.0057 -0.3674
 7778SOL    HW234794   0.045   0.699   7.611 -0.7034  2.0631 -1.3981
 7779SOL     OW34795   4.418   1.628   9.311 -0.4105 -0.4833 -0.1683
 7779SOL    HW134796   4.400   1.591   9.225 -1.7239  0.7808 -0.4342
 7779SOL    HW234797   4.359   1.570   9.360 -2.7035  1.7246 -0.2860
 7780SOL     OW34798   0.352   2.093   6.481  0.3782  0.1517  0.3419
 7780SOL    HW134799   0.300   2.130   6.552  1.0922 -0.9518  1.4516
 7780SOL    HW234800   0.347   2.168   6.422  0.5752 -0.4712 -0.4638
 7781SOL     OW34801   0.257   4.643   5.910 -0.1072  0.4929  0.3315
 7781SOL    HW134802   0.247   4.656   6.004  3.5455 -3.9507  1.2939
 7781SOL    HW234803   0.189   4.705   5.882 -0.9715  0.1965  1.7666
 7782SOL     OW34804   3.859   4.231   2.574 -0.5402 -0.7512  0.2983
 7782SOL    HW134805   3.811   4.245   2.656 -1.4336  0.2577 -0.3961
 7782SOL    HW234806   3.945   4.208   2.609  0.2459  3.0815  0.8913
 7783SOL     OW34807   2.024   1.623  12.079  0.3075  0.3680 -0.2266
 7783SOL    HW134808   2.079   1.653  12.006 -1.4515  0.5222 -1.4812
 7783SOL    HW234809   2.034   1.703  12.130  2.1628  0.9346 -1.4826
 7784SOL     OW34810   1.507   3.110   8.294 -0.4483  0.2529  0.6383
 7784SOL    HW134811   1.544   3.148   8.214  0.1657 -0.9546  0.3593
 7784SOL    HW234812   1.574   3.045   8.314 -0.6947  0.1474  1.1128
 7785SOL     OW34813   3.745   2.261  16.799  0.2844 -0.3355 -0.3660
 7785SOL    HW134814   3.779   2.309  16.724  0.7878 -2.9176 -1.7745
 7785SOL    HW234815   3.816   2.271  16.863  2.6836 -0.5420 -3.0152
 7786SOL     OW34816   2.530   1.660   5.804 -0.2901  0.0745  0.1710
 7786SOL    HW134817   2.510   1.703   5.887 -2.8709  0.6529 -0.7739
 7786SOL    HW234818   2.580   1.579   5.820 -1.1721 -0.7423 -1.2012
 7787SOL     OW34819   1.393   4.649   9.761 -0.1210  0.0525 -0.0737
 7787SOL    HW134820   1.329   4.603   9.706 -0.1872 -1.7475  1.5239
 7787SOL    HW234821   1.383   4.591   9.836  1.8148 -0.4932 -0.2509
 7788SOL     OW34822   0.450   0.636   0.092  0.0062  0.4936  0.0667
 7788SOL    HW134823   0.495   0.563   0.134  0.8789 -0.3240 -2.2925
 7788SOL    HW234824   0.484   0.709   0.145  0.0901  0.6973 -0.2679
 7789SOL     OW34825   2.171   1.932  16.265 -0.2721  0.1988  0.3748
 7789SOL    HW134826   2.249   1.882  16.243  0.6660  2.4449 -1.3444
 7789SOL    HW234827   2.204   2.022  16.259 -1.0175  0.4665  0.2582
 7790SOL     OW34828   2.357   4.172  10.475 -0.2957  0.8652  0.3167
 7790SOL    HW134829   2.311   4.251  10.505  0.5660  1.7241 -0.6323
 7790SOL    HW234830   2.285   4.127  10.432 -0.8269 -0.9957  3.1685
 7791SOL     OW34831   0.909   4.675   8.075  0.1351 -0.1697 -0.1471
 7791SOL    HW134832   0.858   0.032   8.092  1.5869  0.3806  1.5567
 7791SOL    HW234833   0.992   4.711   8.043 -0.0431 -0.0607 -0.4957
 7792SOL     OW34834   0.776   0.761  10.151  0.1792 -0.2499 -0.3007
 7792SOL    HW134835   0.865   0.729  10.162  0.0099 -0.8070 -0.5440
 7792SOL    HW234836   0.725   0.679  10.155 -0.4578  0.1520 -0.2325
 7793SOL     OW34837   2.670   3.569   9.842 -0.3896 -0.4545 -0.1747
 7793SOL    HW134838   2.728   3.559   9.917 -2.2444  3.4840  1.7838
 7793SOL    HW234839   2.648   3.663   9.839  0.2519 -0.3525 -1.5747
 7794SOL     OW34840   3.652   0.746   3.176  0.1245  0.8414 -0.0883
 7794SOL    HW134841   3.629   0.670   3.123 -0.5315  1.2534 -0.3960
 7794SOL    HW234842   3.720   0.785   3.121  0.2602  0.5472 -0.1286
 7795SOL     OW34843   2.203   3.538   5.155  0.9564 -0.1938  0.1019
 7795SOL    HW134844   2.180   3.617   5.203  0.5615  0.1679 -0.6728
 7795SOL    HW234845   2.225   3.566   5.066  1.9065 -1.0696  0.0626
 7796SOL     OW34846   3.646   0.203   4.808 -0.3559  0.7582 -0.0857
 7796SOL    HW134847   3.566   0.151   4.796  0.3685  0.6328 -4.6095
 7796SOL    HW234848   3.689   0.142   4.868 -0.9074  0.1640 -0.2937
 7797SOL     OW34849   3.349   0.018  10.260 -0.2956  0.3781  0.4867
 7797SOL    HW134850   3.357   4.653  10.224 -0.4816  0.0808  1.1691
 7797SOL    HW234851   3.409   0.064  10.200  0.6597  0.2304  1.3292
 7798SOL     OW34852   2.420   2.751  12.509  0.2349 -0.7847 -0.9997
 7798SOL    HW134853   2.505   2.779  12.544  0.2986 -1.2877 -0.7524
 7798SOL    HW234854   2.406   2.682  12.573  1.4273  1.0376  1.2268
 7799SOL     OW34855   3.216   3.967  15.890 -0.0503 -0.2163  0.4021
 7799SOL    HW134856   3.220   3.900  15.959  2.5966 -2.1209 -1.6335
 7799SOL    HW234857   3.233   3.917  15.810 -1.7707  0.3966 -0.3571
 7800SOL     OW34858   0.964   2.047  17.531 -0.4719  0.0176  0.2590
 7800SOL    HW134859   1.042   2.034  17.476 -2.0579 -0.4588 -1.8754
 7800SOL    HW234860   0.995   2.063  17.620 -1.8379  1.4454  0.4522
 7801SOL     OW34861   4.153   2.575  11.992 -0.4034 -0.0540 -0.2225
 7801SOL    HW134862   4.089   2.641  11.967 -0.6490 -0.9464 -1.9231
 7801SOL    HW234863   4.222   2.591  11.928 -1.6580 -0.1898 -1.5985
 7802SOL     OW34864   2.454   1.384  15.190 -0.1753  0.2807 -0.0629
 7802SOL    HW134865   2.435   1.295  15.159 -1.3588  0.1078  1.1943
 7802SOL    HW234866   2.462   1.429  15.106 -0.7102  3.3085  1.5081
 7803SOL     OW34867   4.448   3.364   3.874 -0.5374  0.7676  0.7440
 7803SOL    HW134868   4.419   3.455   3.870  1.8655  1.5393  0.9877
 7803SOL    HW234869   4.505   3.364   3.951  2.0680  1.5035 -1.1838
 7804SOL     OW34870   2.079   4.603  12.113 -0.0263 -0.1989  0.5084
 7804SOL    HW134871   2.125   4.684  12.094  1.3457 -1.1396 -0.1490
 7804SOL    HW234872   2.055   4.569  12.027 -0.4341 -0.8669  0.8764
 7805SOL     OW34873   1.050   0.336  15.899  0.1208 -0.1160 -0.3135
 7805SOL    HW134874   1.023   0.423  15.870  0.0331 -0.4262 -1.1480
 7805SOL    HW234875   1.115   0.353  15.967  0.2397 -0.3382 -0.3722
 7806SOL     OW34876   3.342   2.547  11.993  0.0537 -0.0799 -0.1255
 7806SOL    HW134877   3.365   2.478  12.054 -3.5332 -0.6865  0.5773
 7806SOL    HW234878   3.248   2.562  12.004 -0.3121  0.4090 -3.8974
 7807SOL     OW34879   0.927   4.343   3.224  0.0201 -0.1747  0.1196
 7807SOL    HW134880   0.850   4.297   3.190  2.3307 -3.6511 -0.4109
 7807SOL    HW234881   0.924   4.320   3.317 -0.2062  2.0725  0.6696
 7808SOL     OW34882   0.671   2.836   9.476  0.0728 -0.0298 -0.4255
 7808SOL    HW134883   0.642   2.757   9.430 -0.7554 -0.2748  0.5199
 7808SOL    HW234884   0.628   2.824   9.560  1.0501  0.6984  0.1794
 7809SOL     OW34885   1.119   1.059  15.565 -0.2495  0.1055  0.8193
 7809SOL    HW134886   1.027   1.064  15.589 -0.2635  1.3592  0.4851
 7809SOL    HW234887   1.164   1.113  15.630  0.0025 -0.1144  0.8299
 7810SOL     OW34888   4.264   1.878   1.349  0.4160  0.2502  0.2124
 7810SOL    HW134889   4.355   1.863   1.374  0.1710 -0.3949  0.7045
 7810SOL    HW234890   4.248   1.938   1.422  0.2389  0.2572  0.1690
 7811SOL     OW34891   3.553   1.410  11.080 -0.1701 -0.0720 -0.5147
 7811SOL    HW134892   3.470   1.362  11.077 -1.7099  2.3583  2.2254
 7811SOL    HW234893   3.523   1.476  11.143  0.3206 -0.1063 -0.2475
 7812SOL     OW34894   3.237   4.590   4.049  0.0160  0.1836 -0.0545
 7812SOL    HW134895   3.161   4.535   4.070  0.4583 -0.2001  0.5260
 7812SOL    HW234896   3.262   4.560   3.962 -2.1618 -0.1595 -0.5724
 7813SOL     OW34897   0.425   1.589   6.640  0.1842 -0.5010  0.1685
 7813SOL    HW134898   0.420   1.582   6.736 -0.0872  1.3177  0.2916
 7813SOL    HW234899   0.346   1.638   6.617  1.5715  1.5834 -0.1883
 7814SOL     OW34900   2.193   3.711   8.900 -0.7605  0.3291 -0.1175
 7814SOL    HW134901   2.275   3.738   8.942  0.0523 -1.5980 -0.4494
 7814SOL    HW234902   2.126   3.770   8.934 -0.9741  0.1476 -0.2216
 7815SOL     OW34903   2.466   1.144   0.756  0.2126  0.3570  0.5390
 7815SOL    HW134904   2.526   1.163   0.684 -0.5135 -1.3317 -0.5186
 7815SOL    HW234905   2.386   1.182   0.719  0.2936  0.5445  0.5587
 7816SOL     OW34906   3.318   0.337   8.345  0.1521 -0.2604  0.3473
 7816SOL    HW134907   3.228   0.338   8.313  0.4340  0.3777 -0.4079
 7816SOL    HW234908   3.332   0.243   8.354  0.3045  0.0091  2.7623
 7817SOL     OW34909   2.274   2.463  10.728 -0.3343  0.3087  0.7181
 7817SOL    HW134910   2.291   2.556  10.739 -0.5278  0.3664  0.5223
 7817SOL    HW234911   2.338   2.443  10.660  0.4026 -0.8988  1.7487
 7818SOL     OW34912   2.313   1.044   3.832 -0.4599  0.1873  0.1708
 7818SOL    HW134913   2.328   1.113   3.896 -0.4007  1.3705 -1.1181
 7818SOL    HW234914   2.250   1.087   3.773 -1.1137  1.5707  1.8889
 7819SOL     OW34915   3.609   0.314   4.203  0.0606 -0.0306  0.7746
 7819SOL    HW134916   3.624   0.254   4.129  1.1099  1.1766  0.0182
 7819SOL    HW234917   3.513   0.318   4.204  0.0460 -0.2148 -0.2494
 7820SOL     OW34918   0.957   2.462   2.203  0.0626 -0.0208 -0.0623
 7820SOL    HW134919   1.011   2.392   2.239 -0.9964 -1.5496 -1.4030
 7820SOL    HW234920   1.024   2.512   2.157  1.9870 -0.0770  2.6866
 7821SOL     OW34921   3.394   0.672   6.190  0.1528 -0.1538 -0.0812
 7821SOL    HW134922   3.360   0.761   6.178  0.2179 -0.0520  0.5104
 7821SOL    HW234923   3.487   0.691   6.199 -0.5523  1.8744  2.9341
 7822SOL     OW34924   0.611   0.327  10.062 -0.2486 -1.0230  0.7126
 7822SOL    HW134925   0.681   0.384  10.095 -1.6659  1.0701  0.1310
 7822SOL    HW234926   0.657   0.298   9.983 -1.4500 -1.7200  0.2764
 7823SOL     OW34927   2.600   1.389   4.606 -0.2128 -0.2706  0.1031
 7823SOL    HW134928   2.547   1.375   4.684  1.5797  0.4388  1.4538
 7823SOL    HW234929   2.655   1.310   4.606 -0.8043 -0.6729  0.7502
 7824SOL     OW34930   2.939   1.005  10.285  0.7361 -0.0476  0.3154
 7824SOL    HW134931   2.892   1.083  10.257  0.7756 -0.0311  0.2961
 7824SOL    HW234932   2.986   1.042  10.359 -0.0514 -0.6395  1.1084
 7825SOL     OW34933   0.953   2.090   0.117 -0.0205 -0.0635  0.1699
 7825SOL    HW134934   0.996   2.058   0.197  3.8516 -0.0920 -1.9503
 7825SOL    HW234935   0.866   2.050   0.113  0.1612 -0.1651 -2.2945
 7826SOL     OW34936   4.004   3.941  13.762  0.5360 -0.0997 -0.0385
 7826SOL    HW134937   4.066   4.012  13.746  3.8571 -2.5396  2.1476
 7826SOL    HW234938   3.939   3.980  13.820 -0.8466 -0.0531 -1.6101
 7827SOL     OW34939   1.529   3.952   7.861 -0.0109  0.0557  0.0205
 7827SOL    HW134940   1.543   4.016   7.791  2.4457  0.8834  1.2951
 7827SOL    HW234941   1.619   3.922   7.864  0.8051  2.6797  1.3974
 7828SOL     OW34942   3.459   3.662   4.180  0.0587 -0.0523 -0.5599
 7828SOL    HW134943   3.443   3.578   4.224  0.4349 -0.3394 -0.9615
 7828SOL    HW234944   3.553   3.645   4.171 -0.1357 -1.2693 -0.4001
 7829SOL     OW34945   3.804   2.886   4.501  0.3798  0.0480 -0.3238
 7829SOL    HW134946   3.725   2.864   4.451  1.0491 -3.3577  0.1178
 7829SOL    HW234947   3.871   2.849   4.443 -1.0065  0.6850 -2.3486
 7830SOL     OW34948   2.312   1.379   5.281 -0.1408  0.1246  0.6560
 7830SOL    HW134949   2.278   1.290   5.273 -1.4502  0.6234  0.7665
 7830SOL    HW234950   2.373   1.383   5.207 -1.4579 -0.1934 -0.4422
 7831SOL     OW34951   3.946   0.070   7.002 -0.4193 -0.2377 -0.2423
 7831SOL    HW134952   3.867   0.043   6.956 -2.2279  1.4529  1.9225
 7831SOL    HW234953   3.922   0.158   7.029  4.2602  0.6467  1.1184
 7832SOL     OW34954   3.331   2.006   3.484  0.4729  0.0770 -0.3623
 7832SOL    HW134955   3.330   2.102   3.494  1.2515 -0.1951  2.2094
 7832SOL    HW234956   3.236   1.991   3.476  0.3302  1.1607 -0.8527
 7833SOL     OW34957   2.611   0.108  16.296 -0.3980 -0.1571 -0.0802
 7833SOL    HW134958   2.551   0.157  16.240  0.1048 -1.0570 -1.4131
 7833SOL    HW234959   2.572   0.022  16.309  0.9847 -1.1589 -2.7023
 7834SOL     OW34960   4.216   0.626   4.724 -0.0051 -0.8628 -0.3257
 7834SOL    HW134961   4.204   0.569   4.647  0.9895  1.2896 -2.0669
 7834SOL    HW234962   4.134   0.623   4.773 -0.6124  1.4312 -1.2240
 7835SOL     OW34963   3.204   0.411   3.804 -0.3293 -0.0687 -0.5349
 7835SOL    HW134964   3.187   0.473   3.733  1.0442  1.9927  0.9255
 7835SOL    HW234965   3.240   0.338   3.754  0.0475  1.4849 -2.5467
 7836SOL     OW34966   3.093   3.658   4.993  0.3707  0.3064  0.4649
 7836SOL    HW134967   3.134   3.743   4.977  0.5862 -0.0679 -0.9439
 7836SOL    HW234968   3.127   3.610   4.917  0.7218  1.2987 -0.0040
 7837SOL     OW34969   1.752   2.406   5.482 -0.2383  0.5948 -0.0517
 7837SOL    HW134970   1.820   2.385   5.546 -0.6689  1.1366  0.5944
 7837SOL    HW234971   1.801   2.370   5.409  2.3545  2.0045  1.0005
 7838SOL     OW34972   4.598   1.280  15.910 -0.1825  0.1037 -0.7624
 7838SOL    HW134973   4.665   1.224  15.871  0.4183  0.1922  0.1487
 7838SOL    HW234974   4.595   1.248  16.000  1.1555  2.8803  0.2568
 7839SOL     OW34975   0.292   2.552   6.470  0.2169  0.6146 -0.3271
 7839SOL    HW134976   0.311   2.632   6.518 -0.7852 -1.5430  3.7286
 7839SOL    HW234977   0.199   2.559   6.492  0.3833 -0.2264  0.6630
 7840SOL     OW34978   2.375   3.780   8.529  0.4924 -0.4709  0.2684
 7840SOL    HW134979   2.349   3.851   8.587  0.6525 -0.5346  0.4165
 7840SOL    HW234980   2.325   3.795   8.448 -0.9371  1.7148  1.5646
 7841SOL     OW34981   0.272   2.114   3.599  0.6444 -0.0857 -0.0211
 7841SOL    HW134982   0.365   2.101   3.580  0.5939  0.3219 -0.5529
 7841SOL    HW234983   0.258   2.053   3.671  1.2093 -2.2984 -1.7720
 7842SOL     OW34984   3.368   4.481  11.865  0.3759 -0.2871 -0.3195
 7842SOL    HW134985   3.295   4.425  11.891  0.4970 -0.2712  0.0568
 7842SOL    HW234986   3.342   4.562  11.909 -1.9255 -1.6180  0.7920
 7843SOL     OW34987   4.523   0.953   9.024 -0.2968  0.2851  0.0971
 7843SOL    HW134988   4.607   0.958   9.071  0.0613 -0.3929 -0.4749
 7843SOL    HW234989   4.508   1.043   8.994  0.5446  0.4902  0.2962
 7844SOL     OW34990   1.904   0.167   9.144  0.2478 -0.0501  0.1178
 7844SOL    HW134991   1.881   0.227   9.216 -1.9891  0.0235 -0.6371
 7844SOL    HW234992   1.899   0.085   9.193  2.2186  0.3445  0.9714
 7845SOL     OW34993   1.802   1.541   7.727 -0.1686 -0.7270  0.1976
 7845SOL    HW134994   1.870   1.506   7.669  0.9757 -1.4468  1.9812
 7845SOL    HW234995   1.741   1.470   7.710  0.0350 -0.7785 -0.3356
 7846SOL     OW34996   3.228   3.743  16.053  0.0460 -0.0880 -0.0079
 7846SOL    HW134997   3.258   3.663  16.011 -1.3418 -0.0547 -1.0749
 7846SOL    HW234998   3.161   3.709  16.112 -0.8059 -0.1530 -1.0238
 7847SOL     OW34999   2.480   3.418   3.168 -0.2560 -0.3101  0.1466
 7847SOL    HW135000   2.420   3.385   3.235 -1.4183  0.3954 -0.5397
 7847SOL    HW235001   2.551   3.354   3.165 -0.0672 -0.1715  1.6633
 7848SOL     OW35002   0.097   1.541   7.937 -0.1514 -0.3537 -0.7758
 7848SOL    HW135003   0.057   1.478   7.877  0.2811 -0.5187 -0.8880
 7848SOL    HW235004   0.183   1.553   7.897  0.6830  0.3198  1.1931
 7849SOL     OW35005   1.821   0.090   5.544 -0.2291 -0.1170 -0.0227
 7849SOL    HW135006   1.791   0.070   5.455  0.8295 -0.2678 -0.3511
 7849SOL    HW235007   1.801   0.010   5.592  0.8552 -0.2826  0.1611
 7850SOL     OW35008   1.278   0.111   5.413  0.7306  0.0459 -0.1437
 7850SOL    HW135009   1.271   0.069   5.328  1.2756  0.0319 -0.1839
 7850SOL    HW235010   1.194   0.074   5.441  0.2924  1.9375  1.0587
 7851SOL     OW35011   0.709   1.357   7.651  0.7988 -0.6993  0.1625
 7851SOL    HW135012   0.616   1.338   7.662  0.8905 -0.0968  1.9423
 7851SOL    HW235013   0.708   1.451   7.633 -0.9819 -0.8297 -0.4316
 7852SOL     OW35014   1.535   1.297   5.522 -0.2849 -0.7670  0.2793
 7852SOL    HW135015   1.539   1.214   5.475 -3.6669 -1.1073  0.6075
 7852SOL    HW235016   1.623   1.325   5.545 -0.6134 -1.4474  2.3028
 7853SOL     OW35017   2.316   4.316   9.293  0.0959  0.4838  0.3475
 7853SOL    HW135018   2.399   4.300   9.336 -0.5338  0.2970  1.5006
 7853SOL    HW235019   2.265   4.352   9.366 -1.7426 -0.7367 -0.3475
 7854SOL     OW35020   1.815   0.451  16.933  0.3564  0.2624 -0.2600
 7854SOL    HW135021   1.721   0.447  16.954  0.4371  0.5579  0.1640
 7854SOL    HW235022   1.815   0.416  16.844  2.9060  0.2822 -0.2689
 7855SOL     OW35023   3.192   1.533   6.191 -0.3052  0.2076 -0.0243
 7855SOL    HW135024   3.140   1.479   6.251  1.8597 -1.1972  0.6414
 7855SOL    HW235025   3.223   1.600   6.251 -0.1474 -0.1171  0.2588
 7856SOL     OW35026   4.433   0.755   3.649 -0.4178  0.2662  0.0760
 7856SOL    HW135027   4.481   0.674   3.637 -0.5911  0.4242 -1.6885
 7856SOL    HW235028   4.379   0.762   3.570  0.0328 -0.3342 -0.2751
 7857SOL     OW35029   4.481   1.199  15.270 -0.5578 -0.0938 -0.3856
 7857SOL    HW135030   4.541   1.266  15.304 -1.4392 -0.2241  1.4117
 7857SOL    HW235031   4.515   1.193  15.180 -0.5026  0.8361 -0.4350
 7858SOL     OW35032   3.809   2.201  13.343 -0.3208  0.2150  0.3693
 7858SOL    HW135033   3.824   2.115  13.382  0.1216 -0.4829 -1.3428
 7858SOL    HW235034   3.870   2.262  13.385 -4.1691  3.0720  1.8893
 7859SOL     OW35035   1.985   2.680   5.600 -0.1008  0.2919 -0.3935
 7859SOL    HW135036   1.932   2.644   5.672  3.4164  0.3812  2.2278
 7859SOL    HW235037   2.034   2.750   5.644 -1.2129  2.0438 -1.9393
 7860SOL     OW35038   0.193   2.451  16.345 -0.0864 -0.5230  0.2896
 7860SOL    HW135039   0.127   2.465  16.277 -0.2425 -0.7704  0.3884
 7860SOL    HW235040   0.275   2.453  16.295 -0.3593 -0.2578 -0.1434
 7861SOL     OW35041   3.534   2.351   4.924 -0.0008 -0.4329  0.4050
 7861SOL    HW135042   3.494   2.384   4.844  1.3996  1.0900  0.3161
 7861SOL    HW235043   3.542   2.259   4.899  0.2388 -0.2981 -0.0106
 7862SOL     OW35044   0.046   2.663   3.095 -0.7604  0.3167 -0.5224
 7862SOL    HW135045   0.093   2.592   3.139 -1.0803  0.6240  0.3203
 7862SOL    HW235046   0.019   2.721   3.166  0.7983  0.1024  0.2366
 7863SOL     OW35047   4.345   2.636   4.128  0.3024 -0.1990  0.0971
 7863SOL    HW135048   4.394   2.716   4.148  0.9909 -0.3832 -0.8742
 7863SOL    HW235049   4.408   2.586   4.076  0.7404 -1.0588  1.4325
 7864SOL     OW35050   0.290   4.100   6.459  0.0126  0.4133 -0.1820
 7864SOL    HW135051   0.334   4.028   6.503 -0.4308 -1.1536 -2.2588
 7864SOL    HW235052   0.366   4.122   6.405 -0.0676 -0.3344 -0.6063
 7865SOL     OW35053   3.987   0.118   6.551 -0.0057  0.3533  0.0584
 7865SOL    HW135054   4.003   0.160   6.635  1.0081  1.7925 -0.8675
 7865SOL    HW235055   4.075   0.082   6.554 -0.1532 -0.0707 -0.5478
 7866SOL     OW35056   1.902   0.737   2.669 -0.2403  0.2899 -0.4918
 7866SOL    HW135057   1.982   0.731   2.722 -0.3926  1.5437 -0.1033
 7866SOL    HW235058   1.832   0.734   2.734 -0.4805  2.2644 -0.6493
 7867SOL     OW35059   3.395   4.717   5.801  0.6315  0.5728 -0.0361
 7867SOL    HW135060   3.317   4.699   5.854 -0.6515 -0.4786 -2.3236
 7867SOL    HW235061   3.385   4.656   5.729  0.1705  0.2357  0.3111
 7868SOL     OW35062   2.422   0.964   7.133  0.7825  0.3046  0.3432
 7868SOL    HW135063   2.370   0.937   7.209 -0.0443 -2.2661 -1.1593
 7868SOL    HW235064   2.502   0.913   7.143 -0.1745 -1.4588 -1.0077
 7869SOL     OW35065   0.245   2.995   3.373 -0.0604  0.0325  0.4861
 7869SOL    HW135066   0.197   2.974   3.454 -0.9396 -0.9240 -0.2855
 7869SOL    HW235067   0.322   3.030   3.418 -0.2431  2.0965 -0.8383
 7870SOL     OW35068   2.579   2.428  11.706  0.4356 -0.0476  0.6263
 7870SOL    HW135069   2.646   2.391  11.649  0.4236  2.9494 -1.3273
 7870SOL    HW235070   2.620   2.434  11.793 -1.3085 -1.7826  1.5821
 7871SOL     OW35071   3.059   1.979   6.932 -0.1475 -0.1596  0.4891
 7871SOL    HW135072   3.021   2.005   7.016 -1.6577  0.4621 -0.3923
 7871SOL    HW235073   3.082   1.888   6.950  2.3829  0.2567 -0.5450
 7872SOL     OW35074   2.574   4.064   6.143 -0.0149 -0.0711 -0.0532
 7872SOL    HW135075   2.558   3.978   6.104  2.2663  0.3434 -1.9049
 7872SOL    HW235076   2.551   4.039   6.233  0.8561  1.1624  0.5105
 7873SOL     OW35077   4.418   1.720   3.460  0.1969 -0.1661 -0.6153
 7873SOL    HW135078   4.329   1.686   3.468  0.1547 -0.0909 -0.7649
 7873SOL    HW235079   4.463   1.645   3.420  0.6000 -0.6334  0.7133
 7874SOL     OW35080   3.772   1.063   8.804 -0.0133  0.0994 -1.1450
 7874SOL    HW135081   3.827   1.140   8.822  0.4575 -0.4005 -0.4566
 7874SOL    HW235082   3.750   1.073   8.711  0.8798  2.3773 -1.1074
 7875SOL     OW35083   1.021   2.905   4.396  0.0293 -0.0865  0.3276
 7875SOL    HW135084   1.060   2.987   4.424  0.4039  0.3827 -1.5597
 7875SOL    HW235085   0.996   2.931   4.307 -0.6356 -2.7325 -0.2720
 7876SOL     OW35086   2.372   3.357   6.182 -0.0502 -0.6939 -0.6451
 7876SOL    HW135087   2.465   3.339   6.168  0.1931  0.0103  0.0123
 7876SOL    HW235088   2.364   3.371   6.277  1.2645  0.5090 -0.7100
 7877SOL     OW35089   4.714   4.446   1.861 -0.5299 -0.0726 -0.2222
 7877SOL    HW135090   0.031   4.359   1.850  2.3440  1.1501  0.6247
 7877SOL    HW235091   4.704   4.442   1.956 -1.6428 -0.0249 -0.3300
 7878SOL     OW35092   3.918   3.683  12.566  0.0577 -0.3863  0.1765
 7878SOL    HW135093   3.888   3.744  12.499  1.7302 -0.0550 -0.2785
 7878SOL    HW235094   3.870   3.718  12.640 -1.3150  0.2778 -1.0410
 7879SOL     OW35095   1.950   2.358   8.926 -0.1663 -0.4547 -0.1683
 7879SOL    HW135096   2.009   2.293   8.962  1.5820  0.8452 -0.6710
 7879SOL    HW235097   1.945   2.421   8.998 -0.6564 -3.4028  2.3418
 7880SOL     OW35098   4.427   1.092  17.018  0.2610 -0.0919 -0.1177
 7880SOL    HW135099   4.465   1.134  16.941 -0.2777  1.3601  0.4081
 7880SOL    HW235100   4.338   1.070  16.990 -0.3142  0.6272  1.1473
 7881SOL     OW35101   1.882   1.571   4.845 -0.0827 -0.0382 -0.1110
 7881SOL    HW135102   1.967   1.536   4.818 -0.5096  0.2062 -1.7652
 7881SOL    HW235103   1.900   1.662   4.866  1.2971  0.0982 -1.9776
 7882SOL     OW35104   3.476   1.934   1.390  0.0093  0.3727 -0.3246
 7882SOL    HW135105   3.503   1.844   1.368  1.3265  0.6454  0.1591
 7882SOL    HW235106   3.465   1.969   1.302 -1.2413  1.2232  0.1759
 7883SOL     OW35107   3.160   4.714   3.633 -0.2203 -0.1861  0.3628
 7883SOL    HW135108   3.117   0.014   3.715  0.5396  0.0255  0.7098
 7883SOL    HW235109   3.255   4.718   3.649 -0.0021 -1.3424 -0.6567
 7884SOL     OW35110   2.636   1.874   3.397  0.2320  0.2211  0.1368
 7884SOL    HW135111   2.669   1.961   3.421  0.1318 -0.3056  2.1935
 7884SOL    HW235112   2.664   1.864   3.306 -0.0741  0.6478 -0.0093
 7885SOL     OW35113   0.321   4.468   1.818  0.5011  0.4343 -0.1313
 7885SOL    HW135114   0.397   4.446   1.764  2.4412  1.7277  2.0515
 7885SOL    HW235115   0.252   4.476   1.753 -0.6308  2.1650  1.2752
 7886SOL     OW35116   0.331   1.955  15.148 -0.5426  0.1626 -0.4118
 7886SOL    HW135117   0.285   1.875  15.124 -3.7134  1.8763  0.0173
 7886SOL    HW235118   0.258   2.016  15.141 -0.4416  0.2514 -0.7132
 7887SOL     OW35119   3.199   3.312  12.340  0.5567 -0.6426 -0.0924
 7887SOL    HW135120   3.286   3.291  12.373  1.0001 -0.1185 -0.9060
 7887SOL    HW235121   3.152   3.230  12.351  0.3398 -0.6051 -0.7412
 7888SOL     OW35122   3.197   2.650  14.950 -0.0407 -0.1470  0.4842
 7888SOL    HW135123   3.256   2.575  14.942 -1.4473 -1.1793 -0.1944
 7888SOL    HW235124   3.216   2.696  14.868 -0.0341  0.9062  1.0765
 7889SOL     OW35125   0.054   2.252  10.961  0.3161  0.1321  0.3520
 7889SOL    HW135126   4.696   2.253  10.910  1.0399  0.4619 -0.7903
 7889SOL    HW235127   0.022   2.202  11.036 -0.5392  1.1935  0.7014
 7890SOL     OW35128   1.882   1.888  17.250  0.2170  0.5155 -0.8840
 7890SOL    HW135129   1.827   1.862  17.324  0.6671  0.4319 -0.5798
 7890SOL    HW235130   1.956   1.926  17.298  0.2528 -0.1482 -0.4100
 7891SOL     OW35131   1.989   2.652   1.832 -0.2789  0.7848  0.2400
 7891SOL    HW135132   2.038   2.571   1.820 -0.2115  0.4399  2.9992
 7891SOL    HW235133   2.066   2.709   1.825  0.6283 -0.3471  1.1908
 7892SOL     OW35134   3.624   2.327   2.620  0.2614  0.4940 -0.4731
 7892SOL    HW135135   3.624   2.379   2.539 -3.2370 -1.4961 -1.7740
 7892SOL    HW235136   3.665   2.386   2.683  2.2547 -0.8922 -0.4622
 7893SOL     OW35137   0.700   1.543   1.179  0.6055  0.0583  0.5947
 7893SOL    HW135138   0.644   1.479   1.223  0.0064 -0.1447 -0.4882
 7893SOL    HW235139   0.776   1.489   1.158 -1.2053 -1.8623 -0.9552
 7894SOL     OW35140   1.648   3.380   2.589  0.5301  0.5521  0.1904
 7894SOL    HW135141   1.554   3.390   2.570  0.3446 -1.7661 -0.0974
 7894SOL    HW235142   1.659   3.448   2.655  2.9344  0.8140 -0.5024
 7895SOL     OW35143   1.702   4.201   3.465  0.0617  0.4542  0.4605
 7895SOL    HW135144   1.788   4.238   3.444  0.0051 -0.0190 -0.6353
 7895SOL    HW235145   1.709   4.204   3.560 -0.0050 -0.0244  0.4775
 7896SOL     OW35146   0.562   2.516   6.162  0.1172 -0.2643  0.1946
 7896SOL    HW135147   0.634   2.453   6.164 -0.5669 -1.0473  0.6519
 7896SOL    HW235148   0.513   2.491   6.084  0.7035  1.2208 -0.6285
 7897SOL     OW35149   4.041   3.233  16.289 -0.1097  0.3775 -0.5083
 7897SOL    HW135150   4.040   3.286  16.209 -0.4914  0.8294 -0.2043
 7897SOL    HW235151   4.068   3.148  16.252 -2.0019 -0.1788 -0.6338
 7898SOL     OW35152   4.571   4.462   7.695  0.4066  0.3248 -0.2063
 7898SOL    HW135153   4.525   4.538   7.660 -1.8923 -1.0623 -0.2534
 7898SOL    HW235154   4.652   4.464   7.644 -0.4045  1.7096 -1.4206
 7899SOL     OW35155   3.932   3.880   5.068  0.3431  0.1646  0.1829
 7899SOL    HW135156   4.014   3.901   5.022 -0.1294  0.9667 -0.2931
 7899SOL    HW235157   3.901   3.795   5.038 -0.2215  1.1461 -1.9570
 7900SOL     OW35158   2.776   0.260   3.009  0.5079 -0.0550 -0.0537
 7900SOL    HW135159   2.850   0.320   3.015  0.0955  0.6033 -1.7004
 7900SOL    HW235160   2.823   0.177   3.003  0.3309 -0.0659 -1.2165
 7901SOL     OW35161   0.628   4.520   1.202  0.0489 -0.1377  0.0920
 7901SOL    HW135162   0.551   4.524   1.145  2.1358  4.8997 -2.3812
 7901SOL    HW235163   0.594   4.586   1.264  0.2725  0.4830 -0.4440
 7902SOL     OW35164   2.327   3.669   7.033  0.7146 -0.0453  0.4961
 7902SOL    HW135165   2.273   3.644   7.109 -1.5016 -0.7116 -1.2678
 7902SOL    HW235166   2.264   3.662   6.961  0.3474 -0.1417  0.8224
 7903SOL     OW35167   2.043   2.255   6.851  0.1108  0.1807  0.3386
 7903SOL    HW135168   2.046   2.164   6.881 -0.6282 -0.8593 -2.7417
 7903SOL    HW235169   1.950   2.270   6.872  0.1579  3.2208 -1.6130
 7904SOL     OW35170   1.163   1.325   9.942 -0.4451 -0.2430 -0.2837
 7904SOL    HW135171   1.098   1.337  10.011  1.7606 -0.4429  1.8089
 7904SOL    HW235172   1.118   1.268   9.880 -1.7512 -0.7330  1.1262
 7905SOL     OW35173   1.371   0.309   3.017  0.0167  0.7143  0.2872
 7905SOL    HW135174   1.312   0.237   3.040 -1.1954  0.8689 -2.4485
 7905SOL    HW235175   1.363   0.303   2.922 -1.3785 -0.7909  0.5010
 7906SOL     OW35176   0.776   4.163   1.873 -0.3545 -0.2110  0.0653
 7906SOL    HW135177   0.788   4.081   1.921 -1.2627 -1.1642 -1.3273
 7906SOL    HW235178   0.772   4.225   1.946 -0.2666 -3.1562  2.5883
 7907SOL     OW35179   0.599   3.229   6.799 -0.3610  0.4059  0.8015
 7907SOL    HW135180   0.604   3.311   6.848  0.0717  0.2290  1.0537
 7907SOL    HW235181   0.692   3.220   6.777 -1.0347 -2.0434 -0.9677
 7908SOL     OW35182   4.329   2.700  14.947  0.0886  0.0107 -0.1076
 7908SOL    HW135183   4.283   2.739  14.873  1.9001  0.5599 -0.9414
 7908SOL    HW235184   4.251   2.694  15.002  0.2058  1.9093  0.2561
 7909SOL     OW35185   1.759   1.675   9.208 -0.1285  0.1192  0.4376
 7909SOL    HW135186   1.833   1.657   9.150 -1.2932 -2.5951 -0.1831
 7909SOL    HW235187   1.716   1.590   9.207  1.5719 -0.7228 -0.4906
 7910SOL     OW35188   3.554   0.921   5.098  0.5454  0.2141  0.2237
 7910SOL    HW135189   3.466   0.902   5.065  0.7863 -1.0502  0.2955
 7910SOL    HW235190   3.602   0.943   5.018  2.7338  1.2061  1.8126
 7911SOL     OW35191   4.537   3.683   7.918 -0.0977 -0.3613  0.0519
 7911SOL    HW135192   4.631   3.700   7.913  0.2089 -2.6576 -1.8311
 7911SOL    HW235193   4.504   3.704   7.831  0.1972  0.3185  0.1032
 7912SOL     OW35194   0.357   3.795   3.459  0.2773  0.2950 -0.8478
 7912SOL    HW135195   0.277   3.820   3.504  1.5390 -0.5784  1.9000
 7912SOL    HW235196   0.423   3.822   3.523 -0.2285  1.2807 -0.7540
 7913SOL     OW35197   1.153   1.415  14.801  0.3056  0.3272 -0.0624
 7913SOL    HW135198   1.080   1.362  14.770 -0.1096  0.1882  1.1556
 7913SOL    HW235199   1.202   1.441  14.723 -0.2600  1.4196 -0.0444
 7914SOL     OW35200   2.344   1.559   6.093  0.4975  0.6260 -0.0830
 7914SOL    HW135201   2.335   1.594   6.182 -0.3807  0.6271 -0.1735
 7914SOL    HW235202   2.394   1.635   6.064  2.9972 -1.1372 -0.3696
 7915SOL     OW35203   3.704   3.839   7.292 -0.1186 -0.8831  0.0917
 7915SOL    HW135204   3.639   3.897   7.253  1.5629 -0.3350 -1.9006
 7915SOL    HW235205   3.684   3.749   7.268  0.3730 -0.8406 -0.4822
 7916SOL     OW35206   1.770   2.500   1.825 -0.2290 -0.0404 -0.4188
 7916SOL    HW135207   1.848   2.555   1.825  0.1824 -0.6257 -0.4621
 7916SOL    HW235208   1.717   2.549   1.762  0.6921  0.6953 -0.6236
 7917SOL     OW35209   1.916   1.731   5.338 -0.1490  0.1863 -0.0915
 7917SOL    HW135210   1.913   1.752   5.432  0.7828  2.4074 -0.5734
 7917SOL    HW235211   1.961   1.646   5.339 -0.3400  0.0719 -0.9409
 7918SOL     OW35212   1.362   4.520   3.634 -0.1734 -0.3818  0.2031
 7918SOL    HW135213   1.296   4.480   3.577 -0.0421 -1.7663  1.0036
 7918SOL    HW235214   1.390   4.436   3.672  0.5364  0.7389  2.1614
 7919SOL     OW35215   1.992   2.586   9.094  0.7059 -0.3494 -0.0274
 7919SOL    HW135216   2.025   2.595   9.184  3.5096 -1.2073 -0.9530
 7919SOL    HW235217   2.019   2.674   9.067 -0.7515 -0.5558 -2.0848
 7920SOL     OW35218   4.274   1.061   3.439  0.4020 -0.2624 -0.1626
 7920SOL    HW135219   4.226   1.071   3.522  1.6277 -0.5343  0.5801
 7920SOL    HW235220   4.291   0.967   3.433 -0.1932 -0.4089  0.4471
 7921SOL     OW35221   0.102   4.452   6.603 -0.0919 -0.0445  0.1738
 7921SOL    HW135222   0.054   4.394   6.662  0.1775 -0.3907  0.0549
 7921SOL    HW235223   0.041   4.525   6.593  0.5297  0.3455 -0.8569
 7922SOL     OW35224   2.246   3.098   3.051  0.1903 -0.0169 -0.1448
 7922SOL    HW135225   2.272   3.085   2.960 -0.4407 -0.5126 -0.2555
 7922SOL    HW235226   2.164   3.148   3.047  0.2023 -0.0817 -1.2579
 7923SOL     OW35227   4.352   4.122  11.894  0.6556 -0.0011  0.4717
 7923SOL    HW135228   4.375   4.117  11.802  2.3353 -1.9249  1.0051
 7923SOL    HW235229   4.292   4.048  11.894  2.2782 -1.3004  0.4216
 7924SOL     OW35230   1.990   3.846   6.147  0.2724 -0.1381  0.4026
 7924SOL    HW135231   1.921   3.912   6.133  0.1865  0.1373  2.1413
 7924SOL    HW235232   1.945   3.800   6.218 -0.1621 -1.6217 -0.8402
 7925SOL     OW35233   1.128   3.720   6.846  0.0055 -0.0491 -0.3414
 7925SOL    HW135234   1.049   3.666   6.850 -1.1861  1.7760  0.6894
 7925SOL    HW235235   1.174   3.662   6.907 -0.3285 -1.3622 -1.3366
 7926SOL     OW35236   1.555   0.017   4.102  0.2405 -0.0413 -0.2203
 7926SOL    HW135237   1.525   0.105   4.078  1.0798  0.1138 -0.7249
 7926SOL    HW235238   1.621   0.004   4.034  1.2472 -1.6736  1.0675
 7927SOL     OW35239   4.451   4.334   2.768 -0.0431 -0.2325 -0.5604
 7927SOL    HW135240   4.462   4.428   2.776 -1.9502 -0.2284  1.9777
 7927SOL    HW235241   4.540   4.300   2.773 -0.0189 -0.0849 -0.0182
 7928SOL     OW35242   2.082   0.663   2.272  0.1014 -0.2337 -0.1745
 7928SOL    HW135243   2.065   0.685   2.180  0.8574 -0.9528 -0.4790
 7928SOL    HW235244   2.129   0.745   2.286  0.5335 -0.6427  0.7651
 7929SOL     OW35245   1.670   2.744   7.224 -0.5580 -0.2987  0.2419
 7929SOL    HW135246   1.717   2.815   7.268  1.2431 -1.9419  0.9861
 7929SOL    HW235247   1.616   2.725   7.301 -0.0962 -0.4845  0.5176
 7930SOL     OW35248   4.424   1.749   3.727  0.1060 -0.3366 -0.4000
 7930SOL    HW135249   4.406   1.746   3.633 -2.2617  0.6843  0.0134
 7930SOL    HW235250   4.441   1.658   3.750  2.4642  0.7263  2.0445
 7931SOL     OW35251   3.240   1.527   4.932  0.3789  0.4261 -0.0343
 7931SOL    HW135252   3.193   1.601   4.971  1.5319  1.5938 -0.8171
 7931SOL    HW235253   3.229   1.462   5.001 -4.1269  0.8110 -0.3751
 7932SOL     OW35254   4.158   1.559  16.819  0.0433  0.2394 -0.4467
 7932SOL    HW135255   4.153   1.475  16.866  1.3256  0.5041  0.1545
 7932SOL    HW235256   4.078   1.594  16.859  0.5334  0.6154  0.1936
 7933SOL     OW35257   2.506   2.398   6.780  0.9523  0.3825 -0.0032
 7933SOL    HW135258   2.594   2.365   6.763  0.9744  2.3943 -3.8602
 7933SOL    HW235259   2.521   2.493   6.783  2.0163  0.1801  1.1418
 7934SOL     OW35260   3.633   0.391  12.374 -0.0555 -0.2619  0.1312
 7934SOL    HW135261   3.595   0.304  12.385  0.4600 -0.6843 -1.4875
 7934SOL    HW235262   3.649   0.383  12.280  0.2430 -0.2415  0.1805
 7935SOL     OW35263   4.009   2.377   2.662 -0.3715 -0.2770 -0.1057
 7935SOL    HW135264   3.959   2.354   2.583  1.5698 -3.3943 -0.4009
 7935SOL    HW235265   3.954   2.450   2.691  0.6227 -0.2815  1.7619
 7936SOL     OW35266   3.320   2.117   7.066  0.7693  0.0638 -0.0464
 7936SOL    HW135267   3.267   2.126   7.145 -2.5693 -0.7591 -2.1851
 7936SOL    HW235268   3.328   2.022   7.066  0.3061  0.0268  2.1476
 7937SOL     OW35269   1.940   3.800  11.138  0.4140  0.1572  0.3144
 7937SOL    HW135270   1.897   3.872  11.184 -0.9771 -1.1361  1.0451
 7937SOL    HW235271   2.033   3.811  11.153  0.2126  0.8319  1.0595
 7938SOL     OW35272   3.397   1.595   9.044  0.0891 -0.1582 -0.2042
 7938SOL    HW135273   3.368   1.671   8.994 -1.8414 -2.5050 -2.6642
 7938SOL    HW235274   3.320   1.567   9.094  1.2144  0.2842  1.8020
 7939SOL     OW35275   3.010   0.033   3.849 -0.0534 -0.1207  0.0480
 7939SOL    HW135276   2.927   4.708   3.847  0.1037 -0.2470 -3.4884
 7939SOL    HW235277   3.021   0.034   3.944  0.5137  0.3008 -0.0251
 7940SOL     OW35278   3.008   0.365  15.591  0.1695  0.2485 -0.4686
 7940SOL    HW135279   2.983   0.454  15.568  0.4872 -0.6294 -4.0990
 7940SOL    HW235280   3.014   0.375  15.686  0.7399 -0.0324 -0.4722
 7941SOL     OW35281   0.002   2.726  12.220 -0.6072 -0.2098 -0.4150
 7941SOL    HW135282   4.662   2.659  12.194 -1.9353  0.5393  0.8515
 7941SOL    HW235283   4.681   2.760  12.298 -1.0690  0.5724 -1.0119
 7942SOL     OW35284   0.257   1.645  15.107 -0.3834 -0.3937  0.0619
 7942SOL    HW135285   0.262   1.594  15.026  2.9323 -1.8359  1.1603
 7942SOL    HW235286   0.186   1.705  15.086 -0.0393 -0.0952 -0.2332
 7943SOL     OW35287   1.013   4.330   6.083  0.0111 -0.1892 -0.0733
 7943SOL    HW135288   1.107   4.321   6.071 -0.1034 -1.0758 -0.2994
 7943SOL    HW235289   0.997   4.244   6.044  0.3825  0.1744 -1.0457
 7944SOL     OW35290   3.104   0.782   7.390  0.5219 -0.0035 -0.0956
 7944SOL    HW135291   3.091   0.877   7.384 -2.3264 -0.4086 -0.4081
 7944SOL    HW235292   3.039   0.752   7.454  1.6464 -0.4168  0.8532
 7945SOL     OW35293   1.235   2.269  15.255  0.2830 -0.4254 -0.0370
 7945SOL    HW135294   1.263   2.359  15.269  1.7271 -0.9137  0.1745
 7945SOL    HW235295   1.156   2.270  15.310  1.8055  0.6725  2.1355
 7946SOL     OW35296   3.455   0.794  17.315  0.2269  0.0245  0.0631
 7946SOL    HW135297   3.388   0.795  17.383  0.8536 -0.9267  0.6951
 7946SOL    HW235298   3.407   0.807  17.233  1.2929 -0.7442 -0.6930
 7947SOL     OW35299   0.160   3.356   1.005 -0.1519  0.2588 -0.0466
 7947SOL    HW135300   0.079   3.361   1.057 -0.3723  0.0604 -0.3658
 7947SOL    HW235301   0.194   3.269   1.029  1.7384  0.1601 -3.1317
 7948SOL     OW35302   2.909   1.231   2.690  0.2431  0.4158 -0.7415
 7948SOL    HW135303   2.983   1.244   2.631  0.2162 -1.8838 -1.2914
 7948SOL    HW235304   2.904   1.136   2.678 -3.5795  0.6313 -0.8293
 7949SOL     OW35305   3.938   2.524   8.079 -0.1418  0.6861 -0.2063
 7949SOL    HW135306   4.006   2.590   8.068 -1.0333  2.2145  3.2596
 7949SOL    HW235307   3.908   2.523   7.988 -1.2530  0.2884  0.1647
 7950SOL     OW35308   2.909   2.199   3.956  0.0786  0.1355 -0.0353
 7950SOL    HW135309   2.836   2.138   3.967  2.2811 -2.6191 -0.6889
 7950SOL    HW235310   2.863   2.281   3.939 -0.0379  0.1880  0.5602
 7951SOL     OW35311   0.139   3.433   3.070  0.6788  0.2233  0.0127
 7951SOL    HW135312   0.156   3.358   3.127 -0.6119  1.1205  1.5910
 7951SOL    HW235313   0.045   3.431   3.051 -0.0535 -0.3501  3.8207
 7952SOL     OW35314   3.722   0.071   3.247 -0.5322  0.2286  0.1886
 7952SOL    HW135315   3.776   0.093   3.171 -0.4130  0.7041  0.4156
 7952SOL    HW235316   3.696   4.707   3.215  1.4725 -0.3105 -0.0130
 7953SOL     OW35317   4.224   1.752   4.786 -0.2919  0.4331 -0.3738
 7953SOL    HW135318   4.218   1.844   4.758 -1.2362  0.3344 -0.4826
 7953SOL    HW235319   4.145   1.719   4.743  0.8918 -0.8671 -1.5620
 7954SOL     OW35320   3.075   2.389   2.017  0.5422  0.5592 -0.0883
 7954SOL    HW135321   3.028   2.332   1.957  2.2838 -0.4978 -0.4516
 7954SOL    HW235322   3.042   2.476   1.993  0.9835  1.0020  0.9403
 7955SOL     OW35323   4.627   1.002   0.954 -0.2143  0.2618 -0.4226
 7955SOL    HW135324   4.544   0.968   0.988 -0.8536  0.3289 -1.9068
 7955SOL    HW235325   4.688   0.939   0.993  0.5178  0.8470 -0.6209
 7956SOL     OW35326   0.312   0.951  15.706  0.2872 -0.2395 -0.5792
 7956SOL    HW135327   0.339   0.859  15.701  0.6706 -0.1303 -0.5570
 7956SOL    HW235328   0.284   0.962  15.615 -2.3688 -0.0951  0.2729
 7957SOL     OW35329   3.693   0.779   3.578 -0.4389 -0.4866  0.2879
 7957SOL    HW135330   3.787   0.794   3.571 -0.3753 -1.7391 -1.7287
 7957SOL    HW235331   3.666   0.837   3.507  1.7656  1.1523  0.8071
 7958SOL     OW35332   2.897   4.695   7.908  0.0290 -0.2357 -0.5215
 7958SOL    HW135333   2.964   0.024   7.863 -0.6144  1.2665  0.2238
 7958SOL    HW235334   2.862   4.653   7.829 -0.7016 -0.7874  0.0974
 7959SOL     OW35335   0.983   0.542   4.288 -0.0130 -0.1016 -0.0193
 7959SOL    HW135336   1.060   0.492   4.260  0.7983  1.7812 -1.2026
 7959SOL    HW235337   0.921   0.470   4.278  0.6715 -0.5292 -1.2902
 7960SOL     OW35338   2.167   4.050  16.915  0.2808 -0.4724  0.4699
 7960SOL    HW135339   2.239   4.106  16.886 -0.9795  1.6999  1.5867
 7960SOL    HW235340   2.116   4.110  16.969 -0.1606  0.6335 -1.1430
 7961SOL     OW35341   3.874   1.552   4.376  0.1588 -0.3315 -0.3513
 7961SOL    HW135342   3.884   1.647   4.364 -2.7413 -0.1264 -1.0840
 7961SOL    HW235343   3.899   1.524   4.287  0.7807 -1.0062  0.0302
 7962SOL     OW35344   0.705   2.287  11.588 -0.1838 -0.3606 -0.2993
 7962SOL    HW135345   0.627   2.276  11.533 -2.0309 -0.5425  2.3431
 7962SOL    HW235346   0.757   2.352  11.542 -0.3447  0.3286  0.4938
 7963SOL     OW35347   3.596   1.965  11.503 -0.4585  0.0243  0.4676
 7963SOL    HW135348   3.615   1.923  11.419  2.8989 -0.3921  1.4388
 7963SOL    HW235349   3.673   1.946  11.557 -0.2423  1.6009  0.7231
 7964SOL     OW35350   2.596   0.551  16.047 -0.4080 -0.2652 -0.0947
 7964SOL    HW135351   2.585   0.464  16.009  2.5099  0.1125 -1.7968
 7964SOL    HW235352   2.542   0.548  16.126  1.4710 -2.7620  1.0641
 7965SOL     OW35353   3.761   4.482   5.439 -0.3915  0.2555 -0.0998
 7965SOL    HW135354   3.803   4.398   5.422 -2.3848 -0.8692  0.6307
 7965SOL    HW235355   3.775   4.485   5.533 -2.2672 -0.9952  0.2114
 7966SOL     OW35356   2.395   0.992   7.643 -0.3357  0.1377 -0.3198
 7966SOL    HW135357   2.409   1.083   7.617 -0.2753 -0.1814 -1.3917
 7966SOL    HW235358   2.479   0.955   7.670 -0.0898  1.9063  1.3902
 7967SOL     OW35359   4.661   0.246   8.456 -0.0439  0.3610  0.1036
 7967SOL    HW135360   4.711   0.205   8.385 -0.7620  1.4120 -1.0046
 7967SOL    HW235361   0.011   0.281   8.507 -0.3148  0.5159  0.3823
 7968SOL     OW35362   2.177   4.375   4.426 -0.0249 -0.3096 -0.4970
 7968SOL    HW135363   2.128   4.440   4.477 -0.2118  1.1744 -2.6140
 7968SOL    HW235364   2.255   4.364   4.481 -0.5696 -1.2014  0.1129
 7969SOL     OW35365   4.364   0.595  15.749  0.1999 -0.2558 -0.1247
 7969SOL    HW135366   4.322   0.511  15.770 -1.4491  1.5171  3.6054
 7969SOL    HW235367   4.324   0.647  15.818 -0.7093 -0.3787 -0.5604
 7970SOL     OW35368   2.766   4.651   2.301  0.1548  0.0607 -0.4114
 7970SOL    HW135369   2.679   4.642   2.338  0.7452 -2.6750  0.2958
 7970SOL    HW235370   2.766   4.589   2.228 -0.9769  0.5704 -0.8374
 7971SOL     OW35371   0.987   1.897  10.644  0.1343 -0.7050  0.1588
 7971SOL    HW135372   1.059   1.839  10.669 -0.6425 -1.1173  1.4956
 7971SOL    HW235373   0.931   1.838  10.594 -1.2985  2.1523 -1.5871
 7972SOL     OW35374   4.705   0.419  16.510 -0.3178  0.0339  0.5610
 7972SOL    HW135375   0.025   0.350  16.559  0.9719  0.3473 -0.1394
 7972SOL    HW235376   4.671   0.474  16.580  1.0100  1.6702 -0.0827
 7973SOL     OW35377   2.780   2.188   1.588 -0.4412 -0.3197  0.3245
 7973SOL    HW135378   2.727   2.256   1.548 -0.4013 -1.2353 -1.2802
 7973SOL    HW235379   2.838   2.161   1.517  1.0672 -1.4430  1.9769
 7974SOL     OW35380   4.319   4.624  16.532  0.3623 -0.1266 -0.1891
 7974SOL    HW135381   4.381   4.681  16.487 -0.1209 -0.8570 -1.7738
 7974SOL    HW235382   4.248   4.614  16.469  1.2969  0.2954 -1.3166
 7975SOL     OW35383   2.773   2.771   8.881 -0.5232 -0.3257  0.2192
 7975SOL    HW135384   2.829   2.694   8.886 -0.1888 -0.0382  1.0601
 7975SOL    HW235385   2.816   2.830   8.943  2.8105 -2.0511 -0.4479
 7976SOL     OW35386   1.739   0.720   9.597 -0.1857 -0.1525  0.3393
 7976SOL    HW135387   1.699   0.635   9.580 -0.1858 -0.3640  1.4077
 7976SOL    HW235388   1.697   0.756   9.675 -0.9587 -1.4887  0.5450
 7977SOL     OW35389   3.497   4.391   7.025 -0.1252 -0.7310  0.0756
 7977SOL    HW135390   3.495   4.412   7.118  0.3709  0.0023 -0.0845
 7977SOL    HW235391   3.403   4.388   7.006 -0.7344 -3.6833  3.4776
 7978SOL     OW35392   4.118   1.462   2.366  0.1810  0.2605 -1.0294
 7978SOL    HW135393   4.169   1.474   2.286  1.5240  0.3440 -0.1781
 7978SOL    HW235394   4.119   1.366   2.365 -2.2683  0.2387 -0.0745
 7979SOL     OW35395   2.309   1.078   9.756  0.1011  0.4545 -0.2862
 7979SOL    HW135396   2.239   1.109   9.813  2.0611 -1.9836  3.3834
 7979SOL    HW235397   2.266   1.066   9.671 -0.1230  0.2798 -0.1489
 7980SOL     OW35398   2.706   3.919   6.736  0.2990 -0.6048 -0.0305
 7980SOL    HW135399   2.746   3.979   6.672  0.4357 -2.5511 -1.7771
 7980SOL    HW235400   2.615   3.944   6.722  0.6301  0.6629  0.0915
 7981SOL     OW35401   2.250   0.892   6.082 -0.2158  0.1790  0.1532
 7981SOL    HW135402   2.175   0.879   6.140  0.1121 -0.6289  0.4003
 7981SOL    HW235403   2.319   0.886   6.148 -1.7894  0.7897  1.8548
 7982SOL     OW35404   3.089   2.036   6.299 -0.6978 -0.6020 -0.1098
 7982SOL    HW135405   3.137   1.955   6.313  1.6133  0.3942 -2.0460
 7982SOL    HW235406   3.070   2.034   6.205  1.4492  3.2531 -0.6754
 7983SOL     OW35407   4.123   4.654   8.104 -0.2232 -0.0100 -0.8943
 7983SOL    HW135408   4.127   4.559   8.098 -0.7664 -0.0233 -1.0608
 7983SOL    HW235409   4.180   4.675   8.178 -0.3051 -0.9612 -0.5619
 7984SOL     OW35410   3.220   4.069  10.418 -0.0873  0.2065 -0.0226
 7984SOL    HW135411   3.142   4.016  10.407  0.6410 -0.8102 -0.2719
 7984SOL    HW235412   3.192   4.147  10.370 -0.0761 -0.4236 -1.0569
 7985SOL     OW35413   0.575   2.477  17.221 -0.1841  0.0150  0.5336
 7985SOL    HW135414   0.502   2.419  17.241 -1.4235  1.2456 -0.3638
 7985SOL    HW235415   0.590   2.511  17.309  0.2685 -0.2673  0.5673
 7986SOL     OW35416   4.159   1.646   8.075  0.4412 -0.1847 -0.4822
 7986SOL    HW135417   4.225   1.643   8.006  2.5598  0.3293  1.5174
 7986SOL    HW235418   4.165   1.560   8.117 -0.3010  0.3868  0.8318
 7987SOL     OW35419   0.207   2.906  15.861 -0.2472 -0.2637 -0.2689
 7987SOL    HW135420   0.183   2.918  15.769  0.7039 -1.2982 -0.6534
 7987SOL    HW235421   0.133   2.945  15.907 -0.2143 -0.2198 -0.2536
 7988SOL     OW35422   1.005   2.135  15.372  0.2420  0.1713  0.6754
 7988SOL    HW135423   0.928   2.119  15.316  0.0500 -0.4761  1.1295
 7988SOL    HW235424   1.061   2.060  15.353 -1.5940 -0.7170 -1.3464
 7989SOL     OW35425   1.804   1.620  17.644 -0.2532 -0.0865 -0.3875
 7989SOL    HW135426   1.774   1.635   0.040  0.1244  2.4978 -0.6843
 7989SOL    HW235427   1.791   1.526  17.638  0.1415 -0.1268 -0.5566
 7990SOL     OW35428   1.668   2.892   8.399  0.1979 -0.2191 -0.2510
 7990SOL    HW135429   1.725   2.887   8.476 -0.4219  0.2592  0.2448
 7990SOL    HW235430   1.584   2.883   8.444 -0.0642  3.1041 -0.0856
 7991SOL     OW35431   2.128   2.915   4.788  0.2102  0.6155  0.0952
 7991SOL    HW135432   2.056   2.858   4.763  1.8918  0.0629 -3.5416
 7991SOL    HW235433   2.121   2.984   4.722  1.8304  0.9996  0.3048
 7992SOL     OW35434   0.946   1.147  13.514  0.1581  0.2912 -0.6450
 7992SOL    HW135435   0.975   1.234  13.542  2.3337 -0.2880 -1.0899
 7992SOL    HW235436   0.896   1.162  13.435 -1.4683  0.4806  0.4271
 7993SOL     OW35437   2.116   1.717   2.173  0.4029 -0.1506  0.3036
 7993SOL    HW135438   2.184   1.779   2.196  2.4757 -1.7522 -1.5082
 7993SOL    HW235439   2.151   1.687   2.089 -1.4343  0.9017 -0.8381
 7994SOL     OW35440   2.772   1.177   5.105  0.3255  0.4706  0.1590
 7994SOL    HW135441   2.815   1.257   5.076 -0.1060  0.8963  0.7111
 7994SOL    HW235442   2.832   1.109   5.073  1.5564  1.6736 -0.0879
 7995SOL     OW35443   1.205   3.985   4.819  0.2108 -0.8428  0.2591
 7995SOL    HW135444   1.199   3.977   4.914  1.7908  2.0388  0.6084
 7995SOL    HW235445   1.252   4.068   4.814 -1.4220  0.0412 -0.7555
 7996SOL     OW35446   2.954   2.779   6.532  0.1875  0.3450 -0.4698
 7996SOL    HW135447   2.959   2.862   6.579  0.8406 -0.7586  1.4127
 7996SOL    HW235448   3.026   2.789   6.469 -0.1362  0.5205 -0.8123
 7997SOL     OW35449   0.367   3.546   4.712  0.3319 -0.1810 -0.2858
 7997SOL    HW135450   0.374   3.457   4.679 -1.5513 -0.1016 -0.8862
 7997SOL    HW235451   0.284   3.528   4.757  0.9973 -0.2032  0.9447
 7998SOL     OW35452   4.364   1.106   5.795  0.1049  0.2112  0.0341
 7998SOL    HW135453   4.335   1.158   5.720 -1.1080 -0.4727  0.0369
 7998SOL    HW235454   4.458   1.109   5.778 -0.1624  2.8038 -1.0003
 7999SOL     OW35455   4.477   3.557   5.224 -0.0631  0.7251 -0.0743
 7999SOL    HW135456   4.482   3.473   5.270 -0.6650  0.5811 -0.2803
 7999SOL    HW235457   4.463   3.618   5.296 -0.5084 -0.7592  1.0863
 8000SOL     OW35458   2.858   2.786   6.122  0.3265  0.5159 -0.7005
 8000SOL    HW135459   2.947   2.783   6.157  0.6392  0.2889 -1.5023
 8000SOL    HW235460   2.864   2.834   6.040  0.2169 -1.1479 -1.6843
 8001SOL     OW35461   0.177   3.413  11.731  0.4303 -0.3891 -0.7295
 8001SOL    HW135462   0.195   3.406  11.637  1.6772 -1.0962 -0.4377
 8001SOL    HW235463   0.260   3.434  11.773  0.4477  1.8472 -1.9114
 8002SOL     OW35464   2.272   2.530  11.762 -0.1297  0.4018  0.1960
 8002SOL    HW135465   2.215   2.507  11.835 -0.4049 -0.6811 -0.3522
 8002SOL    HW235466   2.247   2.622  11.761  0.0112  0.4134 -1.8378
 8003SOL     OW35467   3.287   1.922  11.484 -0.2992  0.2144  0.0616
 8003SOL    HW135468   3.376   1.927  11.518  0.0496 -2.2865 -0.4689
 8003SOL    HW235469   3.242   1.882  11.559 -1.8679  1.4972 -0.1872
 8004SOL     OW35470   4.476   2.015   2.720 -0.2644  0.3212 -0.9074
 8004SOL    HW135471   4.409   1.985   2.781 -0.8819  1.2465 -1.1217
 8004SOL    HW235472   4.483   2.109   2.736  1.3610 -0.0020  0.2040
 8005SOL     OW35473   2.770   4.626   5.431  0.3499  0.6958  0.0925
 8005SOL    HW135474   2.810   4.540   5.439  0.4992  0.6311 -1.3376
 8005SOL    HW235475   2.836   4.671   5.484 -1.2099 -0.0351  2.7007
 8006SOL     OW35476   2.066   0.038   5.293  0.0915  0.1841  0.4292
 8006SOL    HW135477   2.131   0.041   5.222 -1.0040 -0.6790 -0.6060
 8006SOL    HW235478   2.097   0.110   5.348  0.8599  2.1547 -2.5639
 8007SOL     OW35479   1.569   4.096  17.280 -0.0983 -0.4152 -0.3128
 8007SOL    HW135480   1.475   4.093  17.299  0.2389 -0.8023  1.2153
 8007SOL    HW235481   1.601   4.130  17.363 -2.1409 -0.6094  0.5541
 8008SOL     OW35482   2.372   3.259   9.905  0.3256 -0.3937  1.0093
 8008SOL    HW135483   2.403   3.303   9.984 -0.8463  1.0366  0.6608
 8008SOL    HW235484   2.374   3.329   9.840 -2.3509  0.2796  1.6586
 8009SOL     OW35485   3.269   0.521   7.994 -0.2647  0.3107 -0.4517
 8009SOL    HW135486   3.336   0.461   7.960  0.6177  0.5002  0.9598
 8009SOL    HW235487   3.322   0.601   7.993 -1.4354  1.0702 -0.9102
 8010SOL     OW35488   4.280   2.886   1.213 -0.4268 -0.4162  0.6497
 8010SOL    HW135489   4.363   2.867   1.258  0.5303  2.7047  0.2304
 8010SOL    HW235490   4.305   2.927   1.130  0.3485 -2.2388 -0.0122
 8011SOL     OW35491   2.058   0.483   5.985 -0.3343  0.2648 -0.1105
 8011SOL    HW135492   2.090   0.430   5.911 -1.2653  1.1606 -1.1480
 8011SOL    HW235493   1.999   0.423   6.030  1.1525 -0.4265  0.9304
 8012SOL     OW35494   3.977   0.794  15.843 -0.1948 -0.1948 -0.5559
 8012SOL    HW135495   3.938   0.792  15.930  2.3056 -3.9082  0.5204
 8012SOL    HW235496   3.967   0.887  15.823 -1.5197 -0.7811 -2.6333
 8013SOL     OW35497   4.298   3.677   7.700  0.0201 -0.1943 -0.0722
 8013SOL    HW135498   4.213   3.717   7.713  0.7888  1.4272  0.0142
 8013SOL    HW235499   4.350   3.744   7.654 -0.0510  1.0078  1.6041
 8014SOL     OW35500   1.954   4.390   9.214  0.4765 -0.5396  0.1067
 8014SOL    HW135501   2.028   4.381   9.274 -0.1437  4.7676  1.6778
 8014SOL    HW235502   1.919   4.300   9.213 -0.8758 -0.0343  1.4390
 8015SOL     OW35503   2.457   0.869   0.803  0.0968 -0.4991  0.2785
 8015SOL    HW135504   2.461   0.964   0.795  2.8223 -0.6188  0.0284
 8015SOL    HW235505   2.377   0.851   0.754  1.3928 -0.0628 -2.0176
 8016SOL     OW35506   2.462   1.208   4.367  0.3319 -0.5041  0.0238
 8016SOL    HW135507   2.551   1.241   4.372 -0.3656  1.3591 -0.0811
 8016SOL    HW235508   2.468   1.171   4.279  1.6921  0.0939 -0.1328
 8017SOL     OW35509   4.561   2.760   3.531  0.4690  0.5079  0.3484
 8017SOL    HW135510   4.567   2.770   3.626 -0.6775 -1.3800  0.6177
 8017SOL    HW235511   4.594   2.671   3.515  1.0669  0.4834  1.7012
 8018SOL     OW35512   1.246   3.957   5.977  0.2918  0.0748 -0.2587
 8018SOL    HW135513   1.256   3.882   5.918  0.1676  0.5229 -0.8528
 8018SOL    HW235514   1.302   3.936   6.051 -0.9166  0.4182  0.7481
 8019SOL     OW35515   2.443   1.718  11.005 -0.1768 -1.1566 -0.4970
 8019SOL    HW135516   2.501   1.704  10.930  1.4012 -1.6796  0.8452
 8019SOL    HW235517   2.381   1.645  11.012  0.0037 -1.2083  0.5353
 8020SOL     OW35518   2.705   3.293   0.575 -0.6192  0.0906 -0.2708
 8020SOL    HW135519   2.692   3.223   0.511  2.0882  0.2522 -0.9990
 8020SOL    HW235520   2.622   3.341   0.568 -0.4068  0.7849  2.2236
 8021SOL     OW35521   3.145   0.224   6.232 -0.1353  0.3505  0.4612
 8021SOL    HW135522   3.077   0.269   6.282  0.2703  1.0015  0.4222
 8021SOL    HW235523   3.103   0.213   6.146  1.6583 -0.9209 -0.2452
 8022SOL     OW35524   2.948   1.470   7.021 -0.6150  0.9543 -0.6403
 8022SOL    HW135525   3.039   1.443   7.031 -0.6979  1.3563  1.2649
 8022SOL    HW235526   2.916   1.493   7.109  1.4113  1.8654 -0.1442
 8023SOL     OW35527   3.542   1.260   2.963  0.0835 -0.7238 -0.0770
 8023SOL    HW135528   3.505   1.224   2.883  0.5299 -2.1760  0.3691
 8023SOL    HW235529   3.627   1.288   2.931  0.0295 -2.6677 -1.8930
 8024SOL     OW35530   0.154   1.568   2.694  0.2790 -0.0433 -0.2244
 8024SOL    HW135531   0.207   1.488   2.686 -2.6783 -1.8339 -2.0892
 8024SOL    HW235532   0.223   1.634   2.685  0.6188 -0.4061 -0.3044
 8025SOL     OW35533   3.564   4.314  10.629 -1.1130  0.9091 -0.3749
 8025SOL    HW135534   3.603   4.400  10.643 -0.0026  0.4910 -0.9199
 8025SOL    HW235535   3.557   4.320  10.534 -0.3851  0.5450 -0.4490
 8026SOL     OW35536   3.659   3.281   1.493  0.2085 -0.1151  0.0417
 8026SOL    HW135537   3.701   3.199   1.519 -0.7387  0.0828  2.2473
 8026SOL    HW235538   3.602   3.295   1.569  3.0791 -1.4938  2.4557
 8027SOL     OW35539   2.803   4.405  15.337  0.1718  0.1049  0.0221
 8027SOL    HW135540   2.892   4.378  15.358 -0.1386 -1.3604 -0.5212
 8027SOL    HW235541   2.769   4.330  15.288  0.5662  0.2516 -0.4826
 8028SOL     OW35542   4.115   4.517  16.305  0.6296  0.2477 -0.0941
 8028SOL    HW135543   4.149   4.600  16.272  0.7990 -0.5441 -1.9062
 8028SOL    HW235544   4.081   4.481  16.223 -0.3252  1.4347 -0.2294
 8029SOL     OW35545   1.271   2.863   5.103 -0.4230 -0.0742 -0.4317
 8029SOL    HW135546   1.322   2.941   5.084 -0.4310 -0.4809 -2.1661
 8029SOL    HW235547   1.292   2.809   5.027  0.9329  1.2463 -0.9873
 8030SOL     OW35548   0.872   4.703   4.982 -0.3721  0.1376 -0.2650
 8030SOL    HW135549   0.781   4.673   4.978 -0.5339  0.5804  0.1390
 8030SOL    HW235550   0.916   4.620   4.961 -1.4691 -0.1024 -1.5936
 8031SOL     OW35551   2.277   0.766   6.832  0.2197  0.4777 -0.0254
 8031SOL    HW135552   2.326   0.846   6.852  1.0007  0.1445 -0.5811
 8031SOL    HW235553   2.348   0.702   6.841  0.1464  0.5062  0.7880
 8032SOL     OW35554   4.558   1.156  15.005  0.3808  0.5214 -0.1493
 8032SOL    HW135555   4.617   1.184  14.936  2.3778 -0.0886  1.3064
 8032SOL    HW235556   4.476   1.162  14.957 -0.1486 -1.6388  0.4742
 8033SOL     OW35557   2.842   3.857  15.124  0.7477  0.7324  0.6052
 8033SOL    HW135558   2.756   3.855  15.081  0.3088 -0.4140  1.5276
 8033SOL    HW235559   2.863   3.950  15.124  0.7214  0.7381 -0.2281
 8034SOL     OW35560   0.090   2.367   5.307 -0.1839  0.5435 -0.5061
 8034SOL    HW135561   0.110   2.448   5.261 -0.1554  0.8596  0.0700
 8034SOL    HW235562   0.121   2.374   5.397 -0.5704 -0.6317 -0.2754
 8035SOL     OW35563   1.345   1.492   8.176  0.4565  0.2350 -0.1944
 8035SOL    HW135564   1.355   1.518   8.268  0.3371  1.4443 -0.5215
 8035SOL    HW235565   1.423   1.438   8.170  1.1468  1.1777  0.2207
 8036SOL     OW35566   4.329   3.860   3.003  0.0601 -0.6813  0.2078
 8036SOL    HW135567   4.352   3.935   2.948  0.5121 -0.2187  1.0294
 8036SOL    HW235568   4.406   3.808   2.983  1.3954  0.5399  2.1916
 8037SOL     OW35569   4.386   1.651  17.640 -0.5479 -0.1726 -0.5048
 8037SOL    HW135570   4.413   1.677   0.034  1.3436  1.4512 -1.5499
 8037SOL    HW235571   4.301   1.609  17.653 -0.2564 -0.2470  1.1583
 8038SOL     OW35572   4.676   4.269  10.528  0.2009  0.3860 -0.1899
 8038SOL    HW135573   4.684   4.363  10.510  0.3108  0.3236 -0.4610
 8038SOL    HW235574   0.041   4.253  10.561  0.4172 -0.6958 -1.3104
 8039SOL     OW35575   1.728   4.241   7.916 -0.3036  0.1218  0.3518
 8039SOL    HW135576   1.642   4.242   7.960  0.1446  0.2650  1.2187
 8039SOL    HW235577   1.785   4.239   7.992 -1.1855  2.5226  1.0704
 8040SOL     OW35578   2.165   1.032   0.182 -0.0445  0.1892 -0.4345
 8040SOL    HW135579   2.259   1.033   0.165 -0.4377 -1.2562 -2.7452
 8040SOL    HW235580   2.174   1.064   0.271 -2.1799 -0.2549 -0.0680
 8041SOL     OW35581   3.196   2.759   2.246  0.7377  0.1618 -0.0826
 8041SOL    HW135582   3.198   2.841   2.295 -0.6186  1.8916 -2.9246
 8041SOL    HW235583   3.204   2.802   2.161  1.4875 -2.8686 -1.5454
 8042SOL     OW35584   4.471   1.495   3.898  0.2074  0.2232 -0.0294
 8042SOL    HW135585   4.501   1.440   3.970 -2.5243 -0.9566  0.2077
 8042SOL    HW235586   4.383   1.496   3.937  0.2225 -2.9320  0.1258
 8043SOL     OW35587   0.706   2.891   5.335  0.0625  0.0420 -0.2600
 8043SOL    HW135588   0.710   2.798   5.314  1.2937 -0.3549  1.7420
 8043SOL    HW235589   0.746   2.903   5.421  0.0280  1.5422 -0.4444
 8044SOL     OW35590   2.164   3.348  15.090 -0.0506  0.1945  0.0293
 8044SOL    HW135591   2.209   3.428  15.117 -0.4457  0.3472  0.2398
 8044SOL    HW235592   2.092   3.382  15.037 -0.9183 -2.5226 -0.5251
 8045SOL     OW35593   0.811   0.495   2.492  0.0593  0.2953 -0.2454
 8045SOL    HW135594   0.723   0.520   2.517  0.4048 -0.1040  1.3511
 8045SOL    HW235595   0.790   0.428   2.427  2.2651 -0.9852  0.3435
 8046SOL     OW35596   2.819   2.992   5.905  0.4613 -0.0938 -0.2722
 8046SOL    HW135597   2.880   2.954   5.842  0.2512  1.4737 -1.4464
 8046SOL    HW235598   2.749   2.947   5.859 -0.2554 -0.4908  1.2166
 8047SOL     OW35599   1.638   2.909   7.638  0.3303 -0.2815  0.5449
 8047SOL    HW135600   1.625   2.965   7.561  0.6588 -1.3914 -0.3179
 8047SOL    HW235601   1.630   2.972   7.710  1.6179  1.2021 -0.6099
 8048SOL     OW35602   2.824   0.627  12.493 -0.1583 -0.2828  0.3888
 8048SOL    HW135603   2.913   0.641  12.460  0.4150 -0.5572  1.7927
 8048SOL    HW235604   2.766   0.651  12.421  1.6721  2.5590 -0.1241
 8049SOL     OW35605   1.249   3.069   2.094 -0.4564  0.0792 -0.3295
 8049SOL    HW135606   1.278   3.150   2.053  3.5760 -0.3573  1.5930
 8049SOL    HW235607   1.311   3.001   2.065 -0.4179  0.4962 -1.2215
 8050SOL     OW35608   0.842   3.993   3.844 -0.1423 -0.2105  0.0199
 8050SOL    HW135609   0.785   4.043   3.902 -0.5843 -0.5812 -0.0989
 8050SOL    HW235610   0.930   4.021   3.873  0.3833 -0.8077 -1.0230
 8051SOL     OW35611   1.285   0.483   7.824 -0.1887  0.4275  0.2795
 8051SOL    HW135612   1.349   0.423   7.862  2.0357  2.0945 -0.8330
 8051SOL    HW235613   1.211   0.422   7.822  0.7456 -0.7216  0.8297
 8052SOL     OW35614   0.009   2.277   5.764 -0.3376 -0.2139  0.0394
 8052SOL    HW135615   4.718   2.361   5.807  0.1537  0.9065 -1.9813
 8052SOL    HW235616   4.698   2.219   5.831 -1.1065 -0.3907 -0.4990
 8053SOL     OW35617   0.072   4.216   8.329  0.2807  0.0998 -0.1243
 8053SOL    HW135618   0.036   4.304   8.341  0.6103  0.1833  0.2498
 8053SOL    HW235619   0.165   4.234   8.312  0.5173 -0.2159  0.8343
 8054SOL     OW35620   4.118   2.932  12.669 -0.0660 -0.3969 -0.3374
 8054SOL    HW135621   4.187   2.974  12.721 -0.2398  0.8197 -1.0958
 8054SOL    HW235622   4.132   2.839  12.689 -3.5054 -0.4382  1.8433
 8055SOL     OW35623   4.581   2.877  17.185 -0.2368  0.5929  0.1016
 8055SOL    HW135624   4.570   2.786  17.211  0.5557  0.4350 -0.1086
 8055SOL    HW235625   4.538   2.931  17.251 -0.8801 -1.4056  1.3188
 8056SOL     OW35626   2.567   1.528  16.027  0.4730  0.1211  0.1197
 8056SOL    HW135627   2.577   1.542  16.121 -1.8129  2.1212  0.0789
 8056SOL    HW235628   2.500   1.460  16.024  1.9253 -1.3676  1.5776
 8057SOL     OW35629   1.916   1.261   9.195  0.6973  0.6701 -0.0425
 8057SOL    HW135630   1.995   1.313   9.185  0.7591  0.5188 -0.3781
 8057SOL    HW235631   1.932   1.206   9.118  2.1461  1.3634 -0.2305
 8058SOL     OW35632   3.026   0.685   5.788  0.0402 -0.6471 -0.5128
 8058SOL    HW135633   3.014   0.676   5.694  0.3030  0.4663 -0.6610
 8058SOL    HW235634   2.965   0.619   5.821 -1.0778 -0.5575 -2.4470
 8059SOL     OW35635   3.084   1.751   4.739 -0.2429  0.2841  0.2737
 8059SOL    HW135636   3.070   1.700   4.818 -1.7347  0.5612  0.1893
 8059SOL    HW235637   3.134   1.824   4.775 -0.4207 -0.6230  2.3650
 8060SOL     OW35638   3.370   2.358   9.039  0.1102 -0.3760 -0.1357
 8060SOL    HW135639   3.432   2.423   9.006 -0.4240 -0.2215 -0.8514
 8060SOL    HW235640   3.312   2.417   9.088  0.4978  0.1058 -0.2608
 8061SOL     OW35641   2.801   1.665   8.446 -0.0239 -0.5419 -0.7268
 8061SOL    HW135642   2.778   1.697   8.359  1.0976 -3.3944 -2.0950
 8061SOL    HW235643   2.888   1.630   8.424 -0.2532 -1.4689 -0.1426
 8062SOL     OW35644   1.737   1.155  12.713 -0.4950 -0.4869 -0.1457
 8062SOL    HW135645   1.643   1.163  12.729 -0.8359 -0.2761 -2.2341
 8062SOL    HW235646   1.785   1.203  12.780 -0.8838  0.2709 -0.4132
 8063SOL     OW35647   2.646   1.837   2.567  0.5521  0.0777 -0.5939
 8063SOL    HW135648   2.651   1.822   2.473 -1.2267  0.8151 -0.8040
 8063SOL    HW235649   2.595   1.918   2.569 -1.1548 -1.0627  1.4514
 8064SOL     OW35650   1.442   3.374   4.978 -0.5669 -0.2644 -0.6484
 8064SOL    HW135651   1.376   3.370   4.909  0.4182 -0.6315 -1.5740
 8064SOL    HW235652   1.483   3.458   4.957 -2.4586  0.4656 -1.3749
 8065SOL     OW35653   1.253   3.333  11.811 -0.6599  0.3946 -0.3689
 8065SOL    HW135654   1.236   3.363  11.722  0.9732  2.0582 -0.1170
 8065SOL    HW235655   1.311   3.401  11.844 -1.0195  0.2651  0.5432
 8066SOL     OW35656   2.689   3.308   4.107 -0.5778  0.6324 -0.2791
 8066SOL    HW135657   2.676   3.391   4.062 -0.9978 -0.2184 -1.7381
 8066SOL    HW235658   2.618   3.315   4.171 -1.1577  0.1241 -0.8597
 8067SOL     OW35659   3.148   1.233   3.816 -0.7870  0.3769 -0.0299
 8067SOL    HW135660   3.091   1.220   3.740  1.4886 -1.4531 -1.4080
 8067SOL    HW235661   3.130   1.325   3.833  1.1425  0.3929  1.9057
 8068SOL     OW35662   4.528   0.399   8.780  0.0596 -0.3993  0.1224
 8068SOL    HW135663   4.498   0.457   8.850 -0.0682  2.9508 -2.7389
 8068SOL    HW235664   4.610   0.369   8.820  0.1479 -1.0721 -0.5529
 8069SOL     OW35665   4.112   0.165   8.492 -0.3057  0.0482  0.1400
 8069SOL    HW135666   4.020   0.184   8.471  0.4920  3.6813 -0.1237
 8069SOL    HW235667   4.143   0.184   8.403 -1.1168 -2.2375 -0.6211
 8070SOL     OW35668   0.039   1.274   5.892  0.2427  0.1444  0.7559
 8070SOL    HW135669   0.039   1.230   5.977  0.0111  0.4541  0.9182
 8070SOL    HW235670   0.067   1.209   5.828 -2.2351 -1.4954  1.3654
 8071SOL     OW35671   1.683   2.783   6.931 -0.5984  0.0290 -0.1427
 8071SOL    HW135672   1.722   2.871   6.924 -1.9739  0.5932 -0.7825
 8071SOL    HW235673   1.682   2.769   7.025 -0.5907  0.7356 -0.0344
 8072SOL     OW35674   1.839   0.154   6.511 -0.1768  0.1569  0.1426
 8072SOL    HW135675   1.749   0.135   6.486  0.5035 -3.4929  0.5729
 8072SOL    HW235676   1.823   0.199   6.594 -1.3880 -0.8490  0.4378
 8073SOL     OW35677   1.027   1.191  14.488  0.1399 -0.0988 -0.5327
 8073SOL    HW135678   1.013   1.249  14.563 -0.6600 -0.4329 -0.4201
 8073SOL    HW235679   0.957   1.200  14.424 -1.0005 -0.3490  0.6756
 8074SOL     OW35680   1.590   0.613  15.210 -0.1088  0.1832 -0.1274
 8074SOL    HW135681   1.648   0.613  15.134  2.0997  1.5885  1.5716
 8074SOL    HW235682   1.560   0.703  15.193 -0.2400  0.0752 -0.4777
 8075SOL     OW35683   0.105   0.307   8.067 -0.0477  0.3652  0.3113
 8075SOL    HW135684   0.080   0.247   7.996  0.5164 -1.1300  1.3596
 8075SOL    HW235685   0.073   0.384   8.021 -2.0690 -0.1648  0.8283
 8076SOL     OW35686   1.302   1.142   2.658 -0.3011  0.6015  0.3873
 8076SOL    HW135687   1.229   1.183   2.612 -0.1371  0.3342 -0.1153
 8076SOL    HW235688   1.373   1.188   2.614 -0.8049  0.9139 -0.0882
 8077SOL     OW35689   3.959   3.470   6.745 -0.1206  0.0017 -0.1597
 8077SOL    HW135690   3.974   3.388   6.791 -0.8341 -0.7245 -1.2181
 8077SOL    HW235691   3.865   3.463   6.733  0.0222 -2.5507  0.2698
 8078SOL     OW35692   4.027   1.291   6.256 -0.2336 -0.1321 -0.1184
 8078SOL    HW135693   3.939   1.280   6.222  0.2948 -1.2960 -1.0912
 8078SOL    HW235694   4.021   1.285   6.352 -0.5870  0.1239 -0.1249
 8079SOL     OW35695   4.518   1.130  16.771 -0.1212 -0.2898  0.2610
 8079SOL    HW135696   4.577   1.055  16.765  1.1981  0.6319  1.2951
 8079SOL    HW235697   4.485   1.139  16.682 -2.2728  1.7829  1.2759
 8080SOL     OW35698   1.583   4.236   6.677 -0.2774  0.5121 -0.2689
 8080SOL    HW135699   1.644   4.166   6.653 -0.1993  0.4905 -0.0086
 8080SOL    HW235700   1.518   4.185   6.725  1.3390 -0.0490  1.3339
 8081SOL     OW35701   1.416   0.252   4.292  0.2343 -0.6484  0.5535
 8081SOL    HW135702   1.434   0.327   4.348 -0.8505  0.4604 -0.5811
 8081SOL    HW235703   1.426   0.281   4.201  0.5995  0.3911  0.9337
 8082SOL     OW35704   2.376   2.465   4.581  0.5464 -0.6113 -0.5000
 8082SOL    HW135705   2.354   2.517   4.503 -0.9762 -1.1031 -0.4045
 8082SOL    HW235706   2.437   2.523   4.627  1.8963 -3.5322  1.4020
 8083SOL     OW35707   3.469   4.598   0.349  0.1908 -0.1389 -0.0167
 8083SOL    HW135708   3.394   4.563   0.301  0.3059 -0.0968 -0.2256
 8083SOL    HW235709   3.483   4.533   0.418 -0.9008  0.0354  0.3764
 8084SOL     OW35710   4.362   0.384   4.272 -0.2420 -0.2303  0.4447
 8084SOL    HW135711   4.316   0.374   4.189  2.0331  2.0719 -1.1073
 8084SOL    HW235712   4.360   0.480   4.280  0.2918 -0.0775 -1.2549
 8085SOL     OW35713   2.100   2.279  17.075 -0.0742  0.3059  0.3711
 8085SOL    HW135714   2.073   2.194  17.039  0.8437  0.8681 -1.6610
 8085SOL    HW235715   2.053   2.328  17.007 -1.5196 -0.7302  0.6101
 8086SOL     OW35716   3.666   3.438   6.742  0.3523 -0.9616 -0.1968
 8086SOL    HW135717   3.588   3.480   6.707  0.0220 -0.2262  1.3996
 8086SOL    HW235718   3.645   3.349   6.712 -0.4756 -1.1499  0.9360
 8087SOL     OW35719   1.044   2.682   4.025  0.2744 -0.2924  0.3302
 8087SOL    HW135720   1.089   2.631   3.958  0.6435  0.5202 -0.0345
 8087SOL    HW235721   1.055   2.774   4.000 -0.8068  0.1489  1.5022
 8088SOL     OW35722   1.069   3.488   2.516 -0.1499 -0.4722 -0.3825
 8088SOL    HW135723   1.019   3.427   2.463  0.8945 -1.7314  0.0750
 8088SOL    HW235724   1.011   3.564   2.512 -0.5050 -0.6323  1.6626
 8089SOL     OW35725   0.233   3.769  13.463 -0.2393  0.0257  0.5966
 8089SOL    HW135726   0.303   3.832  13.447 -1.5358  1.2835 -0.0985
 8089SOL    HW235727   0.159   3.806  13.415  0.2298  1.7212  1.1981
 8090SOL     OW35728   0.885   0.173   2.175 -0.0339 -0.0594 -0.2063
 8090SOL    HW135729   0.843   0.100   2.129 -0.0367 -0.4739  0.4579
 8090SOL    HW235730   0.859   0.245   2.118  1.7336  2.0254  1.6424
 8091SOL     OW35731   3.552   1.695   0.594 -0.5069 -0.4372 -0.2698
 8091SOL    HW135732   3.520   1.685   0.504 -1.6292 -0.5687  0.1430
 8091SOL    HW235733   3.631   1.642   0.592  0.4118  0.9657 -1.2408
 8092SOL     OW35734   0.363   4.604   2.491 -0.6586 -0.0616 -0.5137
 8092SOL    HW135735   0.313   4.593   2.572  1.9932  3.5291  1.6444
 8092SOL    HW235736   0.297   4.658   2.446  0.2482  0.3083 -1.4094
 8093SOL     OW35737   0.905   3.663   2.004 -0.1040 -0.0428  0.1451
 8093SOL    HW135738   0.868   3.622   1.926  2.8820  0.5019 -1.5661
 8093SOL    HW235739   0.875   3.753   1.990 -0.0855 -0.1982 -0.8811
 8094SOL     OW35740   0.566   4.346   5.161  0.4400 -0.1739  0.6814
 8094SOL    HW135741   0.542   4.381   5.247 -0.4094 -0.8359  0.7243
 8094SOL    HW235742   0.496   4.283   5.142 -0.2470  1.2677 -1.6211
 8095SOL     OW35743   4.452   2.161   4.454 -0.1416  0.0696 -0.1160
 8095SOL    HW135744   4.452   2.253   4.428  1.3762  0.5095  1.4254
 8095SOL    HW235745   4.365   2.128   4.433 -0.1777  0.1028 -0.0218
 8096SOL     OW35746   2.379   2.059   3.810 -0.4549 -0.6436  0.1554
 8096SOL    HW135747   2.292   2.026   3.790 -1.4661  1.4274  1.1600
 8096SOL    HW235748   2.434   1.980   3.814  2.3233  1.2688  0.0169
 8097SOL     OW35749   0.813   4.414   8.481  0.1681 -0.8386 -0.4090
 8097SOL    HW135750   0.857   4.329   8.478  1.0120 -0.3292 -2.4235
 8097SOL    HW235751   0.773   4.412   8.568 -1.0595 -1.6377 -0.9894
 8098SOL     OW35752   0.494   2.998   3.860  0.2576  0.3324  0.0372
 8098SOL    HW135753   0.514   3.092   3.867  1.4320 -0.0529  2.1278
 8098SOL    HW235754   0.542   2.966   3.784 -0.9860  1.4492 -1.2067
 8099SOL     OW35755   4.722   2.700   2.157 -0.0957  0.0635  0.0594
 8099SOL    HW135756   4.664   2.772   2.136 -1.2691 -0.2152  2.3281
 8099SOL    HW235757   0.034   2.730   2.241  0.5964 -0.8676  0.1015
 8100SOL     OW35758   1.773   0.850  10.661 -0.0897  0.2892 -0.0221
 8100SOL    HW135759   1.734   0.870  10.746  3.3111  2.4237  1.0478
 8100SOL    HW235760   1.718   0.899  10.600 -0.0481  1.8077  1.1683
 8101SOL     OW35761   2.562   2.738   5.926 -0.5551 -0.8776  0.4096
 8101SOL    HW135762   2.572   2.786   5.843 -0.4398  0.8697  1.4351
 8101SOL    HW235763   2.559   2.652   5.884  0.0199 -1.3541  1.3583
 8102SOL     OW35764   0.194   4.444   2.944 -0.5272 -0.4034 -0.7105
 8102SOL    HW135765   0.163   4.459   3.033  1.9421 -1.4985  0.3314
 8102SOL    HW235766   0.120   4.389   2.921  0.3283 -1.4331 -0.9862
 8103SOL     OW35767   0.520   0.101   7.016  0.4169  0.5192 -0.4107
 8103SOL    HW135768   0.555   0.127   7.101 -1.8464  2.1701  0.0184
 8103SOL    HW235769   0.516   0.005   7.020 -2.8768  0.6058 -1.7029
 8104SOL     OW35770   4.254   0.755  15.928  0.6371 -0.2842  0.3132
 8104SOL    HW135771   4.168   0.763  15.888  0.2107 -0.0778  1.2582
 8104SOL    HW235772   4.291   0.842  15.919 -1.5876  0.4105 -2.0510
 8105SOL     OW35773   1.532   0.498   1.900 -0.3730  0.3550 -0.5407
 8105SOL    HW135774   1.500   0.567   1.841  1.9030  1.4402 -0.5180
 8105SOL    HW235775   1.457   0.440   1.911  0.4285 -0.6383 -0.3225
 8106SOL     OW35776   4.557   2.484   4.591 -0.0915  0.6453  0.2061
 8106SOL    HW135777   4.635   2.428   4.601  0.3737  1.4938  1.2951
 8106SOL    HW235778   4.532   2.440   4.509 -2.9105  2.1034  0.2766
 8107SOL     OW35779   3.579   2.440   1.963 -0.3769  0.6917  0.1111
 8107SOL    HW135780   3.501   2.407   1.920 -1.2963  0.0288  2.3064
 8107SOL    HW235781   3.652   2.390   1.926 -2.1072 -1.5337 -0.2142
 8108SOL     OW35782   4.608   2.140   7.273 -0.2084 -0.1591  0.0990
 8108SOL    HW135783   4.622   2.057   7.228 -0.1460 -0.1819  0.1594
 8108SOL    HW235784   4.702   2.152   7.291 -0.2763  2.1441 -1.0451
 8109SOL     OW35785   2.167   0.383   9.222 -0.1997 -0.0815  0.0908
 8109SOL    HW135786   2.112   0.398   9.146 -0.7058  1.2633  0.7066
 8109SOL    HW235787   2.153   0.289   9.229  1.2204 -0.2505  0.6999
 8110SOL     OW35788   1.747   3.179   5.783 -0.3548  0.6944 -0.4409
 8110SOL    HW135789   1.788   3.162   5.868 -1.6219  1.8923  0.4022
 8110SOL    HW235790   1.806   3.133   5.723  0.0658  1.5173 -0.6486
 8111SOL     OW35791   1.184   1.512  10.420 -0.0788 -0.8266 -0.0756
 8111SOL    HW135792   1.278   1.524  10.419 -0.0626 -0.9238  0.2242
 8111SOL    HW235793   1.164   1.511  10.326 -0.5136 -3.3935  0.0499
 8112SOL     OW35794   3.759   2.850   8.121 -0.0573 -0.1879  0.1387
 8112SOL    HW135795   3.809   2.904   8.060  0.1813 -1.2443 -0.5995
 8112SOL    HW235796   3.811   2.771   8.111 -1.2466 -1.0608  0.8427
 8113SOL     OW35797   4.352   2.886   5.397  0.3571  0.3299 -0.1499
 8113SOL    HW135798   4.375   2.802   5.356  1.1063  0.5416 -0.1723
 8113SOL    HW235799   4.288   2.858   5.462 -0.9740 -0.1498 -1.6720
 8114SOL     OW35800   0.033   0.080  13.619 -0.2553 -0.1253  0.2794
 8114SOL    HW135801   4.713   4.721  13.593 -0.7610  0.0811  0.4744
 8114SOL    HW235802   0.117   0.045  13.649 -0.2372 -1.6986 -1.5608
 8115SOL     OW35803   3.540   2.671   4.667  0.5085  0.4909  0.1581
 8115SOL    HW135804   3.473   2.679   4.735 -0.7643  0.8583 -1.1506
 8115SOL    HW235805   3.486   2.675   4.589  0.2714 -1.1897  0.2226
 8116SOL     OW35806   0.802   2.392  11.335 -0.2874 -0.2432  0.3221
 8116SOL    HW135807   0.792   2.357  11.246 -0.8767  0.4931  0.0977
 8116SOL    HW235808   0.854   2.324  11.377  0.8408  0.8736  0.7170
 8117SOL     OW35809   4.647   4.390   6.791 -0.2911  0.5147  0.7207
 8117SOL    HW135810   4.567   4.443   6.802 -0.2654  0.5998  0.4953
 8117SOL    HW235811   4.657   4.372   6.885 -1.4882  0.4973  0.8538
 8118SOL     OW35812   0.489   2.321   2.951 -0.3288  0.1692 -0.2379
 8118SOL    HW135813   0.520   2.409   2.974  2.1322 -0.8672  0.4382
 8118SOL    HW235814   0.482   2.281   3.037  2.1376  0.1448 -0.0449
 8119SOL     OW35815   2.044   2.760   2.514 -0.0571  0.3445 -0.3755
 8119SOL    HW135816   2.037   2.853   2.493 -0.3805  1.0204  2.6299
 8119SOL    HW235817   1.982   2.757   2.588 -1.1748  2.7780 -1.2249
 8120SOL     OW35818   2.058   1.361  16.560 -0.3063  0.3582 -0.0324
 8120SOL    HW135819   2.066   1.321  16.473  0.5903  0.4653  0.0064
 8120SOL    HW235820   2.031   1.286  16.613 -0.1218  0.4852  0.2388
 8121SOL     OW35821   3.663   2.704   3.779  0.3393  0.4780  0.0872
 8121SOL    HW135822   3.718   2.684   3.855  1.1852 -0.2932 -0.7311
 8121SOL    HW235823   3.619   2.621   3.763  0.3730  0.3420  0.6892
 8122SOL     OW35824   3.879   0.299   1.858 -0.2369 -0.2572 -0.6771
 8122SOL    HW135825   3.974   0.295   1.869 -0.1641  0.0850 -1.1835
 8122SOL    HW235826   3.858   0.211   1.890 -0.7397 -0.3151 -1.1610
 8123SOL     OW35827   0.266   2.305   4.013 -0.2445  0.4219  0.2125
 8123SOL    HW135828   0.285   2.389   4.055 -0.5647  1.0537 -0.8978
 8123SOL    HW235829   0.349   2.265   4.040  1.1934  0.9983 -3.2352
 8124SOL     OW35830   3.779   2.173  14.189  0.0323 -0.3534 -0.4473
 8124SOL    HW135831   3.841   2.241  14.162 -1.3973  1.8811  1.8769
 8124SOL    HW235832   3.830   2.094  14.170 -1.6530 -1.8464  1.2243
 8125SOL     OW35833   2.702   1.515  11.826  0.1071  0.0704 -0.1345
 8125SOL    HW135834   2.610   1.489  11.829  0.1345 -0.2721 -2.6322
 8125SOL    HW235835   2.696   1.607  11.852  1.7573 -0.0485  0.6821
 8126SOL     OW35836   0.926   4.241   6.743  0.0851 -0.9522  0.4613
 8126SOL    HW135837   0.874   4.259   6.821 -1.0151 -1.7175 -0.0895
 8126SOL    HW235838   0.988   4.314   6.746  1.1143 -1.7381 -1.4404
 8127SOL     OW35839   4.437   1.893   8.855 -0.4737  0.2777 -0.1715
 8127SOL    HW135840   4.436   1.861   8.946 -3.2358 -3.9682 -1.7254
 8127SOL    HW235841   4.524   1.935   8.857  0.0149 -0.7390 -0.3782
 8128SOL     OW35842   4.363   2.138   6.560 -0.3190 -0.2776  0.2095
 8128SOL    HW135843   4.403   2.105   6.641 -1.0383 -1.0292  0.2498
 8128SOL    HW235844   4.363   2.066   6.497  0.4978  0.3040 -0.4488
 8129SOL     OW35845   1.273   3.116  17.174 -0.0703 -0.4516 -0.1793
 8129SOL    HW135846   1.207   3.184  17.160  1.4747  0.9388 -0.7521
 8129SOL    HW235847   1.349   3.174  17.173 -1.1890  0.9971  0.3664
 8130SOL     OW35848   3.781   1.276   6.182  0.2102  0.9295 -0.5217
 8130SOL    HW135849   3.770   1.215   6.110  2.3460 -1.0111  0.7994
 8130SOL    HW235850   3.699   1.324   6.171  0.0311  0.3178 -1.7723
 8131SOL     OW35851   4.679   1.742   4.338  0.3602  0.1586  0.3077
 8131SOL    HW135852   4.666   1.786   4.254 -1.0634  0.5436  0.7296
 8131SOL    HW235853   4.586   1.729   4.351  0.6816  0.8333  3.2298
 8132SOL     OW35854   0.026   4.189   0.710 -0.6470 -0.0331 -0.2794
 8132SOL    HW135855   0.116   4.166   0.686  0.0690  0.7373  1.6302
 8132SOL    HW235856   0.039   4.284   0.719 -1.6682  0.2518 -1.9242
 8133SOL     OW35857   3.437   2.308   2.860  0.0049 -0.1948  0.6878
 8133SOL    HW135858   3.473   2.263   2.784 -1.4227  0.2632 -0.2483
 8133SOL    HW235859   3.383   2.374   2.818 -0.1985 -0.7159  0.1298
 8134SOL     OW35860   0.043   1.127   6.130  0.0620  0.0549  0.1838
 8134SOL    HW135861   0.046   1.039   6.092 -2.5938 -0.3253  0.8460
 8134SOL    HW235862   0.072   1.115   6.220 -0.8299  1.7539  0.6969
 8135SOL     OW35863   2.424   1.661  15.698 -0.5255  0.7800 -0.2226
 8135SOL    HW135864   2.356   1.644  15.764 -0.0236 -1.6886 -0.3369
 8135SOL    HW235865   2.434   1.570  15.669 -0.0013  0.4073  1.1421
 8136SOL     OW35866   4.479   2.703  12.046  0.4263 -0.5461  0.2306
 8136SOL    HW135867   4.420   2.698  11.971 -0.0626  0.3899  0.5578
 8136SOL    HW235868   4.420   2.744  12.109  0.9686 -0.3518  0.6187
 8137SOL     OW35869   0.497   3.565   4.093 -0.5132  0.2349 -0.9337
 8137SOL    HW135870   0.472   3.575   4.184 -0.1678 -0.1881 -0.7880
 8137SOL    HW235871   0.560   3.493   4.100 -0.8589  0.0330  0.0733
 8138SOL     OW35872   4.704   1.771  17.396  0.0029  0.0253 -0.0247
 8138SOL    HW135873   0.053   1.711  17.417 -0.0801  0.0281  0.2694
 8138SOL    HW235874   4.652   1.730  17.328 -0.4109  0.4272  0.0487
 8139SOL     OW35875   2.313   3.493  15.716  0.1926 -0.2702  0.3498
 8139SOL    HW135876   2.233   3.466  15.762  0.5633 -1.2841  0.3934
 8139SOL    HW235877   2.344   3.575  15.754 -0.0626  0.6789 -1.4754
 8140SOL     OW35878   1.401   1.980   7.662 -0.7306  0.3881  0.7666
 8140SOL    HW135879   1.345   2.057   7.669 -1.3907 -0.1496  1.3995
 8140SOL    HW235880   1.446   1.972   7.746 -0.6287  0.6954  0.7421
 8141SOL     OW35881   0.331   0.341   8.960 -0.4085  0.4602 -0.0823
 8141SOL    HW135882   0.242   0.309   8.943 -0.1589  0.7498 -1.9317
 8141SOL    HW235883   0.387   0.265   8.948 -0.9184  0.2231 -0.9528
 8142SOL     OW35884   2.805   1.796   7.042  0.5161  0.0326 -0.1507
 8142SOL    HW135885   2.831   1.884   7.069  0.6132 -0.6941  2.1875
 8142SOL    HW235886   2.740   1.773   7.109  1.4922 -1.4199  0.3260
 8143SOL     OW35887   0.504   3.486   0.715 -0.2658  0.5251 -0.4623
 8143SOL    HW135888   0.567   3.415   0.712 -0.0472  0.6704  0.4807
 8143SOL    HW235889   0.480   3.486   0.808  1.1469 -0.1239 -0.0991
 8144SOL     OW35890   0.960   2.512   6.058 -0.6177  0.5039 -0.2445
 8144SOL    HW135891   0.960   2.469   5.973  0.6258  2.7712 -1.3761
 8144SOL    HW235892   0.894   2.459   6.104  0.3676 -0.4214  0.0886
 8145SOL     OW35893   2.752   1.618   5.403  0.1793 -0.0595 -0.5491
 8145SOL    HW135894   2.695   1.629   5.479  2.5172  1.6267  0.9282
 8145SOL    HW235895   2.694   1.656   5.337 -0.5261 -2.2455 -1.2027
 8146SOL     OW35896   3.829   3.670  17.526 -0.2447  0.0542  0.2445
 8146SOL    HW135897   3.884   3.741  17.558  1.0553 -1.2786  0.9902
 8146SOL    HW235898   3.783   3.636  17.603  2.2353  0.1807  1.7953
 8147SOL     OW35899   0.429   1.674   3.746  0.4162  0.3995  0.3464
 8147SOL    HW135900   0.382   1.723   3.813  1.5712 -0.5777  1.8752
 8147SOL    HW235901   0.367   1.658   3.675  0.9907  1.4472 -0.3839
 8148SOL     OW35902   0.765   1.617   8.965  0.0305 -0.0320  0.5198
 8148SOL    HW135903   0.740   1.527   8.985  0.6861 -0.1754  0.6853
 8148SOL    HW235904   0.724   1.634   8.881 -0.7526 -0.7656  0.7553
 8149SOL     OW35905   0.390   0.344   6.642  0.0446 -0.2275 -0.0750
 8149SOL    HW135906   0.368   0.319   6.732 -0.9113  0.9811  0.0197
 8149SOL    HW235907   0.397   0.439   6.656  0.6595 -0.2974  0.1194
 8150SOL     OW35908   1.691   3.948   0.399  0.8671 -0.1528  0.3485
 8150SOL    HW135909   1.624   4.001   0.443  1.4506  0.3742  0.6001
 8150SOL    HW235910   1.739   3.906   0.470  4.8222  4.1763  0.1910
 8151SOL     OW35911   0.611   3.344  15.304 -0.2038  0.1487  0.7027
 8151SOL    HW135912   0.547   3.277  15.325  0.5359 -0.5006  0.9006
 8151SOL    HW235913   0.582   3.413  15.364 -0.4983  0.7867 -0.1684
 8152SOL     OW35914   4.231   3.950   7.411  0.0346 -0.2615 -0.0816
 8152SOL    HW135915   4.293   3.900   7.464 -1.7428 -2.2383  0.0967
 8152SOL    HW235916   4.145   3.918   7.436 -0.2414 -2.0648 -3.3742
 8153SOL     OW35917   1.972   3.368   5.423  0.5927 -0.2583  0.6016
 8153SOL    HW135918   1.981   3.361   5.328 -0.8308 -2.3475  0.6249
 8153SOL    HW235919   1.878   3.381   5.434  0.4942 -0.8380  0.4505
 8154SOL     OW35920   1.002   2.128   0.726 -0.3139 -0.0968  0.0913
 8154SOL    HW135921   0.978   2.068   0.796  0.3846 -0.6063 -0.1050
 8154SOL    HW235922   1.093   2.105   0.706  0.6685  2.8687  1.1461
 8155SOL     OW35923   0.214   0.150  16.037  0.1582  0.4089  0.6414
 8155SOL    HW135924   0.286   0.212  16.052  0.8251 -0.3911  0.7460
 8155SOL    HW235925   0.227   0.079  16.100 -0.0791  0.7071  1.0248
 8156SOL     OW35926   1.122   3.561   6.612 -0.1613  0.1059 -0.3410
 8156SOL    HW135927   1.217   3.553   6.602 -0.1265 -0.0058  0.0843
 8156SOL    HW235928   1.117   3.654   6.633 -0.8507 -0.3940  1.7450
 8157SOL     OW35929   1.871   4.364  12.850 -0.2262  0.2755  0.4465
 8157SOL    HW135930   1.868   4.350  12.945 -0.9954 -2.8166 -0.0358
 8157SOL    HW235931   1.798   4.426  12.844 -1.1352 -0.6749  1.7620
 8158SOL     OW35932   3.367   3.427   4.999 -0.1894  0.4367  0.2714
 8158SOL    HW135933   3.420   3.508   4.996  1.7135 -0.8017  0.3345
 8158SOL    HW235934   3.338   3.432   5.090  0.6970 -0.9935  0.6240
 8159SOL     OW35935   2.197   3.960  14.287 -0.1423  0.1439  0.2554
 8159SOL    HW135936   2.196   4.047  14.247  3.0670  0.6328  1.2739
 8159SOL    HW235937   2.284   3.957  14.326 -0.5608 -0.1182  1.1796
 8160SOL     OW35938   0.062   4.539  12.312 -0.3205 -0.3453 -0.0776
 8160SOL    HW135939   0.019   4.610  12.359 -0.0469  0.1895 -0.6310
 8160SOL    HW235940   0.150   4.563  12.342 -0.3543 -0.2270 -0.0731
 8161SOL     OW35941   3.654   0.907   2.569  0.3325 -0.3292  0.7590
 8161SOL    HW135942   3.730   0.964   2.583  0.8163 -1.2944  2.0321
 8161SOL    HW235943   3.704   0.839   2.524  0.4941  0.1923  0.1549
 8162SOL     OW35944   1.811   0.685   1.678  0.2724 -0.2742  0.1410
 8162SOL    HW135945   1.741   0.750   1.686  1.3025  1.1013 -2.0276
 8162SOL    HW235946   1.762   0.620   1.628 -0.2218  0.5730 -0.4720
 8163SOL     OW35947   1.706   2.799   3.354 -0.2551 -0.1823 -0.2534
 8163SOL    HW135948   1.701   2.895   3.353  1.1636 -0.1361 -2.7130
 8163SOL    HW235949   1.735   2.785   3.264  0.2038  0.3172 -0.1881
 8164SOL     OW35950   4.610   1.808   9.358 -0.3753 -0.0933  0.3414
 8164SOL    HW135951   4.548   1.736   9.349 -1.4794  0.9538 -0.3473
 8164SOL    HW235952   4.558   1.855   9.423 -1.2643 -0.7209  0.0734
 8165SOL     OW35953   4.456   3.295   5.347 -0.1025 -0.0917  0.8810
 8165SOL    HW135954   4.382   3.314   5.403 -1.4362 -1.5895 -0.3997
 8165SOL    HW235955   4.441   3.207   5.314 -0.5005  0.1717  0.3421
 8166SOL     OW35956   1.812   3.173  16.651 -0.1474  0.6899 -0.3371
 8166SOL    HW135957   1.866   3.252  16.656 -1.3650  1.5189 -0.0377
 8166SOL    HW235958   1.774   3.177  16.564  1.3168  1.7269 -0.9299
 8167SOL     OW35959   3.663   0.160   8.261  0.2930  0.3122 -0.5133
 8167SOL    HW135960   3.621   0.075   8.273  0.7947  0.0436 -0.6515
 8167SOL    HW235961   3.637   0.165   8.170  0.5797  2.0327 -0.5089
 8168SOL     OW35962   2.795   4.302   3.180 -0.0504  0.0558  0.2402
 8168SOL    HW135963   2.779   4.277   3.271 -0.8211  2.0911  0.6786
 8168SOL    HW235964   2.802   4.397   3.192  0.4185  0.2299 -1.5378
 8169SOL     OW35965   2.814   4.540   9.049  0.3895  0.1493  0.5107
 8169SOL    HW135966   2.781   4.587   9.126  1.1961 -0.4358  1.2168
 8169SOL    HW235967   2.741   4.480   9.035 -1.1878  1.9710  0.8623
 8170SOL     OW35968   3.800   2.417   1.151  0.2817  0.0094  0.4358
 8170SOL    HW135969   3.755   2.333   1.153 -0.2946  0.2478 -1.9682
 8170SOL    HW235970   3.856   2.405   1.074  0.5009 -2.0643  0.9358
 8171SOL     OW35971   0.244   1.140   6.357  0.1549  0.1866 -0.0889
 8171SOL    HW135972   0.286   1.144   6.271  0.4293  1.5181  0.1038
 8171SOL    HW235973   0.256   1.227   6.394 -1.7672  0.6756 -0.5822
 8172SOL     OW35974   3.300   0.395  16.949 -0.7549  0.1251 -0.1922
 8172SOL    HW135975   3.369   0.330  16.962 -0.4297  0.8044  1.4664
 8172SOL    HW235976   3.306   0.393  16.854  0.4461 -1.0362 -0.0943
 8173SOL     OW35977   0.719   1.950   8.061  0.1783 -0.0105 -0.3292
 8173SOL    HW135978   0.625   1.964   8.048 -0.0711  0.5137  2.0910
 8173SOL    HW235979   0.719   1.880   8.126 -1.0552  1.3871  1.1802
 8174SOL     OW35980   1.209   0.055   6.940  0.3660 -0.1707  0.0149
 8174SOL    HW135981   1.196   0.079   6.848 -1.0180 -0.5392  0.1159
 8174SOL    HW235982   1.282   0.111   6.968  0.7686 -1.0588  0.7178
 8175SOL     OW35983   4.075   2.527   6.947  0.2585 -0.3153 -0.2694
 8175SOL    HW135984   4.151   2.473   6.928 -0.2529 -1.4595  0.9499
 8175SOL    HW235985   4.054   2.568   6.863 -0.1844 -1.0954 -0.5411
 8176SOL     OW35986   1.202   1.385  11.600 -0.2774 -0.1203 -0.1040
 8176SOL    HW135987   1.286   1.387  11.646  0.4783 -0.9454 -1.4530
 8176SOL    HW235988   1.211   1.460  11.541  1.0943  0.3585  0.7028
 8177SOL     OW35989   0.088   3.771   7.913 -0.5597  0.6195  0.3387
 8177SOL    HW135990   0.166   3.723   7.886 -0.5084  0.6893  0.3620
 8177SOL    HW235991   0.119   3.848   7.962  2.9096 -1.0855  0.7752
 8178SOL     OW35992   3.306   1.152   3.203  0.1840  0.4906 -0.0555
 8178SOL    HW135993   3.311   1.098   3.282  0.7234 -2.8122 -2.3899
 8178SOL    HW235994   3.378   1.214   3.220  1.3557 -0.0420 -3.0350
 8179SOL     OW35995   1.845   4.661   1.505  0.4584  0.5204 -0.5102
 8179SOL    HW135996   1.907   4.656   1.578 -1.7664  0.8742  1.3963
 8179SOL    HW235997   1.767   4.619   1.540  1.0496 -1.0484 -1.0792
 8180SOL     OW35998   4.122   4.437  11.115  0.5737 -0.3591 -0.2364
 8180SOL    HW135999   4.197   4.407  11.064 -0.1280 -1.6839 -0.4913
 8180SOL    HW236000   4.130   4.389  11.197  0.9724  0.1825  0.0470
 8181SOL     OW36001   4.647   0.318  13.524  0.2341  0.7556 -0.0584
 8181SOL    HW136002   4.685   0.247  13.575  2.5330  1.5941 -0.6077
 8181SOL    HW236003   0.001   0.374  13.520  0.6584  0.1927  0.1715
 8182SOL     OW36004   0.013   3.316  15.993 -0.4814 -0.1998  0.4917
 8182SOL    HW136005   0.070   3.292  15.921 -0.5348  0.1496  0.3289
 8182SOL    HW236006   4.700   3.402  15.970  1.0688  0.3093 -0.0448
 8183SOL     OW36007   2.509   3.999   4.961  0.0358 -0.0275 -0.4002
 8183SOL    HW136008   2.545   4.088   4.954  2.9817 -1.2058 -0.2581
 8183SOL    HW236009   2.590   3.949   4.965  0.3959  0.5428 -0.5141
 8184SOL     OW36010   4.002   3.313  10.264 -0.2685  0.1612 -0.1404
 8184SOL    HW136011   3.997   3.306  10.169 -0.1984 -1.8492  0.0197
 8184SOL    HW236012   4.033   3.403  10.281  1.6515  0.0337 -2.9147
 8185SOL     OW36013   0.183   3.741  10.565 -0.0627  0.0119  0.4313
 8185SOL    HW136014   0.193   3.795  10.486  2.3626  2.2065  2.2420
 8185SOL    HW236015   0.130   3.792  10.626 -0.3116  1.6693 -1.1767
 8186SOL     OW36016   1.389   3.802  12.922 -0.5063 -0.4742  0.4910
 8186SOL    HW136017   1.448   3.843  12.986  0.0962 -0.1884 -0.2515
 8186SOL    HW236018   1.380   3.872  12.858  0.7984  1.6401  2.6369
 8187SOL     OW36019   2.658   2.626   2.436 -0.3671 -0.4917  0.7079
 8187SOL    HW136020   2.729   2.648   2.496  0.6900  1.0113 -1.1155
 8187SOL    HW236021   2.601   2.703   2.436 -1.0852 -1.0281 -1.3736
 8188SOL     OW36022   2.064   3.548   4.648 -0.1378  0.6106 -0.2358
 8188SOL    HW136023   2.027   3.567   4.734 -1.1435 -1.3863 -0.2363
 8188SOL    HW236024   2.140   3.605   4.652  1.6323 -1.8170  0.7548
 8189SOL     OW36025   4.325   1.370  12.879  0.2880 -0.6295 -0.1815
 8189SOL    HW136026   4.294   1.459  12.862  0.9034 -0.1482  1.1936
 8189SOL    HW236027   4.248   1.316  12.860  1.6701 -2.2904 -1.0174
 8190SOL     OW36028   2.517   3.597   9.501  0.0058 -0.1741  0.5741
 8190SOL    HW136029   2.525   3.575   9.408  1.0855 -2.2038  1.1552
 8190SOL    HW236030   2.573   3.675   9.503  1.0407 -0.8730 -0.8692
 8191SOL     OW36031   4.023   3.983   3.638 -0.6021 -0.3435  0.1637
 8191SOL    HW136032   4.017   3.946   3.726 -1.9873  1.5722  0.8716
 8191SOL    HW236033   4.033   4.077   3.653 -2.5781  0.0014 -0.6539
 8192SOL     OW36034   1.228   3.662  11.667 -0.8342  0.3130  0.3694
 8192SOL    HW136035   1.150   3.610  11.646 -0.7053 -0.7048  2.4365
 8192SOL    HW236036   1.262   3.666  11.577  0.4565 -1.0125  0.8057
 8193SOL     OW36037   0.990   4.385   6.433  0.7719 -0.4431 -0.0455
 8193SOL    HW136038   1.039   4.393   6.515  0.8262  2.4965 -0.3846
 8193SOL    HW236039   1.035   4.445   6.374 -1.8932 -0.0168 -1.6355
 8194SOL     OW36040   2.792   3.147   4.340  0.1991  0.0509 -0.5165
 8194SOL    HW136041   2.805   3.236   4.305  3.4235 -0.0499  0.4373
 8194SOL    HW236042   2.838   3.160   4.423  0.1855 -1.2210 -0.3207
 8195SOL     OW36043   4.020   2.125  16.731 -0.4983 -0.1714 -0.1648
 8195SOL    HW136044   4.100   2.082  16.699  0.2131  0.7023  0.4291
 8195SOL    HW236045   4.047   2.154  16.818  0.7302 -0.7757 -0.3436
 8196SOL     OW36046   4.642   0.426  15.057 -0.1312  0.2083 -0.4237
 8196SOL    HW136047   4.666   0.365  14.987  3.0529 -0.4056  1.2242
 8196SOL    HW236048   4.595   0.486  14.999 -1.0180 -0.0276  0.0436
 8197SOL     OW36049   4.597   4.283   5.252  0.1023 -0.2178 -0.1866
 8197SOL    HW136050   4.541   4.357   5.227 -0.5057  0.1365  2.2112
 8197SOL    HW236051   4.676   4.304   5.203 -1.4085 -0.4021 -2.7211
 8198SOL     OW36052   0.596   3.000   7.870  0.0476  0.1009  0.2478
 8198SOL    HW136053   0.666   3.031   7.813 -0.6720  0.5313 -0.4074
 8198SOL    HW236054   0.619   3.035   7.956  0.4958  1.6407 -0.5197
 8199SOL     OW36055   1.078   0.325   7.861 -0.0635  0.2694  0.2490
 8199SOL    HW136056   1.087   0.234   7.889 -2.2648 -0.0721 -0.1174
 8199SOL    HW236057   1.039   0.321   7.773  0.5541 -0.8445  0.0255
 8200SOL     OW36058   2.007   3.749   8.662 -0.2510 -0.1073  0.6055
 8200SOL    HW136059   2.081   3.764   8.721 -0.0453  0.4847  0.2020
 8200SOL    HW236060   1.987   3.658   8.681  1.3466 -0.1786  1.8963
 8201SOL     OW36061   2.328   2.701  10.795 -0.0777  0.2420  0.1450
 8201SOL    HW136062   2.410   2.747  10.780 -0.1959  0.9748  1.8291
 8201SOL    HW236063   2.260   2.767  10.782  1.2103  0.4201 -5.7126
 8202SOL     OW36064   3.434   3.811   7.037 -0.2569 -0.4454 -0.0849
 8202SOL    HW136065   3.450   3.865   7.114 -1.6821 -0.8062  0.4543
 8202SOL    HW236066   3.389   3.737   7.076 -0.4126  0.4136  1.3375
 8203SOL     OW36067   3.725   4.145   6.974 -0.7092 -0.4797 -0.0835
 8203SOL    HW136068   3.667   4.085   7.020 -1.7666  0.0556 -0.7168
 8203SOL    HW236069   3.721   4.225   7.028 -0.6401  1.2875 -2.6865
 8204SOL     OW36070   1.600   3.509   0.385 -0.2594  0.1542  0.4195
 8204SOL    HW136071   1.691   3.512   0.414 -0.8378  1.8512  2.0469
 8204SOL    HW236072   1.559   3.556   0.458 -1.7504 -1.1291  0.4216
 8205SOL     OW36073   3.814   3.302   4.757 -0.1847  1.0848 -0.3612
 8205SOL    HW136074   3.826   3.259   4.842  2.6778  1.9266 -0.3378
 8205SOL    HW236075   3.861   3.385   4.768  1.1319  0.1464  1.0076
 8206SOL     OW36076   2.352   4.464  16.003  0.1226  0.1740  0.4861
 8206SOL    HW136077   2.257   4.464  15.989  0.4151 -0.2861 -1.4175
 8206SOL    HW236078   2.345   4.422  16.089  0.3864  0.0507  0.4460
 8207SOL     OW36079   3.886   0.596  12.255  0.0354  0.2917 -0.3634
 8207SOL    HW136080   3.856   0.682  12.283 -1.6893  0.4767 -2.7467
 8207SOL    HW236081   3.940   0.572  12.330  0.2264 -0.0055 -0.5973
 8208SOL     OW36082   4.623   1.139  17.186  0.2373  0.2844  0.0829
 8208SOL    HW136083   4.659   1.219  17.148  0.1699  0.1020 -0.3688
 8208SOL    HW236084   4.562   1.102  17.121 -0.3606  1.1869  0.1392
 8209SOL     OW36085   3.185   4.313  13.086 -0.2752 -0.3134 -0.2535
 8209SOL    HW136086   3.118   4.332  13.019  0.0205 -0.6637 -0.6504
 8209SOL    HW236087   3.249   4.383  13.072 -0.6564 -0.2484 -1.6984
 8210SOL     OW36088   4.302   0.721  13.880 -0.0734  0.4844 -0.3379
 8210SOL    HW136089   4.337   0.636  13.907 -1.5370 -0.2282 -0.6475
 8210SOL    HW236090   4.327   0.731  13.788 -2.2415 -1.5988 -1.1585
 8211SOL     OW36091   2.267   0.443  11.120 -0.6711  0.3069  0.1784
 8211SOL    HW136092   2.288   0.534  11.098 -2.2346  0.3883 -1.0049
 8211SOL    HW236093   2.295   0.405  11.037 -0.3888  1.7284 -0.3747
 8212SOL     OW36094   2.067   2.865   7.347 -0.0170 -0.2150  0.0193
 8212SOL    HW136095   2.093   2.781   7.309  0.9769 -0.1967  0.6526
 8212SOL    HW236096   2.144   2.895   7.396 -1.1391  1.3911  0.7733
 8213SOL     OW36097   1.852   1.260   8.111  0.3367  0.0350  0.3193
 8213SOL    HW136098   1.884   1.333   8.057  0.8139  0.9704  1.8804
 8213SOL    HW236099   1.819   1.308   8.186 -0.1894  0.1927 -0.0141
 8214SOL     OW36100   1.706   3.559   6.202 -0.0396  0.1870  0.5218
 8214SOL    HW136101   1.735   3.639   6.245 -3.2957  1.9153 -0.5677
 8214SOL    HW236102   1.649   3.520   6.268  0.8005 -1.0213  0.5391
 8215SOL     OW36103   3.362   2.642  10.352 -0.4226 -0.2654 -0.2064
 8215SOL    HW136104   3.338   2.549  10.351 -0.5360 -0.1698 -3.9393
 8215SOL    HW236105   3.444   2.628  10.305 -2.1881 -2.2043 -2.6860
 8216SOL     OW36106   1.378   0.856  14.060 -0.4859  0.0825  0.4668
 8216SOL    HW136107   1.283   0.853  14.045 -0.5515 -1.9132  1.2428
 8216SOL    HW236108   1.366   0.868  14.154 -0.0807  0.7118  0.4337
 8217SOL     OW36109   3.280   4.425   6.079  0.0583  0.1808 -0.1449
 8217SOL    HW136110   3.361   4.385   6.109 -0.5067  0.9721  2.4045
 8217SOL    HW236111   3.271   4.389   5.990 -1.6560  3.6975 -1.3924
 8218SOL     OW36112   0.839   2.274  10.131 -0.5012 -0.2809  0.0078
 8218SOL    HW136113   0.796   2.313  10.207  0.6362  2.9874 -1.0233
 8218SOL    HW236114   0.924   2.274  10.174 -1.2600 -0.2660  1.5181
 8219SOL     OW36115   4.663   3.188   0.160  0.2244  0.4203 -0.0540
 8219SOL    HW136116   4.588   3.216   0.212 -0.4210 -1.2419 -0.1055
 8219SOL    HW236117   4.718   3.266   0.168 -1.2800  1.4306  0.3594
 8220SOL     OW36118   3.321   4.057   1.725  0.8264 -0.2116 -0.3855
 8220SOL    HW136119   3.294   4.115   1.796  1.5701 -2.1439  1.4777
 8220SOL    HW236120   3.401   4.019   1.760  1.3402  1.1249 -0.1168
 8221SOL     OW36121   4.209   4.300  11.338 -0.4829 -0.3373 -0.2599
 8221SOL    HW136122   4.201   4.205  11.342 -0.4222 -0.1783  3.6932
 8221SOL    HW236123   4.304   4.313  11.334 -0.6793  0.9133 -0.9236
 8222SOL     OW36124   0.831   1.524   5.414  0.2561 -0.4649 -0.1099
 8222SOL    HW136125   0.923   1.544   5.429  1.1107 -3.0621 -1.8226
 8222SOL    HW236126   0.832   1.512   5.319  2.0794  1.0805 -0.2806
 8223SOL     OW36127   0.467   2.203  13.718  0.1645  0.1982 -0.5267
 8223SOL    HW136128   0.530   2.131  13.728  1.0302  1.3802  2.4703
 8223SOL    HW236129   0.471   2.210  13.623 -0.1530 -0.2136 -0.5702
 8224SOL     OW36130   3.613   2.665   6.186  0.0926  0.2132 -0.2458
 8224SOL    HW136131   3.536   2.665   6.130  0.9986  2.1140 -1.4892
 8224SOL    HW236132   3.599   2.583   6.233 -1.2372  1.0151  0.7841
 8225SOL     OW36133   1.971   0.501   9.512  0.3273  0.0570 -0.2605
 8225SOL    HW136134   1.880   0.530   9.499  0.4526  0.1761 -0.8748
 8225SOL    HW236135   1.975   0.500   9.607 -0.1038  1.1317 -0.2295
 8226SOL     OW36136   2.868   0.761  16.691 -0.0208 -0.3309  0.0374
 8226SOL    HW136137   2.944   0.816  16.708  0.8636 -1.6177  0.2843
 8226SOL    HW236138   2.825   0.809  16.620 -0.7522 -0.8604  0.1103
 8227SOL     OW36139   0.896   2.885   4.757  0.7929  0.0422  0.1717
 8227SOL    HW136140   0.864   2.854   4.673 -2.4366  0.5302  1.2046
 8227SOL    HW236141   0.954   2.958   4.735  0.9771  0.2164  1.2100
 8228SOL     OW36142   1.934   2.946   3.856 -0.3173  0.2893 -0.2197
 8228SOL    HW136143   1.867   2.922   3.920  1.2771 -1.3912  0.8060
 8228SOL    HW236144   1.886   2.926   3.775  0.0232  0.2209 -0.4066
 8229SOL     OW36145   2.016   4.410   4.743  0.0357 -0.1981  0.5122
 8229SOL    HW136146   1.949   4.343   4.726 -1.1382  1.0774  0.1673
 8229SOL    HW236147   2.080   4.351   4.783  2.3402 -0.2084 -3.2154
 8230SOL     OW36148   1.672   0.323   4.502  0.0394 -0.0803 -0.4137
 8230SOL    HW136149   1.702   0.401   4.550  0.7652 -0.8246  0.3384
 8230SOL    HW236150   1.581   0.317   4.530  0.1413  1.5910  0.2748
 8231SOL     OW36151   3.158   1.059   2.969 -0.2233  0.0973  0.4450
 8231SOL    HW136152   3.216   1.093   3.037 -1.2193  1.6157  0.5581
 8231SOL    HW236153   3.203   1.090   2.890  0.6929  0.9200  1.2913
 8232SOL     OW36154   4.460   3.778   4.465  0.7981  0.8506 -0.6102
 8232SOL    HW136155   4.442   3.704   4.407 -3.5260  0.7989  0.8480
 8232SOL    HW236156   4.529   3.743   4.522  0.0622 -0.1737 -0.3593
 8233SOL     OW36157   2.129   3.941   7.003 -0.1143  0.1844 -0.2394
 8233SOL    HW136158   2.138   4.033   6.980  2.3670  0.7225  2.9806
 8233SOL    HW236159   2.205   3.936   7.061 -2.4206  0.3931  2.7786
 8234SOL     OW36160   0.115   0.018  16.738 -0.8695 -0.5238 -0.3906
 8234SOL    HW136161   0.021   0.015  16.723 -1.2811  0.0930  2.0854
 8234SOL    HW236162   0.142   4.658  16.699  1.1800 -0.0077 -0.0926
 8235SOL     OW36163   3.532   1.427  15.639 -0.1718  0.7981  0.0915
 8235SOL    HW136164   3.532   1.353  15.579  0.8802 -0.7335  1.9688
 8235SOL    HW236165   3.456   1.398  15.689  0.8592 -3.1376 -0.6495
 8236SOL     OW36166   1.954   0.411   6.979  0.5234 -0.5603  0.1392
 8236SOL    HW136167   1.864   0.408   6.946  0.2881 -0.4869  0.7829
 8236SOL    HW236168   1.949   0.502   7.008  0.8402  0.0137 -1.5936
 8237SOL     OW36169   4.162   3.400  13.696  0.1308 -0.1561  0.9469
 8237SOL    HW136170   4.096   3.407  13.627 -0.1999  1.5327  1.4330
 8237SOL    HW236171   4.210   3.482  13.702  2.2294 -1.0818 -2.6987
 8238SOL     OW36172   1.996   3.320   5.131  0.5523  0.4853  0.0627
 8238SOL    HW136173   2.075   3.375   5.127 -0.8967  2.4895 -0.9300
 8238SOL    HW236174   2.016   3.235   5.091 -1.7774  0.1157 -0.3009
 8239SOL     OW36175   3.744   3.203  14.054 -0.2880  0.3072 -0.4931
 8239SOL    HW136176   3.692   3.167  13.983  1.3066  0.7520 -1.8908
 8239SOL    HW236177   3.683   3.257  14.104  0.7658 -1.7420  2.9990
 8240SOL     OW36178   1.550   0.296   8.343  0.0010 -0.0537  0.0369
 8240SOL    HW136179   1.485   0.312   8.411  0.9226 -0.3867  0.9928
 8240SOL    HW236180   1.626   0.255   8.384 -0.1522 -1.5580 -1.2041
 8241SOL     OW36181   3.447   0.059  15.024 -0.1648 -0.6155 -0.1994
 8241SOL    HW136182   3.494   0.140  15.009 -0.1855 -0.2047  2.0152
 8241SOL    HW236183   3.386   0.080  15.095  0.3969 -0.2986  0.1798
 8242SOL     OW36184   0.863   3.708   2.556 -0.4055 -0.0026 -0.6249
 8242SOL    HW136185   0.860   3.796   2.595  1.3711  0.5317 -1.7003
 8242SOL    HW236186   0.791   3.719   2.495 -0.9173  0.6326  0.0971
 8243SOL     OW36187   3.704   3.574   0.080  0.5883  0.8986 -0.2467
 8243SOL    HW136188   3.635   3.526   0.035 -0.8883  1.2076  1.6936
 8243SOL    HW236189   3.657   3.625   0.146  1.2465  0.4166  0.5814
 8244SOL     OW36190   2.071   1.067   4.277 -0.3445  0.3547  0.4922
 8244SOL    HW136191   1.983   1.105   4.276 -1.4834 -2.2839 -2.2288
 8244SOL    HW236192   2.070   1.013   4.198 -1.1151  1.2732 -0.1238
 8245SOL     OW36193   4.377   1.293   1.635  0.5143  0.0962 -0.4231
 8245SOL    HW136194   4.381   1.201   1.610 -1.9151 -0.1873  0.2218
 8245SOL    HW236195   4.393   1.334   1.550  0.2921  2.2543  0.5704
 8246SOL     OW36196   3.199   2.434   4.841 -0.6522 -0.1535  0.1788
 8246SOL    HW136197   3.121   2.451   4.790 -1.2371 -2.3260  0.3124
 8246SOL    HW236198   3.256   2.381   4.786 -0.6266 -0.9745  0.9774
 8247SOL     OW36199   3.569   3.196   8.326  0.3057  0.0345  0.1698
 8247SOL    HW136200   3.555   3.143   8.404 -2.3088  0.3011 -0.1130
 8247SOL    HW236201   3.607   3.273   8.368 -1.6647  0.8174  0.4922
 8248SOL     OW36202   1.259   2.121   0.905 -0.0454 -0.1591  0.2682
 8248SOL    HW136203   1.273   2.154   0.817 -0.5717 -1.9172 -0.4776
 8248SOL    HW236204   1.244   2.028   0.890 -0.7410  0.2192 -1.3002
 8249SOL     OW36205   1.038   3.661   1.136 -0.4360 -0.2672 -0.6061
 8249SOL    HW136206   1.030   3.751   1.105 -0.0323 -0.1548 -0.3812
 8249SOL    HW236207   0.943   3.650   1.142 -0.5911  0.4861 -1.8631
 8250SOL     OW36208   2.604   0.465   8.709 -0.0741  0.1337 -0.4415
 8250SOL    HW136209   2.629   0.525   8.778  2.9965 -1.0636 -0.5321
 8250SOL    HW236210   2.592   0.381   8.754  0.7383 -0.5443 -1.4985
 8251SOL     OW36211   1.596   1.437   9.607 -0.1285  0.1045 -0.0579
 8251SOL    HW136212   1.540   1.498   9.654  1.3586  1.4427 -0.0292
 8251SOL    HW236213   1.639   1.391   9.680  0.6619 -1.6887 -1.6543
 8252SOL     OW36214   1.838   3.486   4.243 -0.0349 -0.0338 -0.3703
 8252SOL    HW136215   1.835   3.395   4.273 -0.7153  0.3737  0.8108
 8252SOL    HW236216   1.767   3.529   4.290  0.4768  0.8931 -0.4541
 8253SOL     OW36217   4.674   0.079  11.152 -0.0231  0.4157  0.0858
 8253SOL    HW136218   0.045   0.061  11.160 -0.0744 -1.0250 -2.7608
 8253SOL    HW236219   4.664   0.158  11.206 -1.4947  0.1453  0.2229
 8254SOL     OW36220   0.672   0.937   7.674 -0.3129 -0.1527  0.6775
 8254SOL    HW136221   0.644   0.919   7.764 -1.0437  1.9121  0.8719
 8254SOL    HW236222   0.751   0.982   7.706 -0.5375 -0.5470  1.8027
 8255SOL     OW36223   2.988   0.898   4.726  0.1458 -0.0876 -0.1729
 8255SOL    HW136224   3.019   0.988   4.734  0.8255 -0.4024  0.6883
 8255SOL    HW236225   3.045   0.858   4.661  0.6877 -0.0755  0.3009
 8256SOL     OW36226   3.780   2.147   9.227 -0.4686 -0.1901  0.2157
 8256SOL    HW136227   3.761   2.211   9.158  0.5374  0.4577  0.5276
 8256SOL    HW236228   3.816   2.192   9.303 -0.0909 -1.6226  0.8981
 8257SOL     OW36229   2.376   3.526   8.609  0.8308 -0.3167  0.1612
 8257SOL    HW136230   2.377   3.620   8.593 -2.7497 -0.4901 -0.9666
 8257SOL    HW236231   2.367   3.512   8.704  0.8610  3.4636  0.7177
 8258SOL     OW36232   3.440   1.753  10.211 -0.5191 -0.1030  0.0236
 8258SOL    HW136233   3.364   1.698  10.231 -0.2499 -1.1448 -1.9137
 8258SOL    HW236234   3.401   1.840  10.225 -0.2749 -0.0165  0.1641
 8259SOL     OW36235   0.888   3.259  16.919  0.2316  0.3333  0.0413
 8259SOL    HW136236   0.974   3.302  16.925  0.3248  0.3038 -1.2103
 8259SOL    HW236237   0.881   3.262  16.824  1.0757 -1.5559 -0.0714
 8260SOL     OW36238   1.628   0.774   7.597  0.1868 -0.7571 -0.1514
 8260SOL    HW136239   1.707   0.740   7.553  2.0032 -0.8764  3.2118
 8260SOL    HW236240   1.581   0.833   7.538  1.5116  0.7122  0.2447
 8261SOL     OW36241   4.632   0.028   7.379 -0.5659 -0.0581 -0.6205
 8261SOL    HW136242   4.631   0.017   7.284 -1.8420 -2.1238 -0.3816
 8261SOL    HW236243   4.635   4.659   7.406 -1.3547 -0.6557 -2.5383
 8262SOL     OW36244   3.059   0.793  15.231  0.7168 -0.6145  0.1643
 8262SOL    HW136245   3.064   0.758  15.142  1.0277  3.2325 -1.3244
 8262SOL    HW236246   3.046   0.713  15.282 -3.9249  0.0819  0.0725
 8263SOL     OW36247   2.725   3.369   4.922  0.0601  0.0245  0.3554
 8263SOL    HW136248   2.798   3.391   4.980 -0.0605 -1.6928  1.1609
 8263SOL    HW236249   2.660   3.330   4.980  0.1472  1.3568  1.3316
 8264SOL     OW36250   0.753   2.877   8.613 -0.4193  0.2664 -0.0549
 8264SOL    HW136251   0.829   2.935   8.601  0.7446 -0.9296  1.5696
 8264SOL    HW236252   0.711   2.924   8.685  2.1639 -0.5753  2.0005
 8265SOL     OW36253   2.742   1.951   2.808 -0.5202  0.1387 -0.7847
 8265SOL    HW136254   2.818   1.946   2.750  1.3290 -2.1638  1.8224
 8265SOL    HW236255   2.688   1.875   2.787  0.5759 -0.0082 -3.0465
 8266SOL     OW36256   1.129   0.950   1.344 -0.1536 -0.0571  0.0111
 8266SOL    HW136257   1.184   1.019   1.382 -0.6783  0.4591 -0.1725
 8266SOL    HW236258   1.128   0.889   1.418  3.5506  1.6204  1.4644
 8267SOL     OW36259   3.143   4.141  11.800  0.2568  0.1818  0.0914
 8267SOL    HW136260   3.054   4.110  11.782 -0.3705  2.6157 -1.0065
 8267SOL    HW236261   3.126   4.228  11.765  1.1710  0.2828 -0.1011
 8268SOL     OW36262   3.707   3.705   6.013 -0.0928 -0.0621 -0.0377
 8268SOL    HW136263   3.636   3.645   6.037 -1.8533  0.7006 -3.4577
 8268SOL    HW236264   3.672   3.742   5.933 -0.4869  2.0383  1.0938
 8269SOL     OW36265   1.280   1.784   8.144 -0.1254  0.1828 -0.5154
 8269SOL    HW136266   1.272   1.690   8.128  0.5522 -0.6169  3.9353
 8269SOL    HW236267   1.220   1.801   8.217  0.9406  1.5120  0.0423
 8270SOL     OW36268   1.452   2.822   2.571  0.0581  0.0628  0.4097
 8270SOL    HW136269   1.412   2.832   2.485  0.6162 -0.2928  0.1076
 8270SOL    HW236270   1.513   2.749   2.561 -0.1576  0.3967 -3.2156
 8271SOL     OW36271   3.751   0.124   2.611 -0.1051 -0.3374 -0.0433
 8271SOL    HW136272   3.678   0.156   2.558 -0.0370 -0.7995 -0.4183
 8271SOL    HW236273   3.816   0.191   2.592 -0.2919 -0.8114 -2.2697
 8272SOL     OW36274   3.640   4.619  16.194 -0.1952  0.1460 -0.5166
 8272SOL    HW136275   3.549   4.618  16.165  0.0319  0.6453 -1.2409
 8272SOL    HW236276   3.688   4.637  16.114 -1.5015  0.0300 -1.3330
 8273SOL     OW36277   1.343   4.082  17.424 -0.0254 -0.5648 -0.4855
 8273SOL    HW136278   1.256   4.082  17.464  0.7770  0.9615  1.3183
 8273SOL    HW236279   1.392   4.085  17.506 -1.4129 -0.0603  0.3262
 8274SOL     OW36280   2.238   4.344   0.076 -0.7146 -0.5216  0.1438
 8274SOL    HW136281   2.158   4.308   0.113  0.2997 -0.3298  2.5170
 8274SOL    HW236282   2.299   4.323   0.146 -0.0235  2.2463  0.3489
 8275SOL     OW36283   3.819   1.983   1.179 -0.1912 -0.3576 -0.2521
 8275SOL    HW136284   3.869   2.028   1.111  2.3731 -0.1065  1.7791
 8275SOL    HW236285   3.891   1.951   1.233  0.4737  1.3574 -0.1136
 8276SOL     OW36286   3.428   3.514   6.655 -0.3616 -0.0783 -0.5693
 8276SOL    HW136287   3.404   3.605   6.638  1.0183  0.9173  2.7990
 8276SOL    HW236288   3.370   3.461   6.602 -1.8856 -0.3925  1.4182
 8277SOL     OW36289   1.061   3.307   5.420 -0.0975 -0.2895  0.0569
 8277SOL    HW136290   1.033   3.233   5.366 -1.7484 -0.0412  0.5921
 8277SOL    HW236291   0.975   3.341   5.444  0.5447  0.0330  1.8905
 8278SOL     OW36292   3.752   0.223   4.578  0.3459  0.3851 -0.2437
 8278SOL    HW136293   3.673   0.227   4.523 -0.1719  2.2592  0.6315
 8278SOL    HW236294   3.716   0.226   4.667  2.8819  1.2613  0.7344
 8279SOL     OW36295   0.504   3.969   4.587  0.6156 -0.1454 -0.0989
 8279SOL    HW136296   0.569   4.021   4.635 -1.0862  1.9308 -0.0237
 8279SOL    HW236297   0.562   3.908   4.542  0.0720  0.1913 -1.2549
 8280SOL     OW36298   2.552   1.803  16.041  0.7831  0.7295  0.1363
 8280SOL    HW136299   2.580   1.774  16.128  1.7704  0.1552 -0.3885
 8280SOL    HW236300   2.575   1.730  15.985  0.7853 -1.8081  3.4690
 8281SOL     OW36301   0.052   0.235   8.853 -0.1899 -0.0098 -0.2561
 8281SOL    HW136302   0.114   0.173   8.816 -0.6524 -1.2315  1.0395
 8281SOL    HW236303   0.029   0.192   8.935 -1.2459  0.3182 -0.3843
 8282SOL     OW36304   1.838   3.881  16.976  0.1656 -0.3375  0.4372
 8282SOL    HW136305   1.772   3.925  17.030  1.5707 -0.0530  1.9523
 8282SOL    HW236306   1.811   3.923  16.895  1.6184 -1.3455 -0.5695
 8283SOL     OW36307   0.028   1.541   8.490  0.0752 -0.5619 -0.1045
 8283SOL    HW136308   0.005   1.625   8.530 -2.6216 -1.2257 -0.2000
 8283SOL    HW236309   0.001   1.561   8.400 -3.2824 -0.8509  0.8153
 8284SOL     OW36310   0.593   2.732   0.823  0.0561  0.2956  0.6949
 8284SOL    HW136311   0.613   2.690   0.907  1.7472 -1.0618 -0.3976
 8284SOL    HW236312   0.608   2.664   0.758  1.6065  0.0758  1.2868
 8285SOL     OW36313   1.008   3.341   3.886  0.5751  0.2550 -0.5695
 8285SOL    HW136314   0.912   3.345   3.888  0.5119 -2.3386  1.4049
 8285SOL    HW236315   1.037   3.417   3.836  1.6657  0.0599 -0.2509
 8286SOL     OW36316   2.841   3.999   6.240 -0.4502 -0.1846 -0.0022
 8286SOL    HW136317   2.813   4.042   6.320  2.8907  0.8642  0.5995
 8286SOL    HW236318   2.763   4.000   6.185  0.6286 -0.2358 -1.5415
 8287SOL     OW36319   4.656   1.390   2.607  0.0551  0.2010  0.3852
 8287SOL    HW136320   4.703   1.322   2.558 -1.3344  0.5086 -1.3746
 8287SOL    HW236321   0.009   1.448   2.602  0.2002 -0.2528 -2.5991
 8288SOL     OW36322   4.365   2.486   2.158 -0.1901  0.1589  0.1508
 8288SOL    HW136323   4.361   2.514   2.067  0.5326 -1.8371 -0.4889
 8288SOL    HW236324   4.407   2.402   2.141  1.8827  1.8615 -3.2902
 8289SOL     OW36325   2.325   3.041   2.788 -0.5184  0.6479  0.5076
 8289SOL    HW136326   2.289   2.963   2.745  0.1327  0.1974  0.7774
 8289SOL    HW236327   2.420   3.029   2.796 -0.4323  0.2786 -1.0206
 8290SOL     OW36328   0.389   1.349   4.353 -0.2347 -0.4294 -0.5135
 8290SOL    HW136329   0.475   1.366   4.314  1.2587 -1.2938  2.4587
 8290SOL    HW236330   0.342   1.301   4.284  0.6796 -1.8725 -0.1192
 8291SOL     OW36331   2.756   3.169   2.375  0.3497  0.3642 -0.0739
 8291SOL    HW136332   2.728   3.260   2.376 -0.9743 -0.0357 -0.4063
 8291SOL    HW236333   2.677   3.117   2.385  0.4413  0.4384  1.0504
 8292SOL     OW36334   3.218   2.536   9.189 -0.0626  0.0050  0.1277
 8292SOL    HW136335   3.125   2.560   9.194  0.4939  1.6375  3.0123
 8292SOL    HW236336   3.244   2.526   9.281 -1.1925 -1.9018  0.2388
 8293SOL     OW36337   2.490   2.244   4.208  0.7413 -0.0439 -0.2012
 8293SOL    HW136338   2.437   2.258   4.130  0.6212  2.1047  0.2751
 8293SOL    HW236339   2.420   2.223   4.270 -1.7934  2.1516 -2.3523
 8294SOL     OW36340   3.170   3.452   2.911 -0.4659 -0.2513  0.8708
 8294SOL    HW136341   3.249   3.445   2.858 -2.2032 -0.7034 -1.6717
 8294SOL    HW236342   3.159   3.547   2.919 -0.8328 -0.3168  1.1773
 8295SOL     OW36343   4.203   3.074   4.947  0.2071  0.3873  0.5155
 8295SOL    HW136344   4.218   3.016   4.872 -1.8359  1.2877 -0.6132
 8295SOL    HW236345   4.239   3.155   4.911  0.1820 -0.4224 -1.3388
 8296SOL     OW36346   3.687   2.072   3.246 -0.1802  0.2735 -0.7024
 8296SOL    HW136347   3.629   2.114   3.183  1.1474 -0.1724 -2.2236
 8296SOL    HW236348   3.705   1.988   3.204 -2.3362 -1.7542  2.4709
 8297SOL     OW36349   3.829   1.631   2.173  0.0151 -0.9021  0.4127
 8297SOL    HW136350   3.910   1.662   2.214 -0.0122 -1.2954  0.7671
 8297SOL    HW236351   3.860   1.646   2.084 -0.4477 -3.1459 -0.1065
 8298SOL     OW36352   2.578   2.201  16.215 -0.5938 -0.1183 -0.4965
 8298SOL    HW136353   2.522   2.202  16.293 -2.2185  0.3700 -1.6706
 8298SOL    HW236354   2.662   2.179  16.254 -0.2742 -0.9404 -1.6485
 8299SOL     OW36355   4.012   1.517  14.536 -0.1220 -0.3218  0.5050
 8299SOL    HW136356   4.013   1.527  14.631  0.6895  1.7983  0.2776
 8299SOL    HW236357   4.067   1.439  14.529  0.9604  0.4843 -0.0735
 8300SOL     OW36358   2.182   4.171   2.453  0.0323  0.3509 -0.4766
 8300SOL    HW136359   2.116   4.109   2.484  1.9703 -0.0849  2.8479
 8300SOL    HW236360   2.215   4.125   2.376  1.1704 -0.8631  0.7193
 8301SOL     OW36361   4.311   3.276   8.080 -0.3779  0.1072 -0.1198
 8301SOL    HW136362   4.318   3.311   8.169 -1.6560  1.3360 -0.4896
 8301SOL    HW236363   4.350   3.349   8.032 -0.0491  1.0849  1.6490
 8302SOL     OW36364   1.807   1.446   6.783 -0.1534  0.2792 -0.1116
 8302SOL    HW136365   1.744   1.374   6.784  2.5867 -2.1247  0.8097
 8302SOL    HW236366   1.757   1.515   6.827 -1.5401 -1.2067  0.6318
 8303SOL     OW36367   2.852   2.632   3.423  0.3830  0.0331 -0.2172
 8303SOL    HW136368   2.846   2.569   3.350 -2.6877 -1.1249  1.0405
 8303SOL    HW236369   2.911   2.580   3.477  0.9550 -0.5804 -1.4174
 8304SOL     OW36370   3.891   1.645  14.312 -0.2295  0.2943  0.2536
 8304SOL    HW136371   3.939   1.728  14.308  0.9535 -0.4678 -1.3918
 8304SOL    HW236372   3.937   1.612  14.388 -1.6382 -0.8810  0.5922
 8305SOL     OW36373   3.876   3.066   0.596 -0.6853  0.2988  0.5673
 8305SOL    HW136374   3.965   3.044   0.568 -0.1622  0.3973  2.1838
 8305SOL    HW236375   3.825   3.029   0.524  0.3599 -2.0493  1.0452
 8306SOL     OW36376   4.292   2.823   0.703 -0.4432 -0.4399 -0.1686
 8306SOL    HW136377   4.376   2.788   0.734  0.2988  0.6332 -0.9291
 8306SOL    HW236378   4.268   2.769   0.628  2.6815 -0.8294 -0.9124
 8307SOL     OW36379   3.345   2.410   6.234 -0.1383 -0.5668  0.5191
 8307SOL    HW136380   3.256   2.376   6.243  0.2258 -1.4401  0.7411
 8307SOL    HW236381   3.346   2.439   6.142 -1.2248 -1.7090  0.1509
 8308SOL     OW36382   0.071   3.038  15.316 -0.0189 -0.2557 -0.4397
 8308SOL    HW136383   0.103   3.122  15.282 -0.5722  0.2721  0.3311
 8308SOL    HW236384   0.121   2.976  15.264 -1.2902 -1.8922  0.3009
 8309SOL     OW36385   1.287   1.311   5.457 -0.2488  0.0709  0.5261
 8309SOL    HW136386   1.382   1.311   5.469 -0.1842  0.1869  0.0150
 8309SOL    HW236387   1.275   1.250   5.384  2.8117  0.6880 -0.4953
 8310SOL     OW36388   0.287   1.602  14.608 -0.3381 -0.1483  0.1689
 8310SOL    HW136389   0.353   1.631  14.671 -1.4928 -0.9756  1.7518
 8310SOL    HW236390   0.208   1.640  14.648  0.9263  1.0644  1.5233
 8311SOL     OW36391   0.794   2.108  13.841 -0.0793  0.0210 -0.0236
 8311SOL    HW136392   0.841   2.166  13.781 -0.9026  0.3579 -0.3374
 8311SOL    HW236393   0.759   2.046  13.777 -0.3397  0.9685 -0.7931
 8312SOL     OW36394   3.337   3.062   5.445 -0.5483  0.1687  0.0554
 8312SOL    HW136395   3.365   3.124   5.377 -3.6287 -0.0977 -1.4505
 8312SOL    HW236396   3.318   3.116   5.522  0.0425  1.7251 -0.8864
 8313SOL     OW36397   0.098   2.445   3.581  0.0948  0.0992  0.4429
 8313SOL    HW136398   0.055   2.376   3.531  0.6459  0.4271 -0.4842
 8313SOL    HW236399   0.158   2.394   3.635 -0.6859  0.3858  1.5890
 8314SOL     OW36400   3.547   4.013  13.169  0.6372 -0.4155 -0.3611
 8314SOL    HW136401   3.595   3.954  13.226 -0.1050  0.3987  1.1182
 8314SOL    HW236402   3.492   3.948  13.127 -1.8384  0.5649  1.3222
 8315SOL     OW36403   0.918   2.501   5.210  0.6919  0.8866 -0.3329
 8315SOL    HW136404   1.005   2.535   5.231  1.0949 -0.4960  0.2271
 8315SOL    HW236405   0.948   2.444   5.140 -0.1488 -0.5368  0.4720
 8316SOL     OW36406   0.323   3.059   5.558  0.3752 -0.0860 -0.1064
 8316SOL    HW136407   0.396   3.088   5.613  0.4356  0.8576 -0.6715
 8316SOL    HW236408   0.278   3.141   5.538 -0.0444 -0.4079 -0.4974
 8317SOL     OW36409   4.419   0.737   1.897  0.2688 -0.4864  1.0810
 8317SOL    HW136410   4.456   0.715   1.982  1.8985 -1.8917  0.0183
 8317SOL    HW236411   4.501   0.764   1.856 -2.3912  3.9423 -1.4240
 8318SOL     OW36412   2.447   2.250   7.048 -0.2005 -0.3736 -0.1096
 8318SOL    HW136413   2.521   2.305   7.074 -0.5349  0.3630 -0.6902
 8318SOL    HW236414   2.485   2.175   7.002  2.3078 -0.4069  1.9890
 8319SOL     OW36415   4.527   0.818  11.536  0.0406  0.1182  0.5524
 8319SOL    HW136416   4.464   0.885  11.563  0.9067  1.2954 -0.3338
 8319SOL    HW236417   4.493   0.788  11.451  3.4057 -0.5924 -0.5593
 8320SOL     OW36418   0.729   1.167  11.183  0.1064 -0.0907 -0.2985
 8320SOL    HW136419   0.773   1.126  11.108  0.5453  0.7334 -0.4936
 8320SOL    HW236420   0.638   1.142  11.169 -0.6241  3.0604 -1.2886
 8321SOL     OW36421   2.628   1.905   1.331 -0.3429 -0.3258  0.3431
 8321SOL    HW136422   2.541   1.874   1.358  0.4758 -2.2970  0.7823
 8321SOL    HW236423   2.646   1.841   1.262 -1.0780  0.2791 -0.4021
 8322SOL     OW36424   0.671   3.611   6.463 -0.6499 -0.7477  0.2527
 8322SOL    HW136425   0.752   3.562   6.460  0.9707  1.9587 -0.3093
 8322SOL    HW236426   0.601   3.547   6.477 -0.4308 -0.7479  1.3904
 8323SOL     OW36427   2.624   3.927   2.707 -0.1473  0.2871 -0.0102
 8323SOL    HW136428   2.682   4.001   2.722  0.4028  0.3969 -2.6531
 8323SOL    HW236429   2.604   3.944   2.615  1.6705 -2.2478 -0.8903
 8324SOL     OW36430   3.363   4.418   6.692 -0.2498 -0.2018 -0.0171
 8324SOL    HW136431   3.418   4.355   6.646  0.4989 -0.7364  1.5916
 8324SOL    HW236432   3.323   4.357   6.754  1.7729  0.0926  1.5784
 8325SOL     OW36433   1.066   3.060   0.673 -0.4670 -0.0247  0.1103
 8325SOL    HW136434   1.089   3.103   0.755 -1.5461  2.3804 -0.8629
 8325SOL    HW236435   0.993   3.011   0.711  2.1897 -1.9375  2.7840
 8326SOL     OW36436   0.962   0.263  10.538  0.0726 -0.0273  0.0478
 8326SOL    HW136437   0.908   0.342  10.549 -1.5249 -1.0036 -0.8207
 8326SOL    HW236438   0.932   0.222  10.457 -2.5108  2.0870 -0.0839
 8327SOL     OW36439   3.086   2.870   7.762 -0.0185 -0.1966 -0.7899
 8327SOL    HW136440   3.072   2.803   7.828 -1.6533  0.1890 -0.7438
 8327SOL    HW236441   3.048   2.946   7.806 -1.4845 -1.2501 -0.2358
 8328SOL     OW36442   4.461   0.110   2.535 -0.2408  0.1689  0.3387
 8328SOL    HW136443   4.551   0.096   2.566 -0.0779 -1.7553 -1.0017
 8328SOL    HW236444   4.468   0.196   2.494 -1.3500  0.1022  0.0102
 8329SOL     OW36445   1.997   3.627   2.651  0.1404  0.1706  0.0944
 8329SOL    HW136446   1.964   3.593   2.568  2.4948 -0.0616 -0.7510
 8329SOL    HW236447   1.957   3.714   2.652  2.0825  1.0565  0.3105
 8330SOL     OW36448   0.926   2.753  15.506  0.2724 -0.0162 -0.2597
 8330SOL    HW136449   0.865   2.818  15.541 -0.8467 -1.3147  0.2019
 8330SOL    HW236450   1.002   2.806  15.484  2.7825 -3.4485  0.1199
 8331SOL     OW36451   0.279   3.651   8.158  0.2486  0.2194 -0.3296
 8331SOL    HW136452   0.315   3.721   8.103  2.0647 -1.8164 -1.7478
 8331SOL    HW236453   0.321   3.573   8.120 -0.3414 -0.9220  1.3582
 8332SOL     OW36454   2.584   1.455   3.067  0.4551  0.4619  0.8387
 8332SOL    HW136455   2.510   1.464   3.127  0.3591  0.2405  0.7552
 8332SOL    HW236456   2.631   1.530   3.103  0.9517  0.2879  0.5444
 8333SOL     OW36457   3.996   0.096   7.453 -0.4983 -0.4769  0.3182
 8333SOL    HW136458   3.906   0.084   7.425 -0.3624  2.3921 -1.3191
 8333SOL    HW236459   4.031   0.140   7.376 -0.7464  0.2233  0.6053
 8334SOL     OW36460   3.528   3.114  12.850  0.1508  0.6856  0.2175
 8334SOL    HW136461   3.573   3.180  12.797  1.0286  1.3720  1.8188
 8334SOL    HW236462   3.607   3.098  12.902 -0.6783  1.7529  1.7856
 8335SOL     OW36463   1.357   3.697  15.782 -0.3866  0.1713 -0.3496
 8335SOL    HW136464   1.450   3.715  15.777 -0.1824 -0.6801  0.3433
 8335SOL    HW236465   1.359   3.602  15.792  1.6201  0.1314 -1.1810
 8336SOL     OW36466   3.730   2.094   6.182 -0.3781  0.3563 -0.1463
 8336SOL    HW136467   3.782   2.139   6.249 -1.7720  0.0077  1.1429
 8336SOL    HW236468   3.677   2.167   6.150 -3.2830 -2.4600 -1.7800
 8337SOL     OW36469   2.211   1.242   4.420 -0.0254  0.4546  0.3364
 8337SOL    HW136470   2.165   1.191   4.354 -1.6187  0.9934  1.0385
 8337SOL    HW236471   2.304   1.229   4.401  0.6003  2.0716  2.2419
 8338SOL     OW36472   1.966   0.081   6.965  0.2694 -0.0103  0.1541
 8338SOL    HW136473   1.909   0.149   7.001 -2.1649 -2.4964  1.0040
 8338SOL    HW236474   1.992   0.120   6.882 -1.8643 -0.5142 -0.7418
 8339SOL     OW36475   2.489   0.050   8.598 -0.5068  0.0701 -0.5369
 8339SOL    HW136476   2.574   0.058   8.557 -0.7688  0.8434 -0.9190
 8339SOL    HW236477   2.432   4.715   8.548 -1.4537  1.5390 -1.1557
 8340SOL     OW36478   2.470   1.585   0.205 -0.0297 -0.5127  0.0926
 8340SOL    HW136479   2.395   1.640   0.180  0.0430 -0.2148  0.5355
 8340SOL    HW236480   2.440   1.497   0.183  1.4296 -0.8777 -0.4134
 8341SOL     OW36481   1.853   2.988   6.851  0.4493 -0.1163 -0.0922
 8341SOL    HW136482   1.883   2.926   6.785 -3.0872 -0.5517 -1.2699
 8341SOL    HW236483   1.917   2.969   6.920  0.3058  0.5538  0.2249
 8342SOL     OW36484   0.958   2.318   5.826  0.0654 -0.3895  0.1071
 8342SOL    HW136485   0.976   2.233   5.787 -1.4150 -1.4860  1.8008
 8342SOL    HW236486   1.046   2.354   5.817 -0.2228  1.3560  3.7925
 8343SOL     OW36487   0.951   3.261   9.718 -0.2128 -0.7473 -0.2206
 8343SOL    HW136488   0.927   3.227   9.632 -0.1406 -1.5940  0.0894
 8343SOL    HW236489   0.976   3.180   9.763 -0.3153 -1.5142 -1.5382
 8344SOL     OW36490   3.787   0.355   2.982 -0.2849  0.0636  0.5541
 8344SOL    HW136491   3.838   0.280   3.013  0.8643  0.0802 -1.2694
 8344SOL    HW236492   3.848   0.414   2.938 -2.0649  0.8051 -0.8977
 8345SOL     OW36493   3.822   2.972   2.626 -0.1242 -0.8414 -0.1265
 8345SOL    HW136494   3.839   3.017   2.543 -2.0796  0.5260  0.2185
 8345SOL    HW236495   3.911   2.979   2.659 -0.6784  0.6088  1.0628
 8346SOL     OW36496   0.349   3.316   2.557 -0.0196  0.1973  0.0203
 8346SOL    HW136497   0.373   3.227   2.531 -2.4237 -1.2348  2.6714
 8346SOL    HW236498   0.261   3.337   2.526 -0.5699 -2.5994 -0.3302
 8347SOL     OW36499   2.033   1.955   4.512 -0.3787 -0.1925 -0.1665
 8347SOL    HW136500   2.114   1.974   4.559  0.0107 -1.1081 -0.4705
 8347SOL    HW236501   2.074   1.893   4.452  3.1734  0.6069  1.4464
 8348SOL     OW36502   3.774   2.001   7.910  0.2492  0.1911 -0.2684
 8348SOL    HW136503   3.804   1.948   7.983 -1.1269 -1.6076 -0.9854
 8348SOL    HW236504   3.756   2.084   7.955 -2.4545 -0.0736 -0.8612
 8349SOL     OW36505   3.906   1.601   1.250  0.2153 -0.2905 -0.2219
 8349SOL    HW136506   3.986   1.579   1.202 -1.2013 -0.7718 -2.3604
 8349SOL    HW236507   3.900   1.527   1.309 -1.8768 -2.1830 -2.8153
 8350SOL     OW36508   1.914   4.458  15.642  0.3391 -0.0287  0.4022
 8350SOL    HW136509   1.822   4.461  15.666  0.1277  0.0838 -0.4200
 8350SOL    HW236510   1.953   4.531  15.690 -0.7002  1.5206 -1.1270
 8351SOL     OW36511   3.292   2.171   1.510  0.0684 -0.0992  0.0777
 8351SOL    HW136512   3.263   2.106   1.573  0.0122  0.7159  0.8906
 8351SOL    HW236513   3.355   2.134   1.449 -0.6416 -1.1932  0.0086
 8352SOL     OW36514   0.307   0.267  10.952  0.5012 -0.1718 -0.1150
 8352SOL    HW136515   0.306   0.268  11.048 -2.5146  0.7763 -0.1696
 8352SOL    HW236516   0.226   0.218  10.940  2.9552 -3.7793 -2.2394
 8353SOL     OW36517   3.634   3.052   2.818 -0.1898  0.2784 -0.0454
 8353SOL    HW136518   3.686   3.126   2.847 -0.2650  0.3366 -0.0586
 8353SOL    HW236519   3.682   3.027   2.738  2.0912  0.6105  1.2311
 8354SOL     OW36520   4.207   0.812   7.655 -0.0974  0.0911 -0.0584
 8354SOL    HW136521   4.188   0.805   7.748 -2.5518  2.2507 -0.3935
 8354SOL    HW236522   4.185   0.723   7.627 -0.0863  0.1785 -0.3441
 8355SOL     OW36523   1.738   0.497   3.942 -0.0639 -0.0089 -0.0008
 8355SOL    HW136524   1.790   0.573   3.915  0.0412  0.3838  1.3290
 8355SOL    HW236525   1.721   0.459   3.855 -1.2631  1.2969 -0.3196
 8356SOL     OW36526   0.184   2.082   2.405 -0.0983 -0.3191  0.4752
 8356SOL    HW136527   0.115   2.027   2.367  0.6403 -1.5718  0.9364
 8356SOL    HW236528   0.233   2.091   2.323  0.0221 -2.6157  0.2865
 8357SOL     OW36529   2.257   4.327   7.294  1.0968 -0.0382 -0.2177
 8357SOL    HW136530   2.262   4.422   7.292  0.2503  0.0124 -0.2178
 8357SOL    HW236531   2.169   4.326   7.255  1.0743 -1.1897 -0.1433
 8358SOL     OW36532   1.217   0.114   0.391  0.1113  0.3792  0.2093
 8358SOL    HW136533   1.276   0.041   0.369  2.5688  2.1885  0.8078
 8358SOL    HW236534   1.180   0.128   0.304  0.6852 -1.4539 -0.3252
 8359SOL     OW36535   3.525   4.224   7.292 -0.1901  0.1063 -0.4443
 8359SOL    HW136536   3.588   4.290   7.262  0.6908 -1.7236 -2.6044
 8359SOL    HW236537   3.494   4.273   7.369 -0.3164 -0.8022  0.0875
 8360SOL     OW36538   3.470   3.962   7.278 -0.1948 -0.3208 -0.1220
 8360SOL    HW136539   3.426   3.968   7.362 -1.1876 -1.6645 -0.5442
 8360SOL    HW236540   3.483   4.057   7.268 -0.1312 -0.4301 -1.1280
 8361SOL     OW36541   1.525   0.621  13.513  0.3344 -0.0528 -0.2334
 8361SOL    HW136542   1.577   0.599  13.590  0.2044 -0.6587 -0.3183
 8361SOL    HW236543   1.594   0.675  13.474  0.8547 -0.3427  0.2982
 8362SOL     OW36544   4.244   0.388   8.982  0.0805  0.3982  0.4292
 8362SOL    HW136545   4.183   0.458   8.955  0.7982  0.8254 -0.1132
 8362SOL    HW236546   4.320   0.443   9.001 -0.1865  1.2715 -0.9780
 8363SOL     OW36547   4.328   1.683   9.908  0.1101  0.1457  0.5645
 8363SOL    HW136548   4.267   1.735   9.961  0.6777  0.8802  0.4844
 8363SOL    HW236549   4.395   1.659   9.972  0.1420 -1.3822 -0.0373
 8364SOL     OW36550   4.211   1.924  15.287 -0.8846 -0.1732 -0.7930
 8364SOL    HW136551   4.248   2.011  15.275 -0.1587 -0.8056 -3.1541
 8364SOL    HW236552   4.118   1.935  15.264 -1.3494 -2.8995 -0.2516
 8365SOL     OW36553   4.395   3.347  14.675 -0.3739 -0.5146  0.5713
 8365SOL    HW136554   4.377   3.292  14.751 -1.9194 -2.1423 -0.9694
 8365SOL    HW236555   4.367   3.429  14.715 -1.8638 -0.0468 -1.4597
 8366SOL     OW36556   4.197   4.375   1.568 -0.1613  0.4185 -0.4303
 8366SOL    HW136557   4.266   4.429   1.604 -1.4693  0.8799  1.3897
 8366SOL    HW236558   4.204   4.397   1.475  0.0337  0.7677 -0.3294
 8367SOL     OW36559   2.107   1.584  14.344 -0.0360 -0.2849 -0.0127
 8367SOL    HW136560   2.118   1.500  14.299  1.6594  0.8878 -1.7732
 8367SOL    HW236561   2.166   1.643  14.297 -0.4366 -0.9420 -1.3551
 8368SOL     OW36562   4.120   1.248   3.870  0.1515 -0.1232  0.2741
 8368SOL    HW136563   4.160   1.327   3.906 -0.2569  0.8489 -1.3814
 8368SOL    HW236564   4.105   1.201   3.952 -1.1558  0.6570  0.4837
 8369SOL     OW36565   4.651   1.393  11.814  0.2160 -0.0350  0.2235
 8369SOL    HW136566   4.622   1.447  11.887  0.5302  0.2693  0.1211
 8369SOL    HW236567   0.019   1.377  11.838  0.6821  2.2085 -0.0940
 8370SOL     OW36568   0.799   0.708  16.705 -0.8524 -0.1817  0.4852
 8370SOL    HW136569   0.835   0.789  16.670 -0.2479 -0.3441  0.7378
 8370SOL    HW236570   0.713   0.700  16.663 -1.4133 -1.5149  1.9195
 8371SOL     OW36571   1.119   3.129   4.877  0.5549 -0.7610 -0.0664
 8371SOL    HW136572   1.084   3.171   4.956 -2.4954 -2.2773 -0.5861
 8371SOL    HW236573   1.118   3.034   4.889 -2.4079 -0.3640  2.7500
 8372SOL     OW36574   1.003   1.212   7.059  0.5958 -0.0629  0.0714
 8372SOL    HW136575   0.961   1.135   7.020 -0.2375 -0.7048  2.2360
 8372SOL    HW236576   0.963   1.230   7.144 -0.2365  0.2324 -0.3883
 8373SOL     OW36577   3.191   2.552  17.366  0.1924  0.3120  0.1165
 8373SOL    HW136578   3.139   2.534  17.289  1.7855  1.1187 -1.1558
 8373SOL    HW236579   3.188   2.477  17.425  0.9733 -0.4120 -0.7634
 8374SOL     OW36580   2.784   1.973   3.936 -0.2760 -0.9475 -0.1253
 8374SOL    HW136581   2.824   1.943   3.854  1.4855  0.0968  0.3450
 8374SOL    HW236582   2.704   1.923   3.925 -0.2858 -1.1915  1.0855
 8375SOL     OW36583   3.098   3.452   7.696 -0.0391  0.1530  0.2262
 8375SOL    HW136584   3.132   3.470   7.783  1.8690 -1.7744 -0.1129
 8375SOL    HW236585   3.167   3.480   7.637  0.9755 -2.1398  0.3356
 8376SOL     OW36586   3.600   3.772  13.831 -0.1232 -0.2494 -0.1795
 8376SOL    HW136587   3.569   3.704  13.771 -0.4716  1.6911 -2.1983
 8376SOL    HW236588   3.694   3.761  13.817  0.2662 -0.6168  2.7753
 8377SOL     OW36589   4.387   1.730   2.785 -0.0272  0.1581 -0.3174
 8377SOL    HW136590   4.367   1.801   2.845  0.9277 -1.5962  2.0688
 8377SOL    HW236591   4.464   1.691   2.827 -1.6703 -1.4499  1.1682
 8378SOL     OW36592   1.085   3.615  10.417  0.0280  0.2093  1.0186
 8378SOL    HW136593   0.995   3.582  10.420 -0.0202  0.3117  0.7178
 8378SOL    HW236594   1.090   3.630  10.512 -0.7660  1.1413  0.9276
 8379SOL     OW36595   1.741   2.805   2.003 -0.6407 -0.2121  0.2325
 8379SOL    HW136596   1.824   2.829   2.043 -0.1116  0.1348 -1.0614
 8379SOL    HW236597   1.755   2.840   1.915  3.6862 -1.3179  0.4777
 8380SOL     OW36598   4.655   4.160   8.030  0.1662  0.2214 -0.2239
 8380SOL    HW136599   4.626   4.120   8.112  2.3984 -3.4163 -1.2015
 8380SOL    HW236600   4.630   4.252   8.043 -0.8227 -0.0303 -0.3626
 8381SOL     OW36601   3.666   2.860   6.387  0.3324  0.0559  0.0383
 8381SOL    HW136602   3.632   2.795   6.325 -0.2182 -0.7937  1.2464
 8381SOL    HW236603   3.591   2.873   6.445 -0.9672 -0.8375 -1.4412
 8382SOL     OW36604   0.365   1.891   3.145  0.5022  0.1351  0.2512
 8382SOL    HW136605   0.390   1.964   3.202  2.2634 -1.1652  1.1659
 8382SOL    HW236606   0.279   1.911   3.110  0.3705 -1.0101 -0.0564
 8383SOL     OW36607   2.455   2.810   8.002 -0.3279 -0.3046  0.1891
 8383SOL    HW136608   2.516   2.739   8.019 -1.4630 -1.5588 -0.9717
 8383SOL    HW236609   2.437   2.840   8.091 -3.4340  0.4250 -0.6645
 8384SOL     OW36610   4.476   4.561   7.091  0.5982 -0.2572  0.1789
 8384SOL    HW136611   4.503   4.480   7.135  1.3571 -0.5089 -0.7631
 8384SOL    HW236612   4.429   4.521   7.018 -1.4110  1.0660  0.7674
 8385SOL     OW36613   0.208   3.191   6.246 -0.3415 -0.0395 -0.5126
 8385SOL    HW136614   0.301   3.175   6.262 -0.2378 -1.2242 -2.2349
 8385SOL    HW236615   0.195   3.273   6.293 -0.5198 -0.8105  0.7770
 8386SOL     OW36616   2.940   3.093  10.611 -0.4571  0.8218  0.2337
 8386SOL    HW136617   2.997   3.091  10.535 -1.9859  0.0484 -0.8896
 8386SOL    HW236618   2.982   3.155  10.671  0.8330 -1.1888  1.4074
 8387SOL     OW36619   1.644   1.300   1.543  0.1155  0.0578  0.2817
 8387SOL    HW136620   1.579   1.366   1.517  0.7820  0.7114  0.2824
 8387SOL    HW236621   1.587   1.254   1.604 -1.1960 -0.2710 -1.1916
 8388SOL     OW36622   0.325   3.716   2.808 -0.0626 -0.0403 -0.8793
 8388SOL    HW136623   0.245   3.736   2.857  0.2350 -1.8943  0.3229
 8388SOL    HW236624   0.348   3.796   2.759  2.7742 -0.4727 -0.2664
 8389SOL     OW36625   3.480   3.924   1.549 -0.4460 -0.1801  0.0369
 8389SOL    HW136626   3.519   3.876   1.623 -0.6922 -0.6336 -0.1289
 8389SOL    HW236627   3.386   3.906   1.550 -0.5007  0.0739 -1.1202
 8390SOL     OW36628   1.244   3.932   6.667  0.5935 -0.0743 -0.0351
 8390SOL    HW136629   1.207   3.859   6.717 -0.5565 -0.1028 -0.9095
 8390SOL    HW236630   1.298   3.979   6.730  1.0438  0.1870 -0.6131
 8391SOL     OW36631   4.069   1.997   8.205  0.0106  0.5181 -0.4310
 8391SOL    HW136632   4.019   1.923   8.171 -0.2562  0.3801  0.2437
 8391SOL    HW236633   4.094   2.040   8.124  0.3464 -1.2668 -1.2672
 8392SOL     OW36634   1.262   4.633   2.686 -0.5363  0.3256  0.0003
 8392SOL    HW136635   1.203   4.707   2.700  0.4076  1.0002  0.4330
 8392SOL    HW236636   1.345   4.676   2.665  0.4686 -1.2803  0.6787
 8393SOL     OW36637   2.526   2.915  13.395  0.1627 -0.1103 -0.2065
 8393SOL    HW136638   2.481   2.834  13.369  0.2073 -0.3509  0.4663
 8393SOL    HW236639   2.455   2.952  13.447 -0.6819 -1.6220 -0.2757
 8394SOL     OW36640   2.587   4.409   9.047  0.2710 -0.1080 -0.2537
 8394SOL    HW136641   2.581   4.431   9.140  0.7015  0.7681 -0.4386
 8394SOL    HW236642   2.497   4.376   9.040  1.0801 -2.5350  0.7842
 8395SOL     OW36643   4.291   4.540   8.312  0.3513  0.1568  0.1140
 8395SOL    HW136644   4.376   4.496   8.302 -0.0278 -0.6638  0.5301
 8395SOL    HW236645   4.247   4.496   8.239  4.0316 -2.2846 -0.6350
 8396SOL     OW36646   3.856   1.441   8.639  0.5060  0.0226  0.1576
 8396SOL    HW136647   3.908   1.377   8.687  0.4198  0.6507  1.0903
 8396SOL    HW236648   3.775   1.436   8.690  0.0235  1.0510 -0.4834
 8397SOL     OW36649   3.518   2.623  16.951 -0.3070  1.0394  0.4018
 8397SOL    HW136650   3.486   2.598  16.865 -2.0075 -0.1975  1.4008
 8397SOL    HW236651   3.562   2.703  16.921  1.8791 -0.2702  0.0637
 8398SOL     OW36652   4.509   2.795   2.671  0.1495 -0.2901  0.0811
 8398SOL    HW136653   4.521   2.776   2.578 -2.7901 -0.1748 -0.3265
 8398SOL    HW236654   4.595   2.831   2.690  1.9087 -2.8880 -2.9275
 8399SOL     OW36655   4.517   3.560   0.916 -0.4727 -0.2614 -0.0837
 8399SOL    HW136656   4.429   3.597   0.916 -0.4275 -0.1905 -2.8181
 8399SOL    HW236657   4.570   3.640   0.923 -0.2756 -0.4502  0.6749
 8400SOL     OW36658   3.730   2.129   5.660  0.2070  0.1875 -0.2344
 8400SOL    HW136659   3.759   2.197   5.599  4.4787 -0.6499  0.8534
 8400SOL    HW236660   3.640   2.121   5.629  1.0100  0.1676 -2.6025
 8401SOL     OW36661   2.152   0.366   4.595 -0.0792 -0.0450 -0.0295
 8401SOL    HW136662   2.147   0.333   4.505 -2.5593  1.2846 -0.3641
 8401SOL    HW236663   2.071   0.331   4.631 -1.8191  1.5979 -2.2940
 8402SOL     OW36664   4.117   0.790   7.917  0.1307  0.3789 -0.0388
 8402SOL    HW136665   4.034   0.795   7.965  0.7007  2.4321  0.7206
 8402SOL    HW236666   4.153   0.705   7.943  0.2959  0.1801 -0.9380
 8403SOL     OW36667   1.764   0.272  14.488 -0.1698  0.7090 -0.7441
 8403SOL    HW136668   1.698   0.209  14.519  2.5035 -1.5786  0.3442
 8403SOL    HW236669   1.751   0.350  14.541  0.2282 -1.6728  2.9051
 8404SOL     OW36670   1.872   0.401   5.118  0.0606 -0.0958  0.2607
 8404SOL    HW136671   1.919   0.350   5.052  0.5202  1.1009 -0.3481
 8404SOL    HW236672   1.808   0.336   5.147 -1.2245  1.9041  1.9464
 8405SOL     OW36673   2.648   1.453   2.097 -0.0697  0.1619  0.5167
 8405SOL    HW136674   2.705   1.413   2.162  1.4669 -0.2516 -1.0992
 8405SOL    HW236675   2.700   1.529   2.070 -1.0128  0.2944 -0.9118
 8406SOL     OW36676   2.101   1.985   6.878 -0.3340  0.0307 -0.0987
 8406SOL    HW136677   2.187   1.998   6.841 -1.3301  2.0969 -1.6602
 8406SOL    HW236678   2.112   1.986   6.973 -2.5807 -0.0111  0.1746
 8407SOL     OW36679   0.242   2.034   3.866 -0.2444  0.0384 -0.6060
 8407SOL    HW136680   0.310   1.968   3.881 -0.2447  0.4471  1.1850
 8407SOL    HW236681   0.218   2.047   3.957 -0.5802 -1.9684 -0.4038
 8408SOL     OW36682   1.182   1.945   6.182  0.2983 -0.1207 -0.2222
 8408SOL    HW136683   1.175   1.904   6.095  2.0741 -0.3449 -0.2700
 8408SOL    HW236684   1.238   2.020   6.163 -0.4919  0.3111 -0.8456
 8409SOL     OW36685   1.289   3.130   7.642  0.1320 -0.3575 -0.2669
 8409SOL    HW136686   1.242   3.180   7.576  0.6394 -1.8024 -1.7082
 8409SOL    HW236687   1.318   3.055   7.589  1.7517  0.7328 -0.9174
 8410SOL     OW36688   3.604   0.322   3.281  0.1536 -0.8875 -0.3067
 8410SOL    HW136689   3.510   0.323   3.299  0.2631  0.1201  0.1649
 8410SOL    HW236690   3.624   0.233   3.251 -1.0147 -1.3997  0.4150
 8411SOL     OW36691   1.967   0.525   9.783  0.1624 -0.2355  0.1181
 8411SOL    HW136692   1.962   0.592   9.851  0.5186  0.4551 -0.5367
 8411SOL    HW236693   2.033   0.467   9.821  0.8333 -0.6327 -1.6468
 8412SOL     OW36694   1.672   2.075  14.162  0.6445 -0.1005  0.2866
 8412SOL    HW136695   1.586   2.078  14.204 -0.1517  1.1724 -1.4558
 8412SOL    HW236696   1.735   2.129  14.209 -0.0091  1.0054 -0.1243
 8413SOL     OW36697   3.526   4.633   8.282 -0.2890 -0.4913  0.7001
 8413SOL    HW136698   3.619   4.613   8.284 -0.1583  0.2643  2.8768
 8413SOL    HW236699   3.498   4.574   8.213  3.1968  0.3807 -1.4477
 8414SOL     OW36700   4.652   0.681   0.375 -0.1817 -0.4468 -0.0885
 8414SOL    HW136701   4.584   0.738   0.338  0.4248  0.0524 -0.4427
 8414SOL    HW236702   4.716   0.744   0.407  0.0444 -1.8477  2.1889
 8415SOL     OW36703   1.748   1.758   3.203 -0.1753 -0.7392 -0.3501
 8415SOL    HW136704   1.661   1.785   3.173 -0.8291 -2.8219 -0.3500
 8415SOL    HW236705   1.727   1.698   3.275 -2.0410 -0.3462 -0.5544
 8416SOL     OW36706   4.630   4.463   7.371  0.4272 -0.6102 -0.3771
 8416SOL    HW136707   4.723   4.439   7.379  0.0298 -1.3782  1.8628
 8416SOL    HW236708   4.595   4.383   7.411 -0.3113  0.1924  0.5910
 8417SOL     OW36709   0.197   1.362   5.206  0.3514  0.9423 -0.0729
 8417SOL    HW136710   0.156   1.309   5.137 -2.5324  1.6973  1.0847
 8417SOL    HW236711   0.206   1.451   5.172  1.2963  0.0360 -2.1792
 8418SOL     OW36712   2.095   4.427  12.334 -0.2732  0.7648 -0.1566
 8418SOL    HW136713   2.096   4.468  12.248  1.2338 -0.2674 -0.6308
 8418SOL    HW236714   2.081   4.501  12.393  1.6444  1.1186 -0.1533
 8419SOL     OW36715   4.281   0.752   2.857  0.0750 -0.2250 -0.2151
 8419SOL    HW136716   4.313   0.684   2.797 -3.2295  0.3060 -2.5962
 8419SOL    HW236717   4.271   0.828   2.800 -1.0979 -0.1745  0.0532
 8420SOL     OW36718   1.995   4.338   7.230  0.2068 -0.6081  0.5239
 8420SOL    HW136719   1.903   4.313   7.224  0.1575  0.2707 -2.3232
 8420SOL    HW236720   1.983   4.433   7.223  3.4415 -0.0063  3.0322
 8421SOL     OW36721   2.216   3.582  15.294  0.1737 -0.2214 -0.4300
 8421SOL    HW136722   2.275   3.523  15.342  1.4644  3.8516  2.9640
 8421SOL    HW236723   2.138   3.535  15.322  0.1132  0.4297  0.5057
 8422SOL     OW36724   2.228   2.413   4.334 -0.6141 -0.3912 -0.2807
 8422SOL    HW136725   2.267   2.326   4.340 -0.8227 -0.4642  0.0009
 8422SOL    HW236726   2.159   2.393   4.397 -0.9172 -0.4783 -0.6337
 8423SOL     OW36727   2.306   4.405  11.340  0.4978  0.1626 -0.0102
 8423SOL    HW136728   2.328   4.366  11.425  0.2430  2.1897  0.9931
 8423SOL    HW236729   2.260   4.332  11.299  2.5556 -0.2922 -1.4759
 8424SOL     OW36730   1.450   2.648   4.960 -0.1763 -0.0147  0.0260
 8424SOL    HW136731   1.408   2.588   5.022 -1.4467  1.2486  0.3892
 8424SOL    HW236732   1.370   2.667   4.911  0.2956  1.3746 -0.1938
 8425SOL     OW36733   0.621   2.521   4.758 -0.3982  0.2332  0.5076
 8425SOL    HW136734   0.670   2.452   4.803 -1.1010  0.4304  1.5701
 8425SOL    HW236735   0.654   2.601   4.800  1.4663 -1.2077  1.7788
 8426SOL     OW36736   0.485   3.417  17.521  0.1565 -0.3350  0.4869
 8426SOL    HW136737   0.411   3.419  17.461 -0.2601 -0.6511  0.9915
 8426SOL    HW236738   0.459   3.341  17.573  0.0386 -2.7736 -3.1115
 8427SOL     OW36739   3.714   2.057   5.067  0.3360  0.1916  0.0587
 8427SOL    HW136740   3.735   1.975   5.112  0.5502  0.5539  0.6249
 8427SOL    HW236741   3.752   2.118   5.130  1.0329 -0.3773  0.1781
 8428SOL     OW36742   1.865   0.712   5.500  0.3501 -0.4801  0.1686
 8428SOL    HW136743   1.871   0.761   5.418  0.4642 -0.4272  0.2078
 8428SOL    HW236744   1.950   0.737   5.537  0.5834 -1.1188  0.0669
 8429SOL     OW36745   3.129   4.381   2.822  0.1177  0.0134 -0.2032
 8429SOL    HW136746   3.211   4.343   2.853 -1.1292 -1.6217  1.0956
 8429SOL    HW236747   3.153   4.423   2.739 -2.6197 -0.8008 -1.4273
 8430SOL     OW36748   2.546   4.371   2.823  0.0959 -0.9074 -0.3931
 8430SOL    HW136749   2.579   4.294   2.870  1.5116  0.1665  0.3610
 8430SOL    HW236750   2.463   4.341   2.785  0.3921  2.6006 -3.7146
 8431SOL     OW36751   1.485   3.347  17.207  0.1426 -0.1146 -0.1180
 8431SOL    HW136752   1.531   3.354  17.123 -0.6851  0.7488 -0.5115
 8431SOL    HW236753   1.557   3.313  17.259 -0.9586 -1.9445  0.2247
 8432SOL     OW36754   1.806   4.440  12.230  0.2793 -0.1002  0.2475
 8432SOL    HW136755   1.857   4.370  12.272  0.0652  0.0670  0.7867
 8432SOL    HW236756   1.734   4.384  12.203  0.0168  0.9230 -1.1318
 8433SOL     OW36757   1.100   0.160  11.884  0.2037 -0.9028  0.5571
 8433SOL    HW136758   1.041   0.178  11.811 -2.3762 -2.4026  2.2897
 8433SOL    HW236759   1.153   0.089  11.847 -0.5790 -1.2689  0.1443
 8434SOL     OW36760   0.757   2.032  10.765 -0.6407  0.5858 -0.1090
 8434SOL    HW136761   0.829   1.994  10.715  1.2496  4.4969 -0.3424
 8434SOL    HW236762   0.788   2.018  10.855 -2.3460 -1.0810  0.2136
 8435SOL     OW36763   1.316   0.537   3.983 -0.2032 -0.0123 -0.1981
 8435SOL    HW136764   1.317   0.570   3.893  1.2111 -0.3994 -0.3149
 8435SOL    HW236765   1.222   0.518   3.989 -0.1446  0.3139  1.5806
 8436SOL     OW36766   3.491   2.623   1.712 -0.5066  0.0271 -0.0404
 8436SOL    HW136767   3.581   2.594   1.702  0.1080  2.9662 -2.9737
 8436SOL    HW236768   3.440   2.553   1.672  1.2609 -0.0409 -2.1772
 8437SOL     OW36769   1.218   4.142   4.393 -0.1162  0.0680 -0.6442
 8437SOL    HW136770   1.263   4.168   4.474 -1.5241 -0.9090  0.4571
 8437SOL    HW236771   1.141   4.199   4.398 -1.0120 -1.3130  1.3700
 8438SOL     OW36772   0.373   1.397   3.420 -0.3426  0.4893 -0.5616
 8438SOL    HW136773   0.456   1.378   3.376 -1.0323 -1.2784 -1.0999
 8438SOL    HW236774   0.328   1.411   3.336  0.0154 -1.9896 -1.1652
 8439SOL     OW36775   4.037   0.933   6.435 -0.0795 -0.2322 -0.1714
 8439SOL    HW136776   3.947   0.951   6.461 -0.4670 -1.5385 -0.6205
 8439SOL    HW236777   4.033   0.941   6.340 -1.8118  0.1029 -0.0534
 8440SOL     OW36778   0.682   4.592   3.169 -0.2824 -0.0680  0.0718
 8440SOL    HW136779   0.588   4.572   3.174 -0.2542 -0.1006  0.5078
 8440SOL    HW236780   0.719   4.519   3.119  1.8403 -0.2883  1.9623
 8441SOL     OW36781   2.186   0.241   9.578  0.1415  0.3793 -0.1968
 8441SOL    HW136782   2.251   0.282   9.520  0.0215  2.2083  0.9601
 8441SOL    HW236783   2.104   0.271   9.539 -1.1577 -1.5236  1.1090
 8442SOL     OW36784   1.388   0.972  10.159  0.7276 -0.6060 -0.0247
 8442SOL    HW136785   1.368   0.895  10.212 -1.9681  0.7363  0.9172
 8442SOL    HW236786   1.337   0.967  10.078 -1.5465  1.5880  1.2901
 8443SOL     OW36787   3.038   2.465   7.376  0.0008  0.0453 -0.5378
 8443SOL    HW136788   3.109   2.526   7.355  1.2658 -0.4993  2.0740
 8443SOL    HW236789   2.968   2.517   7.337 -0.5243  0.3445  0.8116
 8444SOL     OW36790   2.142   4.627   6.066 -0.1909 -0.0198  0.3910
 8444SOL    HW136791   2.096   4.643   5.984 -0.9440  1.2303  1.0702
 8444SOL    HW236792   2.225   4.585   6.043  0.5242  0.6734  1.7091
 8445SOL     OW36793   4.163   3.879   8.390 -0.2143  0.3104 -0.0859
 8445SOL    HW136794   4.109   3.890   8.469  2.5154 -0.9590  1.9568
 8445SOL    HW236795   4.228   3.945   8.415  0.6770  0.3924 -2.6585
 8446SOL     OW36796   1.621   1.145   4.879  0.6417  0.1241 -0.2325
 8446SOL    HW136797   1.616   1.124   4.972 -0.5102 -1.8336 -0.7435
 8446SOL    HW236798   1.709   1.181   4.880  0.3979  0.7233 -0.0362
 8447SOL     OW36799   0.641   3.483   3.632  0.4530 -0.2631 -0.1733
 8447SOL    HW136800   0.686   3.554   3.586  0.2544  0.7074  1.0945
 8447SOL    HW236801   0.549   3.495   3.609  0.2843  0.9178  1.1109
 8448SOL     OW36802   3.637   1.913   0.915  0.4382  0.6573 -0.2367
 8448SOL    HW136803   3.641   1.997   0.962  1.0390 -0.1727  1.1877
 8448SOL    HW236804   3.580   1.937   0.843 -0.9957  0.2324  0.7509
 8449SOL     OW36805   0.462   2.469   8.322 -0.1138  0.1992 -0.4565
 8449SOL    HW136806   0.501   2.548   8.359  0.4362 -0.2888  0.0002
 8449SOL    HW236807   0.400   2.508   8.261  1.1395 -0.0759 -1.9060
 8450SOL     OW36808   2.179   2.605  11.089  0.2372  0.0579 -0.2159
 8450SOL    HW136809   2.165   2.589  11.182  2.0950  0.8750  0.1972
 8450SOL    HW236810   2.274   2.609  11.096  0.2295 -0.3398  0.1076
 8451SOL     OW36811   3.132   3.253   3.218 -0.1640 -0.0652 -0.0372
 8451SOL    HW136812   3.190   3.274   3.292  1.0695  1.4608 -1.4474
 8451SOL    HW236813   3.051   3.287   3.255  0.3733 -0.4280  1.5059
 8452SOL     OW36814   1.086   2.485   2.952 -0.3340  0.7929 -0.1103
 8452SOL    HW136815   1.139   2.561   2.975 -0.1591  0.8718 -0.7915
 8452SOL    HW236816   1.039   2.508   2.872 -2.6390  1.4515  1.4153
 8453SOL     OW36817   1.774   1.675  13.359  0.2741 -0.0938  0.1378
 8453SOL    HW136818   1.707   1.695  13.293 -0.2453 -1.1166  0.3587
 8453SOL    HW236819   1.718   1.646  13.430  0.5045 -0.1496  0.2961
 8454SOL     OW36820   0.941   1.354   8.844 -0.7881  0.5045 -0.3253
 8454SOL    HW136821   0.973   1.348   8.934  2.5281 -2.3633 -1.6787
 8454SOL    HW236822   0.899   1.440   8.847 -0.8662  0.4291  0.6053
 8455SOL     OW36823   4.156   1.297   1.359 -0.1651 -0.5417  0.4501
 8455SOL    HW136824   4.183   1.216   1.316  1.0518  0.5289 -0.8007
 8455SOL    HW236825   4.243   1.325   1.385  0.8158 -2.6239 -0.5859
 8456SOL     OW36826   0.590   3.660  15.144 -0.0864  0.3944 -0.3192
 8456SOL    HW136827   0.663   3.653  15.205 -1.1441 -0.2840  0.8592
 8456SOL    HW236828   0.605   3.745  15.103  0.5707  1.1760  1.5695
 8457SOL     OW36829   2.153   2.213  14.939  0.5783  0.7915 -0.1815
 8457SOL    HW136830   2.189   2.174  15.019 -2.1564 -0.1197  0.5928
 8457SOL    HW236831   2.081   2.151  14.932 -0.0065  1.3600  0.6961
 8458SOL     OW36832   2.710   4.252   4.474  0.5561 -0.4025 -0.5343
 8458SOL    HW136833   2.765   4.292   4.406  0.0263  1.2894  0.0389
 8458SOL    HW236834   2.724   4.161   4.450  1.7982 -1.1046  2.9377
 8459SOL     OW36835   3.195   1.793   6.361 -0.2575  1.0390 -0.4718
 8459SOL    HW136836   3.263   1.739   6.400 -0.9840 -1.5092 -2.7738
 8459SOL    HW236837   3.127   1.751   6.414 -0.4872  1.3530 -0.5144
 8460SOL     OW36838   4.285   2.240   8.929  0.8217  0.0794 -0.2803
 8460SOL    HW136839   4.339   2.312   8.962  0.7053  0.0619 -0.0535
 8460SOL    HW236840   4.316   2.224   8.840 -3.0370 -3.2957 -1.0188
 8461SOL     OW36841   4.655   1.381   3.114  0.0265  0.4905  0.4211
 8461SOL    HW136842   4.617   1.385   3.026 -4.3347  0.8237  2.3033
 8461SOL    HW236843   4.671   1.287   3.121 -1.1410  0.3345  1.0917
 8462SOL     OW36844   4.696   3.260   0.667 -0.0700 -0.0404  0.3430
 8462SOL    HW136845   4.682   3.349   0.635  2.1179  0.4109  0.5973
 8462SOL    HW236846   4.639   3.254   0.743 -2.7514 -0.3742 -1.7251
 8463SOL     OW36847   2.071   1.492   0.056 -0.1063 -0.4452  0.2943
 8463SOL    HW136848   2.075   1.406   0.014  1.0490 -1.4619  2.5036
 8463SOL    HW236849   2.164   1.505   0.073 -0.8821  1.0969  3.4729
 8464SOL     OW36850   2.518   1.109  10.164  0.1254 -0.6247  0.1399
 8464SOL    HW136851   2.477   1.183  10.119  0.7761 -1.5996 -2.0512
 8464SOL    HW236852   2.454   1.079  10.228 -0.6950  0.7176 -0.0614
 8465SOL     OW36853   1.851   1.022   3.890 -0.0742  0.2502 -0.1836
 8465SOL    HW136854   1.791   1.090   3.921 -0.4082 -0.7893  1.4215
 8465SOL    HW236855   1.915   1.069   3.837  0.6292  0.6521  1.0269
 8466SOL     OW36856   3.940   1.605  14.832 -0.1059 -0.4054  0.6302
 8466SOL    HW136857   3.923   1.692  14.797 -2.1869 -1.4146 -0.8937
 8466SOL    HW236858   4.029   1.616  14.863  1.3391 -0.9120 -3.3255
 8467SOL     OW36859   2.258   0.791   3.986  0.4854 -0.4566 -0.2829
 8467SOL    HW136860   2.327   0.798   4.052 -0.7364 -2.4918  1.2343
 8467SOL    HW236861   2.270   0.875   3.943 -0.1901  0.1285  0.6747
 8468SOL     OW36862   1.635   0.741   6.210 -0.1452 -0.0417 -0.2436
 8468SOL    HW136863   1.654   0.835   6.209 -0.8359  0.1243  1.4613
 8468SOL    HW236864   1.542   0.748   6.230  0.3207  0.6558  1.7571
 8469SOL     OW36865   0.783   3.022  15.508  0.3831 -0.4201  0.4537
 8469SOL    HW136866   0.699   3.025  15.555 -0.2319 -1.5825 -0.5652
 8469SOL    HW236867   0.764   2.997  15.417  1.1618  0.8159 -0.0569
 8470SOL     OW36868   2.351   4.572   0.062  0.1948 -0.4981 -0.0339
 8470SOL    HW136869   2.299   4.491   0.056 -1.0174  0.4226 -1.9553
 8470SOL    HW236870   2.302   4.617  17.687 -1.5118 -1.4601  0.5299
 8471SOL     OW36871   4.429   3.179   6.515  1.3780  0.0519  0.4867
 8471SOL    HW136872   4.523   3.198   6.506  1.9772 -1.8437  2.8558
 8471SOL    HW236873   4.404   3.270   6.534 -1.5056 -0.4318 -1.0295
 8472SOL     OW36874   1.516   0.930   9.393 -0.1250  0.7286 -0.3594
 8472SOL    HW136875   1.473   0.984   9.326  1.0420 -0.0914 -1.7805
 8472SOL    HW236876   1.606   0.957   9.376 -0.5865  2.9113  0.6525
 8473SOL     OW36877   3.085   2.088   4.192 -0.0688 -0.3165 -0.8099
 8473SOL    HW136878   3.159   2.031   4.174  0.4358  0.1640 -0.2561
 8473SOL    HW236879   3.037   2.097   4.109 -1.6304  4.7355  0.6264
 8474SOL     OW36880   1.420   3.514  16.151 -0.0328  0.1539  0.4549
 8474SOL    HW136881   1.366   3.490  16.227 -1.0564  1.7957  0.2489
 8474SOL    HW236882   1.352   3.552  16.095 -0.0255 -1.1903 -0.4646
 8475SOL     OW36883   0.045   0.442   6.134  0.0083 -0.1047  0.7479
 8475SOL    HW136884   0.127   0.454   6.086 -1.2633  1.8019 -0.9443
 8475SOL    HW236885   0.059   0.485   6.218 -0.0457 -0.7717  1.0956
 8476SOL     OW36886   2.735   2.658  11.922  0.0861 -0.2458  0.3555
 8476SOL    HW136887   2.770   2.738  11.961  0.9544 -0.8603  0.8179
 8476SOL    HW236888   2.646   2.689  11.903 -0.3026 -0.7377  1.3959
 8477SOL     OW36889   4.388   0.876   6.326 -0.8762 -0.6387 -0.0706
 8477SOL    HW136890   4.313   0.819   6.313 -1.2991  0.0519 -0.6795
 8477SOL    HW236891   4.385   0.918   6.240 -0.9111 -1.7955 -0.6387
 8478SOL     OW36892   4.446   1.808  16.702 -0.2142 -0.6348  0.3514
 8478SOL    HW136893   4.458   1.902  16.687 -1.6505 -0.2896  1.3920
 8478SOL    HW236894   4.354   1.809  16.675 -0.1707 -1.3734  0.1596
 8479SOL     OW36895   2.886   1.109   3.240  0.1587 -0.2845 -0.1631
 8479SOL    HW136896   2.837   1.135   3.162 -0.1071  0.9833  0.4317
 8479SOL    HW236897   2.965   1.162   3.229 -0.3044  0.1019 -1.5516
 8480SOL     OW36898   1.299   2.289   4.640  1.0714  0.2319 -0.0740
 8480SOL    HW136899   1.320   2.267   4.549 -1.6149  3.8320 -1.5369
 8480SOL    HW236900   1.361   2.231   4.683  0.3592  0.2996  1.0299
 8481SOL     OW36901   2.160   1.746   2.667 -0.7679  0.7694 -0.4176
 8481SOL    HW136902   2.074   1.766   2.630 -0.5413  1.7701 -0.4122
 8481SOL    HW236903   2.136   1.709   2.752 -0.8537  1.2739 -0.2232
 8482SOL     OW36904   1.392   2.499   8.208 -0.3260 -0.3679 -0.3264
 8482SOL    HW136905   1.378   2.582   8.254 -0.7792 -1.1104  0.8501
 8482SOL    HW236906   1.386   2.432   8.276 -1.1023  0.4977  0.4571
 8483SOL     OW36907   3.790   1.061   6.489  0.3583 -0.4922  0.6248
 8483SOL    HW136908   3.705   1.098   6.466  0.5542 -1.2164 -1.2604
 8483SOL    HW236909   3.835   1.138   6.522  0.9811 -0.8710  0.6561
 8484SOL     OW36910   2.367   4.612   5.437  0.0797 -0.1754 -0.2065
 8484SOL    HW136911   2.329   4.602   5.350 -1.8801  0.2417  0.6097
 8484SOL    HW236912   2.344   4.533   5.486  0.1786  0.1918  0.4374
 8485SOL     OW36913   0.814   2.934  14.725 -0.0138 -0.0084 -0.5649
 8485SOL    HW136914   0.774   2.859  14.680  0.2950 -0.4015 -0.1841
 8485SOL    HW236915   0.741   2.996  14.716 -1.6655 -1.5449  2.3414
 8486SOL     OW36916   3.276   3.317   0.020 -0.0235  0.2889  0.3562
 8486SOL    HW136917   3.196   3.274   0.049 -1.1390 -0.3551 -3.7688
 8486SOL    HW236918   3.245   3.406   0.037  0.8134  0.6408  0.0236
 8487SOL     OW36919   2.898   4.609   1.683 -0.3822  0.3623  0.0780
 8487SOL    HW136920   2.858   4.583   1.601 -1.2192 -3.5966  1.7388
 8487SOL    HW236921   2.919   4.524   1.723 -0.1526  0.9574  1.2108
 8488SOL     OW36922   2.454   4.015   6.695  0.2794 -0.1055 -0.2015
 8488SOL    HW136923   2.405   4.088   6.734  0.5971  1.1972 -2.2320
 8488SOL    HW236924   2.410   4.018   6.610  0.6415  1.0012 -0.3546
 8489SOL     OW36925   3.636   2.329  10.216  0.4298 -0.1231  0.1481
 8489SOL    HW136926   3.681   2.276  10.150  1.9748  1.8858 -0.3998
 8489SOL    HW236927   3.553   2.283  10.234  1.1916 -1.2356  0.8294
 8490SOL     OW36928   3.921   4.176   9.832 -0.4646 -0.4579 -0.0010
 8490SOL    HW136929   3.857   4.225   9.780  1.6505  1.4244 -0.8123
 8490SOL    HW236930   3.997   4.215   9.789  0.0893 -2.7080 -1.0846
 8491SOL     OW36931   1.510   3.066   9.095 -0.2160 -0.5519  0.2310
 8491SOL    HW136932   1.581   3.083   9.033  1.2017 -2.1511  1.4237
 8491SOL    HW236933   1.549   2.991   9.140  1.7514  1.5314  1.9489
 8492SOL     OW36934   4.505   3.945   3.237 -0.3865 -0.2572  0.4509
 8492SOL    HW136935   4.414   3.932   3.210 -1.2646 -0.5839  3.6797
 8492SOL    HW236936   4.548   3.860   3.233 -1.4097 -0.7162 -0.8791
 8493SOL     OW36937   2.593   1.124   4.111  0.0675 -0.3994  0.1637
 8493SOL    HW136938   2.560   1.038   4.138 -1.5811 -0.5922 -2.4174
 8493SOL    HW236939   2.682   1.092   4.095 -0.2924 -0.1830 -2.3345
 8494SOL     OW36940   0.148   0.452  13.548 -0.0861 -0.3151 -0.3411
 8494SOL    HW136941   0.182   0.494  13.626 -1.0278 -0.4397  0.1303
 8494SOL    HW236942   0.219   0.388  13.545 -0.1619 -0.4162  0.1044
 8495SOL     OW36943   1.295   3.477   5.377 -0.2146  0.5463  0.8728
 8495SOL    HW136944   1.382   3.441   5.360 -0.4468  0.3964  0.0247
 8495SOL    HW236945   1.234   3.404   5.367 -0.3688  0.9787 -1.3226
 8496SOL     OW36946   4.679   3.832  13.618  0.1084 -0.0621  0.6953
 8496SOL    HW136947   4.629   3.765  13.571 -0.7271 -0.1716  1.7429
 8496SOL    HW236948   0.013   3.777  13.671  0.2803 -0.6657 -0.1218
 8497SOL     OW36949   1.753   3.546   5.661  0.3348  0.1704  0.2559
 8497SOL    HW136950   1.750   3.514   5.751 -2.0945  3.0696  1.1782
 8497SOL    HW236951   1.741   3.461   5.617 -2.3450  1.2191 -1.0346
 8498SOL     OW36952   1.838   1.111  16.252  0.1200 -0.1291 -0.5403
 8498SOL    HW136953   1.840   1.111  16.156 -0.8346 -1.5135 -0.5651
 8498SOL    HW236954   1.887   1.028  16.256 -0.8654 -0.7103 -0.4889
 8499SOL     OW36955   0.919   4.354  16.587  0.3819 -0.5881  0.3154
 8499SOL    HW136956   1.003   4.398  16.572 -0.8331  1.2256 -1.1951
 8499SOL    HW236957   0.864   4.432  16.592  0.7972 -0.3121  0.5406
 8500SOL     OW36958   1.137   0.994   0.220 -0.0882 -0.4805  0.3920
 8500SOL    HW136959   1.064   0.971   0.278 -1.0318  2.0238  0.2013
 8500SOL    HW236960   1.119   1.086   0.201  2.8575 -0.1762 -0.9769
 8501SOL     OW36961   0.270   2.603   5.805  0.1133  0.0859 -0.2692
 8501SOL    HW136962   0.192   2.631   5.757 -0.7061  0.5421  1.3333
 8501SOL    HW236963   0.328   2.679   5.798  1.2365 -0.6746  0.6047
 8502SOL     OW36964   0.403   0.729   2.058 -0.1122 -0.4958 -0.2595
 8502SOL    HW136965   0.445   0.764   2.136  0.6396 -1.8927 -0.0316
 8502SOL    HW236966   0.320   0.775   2.072  0.6264  1.0881 -1.0067
 8503SOL     OW36967   3.541   0.188   5.477 -0.4232 -0.2403  0.5107
 8503SOL    HW136968   3.606   0.151   5.417 -1.1720 -0.2498 -0.3031
 8503SOL    HW236969   3.461   0.161   5.431  1.0718  1.0025 -2.8332
 8504SOL     OW36970   3.389   3.544   2.404 -0.0860 -0.1836 -0.7647
 8504SOL    HW136971   3.405   3.488   2.328 -2.1930  0.9301 -2.0192
 8504SOL    HW236972   3.469   3.522   2.453 -1.2941 -0.1502  1.2119
 8505SOL     OW36973   4.512   2.918   1.423 -0.6528 -0.6940 -0.1184
 8505SOL    HW136974   4.525   2.875   1.507  2.4857  0.7858  0.1635
 8505SOL    HW236975   4.558   2.861   1.361  2.8168  0.9273  0.9654
 8506SOL     OW36976   0.853   2.376   6.855  0.4532 -0.0570 -0.1128
 8506SOL    HW136977   0.758   2.370   6.855  0.4474  0.0269  0.1171
 8506SOL    HW236978   0.871   2.426   6.775  2.1541  1.8544  1.4559
 8507SOL     OW36979   1.080   1.346  11.304 -0.0306  0.1602  0.1783
 8507SOL    HW136980   1.098   1.426  11.255 -1.4162  0.3666  0.0162
 8507SOL    HW236981   1.168   1.310  11.316  0.3888  0.6076 -1.5822
 8508SOL     OW36982   2.827   4.352   5.368  0.3387 -0.4635 -0.0044
 8508SOL    HW136983   2.762   4.285   5.345  2.0003 -1.7942 -0.7949
 8508SOL    HW236984   2.888   4.328   5.298  0.0673  2.4115 -1.2546
 8509SOL     OW36985   0.351   0.090   7.273  0.3870 -0.6494  0.1246
 8509SOL    HW136986   0.445   0.107   7.270  0.4381 -0.6017  1.6790
 8509SOL    HW236987   0.328   0.141   7.351 -1.3190 -1.6365  0.2767
 8510SOL     OW36988   1.523   1.855   2.335 -0.2804 -0.1339  0.0045
 8510SOL    HW136989   1.504   1.865   2.429 -1.2270  0.2111 -0.2250
 8510SOL    HW236990   1.490   1.937   2.299  2.3191  0.2272 -1.5552
 8511SOL     OW36991   1.586   4.723   9.242 -0.0279 -0.1875 -0.3122
 8511SOL    HW136992   1.572   0.078   9.295 -0.0038 -0.8062  0.5903
 8511SOL    HW236993   1.682   4.721   9.235  0.0321 -0.6069  0.5892
 8512SOL     OW36994   0.558   2.865   9.114  0.0241  0.1267 -0.5396
 8512SOL    HW136995   0.543   2.958   9.132  1.4548  0.7177 -2.4547
 8512SOL    HW236996   0.647   2.872   9.078 -0.1485  0.1249 -0.9596
 8513SOL     OW36997   3.596   0.758   7.288 -0.1901 -0.1676  0.5004
 8513SOL    HW136998   3.654   0.786   7.217 -0.5237 -2.0076 -0.5192
 8513SOL    HW236999   3.593   0.839   7.338  2.0402 -0.4482  1.0924
 8514SOL     OW37000   1.121   2.572   6.356 -0.1659 -0.0782  0.3609
 8514SOL    HW137001   1.146   2.638   6.421  1.3414  0.7698 -1.0879
 8514SOL    HW237002   1.026   2.575   6.355 -0.2227 -1.5992  1.1499
 8515SOL     OW37003   0.186   2.643   4.559  0.2439  0.2151  0.4655
 8515SOL    HW137004   0.181   2.561   4.510 -1.2582 -0.3944  1.6469
 8515SOL    HW237005   0.117   2.691   4.515  0.4189  0.9674  1.0133
 8516SOL     OW37006   1.367   3.833   8.272  0.3658 -0.5931 -0.3581
 8516SOL    HW137007   1.328   3.789   8.347  2.6605  0.9850  1.7323
 8516SOL    HW237008   1.297   3.799   8.216  1.0203  0.5261 -1.8671
 8517SOL     OW37009   1.680   3.846   4.183  0.1409 -0.1145 -0.0213
 8517SOL    HW137010   1.748   3.869   4.119  1.4067 -1.6090  0.8149
 8517SOL    HW237011   1.731   3.819   4.259 -3.2407  0.8770  2.5927
 8518SOL     OW37012   3.554   3.914   2.665 -0.4674 -0.0100 -0.3823
 8518SOL    HW137013   3.565   3.869   2.581  0.5348 -2.4301  1.0465
 8518SOL    HW237014   3.496   3.985   2.636 -0.7670  0.4718  1.4035
 8519SOL     OW37015   3.962   3.280  16.934 -0.5573  0.3461 -0.1416
 8519SOL    HW137016   3.944   3.367  16.899  2.7293  1.8676  1.9234
 8519SOL    HW237017   3.917   3.225  16.870 -2.7276  2.2954 -0.3038
 8520SOL     OW37018   0.586   1.100   2.353  0.1290 -0.2826 -0.1245
 8520SOL    HW137019   0.581   1.196   2.352 -1.9549 -0.3876  0.3752
 8520SOL    HW237020   0.561   1.089   2.261  0.2783 -1.8865  0.0344
 8521SOL     OW37021   3.970   2.260   9.019  0.8453  0.2668 -0.5866
 8521SOL    HW137022   3.985   2.175   8.979 -1.1524 -0.4401  0.1740
 8521SOL    HW237023   3.876   2.266   9.003  0.8561  0.9425 -0.4058
 8522SOL     OW37024   1.822   0.876   5.896  0.0128 -0.2272 -0.0865
 8522SOL    HW137025   1.858   0.822   5.825  1.3878  1.8324 -0.9331
 8522SOL    HW237026   1.866   0.827   5.966  0.7968  0.5603 -0.0397
 8523SOL     OW37027   3.915   3.626  15.701  0.1540 -0.1408  0.4136
 8523SOL    HW137028   3.946   3.715  15.683 -0.5426  0.0379  0.0816
 8523SOL    HW237029   3.832   3.646  15.743  0.7850  0.4388  1.3825
 8524SOL     OW37030   2.792   0.156   5.075  0.0256  0.2778 -0.2294
 8524SOL    HW137031   2.794   0.090   5.007 -0.5631  0.6945 -0.6466
 8524SOL    HW237032   2.704   0.139   5.107  0.0621 -2.4116 -1.5395
 8525SOL     OW37033   1.951   4.704  12.372 -0.4051 -0.3615  0.5242
 8525SOL    HW137034   2.025   0.041  12.373 -0.4452 -0.3017 -0.3908
 8525SOL    HW237035   1.929   4.708  12.465 -2.3950 -0.0686  0.0442
 8526SOL     OW37036   0.071   1.650  15.338 -0.5239 -0.3847  0.0518
 8526SOL    HW137037   0.159   1.686  15.354 -0.1861 -1.3926  0.4689
 8526SOL    HW237038   0.071   1.558  15.362 -2.5270 -0.0958  1.1294
 8527SOL     OW37039   2.106   0.048   3.481  0.2599  0.1621  0.3208
 8527SOL    HW137040   2.148   0.055   3.395 -0.9640  0.2560 -0.2729
 8527SOL    HW237041   2.182   0.032   3.537 -0.4547  0.1821  1.2934
 8528SOL     OW37042   3.176   0.730   6.732 -0.3396  0.1566  0.4332
 8528SOL    HW137043   3.190   0.737   6.827  0.5390 -1.5862  0.4436
 8528SOL    HW237044   3.268   0.743   6.709 -0.1531  0.1803  1.1725
 8529SOL     OW37045   0.686   2.053  17.561  0.4624 -0.3287  0.4878
 8529SOL    HW137046   0.677   2.057  17.657  0.4531 -0.8734  0.5079
 8529SOL    HW237047   0.780   2.043  17.552  0.4127  0.5257 -0.9372
 8530SOL     OW37048   3.419   4.236  15.933  0.6055  0.2685  0.2362
 8530SOL    HW137049   3.373   4.153  15.923  0.8738  0.6393 -4.0972
 8530SOL    HW237050   3.391   4.275  16.016 -0.5688 -0.2602  0.0870
 8531SOL     OW37051   1.881   2.140   5.395  0.0727 -0.0583 -0.0681
 8531SOL    HW137052   1.813   2.078   5.417 -1.0391  0.2805 -2.4927
 8531SOL    HW237053   1.922   2.116   5.311 -0.8738 -0.6771 -0.3507
 8532SOL     OW37054   1.938   3.847   8.421 -0.2891 -0.0309 -0.1495
 8532SOL    HW137055   1.968   3.805   8.502 -0.5960  0.0555  0.0097
 8532SOL    HW237056   1.871   3.906   8.456 -0.1546 -0.8056  1.4550
 8533SOL     OW37057   1.193   1.466   9.073  0.3829 -0.5915  0.1095
 8533SOL    HW137058   1.121   1.402   9.064  0.2945 -0.6695  1.4058
 8533SOL    HW237059   1.148   1.550   9.062 -0.3055 -1.1477 -1.3888
 8534SOL     OW37060   3.495   1.485   7.228 -0.5977 -0.4743 -0.0107
 8534SOL    HW137061   3.589   1.501   7.234 -0.2703 -2.2969 -0.0775
 8534SOL    HW237062   3.484   1.509   7.136  1.6942 -1.7892 -0.6496
 8535SOL     OW37063   3.878   2.332  12.669 -0.2489 -0.3120 -0.4873
 8535SOL    HW137064   3.885   2.338  12.574 -0.1917  0.7770 -0.4127
 8535SOL    HW237065   3.789   2.296  12.679 -0.2647 -0.0237  0.3955
 8536SOL     OW37066   0.598   1.395   5.064  0.8391  1.0562 -0.1107
 8536SOL    HW137067   0.533   1.416   5.132 -2.2002  1.3837 -3.0798
 8536SOL    HW237068   0.556   1.430   4.985 -0.5051  1.4982  0.7881
 8537SOL     OW37069   4.274   3.314   2.333  0.0232  0.2106  0.0105
 8537SOL    HW137070   4.252   3.251   2.265 -0.0578  3.7290 -3.1723
 8537SOL    HW237071   4.365   3.304   2.361  0.4200  2.2541 -0.5259
 8538SOL     OW37072   1.179   1.447   4.938 -0.2599  0.4532 -0.2561
 8538SOL    HW137073   1.112   1.378   4.938 -0.4668  0.6550 -0.1971
 8538SOL    HW237074   1.130   1.528   4.923 -1.1974 -0.4216 -1.8689
 8539SOL     OW37075   3.969   0.869   2.521 -0.0905  0.0341 -0.0619
 8539SOL    HW137076   4.021   0.791   2.501 -0.5043  0.0370 -1.1713
 8539SOL    HW237077   3.912   0.878   2.444  0.8364 -0.6367 -0.8341
 8540SOL     OW37078   2.409   1.425   1.909  0.3057 -0.6696  0.3360
 8540SOL    HW137079   2.420   1.336   1.873  0.3324 -0.9627  1.0762
 8540SOL    HW237080   2.495   1.443   1.947  1.0807 -1.5612 -0.9523
 8541SOL     OW37081   0.884   2.999  16.533  0.0697 -0.2211 -0.1491
 8541SOL    HW137082   0.824   3.061  16.574  0.2292  0.1734 -0.5255
 8541SOL    HW237083   0.916   3.051  16.460 -0.1719  0.8991  0.5505
 8542SOL     OW37084   3.524   3.547   6.086  0.1600 -0.3582  0.4234
 8542SOL    HW137085   3.541   3.453   6.075  1.4087 -0.3681  2.7171
 8542SOL    HW237086   3.504   3.556   6.179  0.7663 -0.2853  0.5447
 8543SOL     OW37087   1.494   1.162   4.390 -0.2150 -0.5350  0.1650
 8543SOL    HW137088   1.448   1.078   4.385 -1.4570  0.2348 -1.2519
 8543SOL    HW237089   1.537   1.150   4.475 -1.2830  0.5848  0.8656
 8544SOL     OW37090   4.414   3.549  17.497 -0.4604  0.6649  0.4395
 8544SOL    HW137091   4.451   3.507  17.419  0.7654  0.5032  1.1003
 8544SOL    HW237092   4.394   3.639  17.472 -0.1977  0.7767  0.6378
 8545SOL     OW37093   1.561   3.221  14.892  0.2785  0.1202  0.2299
 8545SOL    HW137094   1.474   3.203  14.927 -0.7541 -0.6917 -2.7358
 8545SOL    HW237095   1.583   3.141  14.846  1.6151  0.1522  0.8101
 8546SOL     OW37096   2.011   0.084  15.170  0.2994 -0.0063 -0.5918
 8546SOL    HW137097   2.037   0.053  15.084  0.5374  1.0868 -0.9173
 8546SOL    HW237098   2.058   0.167  15.181 -0.2119  0.5044 -2.2220
 8547SOL     OW37099   0.086   2.802  15.116  0.2771 -0.2038 -0.1632
 8547SOL    HW137100   0.041   2.737  15.170 -1.3857 -0.7963 -2.2463
 8547SOL    HW237101   0.017   2.837  15.060 -1.0476  0.2216  1.7416
 8548SOL     OW37102   2.616   3.679   8.451 -0.0620 -0.3685  0.1228
 8548SOL    HW137103   2.639   3.629   8.529  2.0888  0.7295  0.2095
 8548SOL    HW237104   2.539   3.728   8.480  0.0150  0.2503 -0.7013
 8549SOL     OW37105   2.859   0.296   3.825 -0.8933 -0.1988 -1.2131
 8549SOL    HW137106   2.766   0.274   3.823 -0.6397 -1.3749 -0.0471
 8549SOL    HW237107   2.903   0.218   3.790  0.8637  1.6353 -3.0518
 8550SOL     OW37108   3.668   4.231   3.075  0.1064  0.2531  0.3786
 8550SOL    HW137109   3.730   4.246   3.147  2.6633 -0.6643 -1.6453
 8550SOL    HW237110   3.606   4.180   3.127  0.7193  1.3466  2.2161
 8551SOL     OW37111   1.069   0.549   1.956  0.5523  0.7141  0.6340
 8551SOL    HW137112   1.117   0.467   1.950  2.4196  1.9388 -1.3182
 8551SOL    HW237113   1.092   0.592   1.874  0.6973 -0.3014  0.1423
 8552SOL     OW37114   0.915   2.476   3.821 -0.0809  0.4990  0.1804
 8552SOL    HW137115   0.922   2.540   3.891  1.4720 -0.1311  0.5946
 8552SOL    HW237116   0.873   2.397   3.852 -0.5724  0.5425 -0.3756
 8553SOL     OW37117   3.214   1.539  12.014  0.4795  0.3077  0.5750
 8553SOL    HW137118   3.136   1.485  12.022  2.2695 -2.3910  0.2297
 8553SOL    HW237119   3.274   1.480  12.060  2.7756 -0.2927 -3.1169
 8554SOL     OW37120   3.819   3.290  14.355  0.5840  0.4115  0.0944
 8554SOL    HW137121   3.781   3.202  14.359 -1.1731  1.2193  1.2528
 8554SOL    HW237122   3.859   3.295  14.442 -1.1373 -1.8725  1.0234
 8555SOL     OW37123   4.249   2.317   3.400 -0.6585  0.8992 -0.6813
 8555SOL    HW137124   4.334   2.349   3.429 -0.2322  1.3886 -2.4731
 8555SOL    HW237125   4.219   2.406   3.382 -2.2767  0.5378  0.2120
 8556SOL     OW37126   3.383   4.057  13.998  0.2632 -0.1383  0.0119
 8556SOL    HW137127   3.405   4.013  13.915  1.6036  0.9379 -0.2088
 8556SOL    HW237128   3.457   4.115  14.014  1.7355 -2.1076  0.4097
 8557SOL     OW37129   1.450   0.279   7.850  0.3558 -0.2324 -0.2970
 8557SOL    HW137130   1.490   0.249   7.768  0.5503 -1.5042  0.2597
 8557SOL    HW237131   1.526   0.322   7.890  0.5853 -1.2776  0.4187
 8558SOL     OW37132   0.701   4.330   7.297  0.5906 -0.4670 -0.3783
 8558SOL    HW137133   0.710   4.340   7.392  1.1471  1.7362 -0.6804
 8558SOL    HW237134   0.700   4.420   7.264  0.0748 -0.4467 -0.3056
 8559SOL     OW37135   2.111   3.903   4.685  0.1934  0.0024  0.0909
 8559SOL    HW137136   2.129   3.959   4.609  0.0712 -2.0383 -1.4568
 8559SOL    HW237137   2.020   3.932   4.695 -0.5063 -1.6157 -1.5385
 8560SOL     OW37138   4.305   1.812   9.138  0.1784 -0.0958 -0.1652
 8560SOL    HW137139   4.306   1.770   9.224 -1.6500  0.5475  0.1520
 8560SOL    HW237140   4.332   1.901   9.159 -2.1346  0.3638  0.8271
 8561SOL     OW37141   1.721   2.856  13.686 -0.6555  0.2779  0.3034
 8561SOL    HW137142   1.794   2.831  13.629  0.6378 -2.5125  3.2058
 8561SOL    HW237143   1.764   2.916  13.747  0.8940  0.6237 -1.1343
 8562SOL     OW37144   4.155   0.320  17.396 -0.1635 -0.2096 -0.1221
 8562SOL    HW137145   4.228   0.366  17.355 -0.5312 -1.1991 -1.8919
 8562SOL    HW237146   4.163   0.243  17.340 -0.2245  0.9587 -1.7209
 8563SOL     OW37147   1.796   3.717   2.964 -0.6778 -0.2064 -0.6782
 8563SOL    HW137148   1.817   3.624   2.975 -0.6070  0.0537  1.3242
 8563SOL    HW237149   1.809   3.740   3.056  0.7006  0.1886 -0.9628
 8564SOL     OW37150   1.416   0.446   4.488  0.4674  0.1778 -0.0317
 8564SOL    HW137151   1.331   0.487   4.472  1.2994  1.7862 -0.2284
 8564SOL    HW237152   1.442   0.472   4.576 -0.6921 -0.2970  0.4540
 8565SOL     OW37153   3.648   0.138   4.007  0.0767  0.7931  0.5469
 8565SOL    HW137154   3.673   0.045   4.002 -0.1636  0.7548  0.1116
 8565SOL    HW237155   3.633   0.163   3.916  0.7804 -0.2326  0.1462
 8566SOL     OW37156   4.431   3.874   7.599 -0.3645 -0.0158  0.5630
 8566SOL    HW137157   4.458   3.951   7.649  0.0996  1.5625 -2.0680
 8566SOL    HW237158   4.503   3.812   7.600  0.8433  1.3852  0.8148
 8567SOL     OW37159   4.299   3.910   3.663 -0.6107  0.7284 -0.3472
 8567SOL    HW137160   4.271   3.849   3.595 -0.9605 -1.9111  2.1734
 8567SOL    HW237161   4.225   3.972   3.657 -2.6042 -1.5543  0.6657
 8568SOL     OW37162   2.466   1.889   9.759  0.3201 -0.3152 -0.5653
 8568SOL    HW137163   2.411   1.849   9.827 -0.6249  0.9205 -0.6076
 8568SOL    HW237164   2.467   1.981   9.788 -1.6286 -0.5863  0.3582
 8569SOL     OW37165   3.951   4.584   3.559  0.4389 -0.0675  0.3135
 8569SOL    HW137166   3.891   4.657   3.540  2.4450  2.0003  1.9338
 8569SOL    HW237167   3.885   4.516   3.543 -0.1160  0.8144 -1.1470
 8570SOL     OW37168   2.991   1.751   4.298  0.3601  0.4166  0.8491
 8570SOL    HW137169   2.940   1.829   4.318 -1.7647 -0.8563  0.2958
 8570SOL    HW237170   2.958   1.685   4.359  0.7168 -0.1284  0.4475
 8571SOL     OW37171   3.521   1.005   4.703  0.4130  0.1343  0.5169
 8571SOL    HW137172   3.585   0.965   4.644  2.2707  2.7216  0.8024
 8571SOL    HW237173   3.579   1.014   4.778  0.5893  2.2555  0.1108
 8572SOL     OW37174   1.093   4.701  11.254 -0.1877 -0.0598  0.0148
 8572SOL    HW137175   1.150   4.667  11.324  0.4155 -1.8704 -1.3561
 8572SOL    HW237176   1.134   4.665  11.176  0.0682 -1.1085  0.6304
 8573SOL     OW37177   4.473   4.320  17.179  0.0098 -0.3467 -0.6412
 8573SOL    HW137178   4.558   4.276  17.182 -1.0241 -2.2055  1.3193
 8573SOL    HW237179   4.513   4.407  17.170  1.5335 -0.9251  0.6043
 8574SOL     OW37180   2.313   2.581   5.850  0.1777  0.1971 -0.0555
 8574SOL    HW137181   2.220   2.559   5.841 -0.2816  2.7312 -1.4767
 8574SOL    HW237182   2.303   2.652   5.786 -0.8066  0.2264  0.1248
 8575SOL     OW37183   3.044   4.373  13.868  0.4907 -0.8493  0.5650
 8575SOL    HW137184   2.994   4.384  13.787 -0.1843 -1.7802  0.8578
 8575SOL    HW237185   2.990   4.423  13.930  1.7784 -2.0148  2.6311
 8576SOL     OW37186   3.216   4.511  15.459 -0.3235  0.3163  0.1636
 8576SOL    HW137187   3.270   4.456  15.516  2.1080  1.5552 -0.9447
 8576SOL    HW237188   3.136   4.459  15.455 -0.1820  0.0168  1.2189
 8577SOL     OW37189   3.324   2.954  12.747  0.0683 -0.5406 -0.0007
 8577SOL    HW137190   3.387   3.007  12.795 -0.2016 -0.3074  0.0934
 8577SOL    HW237191   3.369   2.954  12.662 -1.4189  4.1068 -0.7758
 8578SOL     OW37192   3.347   0.622   5.163 -0.2172  0.0552 -0.0829
 8578SOL    HW137193   3.293   0.547   5.190  1.6927 -1.6174 -0.8617
 8578SOL    HW237194   3.345   0.671   5.245 -0.6058 -0.2953  0.1164
 8579SOL     OW37195   3.643   2.208   1.204  0.0558 -0.1038  0.1104
 8579SOL    HW137196   3.676   2.120   1.186 -0.2237 -0.5549  1.8681
 8579SOL    HW237197   3.615   2.192   1.294 -0.3071 -2.0320 -0.3418
 8580SOL     OW37198   1.202   4.161   8.515  0.3204  0.0285  0.8057
 8580SOL    HW137199   1.202   4.088   8.578  0.5152 -2.2723 -1.8639
 8580SOL    HW237200   1.295   4.183   8.510  0.2998  0.0789  0.6463
 8581SOL     OW37201   2.500   0.448   7.107 -0.3007 -0.2606 -0.6332
 8581SOL    HW137202   2.590   0.470   7.129 -0.6442 -0.7804  1.2637
 8581SOL    HW237203   2.468   0.445   7.197 -1.6936  2.3236 -1.0596
 8582SOL     OW37204   1.792   1.029   1.508 -0.6565 -0.0486  0.4362
 8582SOL    HW137205   1.733   0.963   1.544 -0.9213  0.3672  0.7744
 8582SOL    HW237206   1.735   1.091   1.462  2.2724  1.8821 -0.5708
 8583SOL     OW37207   0.906   0.784   5.163  0.1629 -0.4652  0.1656
 8583SOL    HW137208   0.997   0.771   5.188  0.4745  1.2933 -0.1030
 8583SOL    HW237209   0.878   0.692   5.154 -0.1184 -0.3369 -0.3310
 8584SOL     OW37210   4.319   4.334  16.593  0.3142  0.8208 -0.3940
 8584SOL    HW137211   4.246   4.307  16.537 -0.5155 -0.0311  1.0692
 8584SOL    HW237212   4.278   4.417  16.618  0.0944  0.5095  0.2996
 8585SOL     OW37213   4.683   3.855   8.428 -0.0420  0.4359  0.7456
 8585SOL    HW137214   0.039   3.809   8.458 -0.7578  0.0904  2.1037
 8585SOL    HW237215   4.663   3.799   8.353  4.8072  1.4951 -1.3377
 8586SOL     OW37216   0.791   0.517   5.130  0.0207 -0.0613  0.1197
 8586SOL    HW137217   0.854   0.457   5.091 -1.0709  0.8933 -3.1140
 8586SOL    HW237218   0.770   0.477   5.214 -1.4072 -0.5035 -0.4531
 8587SOL     OW37219   4.643   3.341   6.311 -0.5696 -0.0030  0.3017
 8587SOL    HW137220   4.694   3.400   6.366  2.3252  0.5567 -2.9655
 8587SOL    HW237221   4.660   3.260   6.358  1.0289  0.2346  0.1191
 8588SOL     OW37222   0.700   0.637   6.140  0.0747  0.0146 -0.2387
 8588SOL    HW137223   0.710   0.692   6.217  1.0644  0.4655 -0.6872
 8588SOL    HW237224   0.751   0.697   6.086 -1.6148  0.7691 -0.9982
 8589SOL     OW37225   2.099   2.044   8.089 -0.2251 -0.4945 -0.3938
 8589SOL    HW137226   2.090   2.103   8.164 -0.8296  1.4363 -1.9805
 8589SOL    HW237227   2.072   2.099   8.016 -1.6132  1.4579  1.5763
 8590SOL     OW37228   0.154   1.821   7.404 -0.0106 -0.0313  0.5789
 8590SOL    HW137229   0.190   1.732   7.413 -0.2841 -0.5545 -3.5385
 8590SOL    HW237230   0.228   1.873   7.435  1.9575 -2.5306  0.1297
 8591SOL     OW37231   0.696   2.784   3.288  0.1377  0.2377 -0.4071
 8591SOL    HW137232   0.725   2.875   3.289 -0.0961  0.2985  2.0995
 8591SOL    HW237233   0.780   2.739   3.279 -0.9259 -2.0588  1.1573
 8592SOL     OW37234   1.205   1.340  16.578  0.1963  0.2295 -0.0381
 8592SOL    HW137235   1.176   1.425  16.611 -0.0628 -0.0465  0.4434
 8592SOL    HW237236   1.300   1.356  16.575  0.3071 -0.9269 -2.3930
 8593SOL     OW37237   3.790   3.112   3.744  0.2454  0.7130 -0.1092
 8593SOL    HW137238   3.793   3.055   3.668 -0.8611 -1.4404  1.4567
 8593SOL    HW237239   3.754   3.193   3.706 -1.8433 -0.5846 -0.8961
 8594SOL     OW37240   1.966   3.942   0.868 -0.9591 -0.3380  0.4352
 8594SOL    HW137241   2.054   3.905   0.865 -1.0637 -0.5194 -0.4369
 8594SOL    HW237242   1.969   4.031   0.834  1.6799 -1.0557 -1.2450
 8595SOL     OW37243   2.633   3.363   6.228  0.3145 -0.0085 -0.0776
 8595SOL    HW137244   2.681   3.446   6.233 -0.6649  0.6863 -2.2867
 8595SOL    HW237245   2.660   3.330   6.143  0.5376  0.3217 -0.1341
 8596SOL     OW37246   1.456   0.779  10.784 -0.2146 -0.1499 -0.3328
 8596SOL    HW137247   1.482   0.786  10.692 -0.4559  0.7407 -0.3327
 8596SOL    HW237248   1.507   0.701  10.804  0.1944 -0.5503 -2.9180
 8597SOL     OW37249   1.542   0.252   9.350  0.3670  0.1371 -0.0113
 8597SOL    HW137250   1.598   0.318   9.308  1.7613 -0.7591  0.4284
 8597SOL    HW237251   1.480   0.303   9.402  1.4686  0.2741  1.1840
 8598SOL     OW37252   3.614   2.548   7.763  0.3596 -0.3629 -0.0047
 8598SOL    HW137253   3.521   2.549   7.786  0.0164  1.5906 -1.4578
 8598SOL    HW237254   3.629   2.642   7.756  1.0889 -0.6610 -2.3098
 8599SOL     OW37255   2.019   3.367   1.792 -0.4200  0.6360  0.6321
 8599SOL    HW137256   2.036   3.430   1.723 -1.6301 -0.0833 -0.3160
 8599SOL    HW237257   1.924   3.374   1.804 -0.7889 -1.3423 -1.1181
 8600SOL     OW37258   0.361   0.365   8.118 -0.1852 -0.5414  0.3819
 8600SOL    HW137259   0.411   0.304   8.171 -0.6138 -0.4452  0.8949
 8600SOL    HW237260   0.283   0.311   8.103 -0.9053  0.7105 -0.4060
 8601SOL     OW37261   1.377   1.173   9.200  0.4752  0.2609  1.0173
 8601SOL    HW137262   1.284   1.189   9.215  0.2175  0.1892 -0.4573
 8601SOL    HW237263   1.413   1.236   9.261  0.4812 -0.4442  1.7424
 8602SOL     OW37264   3.056   3.388  16.087 -0.0378  0.3786  0.2527
 8602SOL    HW137265   2.983   3.440  16.056 -1.3429 -0.7623  1.4325
 8602SOL    HW237266   3.026   3.336  16.162 -0.4196 -1.0240 -0.8802
 8603SOL     OW37267   2.215   1.515   2.311 -0.5059  0.2986 -0.5666
 8603SOL    HW137268   2.175   1.594   2.275  1.1174  0.1432 -2.7204
 8603SOL    HW237269   2.144   1.479   2.364 -0.3667  2.0621  0.8030
 8604SOL     OW37270   2.534   4.535  16.329 -0.4482 -0.2493 -0.0443
 8604SOL    HW137271   2.613   4.511  16.280 -0.1183 -1.0886  0.8998
 8604SOL    HW237272   2.472   4.471  16.294 -0.6427  1.2235 -2.4343
 8605SOL     OW37273   3.553   4.045   4.560  0.4648 -0.4618 -0.1424
 8605SOL    HW137274   3.503   3.977   4.516 -0.3596  0.4898 -0.6749
 8605SOL    HW237275   3.635   4.031   4.512 -0.7804 -0.2186 -2.3614
 8606SOL     OW37276   2.339   2.173   4.412 -0.3331 -0.3061  0.0291
 8606SOL    HW137277   2.411   2.200   4.469 -2.4505  2.8867  1.2555
 8606SOL    HW237278   2.311   2.093   4.457 -0.4213 -1.4425 -2.0697
 8607SOL     OW37279   0.867   1.175   5.609  0.1127  0.1727  0.4708
 8607SOL    HW137280   0.960   1.155   5.598  0.6933  1.8180  2.4749
 8607SOL    HW237281   0.823   1.112   5.552  0.8959 -1.9339  2.1573
 8608SOL     OW37282   1.703   3.765   8.773 -0.1158 -0.3687  0.5584
 8608SOL    HW137283   1.722   3.769   8.680 -2.3500 -1.0561  0.0551
 8608SOL    HW237284   1.755   3.835   8.813 -0.0873 -0.7652  1.2202
 8609SOL     OW37285   3.080   1.817   0.526  0.5577 -0.4380  0.3642
 8609SOL    HW137286   3.012   1.873   0.564 -1.6529 -3.9002  1.4650
 8609SOL    HW237287   3.126   1.879   0.469 -0.3121  0.2406  0.3899
 8610SOL     OW37288   3.034   3.235  14.176 -0.1749  0.0037  0.0776
 8610SOL    HW137289   3.001   3.146  14.183  0.3527  0.0486  3.0372
 8610SOL    HW237290   3.069   3.238  14.087  0.1526  3.0136  0.2877
 8611SOL     OW37291   0.328   3.712   2.010  0.0301 -0.3596 -0.2868
 8611SOL    HW137292   0.314   3.716   2.105  1.5056 -0.8985 -0.0429
 8611SOL    HW237293   0.362   3.623   2.000 -0.3250 -0.7274  1.8804
 8612SOL     OW37294   3.738   0.366   7.871 -0.4279  0.1566 -0.1142
 8612SOL    HW137295   3.720   0.403   7.957 -0.3461 -2.8811  1.2356
 8612SOL    HW237296   3.672   0.296   7.868  0.6587 -0.9365  1.1793
 8613SOL     OW37297   4.368   3.598  12.369  0.5052  0.0507  0.0006
 8613SOL    HW137298   4.291   3.642  12.334  0.6230 -0.4864 -0.9310
 8613SOL    HW237299   4.434   3.626  12.306  1.1511 -0.7021  0.3427
 8614SOL     OW37300   2.767   1.108   9.067 -0.2838 -0.0783  0.1267
 8614SOL    HW137301   2.818   1.108   9.148  0.9897 -1.3999 -0.6802
 8614SOL    HW237302   2.681   1.087   9.103 -0.5379 -1.0782 -1.0958
 8615SOL     OW37303   2.657   4.163   2.957  0.3791  0.0843 -0.1224
 8615SOL    HW137304   2.729   4.186   3.015 -0.0061  2.6741 -0.6295
 8615SOL    HW237305   2.602   4.106   3.009  2.1762 -1.4534  0.0889
 8616SOL     OW37306   2.439   1.657   5.078 -0.1687 -0.0119  0.1772
 8616SOL    HW137307   2.479   1.570   5.088 -1.5784 -1.1559 -3.9024
 8616SOL    HW237308   2.517   1.702   5.109 -0.0070  0.0798 -0.3495
 8617SOL     OW37309   3.032   3.081   7.899  0.8430 -0.0967  0.2994
 8617SOL    HW137310   3.111   3.135   7.903  1.5782 -1.0664 -1.2989
 8617SOL    HW237311   3.009   3.056   7.989  2.2126 -0.2503  0.6096
 8618SOL     OW37312   1.087   4.412   0.461 -0.5663  0.0697  0.4924
 8618SOL    HW137313   1.079   4.449   0.373  0.1884  1.2425  0.9142
 8618SOL    HW237314   1.183   4.411   0.456 -0.4807  0.8691  1.9597
 8619SOL     OW37315   0.809   2.064  14.784 -0.1676 -0.0820  0.1750
 8619SOL    HW137316   0.848   2.092  14.867 -1.4320 -1.8974  1.3957
 8619SOL    HW237317   0.754   2.139  14.761  0.8119 -0.3854 -3.0068
 8620SOL     OW37318   0.423   3.954  13.409  0.3501  0.0485  0.0152
 8620SOL    HW137319   0.431   3.997  13.324  1.9041 -1.7497 -0.7600
 8620SOL    HW237320   0.426   4.033  13.463  0.2745  0.8925 -1.2311
 8621SOL     OW37321   1.168   2.611   7.587  1.3759  0.2655 -0.3388
 8621SOL    HW137322   1.231   2.667   7.631 -0.1257  2.0890 -0.5118
 8621SOL    HW237323   1.092   2.624   7.645  2.4040 -0.7969  1.2483
 8622SOL     OW37324   3.728   0.564   4.144 -0.4235 -0.2263 -0.3748
 8622SOL    HW137325   3.673   0.487   4.161 -0.7613  0.1014  0.0131
 8622SOL    HW237326   3.729   0.548   4.049 -1.7077  0.4978 -0.5102
 8623SOL     OW37327   1.220   3.422  17.364  0.8533  0.0660 -0.2408
 8623SOL    HW137328   1.312   3.445  17.377  0.9901  0.8797 -2.6997
 8623SOL    HW237329   1.195   3.430  17.456 -1.0424 -2.1085 -0.5822
 8624SOL     OW37330   3.152   4.604   2.212 -0.2068 -1.2922 -0.6730
 8624SOL    HW137331   3.085   4.637   2.152 -0.2150  1.9953  1.1203
 8624SOL    HW237332   3.146   4.658   2.291  0.6381 -0.3412 -1.2656
 8625SOL     OW37333   2.399   2.168   2.601 -0.2509  0.7548  0.2050
 8625SOL    HW137334   2.460   2.241   2.587 -0.0643 -0.0771 -3.5030
 8625SOL    HW237335   2.315   2.212   2.592 -0.4062  0.2279 -0.9896
 8626SOL     OW37336   3.083   3.996   2.867  0.5760 -0.4603  0.5439
 8626SOL    HW137337   3.099   3.950   2.784 -1.6060 -0.7024  0.2519
 8626SOL    HW237338   3.171   4.032   2.874  1.1487 -1.2125 -2.5945
 8627SOL     OW37339   2.030   0.179  14.515 -0.1690 -0.0990  0.0394
 8627SOL    HW137340   2.010   0.171  14.422 -3.1143  0.2947  0.6584
 8627SOL    HW237341   1.964   0.244  14.540 -0.5631 -0.2448 -0.6385
 8628SOL     OW37342   0.040   0.749   3.707  0.5326 -0.7341  0.0033
 8628SOL    HW137343   0.075   0.673   3.754  0.1060  0.3761  2.1066
 8628SOL    HW237344   4.686   0.702   3.673  0.0717 -1.2444  1.7841
 8629SOL     OW37345   1.022   4.575   6.977 -0.1365 -0.1418  0.3561
 8629SOL    HW137346   1.042   4.509   7.043 -1.2646  0.4071  1.2500
 8629SOL    HW237347   1.106   4.619   6.961  0.2705 -0.3636  1.8452
 8630SOL     OW37348   2.912   1.710  16.990  0.4688 -0.3296 -0.6033
 8630SOL    HW137349   2.984   1.714  17.054 -1.0830 -0.2952  1.1635
 8630SOL    HW237350   2.839   1.704  17.053 -0.5207  3.2158 -1.4367
 8631SOL     OW37351   4.703   4.564   8.812  0.0181  0.2989  0.4617
 8631SOL    HW137352   4.608   4.571   8.820 -0.0434 -0.8450  0.7288
 8631SOL    HW237353   4.723   4.491   8.870  0.1297  0.1069  0.1795
 8632SOL     OW37354   4.009   3.689  16.648  0.4538 -0.1026  0.3394
 8632SOL    HW137355   3.990   3.777  16.679 -0.4214  0.3622 -1.4904
 8632SOL    HW237356   4.104   3.690  16.657  0.5870  1.6187 -1.2920
 8633SOL     OW37357   1.201   2.281   9.082  0.2251 -0.5116  0.0942
 8633SOL    HW137358   1.150   2.207   9.050 -1.3326  0.8970 -0.7343
 8633SOL    HW237359   1.282   2.241   9.110  1.6139  1.7139 -0.7105
 8634SOL     OW37360   3.441   2.598   1.343 -0.6876 -0.2795 -0.0192
 8634SOL    HW137361   3.476   2.535   1.406  0.4501  0.5496  0.1591
 8634SOL    HW237362   3.347   2.593   1.360 -0.9706  0.1840 -1.4612
 8635SOL     OW37363   3.549   3.447  13.074  0.4757 -0.7959  0.5379
 8635SOL    HW137364   3.547   3.542  13.074  1.4977 -0.7849  2.1911
 8635SOL    HW237365   3.455   3.431  13.084  0.0108  0.7590 -1.4272
 8636SOL     OW37366   0.991   2.290   3.474 -0.5944  0.0627 -0.5305
 8636SOL    HW137367   0.912   2.247   3.439 -1.8554  1.2543  0.8608
 8636SOL    HW237368   0.951   2.365   3.518  2.7722  1.7791 -0.4654
 8637SOL     OW37369   2.487   2.101  17.034  0.3401 -0.3677  1.0127
 8637SOL    HW137370   2.425   2.063  17.096  0.5610 -1.1898  0.7393
 8637SOL    HW237371   2.566   2.105  17.089 -0.1905 -0.0453  1.7471
 8638SOL     OW37372   1.804   2.916   3.622 -0.3283 -0.7053 -0.4480
 8638SOL    HW137373   1.857   2.841   3.593  1.4839  1.0753 -1.6950
 8638SOL    HW237374   1.823   2.982   3.556  1.0108  0.0629  0.7059
 8639SOL     OW37375   4.228   4.506   7.505 -0.2559 -0.1558 -0.6272
 8639SOL    HW137376   4.150   4.549   7.540  0.7403  1.4169 -0.3552
 8639SOL    HW237377   4.300   4.563   7.531  0.1581 -1.4143  0.9892
 8640SOL     OW37378   0.246   3.302  11.477 -0.0859 -0.3349  0.1460
 8640SOL    HW137379   0.163   3.297  11.429 -0.7835  0.4832  1.2657
 8640SOL    HW237380   0.241   3.215  11.517  3.7068 -0.9241 -0.7281
 8641SOL     OW37381   3.413   1.058  17.111 -0.2048 -0.1813 -0.1415
 8641SOL    HW137382   3.362   1.111  17.049 -1.0153  0.3739  0.9957
 8641SOL    HW237383   3.345   0.994  17.132  0.5656  0.0023  2.9122
 8642SOL     OW37384   3.069   3.166  13.024  0.5877  0.2274 -0.3736
 8642SOL    HW137385   3.049   3.131  12.937 -1.8045  2.6650 -0.8027
 8642SOL    HW237386   3.092   3.084  13.068 -0.2739 -0.0032 -0.3474
 8643SOL     OW37387   1.086   2.630   7.069 -0.0606 -0.0195  0.5643
 8643SOL    HW137388   1.086   2.657   6.978  0.8201 -4.2102 -0.6427
 8643SOL    HW237389   1.088   2.717   7.110  0.3961 -0.4548  1.4800
 8644SOL     OW37390   3.605   2.241  12.846  0.2246 -0.5828 -0.1344
 8644SOL    HW137391   3.514   2.271  12.854  1.0363  1.6278  0.6791
 8644SOL    HW237392   3.634   2.242  12.938  0.2918 -1.0148 -0.1517
 8645SOL     OW37393   2.207   1.930   5.165  0.1580 -0.1367  0.0310
 8645SOL    HW137394   2.195   1.839   5.140  1.0064  0.3018 -2.0235
 8645SOL    HW237395   2.119   1.961   5.186  0.5526  0.1335  1.3025
 8646SOL     OW37396   1.308   4.573  16.916 -0.6547 -0.2956 -0.1280
 8646SOL    HW137397   1.354   4.512  16.858  0.6193  0.0100  0.5556
 8646SOL    HW237398   1.214   4.564  16.899 -0.7473 -0.4919  0.5072
 8647SOL     OW37399   1.554   0.832   7.850 -0.5860  0.0123  0.5721
 8647SOL    HW137400   1.634   0.852   7.899 -0.1549 -0.2815 -0.0137
 8647SOL    HW237401   1.584   0.827   7.759  2.4976  0.2667  1.5601
 8648SOL     OW37402   0.749   2.899   6.157  0.0219 -0.3181  0.4303
 8648SOL    HW137403   0.708   2.985   6.160  1.1968  0.2612 -0.1066
 8648SOL    HW237404   0.685   2.848   6.207 -1.0121  2.4030  1.8837
 8649SOL     OW37405   3.558   3.121  17.044 -0.5588 -0.2606 -0.1921
 8649SOL    HW137406   3.502   3.172  17.103 -0.7862 -0.3124 -0.3630
 8649SOL    HW237407   3.512   3.037  17.041 -1.6108  0.1059  4.7418
 8650SOL     OW37408   0.264   3.668   6.653 -0.0136  0.3644 -0.8423
 8650SOL    HW137409   0.180   3.713   6.664  0.1143  0.1556  0.9493
 8650SOL    HW237410   0.317   3.737   6.612 -0.5961  1.8276  0.8844
 8651SOL     OW37411   0.081   4.110  16.598 -0.0929  0.1985  0.1299
 8651SOL    HW137412   4.709   4.102  16.597 -0.0187 -0.5746 -0.9156
 8651SOL    HW237413   0.086   4.190  16.650  2.6543 -0.7026  1.2667
 8652SOL     OW37414   3.620   1.712   4.863  0.1693  0.1515 -0.4492
 8652SOL    HW137415   3.580   1.795   4.889  0.3775  1.1275 -3.2353
 8652SOL    HW237416   3.669   1.727   4.782 -0.7602 -1.5490 -1.3134
 8653SOL     OW37417   3.229   4.044   8.458  0.0886 -0.2941  0.5214
 8653SOL    HW137418   3.183   4.127   8.468 -0.2694 -0.2166 -1.8234
 8653SOL    HW237419   3.296   4.070   8.395 -1.5063  0.3649 -0.9172
 8654SOL     OW37420   1.342   1.461   7.230  0.4282  0.0599 -0.8117
 8654SOL    HW137421   1.311   1.512   7.304  1.1022  0.4702 -0.8112
 8654SOL    HW237422   1.342   1.381   7.282 -0.7941  0.1933 -0.6184
 8655SOL     OW37423   0.284   4.512   8.074 -0.3017 -0.1225 -0.8688
 8655SOL    HW137424   0.200   4.523   8.119  1.0931  0.7157  1.5187
 8655SOL    HW237425   0.268   4.464   7.993 -1.9025 -1.6163  0.3173
 8656SOL     OW37426   2.217   3.587   2.093 -0.4221 -0.0813  0.0702
 8656SOL    HW137427   2.311   3.596   2.111  0.0219 -1.6946 -1.4428
 8656SOL    HW237428   2.185   3.676   2.107 -1.3277 -0.4873  0.5583
 8657SOL     OW37429   0.296   0.777   3.542 -0.1924 -0.4725  0.5081
 8657SOL    HW137430   0.364   0.715   3.518 -0.2453 -0.1052 -0.5787
 8657SOL    HW237431   0.317   0.771   3.635 -0.2664  0.7988  0.6084
 8658SOL     OW37432   4.320   3.668   6.883 -0.3238 -0.4444  0.0553
 8658SOL    HW137433   4.263   3.604   6.928 -0.0361 -0.5650  0.2460
 8658SOL    HW237434   4.396   3.657   6.941  1.5209  0.6033 -2.2031
 8659SOL     OW37435   0.210   1.454   6.404  0.5390  0.2439 -0.2505
 8659SOL    HW137436   0.148   1.420   6.468 -0.0224  0.4423 -0.6850
 8659SOL    HW237437   0.156   1.527   6.375 -0.3644 -1.3379 -2.6272
 8660SOL     OW37438   2.650   3.064  14.210 -0.1570 -0.4160 -0.1525
 8660SOL    HW137439   2.604   2.983  14.232 -0.0951 -0.3475  0.2217
 8660SOL    HW237440   2.596   3.098  14.138 -0.6525 -1.0124 -0.0590
 8661SOL     OW37441   2.428   2.535   9.880 -0.0723 -0.2773 -0.1408
 8661SOL    HW137442   2.513   2.548   9.837  1.5672  1.6679  3.6619
 8661SOL    HW237443   2.452   2.518   9.971 -0.1052  0.5030  0.0193
 8662SOL     OW37444   1.329   3.836   3.043 -0.3559  0.2964 -0.6447
 8662SOL    HW137445   1.264   3.820   2.974 -0.4353 -0.9401 -0.2946
 8662SOL    HW237446   1.331   3.931   3.050  1.0938  0.3027 -1.1064
 8663SOL     OW37447   1.809   1.862   2.655 -0.1747  0.0316  0.0256
 8663SOL    HW137448   1.804   1.940   2.711  2.6444  2.1410 -2.6861
 8663SOL    HW237449   1.778   1.799   2.721  0.3451 -1.8976 -1.5812
 8664SOL     OW37450   2.785   1.464   1.671 -0.1488  0.3936  0.1744
 8664SOL    HW137451   2.829   1.502   1.747  1.2775  1.0397 -0.9823
 8664SOL    HW237452   2.851   1.432   1.610  1.6620 -0.3743  2.5177
 8665SOL     OW37453   4.364   3.203   7.795 -0.1110  0.3102  0.2227
 8665SOL    HW137454   4.451   3.235   7.775 -0.4655  1.1752  0.0553
 8665SOL    HW237455   4.357   3.205   7.891 -1.3485 -0.3295  0.1536
 8666SOL     OW37456   4.281   1.794   5.423 -0.1673  0.5577  0.3118
 8666SOL    HW137457   4.328   1.842   5.354 -2.0587  1.6150 -0.2585
 8666SOL    HW237458   4.311   1.705   5.409 -0.1000  0.8922 -1.6819
 8667SOL     OW37459   2.540   2.397   2.637 -0.0221 -0.0249  0.0245
 8667SOL    HW137460   2.540   2.492   2.640 -2.6675 -0.0556  1.6222
 8667SOL    HW237461   2.616   2.369   2.586  0.3395  2.8323 -1.0094
 8668SOL     OW37462   1.091   2.592   8.700 -0.4169  0.0063  0.4765
 8668SOL    HW137463   1.012   2.631   8.736 -1.0017 -0.4954 -0.2517
 8668SOL    HW237464   1.153   2.643   8.753 -0.6323  1.0415 -0.2646
 8669SOL     OW37465   0.852   0.711   6.365  0.5579  0.0371  0.1417
 8669SOL    HW137466   0.886   0.625   6.392  0.9324  0.5348  1.2373
 8669SOL    HW237467   0.805   0.735   6.445 -0.9330  1.7409 -1.2328
 8670SOL     OW37468   1.248   2.271   8.258 -0.2657  0.1605  0.0081
 8670SOL    HW137469   1.245   2.187   8.305 -1.9268 -0.6905 -1.6161
 8670SOL    HW237470   1.316   2.256   8.193  0.0687  0.8024  0.2107
 8671SOL     OW37471   4.119   4.496  16.705 -0.4274  0.6667 -0.0920
 8671SOL    HW137472   4.049   4.504  16.640 -0.2371 -0.6977 -0.4732
 8671SOL    HW237473   4.069   4.432  16.756  0.8768 -0.4776 -0.2446
 8672SOL     OW37474   1.584   2.155   5.070 -0.2778  0.4030  0.3568
 8672SOL    HW137475   1.578   2.187   5.160 -1.2033 -1.1922  0.8742
 8672SOL    HW237476   1.531   2.221   5.025 -0.2382 -0.2335 -0.6416
 8673SOL     OW37477   0.063   3.857   2.039 -0.4443 -0.1366 -0.2021
 8673SOL    HW137478   0.091   3.822   1.954  0.3213 -0.4516  0.1776
 8673SOL    HW237479   0.137   3.904   2.077  0.9610 -0.2908 -2.7444
 8674SOL     OW37480   1.680   0.868   6.489 -0.1222 -0.0440 -0.3004
 8674SOL    HW137481   1.749   0.916   6.535 -0.6030  0.5259 -0.1724
 8674SOL    HW237482   1.697   0.885   6.397  1.9444  0.4905  0.1910
 8675SOL     OW37483   3.009   1.455  10.723  0.4974  0.2383 -0.2319
 8675SOL    HW137484   2.914   1.446  10.730  0.4281 -0.3638 -1.8665
 8675SOL    HW237485   3.035   1.418  10.807 -0.5569  0.7730  0.3290
 8676SOL     OW37486   3.846   0.839   2.987  0.1680 -0.3076  0.3917
 8676SOL    HW137487   3.926   0.845   3.039  0.9647 -0.0407 -0.8639
 8676SOL    HW237488   3.870   0.886   2.907  2.1529  2.4130  2.6091
 8677SOL     OW37489   1.448   3.767  10.491 -0.3109 -0.1898  0.2899
 8677SOL    HW137490   1.410   3.695  10.442  0.1751 -0.8367  0.8631
 8677SOL    HW237491   1.469   3.826  10.419 -1.0737  0.7834  0.8607
 8678SOL     OW37492   0.628   2.752   7.800  0.1224 -0.0002  0.0519
 8678SOL    HW137493   0.661   2.757   7.710  1.3261  2.0561  0.6068
 8678SOL    HW237494   0.616   2.844   7.822  0.0012 -0.0807  0.3178
 8679SOL     OW37495   3.250   2.154   2.091 -0.4971 -0.7174 -0.1814
 8679SOL    HW137496   3.331   2.106   2.107 -0.3031  0.2056  1.5445
 8679SOL    HW237497   3.182   2.087   2.084  0.0518 -1.3894  0.9587
 8680SOL     OW37498   3.780   1.335   6.814 -0.2050 -0.1934 -0.4502
 8680SOL    HW137499   3.871   1.324   6.787 -0.7110  0.4713 -2.4263
 8680SOL    HW237500   3.760   1.244   6.833  0.7993 -0.0671  1.2660
 8681SOL     OW37501   1.788   1.999   6.212  0.2454 -0.0066 -0.3625
 8681SOL    HW137502   1.733   1.927   6.180 -1.5415  2.6812 -3.3071
 8681SOL    HW237503   1.816   1.950   6.290 -2.8548 -2.6979 -0.9354
 8682SOL     OW37504   2.336   2.942   5.941 -0.0171  0.3318 -0.0464
 8682SOL    HW137505   2.381   2.858   5.943  1.8822  1.3436 -0.2655
 8682SOL    HW237506   2.246   2.912   5.940  0.4168 -0.9309 -1.1931
 8683SOL     OW37507   0.426   1.048   7.620  0.6364  0.0656  0.4704
 8683SOL    HW137508   0.513   1.011   7.638  1.3761  1.8850  0.5732
 8683SOL    HW237509   0.446   1.134   7.656  0.2879  0.1507  0.4617
 8684SOL     OW37510   3.207   2.235   4.412  0.1797 -0.0147  0.2007
 8684SOL    HW137511   3.143   2.191   4.357  0.4373  0.3690 -0.4080
 8684SOL    HW237512   3.214   2.177   4.488 -1.2295 -0.3135  0.0984
 8685SOL     OW37513   4.089   2.235   6.333 -0.0728  0.4055  0.2776
 8685SOL    HW137514   4.034   2.289   6.277 -0.3830  1.4839  1.6126
 8685SOL    HW237515   4.169   2.287   6.327  1.3751 -1.8708 -0.3194
 8686SOL     OW37516   0.662   2.899   3.678 -0.4224  0.1081  0.1560
 8686SOL    HW137517   0.651   2.845   3.601  2.1164  0.7139 -0.6249
 8686SOL    HW237518   0.749   2.935   3.660 -0.5045 -0.5469 -1.4774
 8687SOL     OW37519   0.287   0.219   6.052  0.5355 -0.7239 -0.2248
 8687SOL    HW137520   0.308   0.222   6.145  0.3227 -1.1554 -0.1618
 8687SOL    HW237521   0.198   0.183   6.053  0.2341  0.0849  2.5724
 8688SOL     OW37522   4.399   4.054  11.629  0.5513 -0.3526 -0.2964
 8688SOL    HW137523   4.317   4.062  11.582 -0.7605  0.0396  2.0505
 8688SOL    HW237524   4.467   4.092  11.574  1.1020 -2.1420 -0.8418
 8689SOL     OW37525   4.665   0.161   6.750 -0.4061 -0.2446  0.5268
 8689SOL    HW137526   4.715   0.242   6.758 -2.8607  1.2465  0.7051
 8689SOL    HW237527   4.613   0.187   6.826  2.0098  1.8727  1.4647
 8690SOL     OW37528   0.595   2.044   8.573 -0.0068 -0.1180 -0.6427
 8690SOL    HW137529   0.516   2.062   8.622 -0.2594 -3.0388  0.0224
 8690SOL    HW237530   0.645   1.988   8.633 -1.7861 -2.0190 -0.9432
 8691SOL     OW37531   3.868   2.212   9.464  0.5668  0.4870  0.0715
 8691SOL    HW137532   3.935   2.164   9.514 -0.5842 -1.0352  0.1756
 8691SOL    HW237533   3.818   2.255   9.533  2.2463  2.7584 -0.1510
 8692SOL     OW37534   0.697   2.645   5.872  0.2119 -0.1734  0.2179
 8692SOL    HW137535   0.703   2.573   5.808 -0.5608  1.1919 -1.3779
 8692SOL    HW237536   0.709   2.606   5.959  1.2173  0.0730  0.1912
 8693SOL     OW37537   1.310   0.849   5.664  0.0894 -0.1517  0.3339
 8693SOL    HW137538   1.356   0.767   5.647 -0.7179 -0.4305 -0.4960
 8693SOL    HW237539   1.361   0.883   5.738 -0.3690 -1.1187  1.0973
 8694SOL     OW37540   0.748   1.536  14.321  0.4302 -0.6735 -0.2259
 8694SOL    HW137541   0.677   1.472  14.326 -2.3327  2.5143  1.2737
 8694SOL    HW237542   0.695   1.613  14.339  0.7852 -0.3902 -0.3996
 8695SOL     OW37543   1.188   3.396   3.300  0.3109  0.2621  0.4849
 8695SOL    HW137544   1.093   3.399   3.287  0.3565 -1.8710 -0.3613
 8695SOL    HW237545   1.216   3.360   3.216 -0.0802  0.1059  0.4192
 8696SOL     OW37546   1.163   3.363   6.297 -0.0385 -0.4140 -0.3680
 8696SOL    HW137547   1.116   3.441   6.268  0.9061  0.9623  1.8207
 8696SOL    HW237548   1.105   3.293   6.267 -1.5125  0.1287  1.2013
 8697SOL     OW37549   1.740   1.339   8.593  0.0203  0.1974 -0.1008
 8697SOL    HW137550   1.658   1.387   8.582 -0.7978 -1.0829  0.3407
 8697SOL    HW237551   1.785   1.400   8.652 -1.8190 -1.7249  3.3314
 8698SOL     OW37552   1.358   1.010   5.897  0.5623  0.3535 -0.0005
 8698SOL    HW137553   1.323   1.087   5.853  0.7811  1.2860  1.4691
 8698SOL    HW237554   1.376   1.047   5.984 -2.6827 -0.3541  0.9763
 8699SOL     OW37555   1.999   3.635   0.786 -0.2657 -0.2805 -0.3180
 8699SOL    HW137556   2.064   3.602   0.725 -2.1418 -1.4346 -1.6886
 8699SOL    HW237557   1.928   3.572   0.777 -0.2459 -0.5225  1.0877
 8700SOL     OW37558   0.418   2.511  16.174 -0.3889 -0.1016  0.2640
 8700SOL    HW137559   0.380   2.558  16.100 -1.1350  0.5643  1.0637
 8700SOL    HW237560   0.499   2.560  16.189 -0.4526 -0.1570  0.8082
 8701SOL     OW37561   2.669   0.581  17.186 -0.1233 -0.0432  0.2926
 8701SOL    HW137562   2.749   0.609  17.231  1.0437 -2.7958 -0.0689
 8701SOL    HW237563   2.709   0.503  17.147 -0.7192 -1.4183  2.4436
 8702SOL     OW37564   3.528   2.707   6.636 -0.1741 -0.1398  0.0064
 8702SOL    HW137565   3.463   2.694   6.704 -2.4302 -0.7187 -2.2543
 8702SOL    HW237566   3.586   2.631   6.646  0.2692  0.1802 -0.1360
 8703SOL     OW37567   3.895   0.500   2.422 -0.1556 -0.4123  0.0351
 8703SOL    HW137568   3.894   0.483   2.328  1.9028 -0.3280 -0.0089
 8703SOL    HW237569   3.810   0.540   2.436  0.1465 -0.5263  2.2107
 8704SOL     OW37570   2.018   1.133   8.467 -0.2409  0.1274 -0.4403
 8704SOL    HW137571   2.037   1.147   8.559  0.3127  0.0977 -0.5487
 8704SOL    HW237572   2.008   1.225   8.443 -0.0232  0.4381  0.6793
 8705SOL     OW37573   4.094   3.114   4.267 -0.8200  0.3691 -0.0308
 8705SOL    HW137574   4.119   3.174   4.198 -0.0061 -0.3432 -0.3623
 8705SOL    HW237575   4.163   3.113   4.334  1.3325 -0.4280 -2.2846
 8706SOL     OW37576   3.371   2.009  11.841  0.0557 -0.1677  0.1768
 8706SOL    HW137577   3.304   1.968  11.786  0.3889  1.1131 -1.1709
 8706SOL    HW237578   3.375   1.937  11.904 -0.4965 -1.6115 -1.4495
 8707SOL     OW37579   1.427   0.503   7.552  0.1001  0.1473 -0.2201
 8707SOL    HW137580   1.516   0.519   7.583  0.3305 -0.2575 -0.6798
 8707SOL    HW237581   1.373   0.499   7.631 -0.4921 -0.3923 -0.6564
 8708SOL     OW37582   3.507   1.731   4.243 -0.1040 -0.6743  0.0101
 8708SOL    HW137583   3.429   1.775   4.278 -0.4640 -0.6287 -0.8520
 8708SOL    HW237584   3.512   1.662   4.309  0.2100 -1.1157 -0.4825
 8709SOL     OW37585   0.978   1.453  10.764  0.5070 -0.5221 -0.1171
 8709SOL    HW137586   1.029   1.521  10.720  2.6033 -0.2311  2.7789
 8709SOL    HW237587   0.897   1.501  10.778 -0.1140 -0.6794 -3.1709
 8710SOL     OW37588   0.613   0.995  15.723 -0.7770 -0.1125  0.5503
 8710SOL    HW137589   0.602   1.046  15.804 -0.2746  0.3931  0.2965
 8710SOL    HW237590   0.523   0.984  15.694 -0.6183  1.1548 -0.4096
 8711SOL     OW37591   2.620   3.190  15.664 -0.2358 -0.0339 -0.3952
 8711SOL    HW137592   2.581   3.205  15.578  0.4712  2.3850 -0.2769
 8711SOL    HW237593   2.662   3.106  15.644  0.0208  0.1873 -0.7878
 8712SOL     OW37594   0.295   3.015   7.913 -0.7401 -0.4444 -0.1618
 8712SOL    HW137595   0.273   3.107   7.901 -1.1570 -0.6298 -0.8653
 8712SOL    HW237596   0.388   3.013   7.889 -0.3410 -1.6415  1.4862
 8713SOL     OW37597   2.387   4.674   2.819 -0.3457 -0.2454  0.5402
 8713SOL    HW137598   2.390   0.030   2.873  0.6814 -0.8329  1.3495
 8713SOL    HW237599   2.482   4.660   2.817 -0.3640 -0.2528 -0.4286
 8714SOL     OW37600   0.319   3.310   4.943  0.2320 -0.5423 -0.0673
 8714SOL    HW137601   0.346   3.227   4.904  0.2759 -0.6745  0.2437
 8714SOL    HW237602   0.398   3.327   4.995  0.1368  1.2175 -0.4929
 8715SOL     OW37603   2.872   4.505   5.081 -0.2449 -0.3872  0.0762
 8715SOL    HW137604   2.896   4.581   5.028 -2.1715 -0.9779 -1.6525
 8715SOL    HW237605   2.778   4.517   5.097  0.1498  0.7297  1.4985
 8716SOL     OW37606   2.409   1.404   0.929  0.1418 -0.7196 -0.2304
 8716SOL    HW137607   2.404   1.344   1.004  1.3715  1.8485  1.9424
 8716SOL    HW237608   2.405   1.344   0.855  1.0813 -2.4610  1.1220
 8717SOL     OW37609   0.777   3.372  15.584 -0.0096 -0.4551  0.8029
 8717SOL    HW137610   0.788   3.459  15.545  0.0962 -0.8020  0.0472
 8717SOL    HW237611   0.772   3.317  15.505  0.6739  2.0340 -0.9715
 8718SOL     OW37612   4.279   1.348   6.180  0.3207 -0.1500  0.3283
 8718SOL    HW137613   4.187   1.341   6.203  0.3120  1.4253  0.8024
 8718SOL    HW237614   4.284   1.288   6.106  0.5536 -2.5276  2.2754
 8719SOL     OW37615   0.344   4.053   1.818 -0.4884  0.1483  0.4983
 8719SOL    HW137616   0.412   4.085   1.757 -0.1367  1.1267  1.3961
 8719SOL    HW237617   0.283   4.007   1.761 -0.8256 -0.7990  1.6367
 8720SOL     OW37618   1.697   0.343  16.708 -0.2811 -0.2611 -0.1773
 8720SOL    HW137619   1.635   0.274  16.729 -1.7313  0.5684 -1.7817
 8720SOL    HW237620   1.638   0.415  16.685 -0.8902 -0.6817  0.0583
 8721SOL     OW37621   4.244   3.368   2.948 -0.5532  0.2849  0.0965
 8721SOL    HW137622   4.174   3.389   2.886 -0.1749 -1.0997 -0.8090
 8721SOL    HW237623   4.285   3.289   2.914 -0.1753  0.4046  0.2795
 8722SOL     OW37624   2.266   4.418   5.585  0.0948 -0.5650 -0.4689
 8722SOL    HW137625   2.269   4.389   5.676 -0.8895 -2.4282 -1.0318
 8722SOL    HW237626   2.232   4.335   5.552 -0.0998  0.6769 -3.4129
 8723SOL     OW37627   2.342   3.214   1.090  0.2074  0.2576  0.1279
 8723SOL    HW137628   2.410   3.280   1.076 -0.2561  0.8320  0.5948
 8723SOL    HW237629   2.261   3.264   1.085 -0.3967 -0.9324 -1.5514
 8724SOL     OW37630   4.638   0.837  14.440  0.2766 -0.4357  0.0066
 8724SOL    HW137631   4.685   0.759  14.470  1.3482 -0.1767 -1.0173
 8724SOL    HW237632   4.593   0.810  14.359 -0.1487 -1.3566  0.5381
 8725SOL     OW37633   2.743   4.292   8.039  0.5084  0.3603 -0.0740
 8725SOL    HW137634   2.821   4.346   8.050 -0.3924  1.3363  1.4163
 8725SOL    HW237635   2.745   4.231   8.112 -2.7125 -0.5696 -0.7686
 8726SOL     OW37636   1.851   1.323   6.319 -0.0581 -0.0739  0.0868
 8726SOL    HW137637   1.925   1.377   6.294  0.3948 -0.1184  1.3621
 8726SOL    HW237638   1.870   1.325   6.413  0.4118  2.2217 -0.0734
 8727SOL     OW37639   2.750   1.272   8.630 -0.4231 -0.5372  0.1226
 8727SOL    HW137640   2.845   1.266   8.643 -0.6773 -3.0649  0.7885
 8727SOL    HW237641   2.721   1.282   8.721  2.3587  0.0482  0.9454
 8728SOL     OW37642   3.364   3.586   7.228  0.1285  0.0682  0.0327
 8728SOL    HW137643   3.395   3.503   7.264 -0.9414 -1.4019 -2.4040
 8728SOL    HW237644   3.269   3.575   7.223  0.0012  0.6755  1.2166
 8729SOL     OW37645   4.608   0.772  16.371  0.0441 -0.6224  0.6114
 8729SOL    HW137646   4.655   0.689  16.362  0.4799 -0.3302  0.1838
 8729SOL    HW237647   4.517   0.742  16.372 -0.3218  0.4798  1.7478
 8730SOL     OW37648   1.488   2.322   0.997  0.0317  0.6505 -0.0873
 8730SOL    HW137649   1.435   2.395   0.967 -0.5603 -0.5410 -1.9272
 8730SOL    HW237650   1.557   2.362   1.051  1.0860 -0.5060 -0.5834
 8731SOL     OW37651   4.284   0.979  15.195 -0.3992 -0.6277 -0.4882
 8731SOL    HW137652   4.345   1.052  15.206 -0.7722 -0.3227 -0.4204
 8731SOL    HW237653   4.292   0.938  15.281  1.3564 -2.6708 -1.6476
 8732SOL     OW37654   3.417   3.802  15.183 -0.2678  0.0667 -0.2024
 8732SOL    HW137655   3.510   3.824  15.194 -0.3013 -0.4313  1.0749
 8732SOL    HW237656   3.407   3.707  15.170  0.5873  0.1957 -1.8226
 8733SOL     OW37657   1.528   0.161   1.953 -0.1168 -0.1536 -0.6761
 8733SOL    HW137658   1.505   0.181   1.862  1.6037  0.4395 -0.9833
 8733SOL    HW237659   1.601   0.103   1.931  1.8043  1.8589  0.2699
 8734SOL     OW37660   1.241   2.761   4.812 -0.1254 -0.4505  0.1846
 8734SOL    HW137661   1.291   2.767   4.731 -1.5029 -0.1319 -0.6492
 8734SOL    HW237662   1.190   2.681   4.799 -0.3684 -0.3239  0.3422
 8735SOL     OW37663   1.351   4.543   4.180 -0.1792  0.1876  0.3889
 8735SOL    HW137664   1.411   4.599   4.131 -0.1213 -0.7538 -0.6248
 8735SOL    HW237665   1.373   4.579   4.266  0.6263 -0.5118  0.4684
 8736SOL     OW37666   3.284   3.443   9.058 -0.1551 -0.3261 -0.4278
 8736SOL    HW137667   3.255   3.450   9.149 -0.6057 -3.1287 -0.3679
 8736SOL    HW237668   3.378   3.428   9.069  0.2004  1.9672 -0.3211
 8737SOL     OW37669   2.950   2.618   2.577  0.1382  0.0083  0.0851
 8737SOL    HW137670   2.928   2.679   2.506 -0.8621  0.2207  0.5892
 8737SOL    HW237671   2.967   2.681   2.647  1.3350 -0.3052  0.0764
 8738SOL     OW37672   1.418   4.497   8.695 -0.2455 -0.1214  0.0220
 8738SOL    HW137673   1.410   4.436   8.621 -0.0740 -0.1946  0.0654
 8738SOL    HW237674   1.464   4.439   8.756  1.1679  0.0648 -0.8863
 8739SOL     OW37675   4.056   0.912   8.847 -0.0062 -0.2098 -0.1441
 8739SOL    HW137676   3.987   0.973   8.823 -0.6199 -1.5150 -1.7074
 8739SOL    HW237677   4.128   0.971   8.824  0.4730 -0.4552  0.7101
 8740SOL     OW37678   4.208   3.587   0.979 -0.3066  0.5932 -0.7077
 8740SOL    HW137679   4.114   3.578   0.997 -0.5260  1.7073 -1.3025
 8740SOL    HW237680   4.219   3.682   0.971 -0.9237  0.7433  0.1721
 8741SOL     OW37681   2.668   1.153   6.338 -0.4401 -0.0465 -0.2488
 8741SOL    HW137682   2.744   1.110   6.300  0.8000  1.4264  0.5417
 8741SOL    HW237683   2.700   1.242   6.350  0.3464 -0.3280 -0.2306
 8742SOL     OW37684   2.628   2.029   3.025  0.4731 -0.4025 -0.3637
 8742SOL    HW137685   2.546   1.982   3.010 -1.4411  2.4442  1.2283
 8742SOL    HW237686   2.690   1.990   2.964  2.2717  0.8395  0.6741
 8743SOL     OW37687   4.322   1.945   4.224 -0.0990 -0.5694 -0.3734
 8743SOL    HW137688   4.384   1.875   4.246 -1.3292 -2.2306 -2.1681
 8743SOL    HW237689   4.284   1.903   4.146 -1.2501  0.4784 -0.3701
 8744SOL     OW37690   2.212   0.230  14.720 -0.2997  0.4980 -0.0294
 8744SOL    HW137691   2.220   0.322  14.695 -0.7398 -0.1344 -2.4159
 8744SOL    HW237692   2.161   0.194  14.649 -0.8803  1.1615  0.0554
 8745SOL     OW37693   0.580   0.440   7.486 -0.5413  0.3107  0.1605
 8745SOL    HW137694   0.502   0.429   7.540  0.2201 -1.4266  0.9439
 8745SOL    HW237695   0.613   0.526   7.513 -0.1314 -0.1555  1.1474
 8746SOL     OW37696   3.164   3.900   4.897 -0.6342  0.4478 -0.3059
 8746SOL    HW137697   3.087   3.945   4.862  0.0202  0.9133 -1.1404
 8746SOL    HW237698   3.206   3.872   4.815 -4.3519 -2.8042 -1.0799
 8747SOL     OW37699   0.096   1.699   9.528 -0.5966 -0.2711 -0.3378
 8747SOL    HW137700   0.024   1.720   9.469 -0.6770 -0.1699 -0.2037
 8747SOL    HW237701   0.039   1.691   9.604  0.5404 -4.1827  0.0949
 8748SOL     OW37702   1.326   1.669   2.761  0.8057  0.3769  0.5587
 8748SOL    HW137703   1.250   1.701   2.713 -0.2413 -0.7702  1.4517
 8748SOL    HW237704   1.309   1.575   2.752 -0.3776  0.6707 -0.3067
 8749SOL     OW37705   0.947   3.875   3.421  0.5743 -0.4824  0.1246
 8749SOL    HW137706   1.004   3.897   3.495  0.8276  0.1298 -0.2508
 8749SOL    HW237707   1.001   3.857   3.344 -1.1156  0.6593 -1.3404
 8750SOL     OW37708   0.857   3.015   6.927  0.3935 -0.2721 -0.3828
 8750SOL    HW137709   0.852   2.975   6.840 -1.4824 -0.5820 -0.1208
 8750SOL    HW237710   0.952   3.025   6.939  0.1402  1.6031  0.0238
 8751SOL     OW37711   0.797   2.628  12.798 -0.2685 -0.0600  0.1243
 8751SOL    HW137712   0.758   2.660  12.717  1.0924  1.8060  0.1959
 8751SOL    HW237713   0.783   2.533  12.795 -2.7975  0.3276 -0.4072
 8752SOL     OW37714   3.788   1.111   7.852  0.6013 -0.6602 -0.3762
 8752SOL    HW137715   3.750   1.035   7.807  2.3623 -1.9333  0.3018
 8752SOL    HW237716   3.837   1.078   7.927  1.2761  0.7277 -0.2136
 8753SOL     OW37717   3.528   1.868   6.387  0.6924 -0.2162 -0.4931
 8753SOL    HW137718   3.583   1.858   6.310  1.7700  4.1689 -0.3135
 8753SOL    HW237719   3.588   1.868   6.462 -1.0669  0.4032  0.9238
 8754SOL     OW37720   2.774   4.470   6.223 -0.4892 -0.5065 -0.2552
 8754SOL    HW137721   2.700   4.460   6.163  0.3332 -1.6768 -1.0767
 8754SOL    HW237722   2.847   4.416   6.192  1.7452  2.5953 -0.4459
 8755SOL     OW37723   1.797   3.436   0.762 -0.3146  0.6858 -0.2671
 8755SOL    HW137724   1.798   3.341   0.777 -0.3138  0.5165 -1.3417
 8755SOL    HW237725   1.813   3.450   0.669 -1.4148  1.0480 -0.4091
 8756SOL     OW37726   1.000   1.287  10.504 -0.2056 -0.2087 -0.2024
 8756SOL    HW137727   0.909   1.293  10.477 -1.0132 -2.8118  2.0057
 8756SOL    HW237728   1.036   1.376  10.494 -0.0863 -0.1377  0.8781
 8757SOL     OW37729   2.218   4.591   2.616  0.0219 -0.5362  0.3278
 8757SOL    HW137730   2.287   4.567   2.678  1.2944  1.6284 -0.2560
 8757SOL    HW237731   2.268   4.652   2.561 -0.9952 -1.6416 -1.8235
 8758SOL     OW37732   3.975   3.325  14.574  0.7043  0.6657  0.6042
 8758SOL    HW137733   4.000   3.354  14.662  1.8439  0.4713  0.3437
 8758SOL    HW237734   4.009   3.395  14.518  1.7997 -0.8095 -0.5894
 8759SOL     OW37735   4.043   1.257   1.008 -0.0541  0.1306  0.2697
 8759SOL    HW137736   4.026   1.168   0.977  0.0702 -0.5144  2.0896
 8759SOL    HW237737   3.967   1.290   1.056 -0.7450  3.1358 -2.8438
 8760SOL     OW37738   0.405   1.684   2.444 -0.2606 -0.1119  0.0415
 8760SOL    HW137739   0.472   1.685   2.512  0.1022 -1.2826 -0.2936
 8760SOL    HW237740   0.333   1.733   2.483 -0.6974  0.2834 -1.2722
 8761SOL     OW37741   1.491   2.574   7.656 -0.2762  0.0408  0.2390
 8761SOL    HW137742   1.449   2.543   7.736 -0.9120 -0.0752 -0.1389
 8761SOL    HW237743   1.571   2.522   7.653 -0.4879 -0.3327  1.2107
 8762SOL     OW37744   2.587   2.141  17.320 -0.6300 -0.0879  0.3332
 8762SOL    HW137745   2.517   2.169  17.379 -0.5320 -0.8765  0.8148
 8762SOL    HW237746   2.667   2.183  17.351 -0.9020  1.7580 -1.4868
 8763SOL     OW37747   3.821   4.133  10.124  0.2886  0.0324  0.0112
 8763SOL    HW137748   3.900   4.152  10.175 -0.3002 -1.9772  1.6588
 8763SOL    HW237749   3.851   4.111  10.036  2.1148 -0.8712  0.8400
 8764SOL     OW37750   4.009   0.491   4.305 -0.1426  0.2965  0.0484
 8764SOL    HW137751   4.065   0.492   4.383 -1.4152  0.6390  0.9570
 8764SOL    HW237752   3.921   0.495   4.343 -0.4182  1.5145 -0.6969
 8765SOL     OW37753   1.498   0.730   5.312 -0.2384 -0.4270 -0.4565
 8765SOL    HW137754   1.512   0.795   5.382  0.5706 -1.6217  0.4908
 8765SOL    HW237755   1.583   0.715   5.271  0.3430  1.4873  0.0335
 8766SOL     OW37756   3.078   1.543   1.700 -0.0059  0.2077 -0.5514
 8766SOL    HW137757   3.030   1.490   1.637 -1.9984 -1.1890  2.1363
 8766SOL    HW237758   3.150   1.487   1.728  0.3477  0.9632  0.0613
 8767SOL     OW37759   1.979   1.811   1.008  0.4326  0.1451 -0.1916
 8767SOL    HW137760   2.065   1.835   0.973  0.8544 -0.1091  0.6738
 8767SOL    HW237761   1.934   1.890   0.975 -0.8151  0.2680  1.8082
 8768SOL     OW37762   0.422   2.834   4.532  1.2482  0.1610 -0.0135
 8768SOL    HW137763   0.346   2.777   4.528  0.9413  0.5212  0.7296
 8768SOL    HW237764   0.469   2.806   4.453  0.4695 -3.4546  0.8417
 8769SOL     OW37765   0.164   4.513   3.901 -0.2978  0.2206 -0.1157
 8769SOL    HW137766   0.243   4.561   3.876 -0.8441  0.7676 -0.7749
 8769SOL    HW237767   0.093   4.569   3.869 -1.3993 -1.6956 -1.0472
 8770SOL     OW37768   4.231   3.691   3.512 -0.3798 -0.1050  0.0591
 8770SOL    HW137769   4.277   3.636   3.449  0.8639  1.8349 -0.7533
 8770SOL    HW237770   4.144   3.657   3.491 -0.0314  0.2759 -2.0595
 8771SOL     OW37771   4.353   0.279  16.386 -0.3970 -0.2016  0.2526
 8771SOL    HW137772   4.305   0.350  16.429  1.7845  0.5196  1.5158
 8771SOL    HW237773   4.335   0.295  16.294 -1.0200  0.0224  0.4128
 8772SOL     OW37774   2.599   2.356   8.814  0.4253  0.1403 -0.2138
 8772SOL    HW137775   2.631   2.352   8.904 -0.9928  1.3739  0.3539
 8772SOL    HW237776   2.675   2.322   8.768  1.4293  0.4313  1.2204
 8773SOL     OW37777   1.037   2.081   8.998 -0.2466 -0.1720  0.4770
 8773SOL    HW137778   1.009   2.090   8.907 -0.8173 -1.0876  0.5608
 8773SOL    HW237779   0.952   2.059   9.038  0.4310 -1.6294  1.1359
 8774SOL     OW37780   1.841   0.354  14.873  0.7034 -0.0868  0.5102
 8774SOL    HW137781   1.894   0.427  14.840  0.8629 -1.3126 -1.9627
 8774SOL    HW237782   1.806   0.380  14.959  0.1726  0.1880  0.2140
 8775SOL     OW37783   1.428   4.497   9.965  0.3823  0.2699  0.0835
 8775SOL    HW137784   1.484   4.531  10.035 -0.5398  3.6742 -0.8560
 8775SOL    HW237785   1.454   4.405   9.953  0.3707  0.4784 -1.5241
 8776SOL     OW37786   0.646   4.085   8.538 -0.0775  0.1461  0.6862
 8776SOL    HW137787   0.686   4.026   8.474 -1.8202 -0.3985  0.0894
 8776SOL    HW237788   0.555   4.056   8.533  0.4384 -1.2931 -0.2501
 8777SOL     OW37789   2.534   1.419   5.111  0.2430 -0.3071  0.6191
 8777SOL    HW137790   2.491   1.348   5.064 -1.0506  0.2416  0.9959
 8777SOL    HW237791   2.623   1.416   5.075 -0.0709  0.4164 -0.2050
 8778SOL     OW37792   4.703   0.767   4.432  0.2553  0.3538 -0.1640
 8778SOL    HW137793   4.650   0.815   4.496 -0.4735 -0.3747 -0.2098
 8778SOL    HW237794   4.667   0.777   4.344  0.6110  0.1389 -0.3328
 8779SOL     OW37795   3.353   0.748   7.529  0.3660  0.0114  0.2698
 8779SOL    HW137796   3.288   0.779   7.466  0.4381  0.7793  0.5711
 8779SOL    HW237797   3.380   0.664   7.491  5.0296  1.4026  0.5098
 8780SOL     OW37798   4.471   0.133   6.954  0.0262 -0.2958 -0.1867
 8780SOL    HW137799   4.443   0.047   6.922 -0.3869 -0.1754 -0.1512
 8780SOL    HW237800   4.462   0.119   7.049  3.0975  0.2957  0.1802
 8781SOL     OW37801   2.756   2.624  10.009 -0.2293 -0.4938  0.1835
 8781SOL    HW137802   2.776   2.618   9.916 -1.4423 -0.3766 -0.0942
 8781SOL    HW237803   2.718   2.712  10.004  1.0564  0.0281 -0.3355
 8782SOL     OW37804   1.834   1.199   7.520 -0.3101 -0.8300  0.2897
 8782SOL    HW137805   1.885   1.139   7.575 -1.7664  0.3026  2.8635
 8782SOL    HW237806   1.787   1.259   7.578 -0.3898 -0.2177 -0.4091
 8783SOL     OW37807   2.442   1.982   1.082 -0.1740  0.5777 -0.1956
 8783SOL    HW137808   2.478   2.069   1.063 -0.8718  0.6249 -1.3185
 8783SOL    HW237809   2.522   1.938   1.108  1.0088  2.3410 -0.8335
 8784SOL     OW37810   0.661   4.326   8.705 -0.0420  0.3416 -0.0593
 8784SOL    HW137811   0.571   4.334   8.737  0.4907 -0.4315  1.6332
 8784SOL    HW237812   0.657   4.239   8.665 -1.0696  0.6921 -0.7286
 8785SOL     OW37813   3.963   0.666   6.534 -0.5966 -0.1402 -0.4109
 8785SOL    HW137814   3.920   0.704   6.610  0.2605  2.6102 -1.2897
 8785SOL    HW237815   3.921   0.713   6.462 -1.5257 -2.5148 -1.4135
 8786SOL     OW37816   2.570   3.805  10.437 -0.1987 -0.4951 -0.2079
 8786SOL    HW137817   2.494   3.767  10.393  0.4581 -2.4025  0.3374
 8786SOL    HW237818   2.587   3.736  10.501  0.1464 -0.9074 -0.7528
 8787SOL     OW37819   3.423   4.144   2.587  0.2077 -0.6868  0.4129
 8787SOL    HW137820   3.457   4.228   2.558 -1.6445  0.0080  0.2518
 8787SOL    HW237821   3.353   4.127   2.524 -0.2212 -0.3881  0.8040
 8788SOL     OW37822   4.616   4.507   4.250  0.2504 -0.0701 -0.2239
 8788SOL    HW137823   4.578   4.583   4.295  0.5586 -1.0018  1.6165
 8788SOL    HW237824   4.628   4.537   4.160  0.4049  1.7264  0.3799
 8789SOL     OW37825   3.672   2.195   6.563 -0.1508  0.2533  0.3302
 8789SOL    HW137826   3.617   2.273   6.557 -1.3099 -0.6191 -0.3421
 8789SOL    HW237827   3.716   2.213   6.646 -2.3948  0.5610  1.4278
 8790SOL     OW37828   2.499   4.318   7.456  0.5059  0.1093  0.0470
 8790SOL    HW137829   2.526   4.226   7.452  0.9707  0.1560  2.5678
 8790SOL    HW237830   2.418   4.322   7.405  0.2959 -1.2523  0.2669
 8791SOL     OW37831   4.192   1.549   1.567  0.3249 -0.5315 -0.1721
 8791SOL    HW137832   4.272   1.597   1.590 -0.3665 -0.0986  1.2992
 8791SOL    HW237833   4.234   1.467   1.541 -0.3071 -0.9681  0.2046
 8792SOL     OW37834   2.375   1.781   8.700 -0.1638 -0.7839 -0.2891
 8792SOL    HW137835   2.409   1.691   8.704  3.0022  0.3218 -2.1265
 8792SOL    HW237836   2.366   1.796   8.794 -0.5334 -1.7715 -0.1645
 8793SOL     OW37837   1.339   2.075   5.843  0.4934 -0.2819 -0.3258
 8793SOL    HW137838   1.426   2.094   5.876 -0.0387  0.9029  0.3761
 8793SOL    HW237839   1.300   2.162   5.839  1.4055  0.1219 -0.2733
 8794SOL     OW37840   4.069   4.125   5.656  0.4217 -0.0973 -0.1942
 8794SOL    HW137841   4.008   4.065   5.700 -0.2901  1.4614  0.9227
 8794SOL    HW237842   4.139   4.125   5.722 -0.4775  0.1949  0.7607
 8795SOL     OW37843   0.539   2.444   7.313 -0.2626  0.1933  0.3801
 8795SOL    HW137844   0.585   2.377   7.363 -0.9542 -0.2288  0.4544
 8795SOL    HW237845   0.596   2.519   7.330  1.4146 -1.4159  1.8391
 8796SOL     OW37846   3.379   3.670   1.809  0.3282 -0.1168 -0.1183
 8796SOL    HW137847   3.434   3.738   1.847  0.6017  0.1856 -1.0483
 8796SOL    HW237848   3.402   3.596   1.865  0.4922  0.7191  0.9166
 8797SOL     OW37849   0.737   0.131   8.849 -0.0098  0.4796  0.1369
 8797SOL    HW137850   0.755   0.138   8.755 -1.3872  1.5194 -0.0561
 8797SOL    HW237851   0.754   0.038   8.863 -0.1730  0.5443  0.7743
 8798SOL     OW37852   1.452   1.226   0.981 -0.1755  0.3969  0.2767
 8798SOL    HW137853   1.415   1.147   0.942 -1.6875  0.6952  1.1111
 8798SOL    HW237854   1.494   1.185   1.057 -0.4011  0.2864  0.3407
 8799SOL     OW37855   0.735   3.124   2.382 -0.0124  0.0275  0.0018
 8799SOL    HW137856   0.759   3.110   2.290  0.4292 -1.3396  0.3328
 8799SOL    HW237857   0.678   3.049   2.400  0.2106  0.5289  2.8021
 8800SOL     OW37858   3.036   3.800   5.337 -0.3263  0.5654  0.8912
 8800SOL    HW137859   3.040   3.885   5.294 -0.0780 -0.9433 -2.0323
 8800SOL    HW237860   2.952   3.805   5.383 -1.8553 -0.8953 -1.7863
 8801SOL     OW37861   3.517   1.941   2.742  0.6563 -0.2588 -0.0820
 8801SOL    HW137862   3.517   1.988   2.826 -1.1386 -0.1238 -0.1460
 8801SOL    HW237863   3.565   1.861   2.762  1.6756 -0.0606 -1.7560
 8802SOL     OW37864   2.721   4.275   6.001 -0.1996 -0.9620 -0.0551
 8802SOL    HW137865   2.665   4.225   6.060 -0.6989  0.2555  0.4998
 8802SOL    HW237866   2.664   4.348   5.978  2.1868  0.8082 -0.3835
 8803SOL     OW37867   3.309   2.068   2.636  0.0107  0.0364 -0.1701
 8803SOL    HW137868   3.386   2.016   2.662 -1.1867 -0.1662  2.9330
 8803SOL    HW237869   3.321   2.071   2.541 -0.2159 -2.1275 -0.2730
 8804SOL     OW37870   4.049   1.347   6.829 -0.1279  0.6608 -0.1646
 8804SOL    HW137871   4.088   1.433   6.820 -0.1419  0.5818 -1.0027
 8804SOL    HW237872   4.060   1.338   6.923  0.7501  1.3731 -0.2015
 8805SOL     OW37873   0.255   2.629   2.871  0.4346  0.3913 -0.1395
 8805SOL    HW137874   0.303   2.707   2.843  1.4806  0.0923  0.8283
 8805SOL    HW237875   0.195   2.668   2.934 -0.2681 -2.2464  0.8062
 8806SOL     OW37876   3.223   2.385   2.257  0.4598  0.4402  0.5621
 8806SOL    HW137877   3.197   2.322   2.190 -0.1625  1.0286  0.2654
 8806SOL    HW237878   3.318   2.372   2.258  0.5958  1.6118  5.1852
 8807SOL     OW37879   2.105   0.059  14.906  0.1475 -0.1776 -0.1927
 8807SOL    HW137880   2.146   4.698  14.883  1.8449  1.4082 -2.9939
 8807SOL    HW237881   2.160   0.131  14.875  0.7767 -0.2212  0.8211
 8808SOL     OW37882   1.805   2.725   8.885  1.0807  0.0830 -0.0191
 8808SOL    HW137883   1.809   2.702   8.793  0.5642  2.3671 -0.6262
 8808SOL    HW237884   1.786   2.640   8.924 -0.0101  1.2681  2.0910
 8809SOL     OW37885   3.101   3.946  14.337 -0.0919 -0.5378 -0.4453
 8809SOL    HW137886   3.058   3.890  14.272 -0.1905 -0.9007 -0.0677
 8809SOL    HW237887   3.072   3.908  14.420 -1.6095  1.5862  0.0163
 8810SOL     OW37888   0.247   3.558   3.773  0.3430 -1.0236  0.7240
 8810SOL    HW137889   0.265   3.627   3.837 -0.6371  0.4076 -0.5464
 8810SOL    HW237890   0.288   3.602   3.699 -0.2540 -1.4739  0.1269
 8811SOL     OW37891   2.208   0.503   1.929  0.3009 -0.1759 -0.0263
 8811SOL    HW137892   2.164   0.538   1.852 -0.0991 -1.4752 -0.3781
 8811SOL    HW237893   2.179   0.413   1.939 -1.2229  0.4281  1.0077
 8812SOL     OW37894   0.343   3.422   2.863 -0.4056 -0.0427 -0.1328
 8812SOL    HW137895   0.281   3.426   2.936 -1.2922 -0.8053 -0.8473
 8812SOL    HW237896   0.294   3.375   2.796 -2.1044  1.0545  0.3326
 8813SOL     OW37897   4.597   3.645  11.140 -0.8008 -0.1844 -0.5133
 8813SOL    HW137898   4.635   3.603  11.217  0.1984  0.9732 -0.3627
 8813SOL    HW237899   4.502   3.638  11.149 -1.0467  0.1336 -2.9573
 8814SOL     OW37900   0.565   0.447   5.995  0.3266 -0.4004 -0.4238
 8814SOL    HW137901   0.633   0.477   6.055 -2.3272  0.8916  1.9731
 8814SOL    HW237902   0.582   0.484   5.908  5.9194 -2.8160 -0.3351
 8815SOL     OW37903   2.527   1.156   2.829  0.0984 -0.2590  0.4615
 8815SOL    HW137904   2.454   1.165   2.768 -0.5772 -0.0151  1.3113
 8815SOL    HW237905   2.531   1.241   2.872  0.8063 -0.7767  1.4313
 8816SOL     OW37906   3.801   0.766   7.046  0.0187 -0.6220  0.3890
 8816SOL    HW137907   3.732   0.722   6.996  1.5302 -1.6006 -0.8055
 8816SOL    HW237908   3.845   0.821   6.980 -0.1130 -0.9885 -0.0050
 8817SOL     OW37909   1.569   1.084   3.722 -0.5162 -0.3478  0.1448
 8817SOL    HW137910   1.488   1.096   3.771  1.4479 -0.6555  3.5273
 8817SOL    HW237911   1.621   1.146   3.774 -0.4072 -1.3476  1.2396
 8818SOL     OW37912   3.014   4.453   4.644  0.0264 -0.0486  0.8960
 8818SOL    HW137913   3.084   4.390   4.626 -2.4902 -2.2358 -1.2946
 8818SOL    HW237914   2.987   4.479   4.556  1.5208 -2.0251 -0.1548
 8819SOL     OW37915   3.517   3.951   1.878  0.3521 -0.1472 -0.1606
 8819SOL    HW137916   3.481   3.989   1.958 -0.5481 -3.6187  1.0869
 8819SOL    HW237917   3.609   3.973   1.891  0.5655 -1.7252  1.1331
 8820SOL     OW37918   0.345   2.217   5.778 -0.0064  0.1826  0.6128
 8820SOL    HW137919   0.255   2.188   5.762  0.2772  0.2380 -1.0839
 8820SOL    HW237920   0.391   2.174   5.706 -0.9235 -0.5307  0.4514
 8821SOL     OW37921   0.567   0.817   4.146 -0.8460 -0.1723 -0.0008
 8821SOL    HW137922   0.541   0.909   4.153 -0.4873 -0.0527 -0.2678
 8821SOL    HW237923   0.638   0.830   4.084 -1.1594 -0.0305 -0.3298
 8822SOL     OW37924   1.490   0.745  17.686  0.2812  0.5488  0.1079
 8822SOL    HW137925   1.554   0.674  17.679 -2.3884 -1.9601  1.2812
 8822SOL    HW237926   1.517   0.793  17.608  2.0428  1.8134  1.5034
 8823SOL     OW37927   3.749   2.716   2.578  0.2481  0.4217  0.0157
 8823SOL    HW137928   3.785   2.800   2.604  0.8609 -0.3696  1.7330
 8823SOL    HW237929   3.741   2.672   2.662 -1.4755  2.6453  0.9874
 8824SOL     OW37930   2.772   3.661   3.780 -0.6008  0.0550  0.0420
 8824SOL    HW137931   2.866   3.679   3.786 -0.2037 -2.2091  0.7991
 8824SOL    HW237932   2.755   3.684   3.689 -0.8138  0.7040  0.2482
 8825SOL     OW37933   2.955   0.357   8.527  0.7605  0.8416  0.4355
 8825SOL    HW137934   2.948   0.450   8.506  2.6256  0.6977 -0.8398
 8825SOL    HW237935   2.863   0.329   8.526  0.1491  2.8545 -1.4393
 8826SOL     OW37936   1.161   2.655   5.246 -0.3879 -0.4156  0.6739
 8826SOL    HW137937   1.133   2.697   5.327 -0.0511  0.5017  0.3185
 8826SOL    HW237938   1.200   2.728   5.198 -1.2230 -0.0520  0.5449
 8827SOL     OW37939   1.825   4.139  12.365  0.3806  0.0067 -0.1202
 8827SOL    HW137940   1.778   4.165  12.286 -0.8078  1.7675  1.1776
 8827SOL    HW237941   1.891   4.075  12.338  1.9414  0.2427  3.1607
 8828SOL     OW37942   1.342   2.823   7.625  0.4461  0.0698 -0.1522
 8828SOL    HW137943   1.404   2.757   7.656 -0.1311 -1.1631 -1.6218
 8828SOL    HW237944   1.397   2.884   7.577  2.0769  0.1945  1.8817
 8829SOL     OW37945   1.401   0.446  13.031 -0.3905 -0.2961  0.2687
 8829SOL    HW137946   1.312   0.428  13.061 -0.4397 -2.4207 -1.1347
 8829SOL    HW237947   1.414   0.539  13.048  0.4587 -0.3828  0.0684
 8830SOL     OW37948   2.266   1.018   6.579 -0.4383  0.1347  0.2393
 8830SOL    HW137949   2.295   0.989   6.665  0.4131  0.9775  0.2326
 8830SOL    HW237950   2.342   1.059   6.538 -0.3838 -2.1827 -2.0200
 8831SOL     OW37951   1.252   3.911   4.274 -0.1614  0.2879  0.9291
 8831SOL    HW137952   1.228   3.987   4.327  1.3017  0.8801  0.7310
 8831SOL    HW237953   1.315   3.952   4.215 -0.3180  1.0220  1.2772
 8832SOL     OW37954   1.827   0.499   2.575  0.1938  0.0102 -0.2078
 8832SOL    HW137955   1.891   0.427   2.573 -2.3868 -2.3364  1.1189
 8832SOL    HW237956   1.868   0.580   2.605 -0.4698  0.3110 -0.1162
 8833SOL     OW37957   2.047   2.142   7.840  0.2518 -0.0798  0.0825
 8833SOL    HW137958   2.069   2.088   7.765  1.1587  0.4257 -0.0224
 8833SOL    HW237959   2.064   2.228   7.800  0.3268 -1.5372 -2.9671
 8834SOL     OW37960   4.173   3.195   8.581 -0.0054 -0.0964 -0.9506
 8834SOL    HW137961   4.155   3.278   8.536 -1.1654  0.0726 -0.1739
 8834SOL    HW237962   4.105   3.142   8.539 -0.2806 -0.3650 -0.1618
 8835SOL     OW37963   4.455   1.570  16.828  0.0877 -0.2013 -0.5259
 8835SOL    HW137964   4.362   1.591  16.833 -0.3943 -2.1585 -1.3551
 8835SOL    HW237965   4.477   1.646  16.775  0.8680 -1.2531 -1.7202
 8836SOL     OW37966   1.616   4.638  12.135  0.2140 -0.3806 -0.3229
 8836SOL    HW137967   1.538   4.599  12.175  0.0503 -0.7485 -1.0064
 8836SOL    HW237968   1.578   4.659  12.050 -1.9888 -0.9629  0.5081
 8837SOL     OW37969   0.112   3.344   7.345 -0.0221 -0.1471 -0.0130
 8837SOL    HW137970   0.143   3.298   7.267  0.6442  0.0494  0.1359
 8837SOL    HW237971   0.094   3.269   7.402 -0.4335  0.2718  0.4019
 8838SOL     OW37972   0.490   1.080   5.861 -0.2699  0.1474  0.9268
 8838SOL    HW137973   0.573   1.116   5.892  0.2275 -1.0155  0.9762
 8838SOL    HW237974   0.464   1.139   5.790 -0.3893 -1.6290 -0.5118
 8839SOL     OW37975   1.271   1.865   1.074 -0.0619  0.1464  0.0087
 8839SOL    HW137976   1.324   1.792   1.105 -0.2333 -1.0125 -2.4834
 8839SOL    HW237977   1.318   1.942   1.106  0.0913  1.3385 -3.1031
 8840SOL     OW37978   1.421   3.061  15.237 -0.0735  0.6521 -0.2609
 8840SOL    HW137979   1.486   3.130  15.252 -1.3115  1.7523  0.1348
 8840SOL    HW237980   1.375   3.089  15.158 -0.1895 -0.6815 -0.6545
 8841SOL     OW37981   0.844   1.717  10.487 -0.1858 -0.0384 -0.1659
 8841SOL    HW137982   0.750   1.722  10.469 -0.6729 -1.8433  1.8655
 8841SOL    HW237983   0.866   1.635  10.443 -0.1916  0.0009 -0.2414
 8842SOL     OW37984   1.129   1.014   4.840  0.1223  0.3213  0.2781
 8842SOL    HW137985   1.086   0.991   4.758  2.0542 -1.5314 -0.2093
 8842SOL    HW237986   1.166   1.096   4.808  0.3943  0.4233  0.8554
 8843SOL     OW37987   3.456   0.169  12.436 -0.5312  0.2531  0.4675
 8843SOL    HW137988   3.396   0.100  12.410 -0.0670  0.2611 -0.6036
 8843SOL    HW237989   3.478   0.134  12.523 -1.2842  2.0670  1.4060
 8844SOL     OW37990   0.961   2.596  14.058 -0.0441  0.2548 -0.8262
 8844SOL    HW137991   0.895   2.531  14.032  0.2872 -1.2880  2.1663
 8844SOL    HW237992   0.904   2.648  14.115 -0.3672 -0.3936 -0.5452
 8845SOL     OW37993   0.933   1.884   5.401 -0.2589  0.4855  0.1945
 8845SOL    HW137994   0.955   1.892   5.494 -1.2201  1.1718  0.3632
 8845SOL    HW237995   0.930   1.975   5.373 -0.5571  0.3728 -0.1494
 8846SOL     OW37996   3.471   0.499   4.591  0.6931  0.1303  0.4411
 8846SOL    HW137997   3.389   0.548   4.596  0.1189 -0.9288  1.2948
 8846SOL    HW237998   3.527   0.562   4.545  0.1467  0.5402  0.3359
 8847SOL     OW37999   1.125   0.914  13.895 -0.0585 -0.2152 -0.0702
 8847SOL    HW138000   1.047   0.944  13.848 -0.7072 -1.7813 -0.0158
 8847SOL    HW238001   1.175   0.857  13.836 -0.9259  0.1013 -1.1128
 8848SOL     OW38002   2.843   2.700   5.070  0.6982 -0.6919  0.0543
 8848SOL    HW138003   2.806   2.788   5.056 -0.2790 -1.0935  0.1254
 8848SOL    HW238004   2.909   2.678   5.003  1.1631 -0.3221  0.3923
 8849SOL     OW38005   1.751   4.409   8.757  0.5180  0.5998  0.0519
 8849SOL    HW138006   1.797   4.333   8.720  0.5636  1.3454 -1.4110
 8849SOL    HW238007   1.680   4.373   8.811  1.8035 -1.8904  0.1185
 8850SOL     OW38008   0.122   0.156   8.282 -0.0876 -0.3819 -0.0727
 8850SOL    HW138009   0.096   0.219   8.215 -2.0498 -2.4993 -1.3054
 8850SOL    HW238010   0.192   0.102   8.247 -0.4140  0.5563 -2.1519
 8851SOL     OW38011   1.530   2.398   2.997 -0.2909  0.3761  0.5152
 8851SOL    HW138012   1.607   2.342   2.993  0.4402  1.5807 -2.3875
 8851SOL    HW238013   1.506   2.376   3.087  0.3384 -2.3201  0.0277
 8852SOL     OW38014   1.261   4.145   4.116  0.2931 -0.0106 -0.0975
 8852SOL    HW138015   1.246   4.157   4.210 -4.6034  1.6982 -1.1155
 8852SOL    HW238016   1.356   4.137   4.127  0.2430  0.2322  0.5614
 8853SOL     OW38017   3.381   3.472  10.104 -0.3075 -0.2478 -0.0914
 8853SOL    HW138018   3.352   3.559  10.131 -1.2778 -0.2587 -1.1016
 8853SOL    HW238019   3.421   3.500  10.021 -1.4344 -0.9596 -0.8774
 8854SOL     OW38020   1.783   2.257  12.762  0.4006  0.3391 -0.5843
 8854SOL    HW138021   1.851   2.192  12.781 -1.5601 -1.3321  0.7065
 8854SOL    HW238022   1.700   2.211  12.773  0.2812  0.2614 -1.8545
 8855SOL     OW38023   3.109   0.783   1.259  0.3977  0.7037  0.1546
 8855SOL    HW138024   3.188   0.806   1.308 -0.4423  1.7963  0.9982
 8855SOL    HW238025   3.098   0.854   1.196 -1.2957  0.5174  0.2407
 8856SOL     OW38026   2.551   0.073   5.489 -0.2801  0.6050 -0.5479
 8856SOL    HW138027   2.498   4.723   5.458 -1.1016 -0.2920  2.9769
 8856SOL    HW238028   2.637   0.044   5.459 -0.9632  0.9683 -2.7843
 8857SOL     OW38029   3.499   4.118   7.854  0.1213 -0.4421 -0.0774
 8857SOL    HW138030   3.563   4.051   7.830  1.8703  1.5492 -0.9565
 8857SOL    HW238031   3.419   4.069   7.874  0.9155 -1.3748  0.8532
 8858SOL     OW38032   1.366   4.563  12.308  0.6767 -0.4797  0.0430
 8858SOL    HW138033   1.273   4.563  12.328  0.9322 -0.5039  1.2782
 8858SOL    HW238034   1.406   4.563  12.396  0.0457 -0.2755  0.3298
 8859SOL     OW38035   4.171   1.105  15.920 -0.0824 -0.4899 -0.2451
 8859SOL    HW138036   4.234   1.091  15.990 -1.2534 -0.5667  0.7820
 8859SOL    HW238037   4.094   1.143  15.961 -1.0737  0.5048 -3.0069
 8860SOL     OW38038   3.829   2.432  13.114  0.3744 -0.0141  0.1855
 8860SOL    HW138039   3.775   2.509  13.132  0.0076  0.1070 -1.3915
 8860SOL    HW238040   3.917   2.469  13.105 -0.6432  1.6952 -2.6401
 8861SOL     OW38041   1.858   4.399   2.254 -0.2938 -0.2149  0.5091
 8861SOL    HW138042   1.917   4.385   2.328  1.0980 -1.1962 -0.7720
 8861SOL    HW238043   1.856   4.309   2.221  0.3826  0.0361 -0.2118
 8862SOL     OW38044   1.459   1.629   2.209  0.1791 -0.1469 -0.3651
 8862SOL    HW138045   1.534   1.641   2.151  0.1429  0.2597 -0.3266
 8862SOL    HW238046   1.478   1.712   2.251  2.0313 -0.6264 -0.2570
 8863SOL     OW38047   2.977   3.959  10.380  0.1604  0.6893  0.0456
 8863SOL    HW138048   2.972   3.872  10.420 -1.3267  0.7552 -0.0022
 8863SOL    HW238049   2.890   3.953  10.340  0.8430 -1.1921 -1.1721
 8864SOL     OW38050   1.369   1.177   8.774 -0.2223 -0.4773 -0.4465
 8864SOL    HW138051   1.361   1.119   8.849 -1.0839  0.1280 -0.0765
 8864SOL    HW238052   1.457   1.149   8.748 -0.3086  0.2456 -1.5247
 8865SOL     OW38053   3.228   1.941   5.318 -0.1148 -0.0628 -0.5782
 8865SOL    HW138054   3.322   1.931   5.334 -0.0705  0.6188 -0.3962
 8865SOL    HW238055   3.231   2.021   5.265 -1.6232  0.5258  0.2322
 8866SOL     OW38056   1.660   3.108   6.346 -0.4454 -0.5400 -0.0701
 8866SOL    HW138057   1.671   3.174   6.415 -1.3253  0.9126 -1.3065
 8866SOL    HW238058   1.636   3.028   6.392 -3.5351  1.1926  1.3218
 8867SOL     OW38059   2.570   2.308   7.535  0.9343 -0.1362 -0.2569
 8867SOL    HW138060   2.648   2.253   7.529  0.4036 -1.0425  1.2553
 8867SOL    HW238061   2.603   2.388   7.494  0.8816  0.8646  1.6776
 8868SOL     OW38062   3.894   3.310  13.576 -0.6285  0.3190 -0.1526
 8868SOL    HW138063   3.874   3.276  13.488  1.0302 -0.1570 -0.3331
 8868SOL    HW238064   3.819   3.364  13.602 -1.4310 -2.2009  2.7817
 8869SOL     OW38065   1.071   4.485   6.671  0.0318 -0.5517  0.8381
 8869SOL    HW138066   1.166   4.485   6.679  0.1157 -0.3183 -0.1426
 8869SOL    HW238067   1.045   4.569   6.634 -3.0678 -0.8166  2.3920
 8870SOL     OW38068   4.670   0.873  16.733 -0.1089 -0.1935  0.0259
 8870SOL    HW138069   4.670   0.849  16.640 -0.3690  1.7679 -0.4646
 8870SOL    HW238070   4.636   0.798  16.783  0.1408 -0.5104 -0.2852
 8871SOL     OW38071   3.183   3.587  13.309 -0.1044 -0.6451  0.9955
 8871SOL    HW138072   3.165   3.502  13.351  0.4503 -1.7324 -0.9523
 8871SOL    HW238073   3.271   3.608  13.341  1.8446 -3.1212 -2.6295
 8872SOL     OW38074   1.993   4.377   3.159 -0.1566 -0.3685  0.0686
 8872SOL    HW138075   2.003   4.361   3.253 -1.0764  0.0056  0.2312
 8872SOL    HW238076   2.079   4.371   3.117  1.6718 -0.4184  3.8104
 8873SOL     OW38077   3.009   0.622   2.493  0.3696 -0.0479 -0.2917
 8873SOL    HW138078   2.950   0.697   2.499  0.1346 -0.2661  0.1754
 8873SOL    HW238079   2.970   0.574   2.420  0.0229  0.4199 -0.4177
 8874SOL     OW38080   2.335   1.605   3.948  0.3446 -0.1478 -0.0688
 8874SOL    HW138081   2.371   1.516   3.953  0.3398 -0.1241  0.3615
 8874SOL    HW238082   2.314   1.623   4.039  0.6124 -1.1604  0.1849
 8875SOL     OW38083   4.494   1.334   9.356  0.1918  0.1980 -0.4435
 8875SOL    HW138084   4.541   1.400   9.407  0.6409  0.3602 -1.0562
 8875SOL    HW238085   4.477   1.262   9.417  1.4183 -0.2848 -0.6727
 8876SOL     OW38086   3.832   1.547   8.401 -0.1444  0.4075 -0.0256
 8876SOL    HW138087   3.822   1.453   8.384  0.8271  0.5316 -1.2320
 8876SOL    HW238088   3.852   1.531   8.494  1.0260  0.9894 -0.1884
 8877SOL     OW38089   3.599   0.007   4.327 -0.5956  0.3481  0.6500
 8877SOL    HW138090   3.692   0.024   4.311 -0.7857 -0.5075 -1.3409
 8877SOL    HW238091   3.561   0.091   4.355 -1.2642 -0.1920  1.3671
 8878SOL     OW38092   1.489   4.139   8.032  0.5669 -0.2512  0.0555
 8878SOL    HW138093   1.493   4.057   7.982 -1.9248  0.2549 -0.9918
 8878SOL    HW238094   1.405   4.134   8.077 -0.5353 -1.4068 -2.1316
 8879SOL     OW38095   2.920   2.157   3.668  0.0045 -0.2894 -0.4619
 8879SOL    HW138096   2.930   2.063   3.653 -0.0650 -0.3956  0.1654
 8879SOL    HW238097   2.945   2.170   3.760 -1.3659  1.9816 -0.4025
 8880SOL     OW38098   2.618   4.569   7.494  0.0364  0.4087  0.0873
 8880SOL    HW138099   2.632   4.599   7.404 -0.3588  0.0458 -0.0984
 8880SOL    HW238100   2.585   4.481   7.479  1.5240  0.1523 -1.6216
 8881SOL     OW38101   1.705   0.860   8.282 -0.0588 -0.5262 -0.4759
 8881SOL    HW138102   1.740   0.772   8.265  0.9268 -0.4787  1.4222
 8881SOL    HW238103   1.611   0.839   8.282  0.0641 -1.0976  3.0716
 8882SOL     OW38104   4.201   2.872   4.430 -0.2192  0.2093 -0.2899
 8882SOL    HW138105   4.271   2.829   4.480 -0.0880 -0.3978 -0.9914
 8882SOL    HW238106   4.179   2.929   4.504  3.2130 -1.7425  2.2552
 8883SOL     OW38107   2.770   3.643  16.562 -0.4782 -0.7299  0.2074
 8883SOL    HW138108   2.811   3.694  16.492  0.3330 -0.3848  0.9411
 8883SOL    HW238109   2.682   3.681  16.565 -0.3138 -0.3021 -0.3725
 8884SOL     OW38110   1.799   0.330  12.918  0.4044 -0.4911 -0.1615
 8884SOL    HW138111   1.887   0.369  12.922  0.4320 -0.7298  1.3387
 8884SOL    HW238112   1.809   0.276  12.839  0.0119 -3.4453  1.8371
 8885SOL     OW38113   2.395   1.075   2.426 -0.1617  0.0729 -0.5831
 8885SOL    HW138114   2.391   1.137   2.498 -3.0891 -1.8183  0.8642
 8885SOL    HW238115   2.428   1.138   2.361  0.5756 -0.8350 -1.0993
 8886SOL     OW38116   1.452   1.541   5.266 -0.6432 -0.4538 -0.4675
 8886SOL    HW138117   1.500   1.498   5.336  0.2638  0.4653 -0.5317
 8886SOL    HW238118   1.438   1.464   5.210 -1.2178 -0.6457 -0.0613
 8887SOL     OW38119   4.705   1.444  14.826  0.0036  0.2319 -0.1859
 8887SOL    HW138120   0.029   1.515  14.783  0.9719  1.1745  2.4789
 8887SOL    HW238121   0.009   1.469  14.914  1.2327 -0.2838 -0.4222
 8888SOL     OW38122   4.339   1.093  16.145  0.4145 -0.4241 -0.1294
 8888SOL    HW138123   4.401   1.164  16.164  1.8193 -1.6771 -0.0266
 8888SOL    HW238124   4.325   1.060  16.234 -3.5598  1.5377 -0.0398
 8889SOL     OW38125   3.101   3.292   8.617  0.0581  0.0263 -0.2586
 8889SOL    HW138126   3.108   3.199   8.598  1.3156 -0.1948  1.3218
 8889SOL    HW238127   3.044   3.285   8.694  0.2667  1.8898  0.0703
 8890SOL     OW38128   4.032   2.141   8.429  0.9368 -0.0198 -0.2439
 8890SOL    HW138129   3.991   2.223   8.401 -0.0747  0.3685  2.2823
 8890SOL    HW238130   4.033   2.094   8.346 -0.1861 -1.7051  0.6761
 8891SOL     OW38131   2.841   0.102  15.526 -0.3125  0.2595 -0.3990
 8891SOL    HW138132   2.804   0.063  15.447  1.1722 -0.5411 -0.6879
 8891SOL    HW238133   2.831   0.196  15.506  3.8524  0.8842  0.3320
 8892SOL     OW38134   4.617   1.078   4.497 -0.5728 -0.4752 -0.3620
 8892SOL    HW138135   4.671   1.089   4.418  0.6337 -0.1752  0.4994
 8892SOL    HW238136   4.676   1.095   4.571 -1.2993 -0.3869  0.1967
 8893SOL     OW38137   1.462   0.346  15.915  0.4754 -0.1384  0.0278
 8893SOL    HW138138   1.503   0.264  15.943 -0.6724  0.4855  3.6345
 8893SOL    HW238139   1.389   0.360  15.975  0.4115 -3.0677  0.6412
 8894SOL     OW38140   4.648   0.822   1.816 -0.6598 -0.2186  0.2495
 8894SOL    HW138141   4.711   0.799   1.747 -1.0359  0.0850 -0.1962
 8894SOL    HW238142   4.716   0.855   1.875 -0.0168 -1.4850  0.2019
 8895SOL     OW38143   3.947   2.762   0.712  0.1123  0.0590 -0.3371
 8895SOL    HW138144   3.905   2.682   0.683  1.1306 -0.5763 -0.0467
 8895SOL    HW238145   3.873   2.808   0.752  0.9208  1.5653 -0.5678
 8896SOL     OW38146   0.868   2.737   3.010 -0.5089  0.3947 -0.1917
 8896SOL    HW138147   0.791   2.703   3.054 -0.8959  0.7874 -0.5642
 8896SOL    HW238148   0.845   2.828   2.990  3.0338  1.3143 -0.1430
 8897SOL     OW38149   4.177   2.306  10.446 -0.1836 -0.1876 -0.1388
 8897SOL    HW138150   4.166   2.309  10.541  1.6373  2.7555 -0.0290
 8897SOL    HW238151   4.205   2.215  10.432  0.8523  0.1035  0.0349
 8898SOL     OW38152   4.010   3.760   4.271  0.0185  0.0433 -0.3006
 8898SOL    HW138153   4.024   3.825   4.340 -1.5356  1.4152 -1.2728
 8898SOL    HW238154   4.087   3.705   4.286  2.4734  2.9290 -2.4368
 8899SOL     OW38155   1.428   0.917   4.418  0.1738 -0.1590 -0.5211
 8899SOL    HW138156   1.473   0.851   4.365  0.0713 -0.3238 -0.4010
 8899SOL    HW238157   1.473   0.924   4.502 -0.6622 -0.3171 -0.0556
 8900SOL     OW38158   4.641   3.312   8.114 -0.2382 -0.2571 -0.4305
 8900SOL    HW138159   4.573   3.314   8.182 -0.8383 -0.6017 -1.0131
 8900SOL    HW238160   4.714   3.357   8.155 -0.4982  0.8004 -1.1367
 8901SOL     OW38161   2.312   1.620   9.215 -0.4106 -0.1535  0.2060
 8901SOL    HW138162   2.322   1.608   9.310 -2.0665  1.6232  0.6068
 8901SOL    HW238163   2.379   1.685   9.195 -2.0258  1.0658 -1.3168
 8902SOL     OW38164   1.578   1.693  16.822 -0.0934 -0.1405  0.4720
 8902SOL    HW138165   1.621   1.732  16.898  1.4557  1.0280 -1.0281
 8902SOL    HW238166   1.606   1.603  16.842 -0.8317 -0.4676  0.0514
 8903SOL     OW38167   2.333   3.196   8.029  0.0714 -0.4361  0.6912
 8903SOL    HW138168   2.282   3.118   8.005 -0.0723  0.0538 -0.6347
 8903SOL    HW238169   2.389   3.165   8.100 -0.1676  0.0054  1.0726
 8904SOL     OW38170   4.634   2.590   2.875  0.7288 -0.2955  0.6153
 8904SOL    HW138171   4.692   2.632   2.939 -0.6310  0.2746  1.4696
 8904SOL    HW238172   4.552   2.615   2.918  0.1543  1.1622 -1.3476
 8905SOL     OW38173   1.375   0.050   8.105  0.3308  0.1292  0.1118
 8905SOL    HW138174   1.351   0.051   8.197  4.3167 -0.5619  1.1647
 8905SOL    HW238175   1.415   0.137   8.098 -1.5055  0.8659 -1.2062
 8906SOL     OW38176   1.603   3.457   0.092 -0.2011  0.2658  0.4007
 8906SOL    HW138177   1.625   3.460   0.185  0.2367  0.5332  0.2911
 8906SOL    HW238178   1.625   3.550   0.080 -0.2469  0.1657 -0.4914
 8907SOL     OW38179   1.221   4.625   8.553 -0.4409  0.5009  0.0039
 8907SOL    HW138180   1.152   4.640   8.617  0.4480  1.0449  0.8533
 8907SOL    HW238181   1.278   4.568   8.605 -1.2108  0.3748  0.7097
 8908SOL     OW38182   2.051   0.951  10.144 -0.6453 -0.4045  0.0598
 8908SOL    HW138183   2.003   1.032  10.126 -1.1152 -0.2409  2.0715
 8908SOL    HW238184   2.128   0.968  10.089 -0.3902 -0.7543  0.3044
 8909SOL     OW38185   2.337   1.777  17.476  0.2461  0.3439  0.7251
 8909SOL    HW138186   2.256   1.761  17.427  0.8114 -0.7678  0.1602
 8909SOL    HW238187   2.318   1.738  17.561  0.3692 -1.9889 -0.3176
 8910SOL     OW38188   0.692   4.030   6.654 -0.2884 -0.3496 -0.1814
 8910SOL    HW138189   0.773   4.050   6.607 -0.0435 -1.0637 -0.0646
 8910SOL    HW238190   0.654   4.117   6.663  1.8799  0.5372  0.3018
 8911SOL     OW38191   2.936   1.526   4.450 -0.2205  0.1336  0.3037
 8911SOL    HW138192   3.005   1.538   4.515  0.8909 -1.5358 -0.5424
 8911SOL    HW238193   2.980   1.458   4.399 -0.2716  0.1209  0.2766
 8912SOL     OW38194   3.669   3.388   5.663 -0.2966  0.4106 -0.7771
 8912SOL    HW138195   3.583   3.409   5.628 -0.6576 -0.7766 -0.5896
 8912SOL    HW238196   3.707   3.476   5.658 -2.2625  1.2798 -0.5650
 8913SOL     OW38197   4.620   3.654  13.196 -0.5652  0.5836 -0.1425
 8913SOL    HW138198   4.531   3.658  13.160  0.0880 -1.1736 -1.9792
 8913SOL    HW238199   4.662   3.715  13.135  0.1739  0.5188  0.3048
 8914SOL     OW38200   0.594   1.090   9.822  0.1311 -0.6234 -0.4784
 8914SOL    HW138201   0.676   1.046   9.802  0.3352  0.1559 -1.3486
 8914SOL    HW238202   0.625   1.180   9.811  1.8337 -1.0214  1.0750
 8915SOL     OW38203   4.557   2.879   8.232  0.6042 -0.3874  0.2495
 8915SOL    HW138204   4.584   2.855   8.320  0.5414 -1.4568 -0.0309
 8915SOL    HW238205   4.593   2.968   8.229  2.1915 -1.0173  0.9768
 8916SOL     OW38206   0.314   3.689   2.284  0.2394  0.7203 -0.0801
 8916SOL    HW138207   0.239   3.631   2.296  0.6979 -0.0793 -1.0827
 8916SOL    HW238208   0.322   3.739   2.366 -0.3645  1.6043 -0.5611
 8917SOL     OW38209   3.855   1.782   8.821 -0.0909 -0.7704 -0.1192
 8917SOL    HW138210   3.766   1.747   8.818 -0.5024  0.2728  0.0859
 8917SOL    HW238211   3.861   1.836   8.743 -1.9234  0.9669  0.9547
 8918SOL     OW38212   1.670   0.352   8.081 -0.1104 -0.6322 -0.3461
 8918SOL    HW138213   1.583   0.368   8.117 -1.2636 -1.4497 -2.7942
 8918SOL    HW238214   1.673   0.257   8.080  1.0043 -0.5785 -2.1406
 8919SOL     OW38215   1.791   0.978   6.764 -0.1819  0.4717 -0.5087
 8919SOL    HW138216   1.842   0.991   6.684 -1.6636 -1.1264 -1.7514
 8919SOL    HW238217   1.850   1.004   6.834 -1.9740 -0.4086  1.3420
 8920SOL     OW38218   1.793   3.610  11.997  0.2147  0.2250 -0.1111
 8920SOL    HW138219   1.778   3.588  11.905  1.1413 -0.1648 -0.1774
 8920SOL    HW238220   1.792   3.522  12.033  0.7605  0.6264  0.9047
 8921SOL     OW38221   4.592   1.520   9.555 -0.4663 -0.1960  0.4582
 8921SOL    HW138222   4.527   1.590   9.553  0.3664  0.6042  1.6585
 8921SOL    HW238223   4.627   1.522   9.644  0.0339  1.9215  0.2117
 8922SOL     OW38224   0.715   4.616   7.200 -0.6305  0.0695 -0.7525
 8922SOL    HW138225   0.716   4.611   7.295 -2.3636 -2.5354 -0.8733
 8922SOL    HW238226   0.766   4.694   7.178  1.8169 -1.5994 -0.9211
 8923SOL     OW38227   0.253   0.703  16.096  0.9614 -0.8435  0.3045
 8923SOL    HW138228   0.331   0.728  16.046  2.2488  0.0704  2.8085
 8923SOL    HW238229   0.253   0.608  16.081 -0.9754 -1.0243  1.5300
 8924SOL     OW38230   3.165   3.635   0.488 -0.7597 -1.0283  0.1754
 8924SOL    HW138231   3.143   3.727   0.472  1.1514 -1.0463 -2.5180
 8924SOL    HW238232   3.080   3.595   0.502 -0.6382 -0.7036  1.8560
 8925SOL     OW38233   0.781   3.242   9.029 -0.1609 -0.0844  0.2511
 8925SOL    HW138234   0.774   3.238   8.934 -1.7412  1.0781  0.3167
 8925SOL    HW238235   0.822   3.327   9.044 -0.8026  0.3970 -0.7535
 8926SOL     OW38236   3.471   1.989   3.002  0.2462 -0.2129 -0.1118
 8926SOL    HW138237   3.490   2.071   3.047  0.2851 -0.5199  0.4251
 8926SOL    HW238238   3.448   1.929   3.072 -1.0424 -1.5608 -1.6974
 8927SOL     OW38239   2.851   4.083   2.745 -0.4248  0.2458  0.0578
 8927SOL    HW138240   2.793   4.105   2.818  1.5169 -0.3584  1.7871
 8927SOL    HW238241   2.931   4.075   2.797 -1.8159 -0.5873  2.0841
 8928SOL     OW38242   2.566   1.268   6.869 -0.3711  0.3062  0.3153
 8928SOL    HW138243   2.546   1.323   6.793  0.9756  0.0978 -0.1954
 8928SOL    HW238244   2.534   1.179   6.852  0.3990  0.3955 -1.6895
 8929SOL     OW38245   2.092   0.965   6.372 -0.2251 -0.1015 -0.0273
 8929SOL    HW138246   2.113   0.876   6.346  0.4973  0.4891 -1.4919
 8929SOL    HW238247   2.160   0.981   6.438 -0.9582 -0.2734  0.7619
 8930SOL     OW38248   2.367   0.258   3.346  0.9405  0.1502 -0.3977
 8930SOL    HW138249   2.423   0.236   3.271  1.2215 -0.9383  0.1429
 8930SOL    HW238250   2.282   0.248   3.302  0.3154  0.1721  0.8140
 8931SOL     OW38251   3.404   0.348   6.412  0.2622  0.3562  0.2014
 8931SOL    HW138252   3.423   0.255   6.423  1.9759  0.6649 -0.2295
 8931SOL    HW238253   3.314   0.342   6.379  0.1224 -4.4460  1.4260
 8932SOL     OW38254   0.392   2.073   1.933 -0.0461  0.5382  0.8076
 8932SOL    HW138255   0.383   1.986   1.896  0.8245  0.0983  1.6304
 8932SOL    HW238256   0.459   2.101   1.871 -0.8931  0.8078 -0.0021
 8933SOL     OW38257   4.427   0.742   4.885  0.1747  0.0942  0.0055
 8933SOL    HW138258   4.410   0.722   4.977  3.0589 -0.0745  0.4979
 8933SOL    HW238259   4.366   0.676   4.851 -0.7375  0.8105  0.2849
 8934SOL     OW38260   2.739   2.449   5.156  0.4958  0.5503  0.1968
 8934SOL    HW138261   2.747   2.414   5.068 -0.3380 -0.8774  0.6837
 8934SOL    HW238262   2.707   2.536   5.135  0.0942  0.7927  1.8081
 8935SOL     OW38263   1.251   3.082   2.545 -0.3424  0.0634 -0.5723
 8935SOL    HW138264   1.164   3.041   2.553  0.5958 -2.5063 -3.7344
 8935SOL    HW238265   1.271   3.032   2.466 -0.7707 -1.5727  0.3499
 8936SOL     OW38266   2.614   2.903   6.442  0.1921  0.2348  0.1580
 8936SOL    HW138267   2.623   2.922   6.348 -1.1228 -0.4223 -0.0936
 8936SOL    HW238268   2.701   2.928   6.473  0.2684  0.0848  0.0644
 8937SOL     OW38269   0.771   4.117   3.617 -0.0995 -0.3752  0.1499
 8937SOL    HW138270   0.823   4.062   3.676  1.6341 -1.4008 -2.3228
 8937SOL    HW238271   0.836   4.177   3.582  0.7105 -1.3712 -0.0752
 8938SOL     OW38272   0.122   2.177   1.973  0.4683 -0.0494 -0.1678
 8938SOL    HW138273   0.217   2.177   1.962  0.3962 -0.9170 -0.7936
 8938SOL    HW238274   0.099   2.105   2.032  0.9226 -0.3308 -0.3397
 8939SOL     OW38275   0.976   0.313  13.753  0.3401 -0.3075 -0.5228
 8939SOL    HW138276   0.945   0.239  13.700  0.1995 -1.1027  0.6778
 8939SOL    HW238277   0.944   0.295  13.841  0.9345  2.1980  0.2077
 8940SOL     OW38278   4.313   4.507   3.051 -0.0845  0.7710  0.1639
 8940SOL    HW138279   4.316   4.417   3.084 -0.9745  1.4511  2.1030
 8940SOL    HW238280   4.307   4.480   2.959 -0.1131  0.0745  0.3645
 8941SOL     OW38281   1.228   0.168   7.444  0.1253  0.3881  0.7527
 8941SOL    HW138282   1.296   0.158   7.511 -1.2373  0.4326  2.1279
 8941SOL    HW238283   1.275   0.233   7.392 -1.2287 -0.1000 -1.0971
 8942SOL     OW38284   4.235   0.344  15.825  0.0870 -0.1596 -0.3867
 8942SOL    HW138285   4.204   0.340  15.734 -0.6092  2.2195 -0.2697
 8942SOL    HW238286   4.294   0.269  15.832 -0.2431 -0.2186  1.7399
 8943SOL     OW38287   2.022   0.912   5.658  0.1948  0.5218  0.1307
 8943SOL    HW138288   2.054   0.969   5.728  1.0844  0.8301 -0.5249
 8943SOL    HW238289   2.094   0.851   5.672  0.5157  0.9752  0.4570
 8944SOL     OW38290   4.237   2.566   3.704 -0.0421 -0.8514  0.3269
 8944SOL    HW138291   4.222   2.547   3.611  2.8572  2.6657 -0.8551
 8944SOL    HW238292   4.144   2.574   3.725 -0.0038 -0.6891  0.4404
 8945SOL     OW38293   2.908   4.429   6.632 -0.2491  0.2288 -0.1076
 8945SOL    HW138294   2.844   4.400   6.698 -0.3933  1.0514  0.1104
 8945SOL    HW238295   2.873   4.373   6.563 -0.1074  0.7885 -0.6337
 8946SOL     OW38296   1.547   4.359   1.381 -0.4618  0.1257  0.3406
 8946SOL    HW138297   1.476   4.339   1.320  0.2460 -0.0111 -0.4418
 8946SOL    HW238298   1.584   4.277   1.413 -2.6464 -0.2809  1.8184
 8947SOL     OW38299   0.660   1.616  10.982  0.5113  0.3117  0.2048
 8947SOL    HW138300   0.621   1.703  10.981 -0.2503 -0.0400 -0.9614
 8947SOL    HW238301   0.700   1.599  10.897 -0.0092 -1.0702  0.2286
 8948SOL     OW38302   4.649   2.028   4.285  0.2566 -0.0949 -0.6259
 8948SOL    HW138303   4.571   2.078   4.260 -0.5889 -0.2383  1.6912
 8948SOL    HW238304   4.641   2.039   4.380  0.3088 -0.4189 -0.5843
 8949SOL     OW38305   2.130   3.045   5.336 -0.2888  0.4334  0.6252
 8949SOL    HW138306   2.100   3.043   5.245 -4.0553  1.6714  1.8883
 8949SOL    HW238307   2.043   3.065   5.370 -1.1763 -0.7221 -0.9245
 8950SOL     OW38308   2.486   0.461  17.405 -0.4628 -0.5152 -0.3849
 8950SOL    HW138309   2.473   0.483  17.312  0.3591 -1.1661 -0.6535
 8950SOL    HW238310   2.578   0.434  17.406 -1.1125 -2.6501  1.1305
 8951SOL     OW38311   0.073   2.517  16.101 -0.0538 -0.5938  0.0121
 8951SOL    HW138312   0.131   2.527  16.026 -1.6956 -2.2160 -1.4830
 8951SOL    HW238313   0.057   2.611  16.114  3.0865 -0.0806  0.1393
 8952SOL     OW38314   4.179   2.267   7.513  0.1314 -0.4221  0.4945
 8952SOL    HW138315   4.127   2.199   7.470  0.0022 -0.5452  0.8438
 8952SOL    HW238316   4.207   2.328   7.445 -1.2594  0.9646  1.1683
 8953SOL     OW38317   3.020   4.326  15.469  0.0760 -0.0244 -0.6236
 8953SOL    HW138318   3.084   4.257  15.451  1.7540  0.7345  2.3858
 8953SOL    HW238319   3.003   4.304  15.560  4.2607 -1.2295 -0.1360
 8954SOL     OW38320   3.249   4.235   0.007  0.1111  0.2253  1.0682
 8954SOL    HW138321   3.195   4.259   0.082 -3.0323  1.3811 -1.5332
 8954SOL    HW238322   3.330   4.282   0.025  0.4998 -0.3614  0.8429
 8955SOL     OW38323   0.404   1.434   6.150  0.4497 -0.9350  0.0424
 8955SOL    HW138324   0.343   1.493   6.193 -0.8298 -1.7420 -0.6794
 8955SOL    HW238325   0.432   1.477   6.069 -1.0658  2.1198  1.1493
 8956SOL     OW38326   0.606   2.237   5.394  0.4172  0.2232  0.6472
 8956SOL    HW138327   0.574   2.313   5.442 -0.8864 -1.8528  3.0745
 8956SOL    HW238328   0.602   2.178   5.469  0.4879 -1.5586 -0.7549
 8957SOL     OW38329   3.415   2.596   0.544  0.1806 -0.1165  0.0455
 8957SOL    HW138330   3.456   2.521   0.500 -0.2626  1.0062 -2.2552
 8957SOL    HW238331   3.324   2.580   0.522 -0.3898  1.5161  1.1991
 8958SOL     OW38332   3.360   2.875   7.902 -0.2624  0.5538 -0.0764
 8958SOL    HW138333   3.389   2.928   7.976 -2.8932  1.1503  0.5173
 8958SOL    HW238334   3.284   2.925   7.873  1.2653  2.6342 -0.4812
 8959SOL     OW38335   0.881   1.083  14.837 -0.1885 -0.0049  0.5390
 8959SOL    HW138336   0.946   1.140  14.877 -0.3392  0.9458 -0.5997
 8959SOL    HW238337   0.843   1.129  14.763  0.8507 -0.0139  0.0086
 8960SOL     OW38338   0.042   1.041   4.197  0.3926  0.0772 -0.3905
 8960SOL    HW138339   4.671   1.055   4.207  0.5838  1.2004 -0.1994
 8960SOL    HW238340   0.024   0.972   4.133  0.1806 -0.4132  0.1966
 8961SOL     OW38341   2.969   3.412   0.897  0.1226 -0.2614  0.4375
 8961SOL    HW138342   2.996   3.431   0.987 -1.5454  1.3820  0.5995
 8961SOL    HW238343   2.891   3.359   0.916  0.9155 -0.8668  2.0136
 8962SOL     OW38344   0.006   0.688   1.128 -0.1759 -0.1006  0.7505
 8962SOL    HW138345   4.633   0.685   1.132 -0.1163 -1.5313  0.9627
 8962SOL    HW238346   0.032   0.683   1.220 -1.7455 -2.0473  1.0823
 8963SOL     OW38347   4.569   1.978   7.863  0.0378 -0.1299  0.5165
 8963SOL    HW138348   4.650   1.961   7.814  0.9417  2.8044  0.9603
 8963SOL    HW238349   4.535   2.061   7.829  0.0769 -0.7016 -0.9217
 8964SOL     OW38350   3.295   3.036  17.341  0.2301  0.0017 -0.6244
 8964SOL    HW138351   3.276   3.007  17.430 -0.8911 -0.7523 -1.1096
 8964SOL    HW238352   3.298   2.950  17.298 -1.2535 -0.1500 -0.4176
 8965SOL     OW38353   2.478   3.529   0.219  0.1137  0.1315 -0.4203
 8965SOL    HW138354   2.509   3.552   0.131  1.7508  2.9874  0.9119
 8965SOL    HW238355   2.560   3.489   0.248  0.5335  0.6945 -0.8326
 8966SOL     OW38356   2.252   0.913   2.229  0.0327  0.2686 -0.0860
 8966SOL    HW138357   2.338   0.895   2.192 -0.5787 -2.7255 -0.0965
 8966SOL    HW238358   2.275   0.980   2.293  1.7590 -1.2562  0.8909
 8967SOL     OW38359   1.900   3.059  13.500  0.3064  0.3161  0.4889
 8967SOL    HW138360   1.915   3.028  13.410 -2.1183  1.5365 -0.3241
 8967SOL    HW238361   1.935   2.983  13.546  0.4239  1.1912  1.8420
 8968SOL     OW38362   4.415   0.485  13.591 -0.1679 -0.5426 -0.4202
 8968SOL    HW138363   4.490   0.445  13.635  0.1568  1.7365  1.0541
 8968SOL    HW238364   4.389   0.418  13.527  3.3695 -0.2427 -2.1174
 8969SOL     OW38365   2.109   0.245   1.858  0.3934 -0.0207  0.4341
 8969SOL    HW138366   2.201   0.222   1.846  0.6085  1.9000 -1.6761
 8969SOL    HW238367   2.088   0.185   1.929 -0.6318 -2.1566 -1.6671
 8970SOL     OW38368   2.448   1.485   7.275  0.1069  0.2325  0.6498
 8970SOL    HW138369   2.449   1.392   7.251 -1.3587 -0.3997  3.0281
 8970SOL    HW238370   2.510   1.518   7.210  0.3477  3.0876  2.3595
 8971SOL     OW38371   4.014   1.941   3.944 -0.1446 -0.0685 -0.2581
 8971SOL    HW138372   4.076   1.871   3.923 -0.4846 -0.2709 -0.5950
 8971SOL    HW238373   3.962   1.951   3.864 -0.4941 -0.8255 -0.1200
 8972SOL     OW38374   3.270   3.656   5.374  0.5094  0.3886  0.1594
 8972SOL    HW138375   3.181   3.690   5.362 -0.2575 -2.5236 -2.2280
 8972SOL    HW238376   3.321   3.737   5.383  3.0634 -1.1141 -0.7479
 8973SOL     OW38377   1.531   0.771  10.523  0.0331  0.3266  0.7147
 8973SOL    HW138378   1.474   0.801  10.452 -0.7645 -0.9839  0.8025
 8973SOL    HW238379   1.578   0.698  10.482  1.3589  2.7832 -2.1774
 8974SOL     OW38380   2.940   0.669   7.595 -0.3353 -0.1098 -0.4423
 8974SOL    HW138381   2.926   0.690   7.687  0.5229  0.2399 -0.3930
 8974SOL    HW238382   2.973   0.580   7.606  1.1830  0.5569  0.3952
 8975SOL     OW38383   2.725   2.065   5.299  0.0749  0.3139  0.0347
 8975SOL    HW138384   2.682   2.073   5.384 -0.0959 -0.6424  0.0350
 8975SOL    HW238385   2.816   2.062   5.329 -0.4018  0.1957  1.4758
 8976SOL     OW38386   2.383   0.503   8.245  0.1258  0.3153 -0.4987
 8976SOL    HW138387   2.461   0.557   8.231  1.3968 -0.8082  2.1709
 8976SOL    HW238388   2.311   0.563   8.228 -0.6983 -1.0360 -1.7610
 8977SOL     OW38389   2.383   0.552  17.163  0.3388 -0.2828  0.7131
 8977SOL    HW138390   2.479   0.560  17.163  0.3536 -0.4252  3.0288
 8977SOL    HW238391   2.367   0.528  17.072  0.0534  1.5628  0.2785
 8978SOL     OW38392   0.489   1.572  12.388  0.2859  0.4171 -0.2000
 8978SOL    HW138393   0.522   1.601  12.473  1.5849 -1.8892  0.0753
 8978SOL    HW238394   0.506   1.478  12.394 -1.2963  0.1346  0.0209
 8979SOL     OW38395   3.198   1.558   4.569 -0.6213 -0.3591 -0.0481
 8979SOL    HW138396   3.171   1.598   4.652 -3.9291 -3.2034  0.2399
 8979SOL    HW238397   3.249   1.629   4.530 -2.0564  0.9810  0.5089
 8980SOL     OW38398   4.537   2.864  16.863 -0.0274  0.1681  0.0373
 8980SOL    HW138399   4.499   2.949  16.887  0.8091  0.3560  0.7101
 8980SOL    HW238400   4.622   2.867  16.907  0.4958 -3.5383 -0.7266
 8981SOL     OW38401   0.502   3.588  12.843  0.6780  0.3571 -0.0895
 8981SOL    HW138402   0.573   3.527  12.863 -0.1553 -0.3865  0.6220
 8981SOL    HW238403   0.529   3.616  12.756  2.2747  0.4571  0.4311
 8982SOL     OW38404   0.261   1.198   7.853  0.1420  0.2937 -0.7940
 8982SOL    HW138405   0.278   1.246   7.772  2.4159  3.9393  1.8154
 8982SOL    HW238406   0.229   1.112   7.825 -1.8155  1.2848 -1.6311
 8983SOL     OW38407   3.762   2.991   7.265  0.3498 -0.2824  0.2924
 8983SOL    HW138408   3.675   3.024   7.292 -0.6902  0.4244 -4.0140
 8983SOL    HW238409   3.726   2.943   7.191 -2.3038 -1.7053  2.4574
 8984SOL     OW38410   4.539   4.014  10.498  0.0756 -0.1167  0.3090
 8984SOL    HW138411   4.579   4.100  10.484  2.0708 -1.4483 -2.1705
 8984SOL    HW238412   4.519   3.992  10.407  2.2314 -1.8823  0.2563
 8985SOL     OW38413   2.986   4.592  11.126 -0.1817 -0.2119  0.1510
 8985SOL    HW138414   2.987   4.524  11.059 -1.2545 -0.4177  0.3473
 8985SOL    HW238415   2.960   4.667  11.073 -1.4271 -0.5102  0.3551
 8986SOL     OW38416   3.009   2.624   4.567  0.2976 -0.4243  0.4748
 8986SOL    HW138417   3.068   2.581   4.504 -1.0766 -0.8729 -0.5097
 8986SOL    HW238418   2.922   2.612   4.529  0.9380 -0.6182 -0.9350
 8987SOL     OW38419   1.301   3.711  14.440  0.3758 -0.4645  0.2767
 8987SOL    HW138420   1.271   3.652  14.510 -0.8490 -0.0823  0.0847
 8987SOL    HW238421   1.241   3.786  14.451 -0.5910 -1.1949 -0.0322
 8988SOL     OW38422   3.280   4.655   0.953  0.2461  0.1917  0.3048
 8988SOL    HW138423   3.330   4.576   0.934 -0.0631  0.2315 -0.6564
 8988SOL    HW238424   3.318   0.001   0.898 -0.9209 -0.5050 -1.3721
 8989SOL     OW38425   3.982   4.577  17.024 -0.0952 -0.4267 -0.1048
 8989SOL    HW138426   3.930   4.503  17.055  1.0008 -1.5253 -0.8901
 8989SOL    HW238427   4.031   4.597  17.104 -0.7059  0.5320  0.0219
 8990SOL     OW38428   1.731   2.474   2.094  0.6609  0.4652 -0.0157
 8990SOL    HW138429   1.824   2.489   2.108  0.7412  0.1439 -0.2014
 8990SOL    HW238430   1.723   2.476   1.999  0.6386 -0.1965 -0.0313
 8991SOL     OW38431   0.115   3.935   8.180 -0.3358  0.1433  0.3244
 8991SOL    HW138432   0.101   3.941   8.274 -0.9783  0.3826  0.2084
 8991SOL    HW238433   0.127   4.023   8.144 -2.3935  0.2061 -0.1955
 8992SOL     OW38434   4.307   1.778   1.854  0.2530  0.2764 -0.0591
 8992SOL    HW138435   4.222   1.767   1.811  0.7551  2.0368 -1.5231
 8992SOL    HW238436   4.356   1.766   1.773 -2.9563 -2.9629 -1.5295
 8993SOL     OW38437   4.635   0.040  12.417  0.2960  0.2691  0.4694
 8993SOL    HW138438   4.561   0.007  12.468 -0.5797  1.3712 -0.1087
 8993SOL    HW238439   4.633   0.131  12.446  1.8279  1.0226 -1.8031
 8994SOL     OW38440   0.426   2.494   3.545 -0.2992  0.2859  0.5457
 8994SOL    HW138441   0.494   2.442   3.586 -0.0912  1.7410  2.0561
 8994SOL    HW238442   0.354   2.457   3.596 -1.5111  0.1102 -1.3065
 8995SOL     OW38443   2.783   3.860  16.366 -0.2033 -0.1228 -0.3480
 8995SOL    HW138444   2.716   3.927  16.371 -0.8420 -0.8463  0.8233
 8995SOL    HW238445   2.751   3.794  16.304 -1.2523 -2.3686  2.5910
 8996SOL     OW38446   4.459   3.424   4.431  0.1662 -0.6609 -0.5355
 8996SOL    HW138447   4.438   3.365   4.358 -0.3863 -1.9403  0.6394
 8996SOL    HW238448   4.534   3.467   4.391 -0.2981  0.7240  0.1028
 8997SOL     OW38449   2.624   3.354  15.865 -0.2411 -0.2802 -0.3213
 8997SOL    HW138450   2.665   3.315  15.943 -0.2313 -0.5428 -0.4605
 8997SOL    HW238451   2.635   3.282  15.803 -3.6376 -0.5987 -0.5420
 8998SOL     OW38452   1.912   0.956   0.099 -0.1072  0.1450 -0.1044
 8998SOL    HW138453   1.996   0.995   0.123 -0.5375 -0.2595  2.0688
 8998SOL    HW238454   1.943   0.890   0.037  0.2906 -0.0058  0.2593
 8999SOL     OW38455   2.527   4.216   3.605  0.4300 -0.5516 -0.0452
 8999SOL    HW138456   2.483   4.259   3.678  0.7193 -1.2622  0.5559
 8999SOL    HW238457   2.495   4.272   3.534 -0.4591  0.5683  1.2575
 9000SOL     OW38458   4.630   4.626   3.995 -0.2745 -0.2569 -0.0428
 9000SOL    HW138459   4.631   4.719   4.016 -2.2828 -0.9023  2.8622
 9000SOL    HW238460   4.553   4.626   3.938 -0.8901  0.3430  0.7908
 9001SOL     OW38461   3.801   4.446   6.567  0.0206  0.3517  0.2558
 9001SOL    HW138462   3.850   4.443   6.485 -0.7980 -2.6640 -0.1225
 9001SOL    HW238463   3.783   4.538   6.587 -0.7250  0.6085 -1.6119
 9002SOL     OW38464   4.656   1.261   8.521  0.5216  0.9392 -0.0798
 9002SOL    HW138465   0.012   1.216   8.550  0.1279  0.3454  0.0854
 9002SOL    HW238466   4.677   1.353   8.541 -1.1924  1.5886 -1.2872
 9003SOL     OW38467   2.754   1.282  12.575 -0.3005  0.0983 -0.3389
 9003SOL    HW138468   2.664   1.314  12.564 -0.2591  0.0298 -0.9202
 9003SOL    HW238469   2.803   1.361  12.598  1.1620 -0.5380 -1.2334
 9004SOL     OW38470   0.954   2.042   8.448 -0.3062 -0.3548  0.3807
 9004SOL    HW138471   1.042   2.041   8.410 -0.6636  4.3850 -0.5907
 9004SOL    HW238472   0.921   1.956   8.422 -0.7492 -0.0064 -0.2103
 9005SOL     OW38473   2.386   2.589   8.285 -0.0560  0.0331  0.5813
 9005SOL    HW138474   2.344   2.674   8.275 -1.4225 -0.8015 -0.9380
 9005SOL    HW238475   2.361   2.540   8.207  1.5347 -0.6132  0.4770
 9006SOL     OW38476   2.839   0.241   4.381 -0.1690  0.0234  0.0953
 9006SOL    HW138477   2.927   0.278   4.381 -0.1748  0.0274 -1.6432
 9006SOL    HW238478   2.799   0.275   4.461 -1.1112 -0.9342  0.0231
 9007SOL     OW38479   0.069   1.464  16.146 -0.3029  0.4914 -0.0438
 9007SOL    HW138480   0.095   1.548  16.184  2.0549 -0.6956  0.9290
 9007SOL    HW238481   0.150   1.447  16.098  0.0078  0.1034  0.6295
 9008SOL     OW38482   0.744   1.786   1.132  0.2966 -0.2414  0.9038
 9008SOL    HW138483   0.734   1.693   1.152 -0.2235 -0.6874 -1.4809
 9008SOL    HW238484   0.840   1.787   1.126  0.2981  0.8923  1.0497
 9009SOL     OW38485   2.218   4.156  17.527 -0.6102 -0.5248 -0.0905
 9009SOL    HW138486   2.256   4.069  17.521  1.8327  0.3475  2.5213
 9009SOL    HW238487   2.272   4.194  17.597  0.2325 -1.1302 -0.4091
 9010SOL     OW38488   4.243   0.430   9.540  0.3162 -0.3048 -0.0437
 9010SOL    HW138489   4.166   0.453   9.489 -1.8976 -0.8487  3.0361
 9010SOL    HW238490   4.216   0.443   9.631  1.7233 -0.2989  0.3751
 9011SOL     OW38491   0.341   1.298   6.709 -0.4647 -0.9590 -0.3303
 9011SOL    HW138492   0.409   1.308   6.643 -0.0006  0.7903  0.4361
 9011SOL    HW238493   0.290   1.378   6.704 -0.2557 -0.9934 -2.6012
 9012SOL     OW38494   3.469   1.184   1.372 -0.1128  0.0421  0.2144
 9012SOL    HW138495   3.499   1.255   1.315 -1.3264  0.5469  0.1961
 9012SOL    HW238496   3.404   1.150   1.310 -1.2237  0.2862  1.2377
 9013SOL     OW38497   2.978   0.594   6.976  0.1150  0.1165 -0.1291
 9013SOL    HW138498   3.063   0.637   6.978  0.3986 -0.3890 -1.1726
 9013SOL    HW238499   3.005   0.511   7.016 -2.0163 -0.9473 -0.8857
 9014SOL     OW38500   2.137   0.994  15.461 -0.1296 -0.0517 -0.2281
 9014SOL    HW138501   2.149   1.039  15.378 -1.4783 -2.4430 -1.7023
 9014SOL    HW238502   2.082   0.919  15.437  1.7108 -0.7334 -2.2433
 9015SOL     OW38503   4.400   4.395   0.571 -0.3673  0.3721 -0.5181
 9015SOL    HW138504   4.309   4.381   0.594  0.3021 -0.5602  1.5438
 9015SOL    HW238505   4.446   4.404   0.655 -0.7347  0.9042 -0.3759
 9016SOL     OW38506   1.058   0.941  11.196  0.1546 -0.2422  0.6365
 9016SOL    HW138507   0.992   0.963  11.262  1.5687  2.1245  1.2877
 9016SOL    HW238508   1.025   0.862  11.153 -0.0986  0.4972 -0.5283
 9017SOL     OW38509   2.842   3.484   2.287 -0.2666  0.1366 -0.1780
 9017SOL    HW138510   2.748   3.475   2.297 -0.0777 -1.0101  0.5857
 9017SOL    HW238511   2.861   3.405   2.235 -0.5749 -0.1398  0.1322
 9018SOL     OW38512   3.279   3.713   0.739 -0.1804  0.1709  0.1699
 9018SOL    HW138513   3.266   3.683   0.649  3.8778 -0.1370 -0.2958
 9018SOL    HW238514   3.258   3.639   0.797  0.7666 -2.7717 -3.2550
 9019SOL     OW38515   0.510   0.446   2.921 -0.3075  0.4879 -0.2982
 9019SOL    HW138516   0.599   0.482   2.926  0.3389 -0.8967 -1.6183
 9019SOL    HW238517   0.529   0.352   2.921 -0.8548  0.3697 -2.0342
 9020SOL     OW38518   1.170   1.160  12.093  0.5834 -0.2781 -0.5220
 9020SOL    HW138519   1.209   1.092  12.148  0.7625  0.0053 -0.2930
 9020SOL    HW238520   1.161   1.104  12.016 -0.5955  0.5934 -1.0135
 9021SOL     OW38521   2.060   1.456   6.223 -0.7068  0.6942  0.5401
 9021SOL    HW138522   2.137   1.429   6.273  0.3297  2.4662 -0.0886
 9021SOL    HW238523   2.101   1.435   6.139 -1.6453  0.6600  0.0860
 9022SOL     OW38524   3.684   0.592  10.147 -0.0679  0.1426 -0.6068
 9022SOL    HW138525   3.657   0.683  10.155  1.5331  0.5819 -0.0597
 9022SOL    HW238526   3.732   0.596  10.064  1.9569 -0.0479  0.5334
 9023SOL     OW38527   2.595   1.147   2.175 -0.3052 -0.3387 -0.1758
 9023SOL    HW138528   2.680   1.186   2.194 -0.3912 -0.0107 -0.4697
 9023SOL    HW238529   2.572   1.184   2.090  0.6398 -0.1059 -0.3306
 9024SOL     OW38530   1.143   3.290  14.607  0.2865 -0.4290  0.0911
 9024SOL    HW138531   1.187   3.364  14.650 -0.4443 -0.2155  0.4727
 9024SOL    HW238532   1.057   3.328  14.589 -0.6116 -2.4475  0.0943
 9025SOL     OW38533   3.912   2.594   7.827 -0.6026  0.2548 -0.1882
 9025SOL    HW138534   3.843   2.626   7.769  0.9888  2.5900 -0.7788
 9025SOL    HW238535   3.984   2.610   7.766  1.7025  0.1291  2.4831
 9026SOL     OW38536   2.466   1.501  14.390  0.1890 -0.5469 -0.1169
 9026SOL    HW138537   2.500   1.562  14.324 -1.1909  0.2904 -0.0348
 9026SOL    HW238538   2.393   1.469  14.338 -0.4792 -1.2167  1.2474
 9027SOL     OW38539   0.315   2.898   0.964 -0.0488  0.8265  0.1991
 9027SOL    HW138540   0.322   2.808   0.995 -1.9093  0.6550  0.1436
 9027SOL    HW238541   0.252   2.935   1.026 -1.4059  0.8908 -1.1854
 9028SOL     OW38542   4.008   2.345  14.154  0.1309 -0.4131  0.1827
 9028SOL    HW138543   4.025   2.375  14.065 -0.4987 -2.9471 -0.7947
 9028SOL    HW238544   4.030   2.423  14.205  1.2239 -0.8072  0.3373
 9029SOL     OW38545   1.915   1.178   2.328 -0.1614  0.1611 -0.1449
 9029SOL    HW138546   1.820   1.177   2.313  0.0891  0.3294 -1.7383
 9029SOL    HW238547   1.934   1.086   2.347  0.1666  0.6437  1.9096
 9030SOL     OW38548   3.458   2.245   8.705 -0.2951 -0.7330  0.6071
 9030SOL    HW138549   3.553   2.236   8.698 -0.4098 -4.0218  3.5478
 9030SOL    HW238550   3.428   2.164   8.747  0.4154 -2.8238 -2.8863
 9031SOL     OW38551   2.064   3.551   6.227  0.1366 -0.6110  0.0580
 9031SOL    HW138552   2.025   3.551   6.140 -0.3942 -1.2749  0.2933
 9031SOL    HW238553   2.131   3.611   6.196  0.8380 -0.0542  2.6356
 9032SOL     OW38554   3.471   3.172   6.546 -0.4095 -0.1288 -0.1688
 9032SOL    HW138555   3.455   3.156   6.639 -0.8069  2.4449  0.2195
 9032SOL    HW238556   3.383   3.202   6.522 -1.0471 -2.3080 -0.6086
 9033SOL     OW38557   4.334   3.595   4.961 -0.2027  0.2818 -0.2729
 9033SOL    HW138558   4.394   3.548   4.903 -0.5095 -1.1791  0.6105
 9033SOL    HW238559   4.385   3.616   5.040  2.1705  0.9835 -2.0023
 9034SOL     OW38560   0.645   1.424   8.056  0.0802  0.3206  0.0552
 9034SOL    HW138561   0.615   1.509   8.023 -0.2895 -0.3663 -1.3947
 9034SOL    HW238562   0.561   1.383   8.077 -0.9705  1.8539 -1.1201
 9035SOL     OW38563   1.948   4.134  13.035  0.2685 -0.3724  0.6997
 9035SOL    HW138564   1.939   4.070  12.964  1.4023 -1.2396  1.3388
 9035SOL    HW238565   2.028   4.103  13.078  0.3475 -1.0402  0.0828
 9036SOL     OW38566   0.977   0.604  17.050 -0.2830  0.7794 -0.6045
 9036SOL    HW138567   1.033   0.640  17.120 -0.8383  0.6968 -0.1162
 9036SOL    HW238568   0.944   0.520  17.083 -0.5269  0.6447 -1.1972
 9037SOL     OW38569   1.101   4.574  13.184 -0.7943 -0.5150  0.2125
 9037SOL    HW138570   1.177   4.583  13.241  1.2012 -0.4308 -2.5154
 9037SOL    HW238571   1.047   4.649  13.208  0.0437  0.4409 -0.8988
 9038SOL     OW38572   3.615   4.358   3.792  0.5093 -0.1467 -0.0310
 9038SOL    HW138573   3.615   4.284   3.853  1.7848 -1.5216 -1.7243
 9038SOL    HW238574   3.663   4.422   3.845  2.1034 -1.4901  0.1070
 9039SOL     OW38575   4.121   2.994  16.169  0.7153 -0.4764  0.7540
 9039SOL    HW138576   4.052   2.964  16.228  2.0667 -2.5406  1.2745
 9039SOL    HW238577   4.106   2.923  16.106  0.8836  0.5116 -0.4027
 9040SOL     OW38578   3.666   0.609  17.589 -0.3056  0.5282  0.2978
 9040SOL    HW138579   3.690   0.541  17.652  0.1277  1.0721  0.7176
 9040SOL    HW238580   3.614   0.565  17.521 -1.9665  0.5906  1.5159
 9041SOL     OW38581   3.822   2.361   2.991  0.2655  0.4234  0.9205
 9041SOL    HW138582   3.910   2.363   3.029 -0.4136  2.1408  2.3892
 9041SOL    HW238583   3.771   2.319   3.061 -1.2348 -1.5128 -1.3115
 9042SOL     OW38584   4.385   2.137   4.847 -0.2034 -0.1245  0.6494
 9042SOL    HW138585   4.396   2.230   4.869  0.2017  0.0145 -0.1770
 9042SOL    HW238586   4.295   2.118   4.819 -0.0167  2.8524 -1.9389
 9043SOL     OW38587   0.475   1.660  11.346 -0.2228 -0.0676 -1.0361
 9043SOL    HW138588   0.380   1.649  11.340 -0.3329  0.7428 -0.8027
 9043SOL    HW238589   0.486   1.753  11.366  0.8513 -0.0595 -1.6569
 9044SOL     OW38590   1.093   1.311   7.569  0.3436  0.1190  0.1471
 9044SOL    HW138591   1.114   1.360   7.649 -0.9998  0.4652  0.2806
 9044SOL    HW238592   1.019   1.257   7.595 -0.5479  1.9536  1.4573
 9045SOL     OW38593   1.947   0.752   3.584  0.4099 -0.3256 -0.4079
 9045SOL    HW138594   1.904   0.824   3.538 -0.3501 -1.0097 -0.7615
 9045SOL    HW238595   1.917   0.665   3.558 -0.6509 -0.1105  0.1223
 9046SOL     OW38596   0.798   2.641  11.244  0.0082  0.4293  0.1559
 9046SOL    HW138597   0.748   2.569  11.281 -0.3543  0.0441 -1.0834
 9046SOL    HW238598   0.881   2.636  11.290  0.4484  0.8283 -0.5911
 9047SOL     OW38599   4.530   2.602   6.185  0.7231 -0.2299  0.3038
 9047SOL    HW138600   4.475   2.542   6.134 -2.1759  1.6257  1.2039
 9047SOL    HW238601   4.613   2.555   6.191  1.5311  0.9259 -1.5935
 9048SOL     OW38602   4.651   1.911   7.126  0.2239 -0.1504 -0.0007
 9048SOL    HW138603   4.562   1.878   7.142 -0.2370  0.6650 -0.8614
 9048SOL    HW238604   4.676   1.834   7.075 -2.0103  0.3287 -1.8816
 9049SOL     OW38605   2.311   4.244   2.722 -0.1956  0.0154  0.3676
 9049SOL    HW138606   2.274   4.176   2.666 -0.3616  0.4410 -0.0385
 9049SOL    HW238607   2.268   4.314   2.674  1.2919  0.4718 -0.2855
 9050SOL     OW38608   4.082   1.562   0.265  0.8459  0.7756 -0.0055
 9050SOL    HW138609   4.009   1.504   0.243 -0.1647  2.3794 -0.8409
 9050SOL    HW238610   4.108   1.605   0.184 -0.7090 -1.0841 -1.4836
 9051SOL     OW38611   3.078   1.715  10.775 -0.0788  0.1761  0.4982
 9051SOL    HW138612   3.052   1.628  10.743 -0.0597  0.0126  0.9335
 9051SOL    HW238613   3.170   1.695  10.791 -0.2067  0.8774  2.0636
 9052SOL     OW38614   3.891   0.347  17.444  0.8644  0.5170 -0.3508
 9052SOL    HW138615   3.864   0.255  17.447  0.7716  0.5624  0.1471
 9052SOL    HW238616   3.981   0.337  17.411  1.3056  1.0551  0.6690
 9053SOL     OW38617   0.313   3.639   7.832  0.1696  0.0566 -0.2180
 9053SOL    HW138618   0.359   3.559   7.804 -0.8461 -0.5529 -0.1605
 9053SOL    HW238619   0.378   3.707   7.813 -0.0201  0.5213  0.8226
 9054SOL     OW38620   1.045   1.263   3.893 -0.7262 -0.1031  0.3538
 9054SOL    HW138621   1.140   1.278   3.894 -1.1051  2.1913  1.2218
 9054SOL    HW238622   1.041   1.168   3.907  3.2847 -0.6107 -1.8272
 9055SOL     OW38623   4.425   2.868  16.144 -0.1683 -0.2224  0.1690
 9055SOL    HW138624   4.463   2.798  16.198  0.1579  0.1626  0.4381
 9055SOL    HW238625   4.464   2.855  16.058  0.7747 -2.0565  0.8660
 9056SOL     OW38626   0.211   3.497   9.605  0.2004 -0.0685  0.3895
 9056SOL    HW138627   0.201   3.481   9.699  0.2641  0.3868  0.4767
 9056SOL    HW238628   0.274   3.568   9.619  0.7621 -0.7289  1.1925
 9057SOL     OW38629   0.876   2.868  13.310  0.3621  0.6919 -0.2012
 9057SOL    HW138630   0.971   2.869  13.326  0.4678 -0.3493 -0.7502
 9057SOL    HW238631   0.882   2.916  13.227 -2.7177 -0.3720 -1.0145
 9058SOL     OW38632   1.445   4.565   7.731 -0.2756 -1.1006 -0.4592
 9058SOL    HW138633   1.398   4.483   7.714 -0.0005 -1.5764  1.0455
 9058SOL    HW238634   1.524   4.552   7.679 -0.1054  0.9876 -0.7430
 9059SOL     OW38635   0.816   3.258   6.622  0.1196  0.5342  0.3159
 9059SOL    HW138636   0.880   3.322   6.590 -0.2984  0.8109  0.0326
 9059SOL    HW238637   0.811   3.190   6.556 -1.2686 -0.7434  1.7149
 9060SOL     OW38638   1.516   3.900  16.469  0.1278 -0.1252  0.1619
 9060SOL    HW138639   1.513   3.829  16.405 -1.2580  0.5947 -0.5800
 9060SOL    HW238640   1.562   3.861  16.544  0.4797  1.7769  0.9455
 9061SOL     OW38641   0.385   1.852   3.982 -0.3365 -0.0413 -0.4331
 9061SOL    HW138642   0.438   1.894   4.049 -0.8269 -0.6643  0.3517
 9061SOL    HW238643   0.356   1.776   4.032  1.8860 -1.6858 -1.6545
 9062SOL     OW38644   1.609   4.207  15.134  0.0392  0.0762 -0.0478
 9062SOL    HW138645   1.599   4.130  15.189 -0.1555 -1.9602 -2.9039
 9062SOL    HW238646   1.612   4.171  15.045  0.6644 -1.7874  0.7273
 9063SOL     OW38647   1.065   2.264  16.101 -0.0249 -0.0840  0.1395
 9063SOL    HW138648   1.106   2.243  16.017  2.5084  1.2977  1.0415
 9063SOL    HW238649   1.002   2.194  16.119  0.3085  0.4338  3.3271
 9064SOL     OW38650   2.841   2.118   6.339  0.3490 -0.0146 -0.3435
 9064SOL    HW138651   2.936   2.111   6.330  0.2402 -0.3439 -1.2627
 9064SOL    HW238652   2.833   2.181   6.411  0.8122  0.9855 -1.1707
 9065SOL     OW38653   3.992   4.081   0.035  0.0060  0.1581 -0.1306
 9065SOL    HW138654   4.065   4.133   0.002 -1.7873  2.8478  0.1614
 9065SOL    HW238655   3.988   4.105   0.128  1.8501 -1.2028  0.2990
 9066SOL     OW38656   0.096   3.028   5.344 -0.1384  0.0123 -0.0235
 9066SOL    HW138657   0.125   3.120   5.339 -3.4828  1.1811  1.8013
 9066SOL    HW238658   0.147   2.987   5.275 -1.1584 -0.7346 -0.3323
 9067SOL     OW38659   2.612   4.568   5.224 -0.0061  0.1428 -0.5884
 9067SOL    HW138660   2.571   4.489   5.260  0.8481 -1.1825 -2.5031
 9067SOL    HW238661   2.662   4.595   5.301 -1.3972 -1.6943  0.9747
 9068SOL     OW38662   0.688   1.785   6.089 -0.1971  0.7468  0.6982
 9068SOL    HW138663   0.657   1.856   6.145  2.2705  3.4340 -1.3121
 9068SOL    HW238664   0.755   1.748   6.147  0.8159 -1.6157 -2.0221
 9069SOL     OW38665   3.395   4.338   1.130  0.1941  0.4290 -0.2235
 9069SOL    HW138666   3.374   4.275   1.061 -0.4617  0.8530 -0.4097
 9069SOL    HW238667   3.469   4.384   1.089  1.6169 -1.2760  0.4352
 9070SOL     OW38668   4.154   1.091   6.816 -0.5474  0.5230  0.2298
 9070SOL    HW138669   4.209   1.063   6.743 -2.2728  1.9296 -1.5943
 9070SOL    HW238670   4.144   1.185   6.801  3.1424  0.8272 -0.3931
 9071SOL     OW38671   4.688   3.558   5.086  0.5929  0.1427  0.0127
 9071SOL    HW138672   4.601   3.539   5.121  0.0078  0.4662 -1.2554
 9071SOL    HW238673   0.019   3.479   5.092 -0.7745 -0.6560  1.8756
 9072SOL     OW38674   4.513   1.730   4.081 -0.4818 -0.1425  0.5466
 9072SOL    HW138675   4.532   1.810   4.032 -0.3170 -1.7224 -2.0047
 9072SOL    HW238676   4.521   1.662   4.014  3.4819  0.9019 -0.0653
 9073SOL     OW38677   0.777   0.321   7.744  0.4869  0.5507  0.2942
 9073SOL    HW138678   0.742   0.349   7.660 -0.3064  0.9575  0.7652
 9073SOL    HW238679   0.862   0.289   7.714 -0.2369 -0.3721 -0.7513
 9074SOL     OW38680   1.634   2.621  17.153 -0.2114  0.6278  0.6691
 9074SOL    HW138681   1.620   2.527  17.141  1.8226  0.5412 -1.1384
 9074SOL    HW238682   1.729   2.633  17.152 -0.1548 -0.1880 -3.5726
 9075SOL     OW38683   0.145   3.588  17.634  0.1924 -1.2350 -0.3355
 9075SOL    HW138684   0.208   3.660  17.626 -0.8100 -0.1596  1.3737
 9075SOL    HW238685   0.185   3.515  17.682  1.3243 -1.0176 -0.9340
 9076SOL     OW38686   4.604   3.522   8.780 -0.2759 -0.0132 -0.2906
 9076SOL    HW138687   4.549   3.449   8.805  0.5670  0.3033  2.5311
 9076SOL    HW238688   4.655   3.551   8.856  1.2436  0.8709 -1.6286
 9077SOL     OW38689   2.470   1.793   8.416  0.2501  0.4161 -0.3258
 9077SOL    HW138690   2.452   1.703   8.388 -0.6031 -0.0632  1.7390
 9077SOL    HW238691   2.445   1.793   8.508 -1.3012 -1.0736 -0.7495
 9078SOL     OW38692   4.323   4.646   7.848 -0.5510  0.6583 -0.8116
 9078SOL    HW138693   4.302   4.553   7.853  0.0257  0.6880  1.8698
 9078SOL    HW238694   4.408   4.648   7.891 -1.9129  2.5855  1.7986
 9079SOL     OW38695   3.824   4.433  10.131 -0.0460 -0.4489  0.1481
 9079SOL    HW138696   3.817   4.493  10.057  3.0608 -0.1903  0.0396
 9079SOL    HW238697   3.803   4.348  10.093  0.2405 -1.0833  1.4050
 9080SOL     OW38698   1.737   3.696   3.499  0.5356  0.5411 -0.0596
 9080SOL    HW138699   1.731   3.600   3.501  0.1083  0.5184 -2.3166
 9080SOL    HW238700   1.747   3.722   3.591 -2.6671 -1.7421  0.9612
 9081SOL     OW38701   1.623   1.655   7.458  0.8701 -0.0975 -0.1331
 9081SOL    HW138702   1.570   1.733   7.442 -0.0897 -0.5809  0.6302
 9081SOL    HW238703   1.609   1.607   7.377  2.0390  1.2807 -1.1475
 9082SOL     OW38704   1.162   4.073   3.364  0.0177  0.2041 -0.0643
 9082SOL    HW138705   1.219   3.999   3.384 -0.4798 -0.2396 -0.3023
 9082SOL    HW238706   1.117   4.094   3.445 -0.2979 -0.1045 -0.1600
 9083SOL     OW38707   3.753   1.101   3.859 -0.0226 -0.2539 -0.3975
 9083SOL    HW138708   3.788   1.106   3.770  1.3667 -0.6168  0.1266
 9083SOL    HW238709   3.696   1.178   3.858 -0.7501 -0.7854 -0.1950
 9084SOL     OW38710   0.464   1.904   2.788 -0.4315 -0.1582  0.3385
 9084SOL    HW138711   0.520   1.942   2.856  0.8578 -2.2415  0.4690
 9084SOL    HW238712   0.406   1.978   2.773 -1.5007 -1.1600 -0.5042
 9085SOL     OW38713   3.593   1.312  12.327 -0.4122  0.1680  0.6757
 9085SOL    HW138714   3.595   1.320  12.422 -2.1682  0.3036  0.7036
 9085SOL    HW238715   3.687   1.325  12.311 -0.6492  0.7147 -0.3036
 9086SOL     OW38716   0.826   0.404   2.006 -0.0232 -1.0707  0.6639
 9086SOL    HW138717   0.870   0.486   1.982  0.6760 -1.6162  0.1029
 9086SOL    HW238718   0.738   0.434   2.031  1.1170 -0.6620  4.2490
 9087SOL     OW38719   1.522   1.887   6.038 -0.0293 -0.4878 -0.8881
 9087SOL    HW138720   1.488   1.843   6.116  0.1548 -1.4448 -1.3450
 9087SOL    HW238721   1.462   1.851   5.972  0.1364 -1.2736 -0.6045
 9088SOL     OW38722   4.002   0.933  12.248 -0.2423 -0.2482 -0.0454
 9088SOL    HW138723   3.972   0.914  12.336  1.5632  2.3360  1.1348
 9088SOL    HW238724   4.081   0.986  12.259  0.9805 -2.1138  0.2806
 9089SOL     OW38725   3.210   4.098  13.370  0.0516  0.2302  0.3619
 9089SOL    HW138726   3.235   4.033  13.436  0.4074  0.4954  0.4908
 9089SOL    HW238727   3.291   4.150  13.359 -1.4942  2.0919 -2.4065
 9090SOL     OW38728   2.992   0.810   5.023  0.3685 -0.2182 -0.2321
 9090SOL    HW138729   3.012   0.730   5.071 -0.5035  1.4209  2.8508
 9090SOL    HW238730   3.057   0.802   4.953  0.9303 -0.6549  0.3407
 9091SOL     OW38731   2.179   1.768  13.254 -0.0251  0.1329 -0.1026
 9091SOL    HW138732   2.275   1.766  13.246  0.0236 -0.3163  0.5784
 9091SOL    HW238733   2.161   1.684  13.297 -0.4156 -0.0375 -0.6037
 9092SOL     OW38734   0.775   2.003   3.564  0.8036  0.2450  0.0170
 9092SOL    HW138735   0.801   1.920   3.523  0.5814  0.4076 -0.4623
 9092SOL    HW238736   0.861   2.028   3.599  0.1536  1.2299  0.8974
 9093SOL     OW38737   3.890   1.315   1.414  0.1598 -0.3864 -0.3331
 9093SOL    HW138738   3.984   1.332   1.405  0.2071 -0.9176 -0.8544
 9093SOL    HW238739   3.865   1.296   1.324  0.1787 -2.8269  0.1743
 9094SOL     OW38740   3.379   3.211   7.685  0.3075  0.4479 -0.6354
 9094SOL    HW138741   3.421   3.127   7.666  0.2662  0.4957 -0.9268
 9094SOL    HW238742   3.413   3.274   7.622  3.0177  1.5033  1.8653
 9095SOL     OW38743   2.853   4.514  13.625 -0.3783 -0.1486 -0.0259
 9095SOL    HW138744   2.850   4.595  13.675  1.6061 -0.4393  0.5384
 9095SOL    HW238745   2.923   4.533  13.562  1.3246  0.4822  2.0749
 9096SOL     OW38746   4.131   2.895   4.046 -0.6366 -0.1031 -0.8798
 9096SOL    HW138747   4.083   2.912   4.127  2.1789  3.4097  0.0333
 9096SOL    HW238748   4.192   2.969   4.051  1.4794 -1.9708  0.9845
 9097SOL     OW38749   2.279   1.985   2.761  0.0410  0.1888 -0.0021
 9097SOL    HW138750   2.253   1.909   2.710  2.0036 -1.1176  0.9398
 9097SOL    HW238751   2.325   2.040   2.698  0.2560  1.1884  1.0101
 9098SOL     OW38752   2.383   1.967   6.961  0.2964  0.0944  0.0395
 9098SOL    HW138753   2.392   1.872   6.970  2.9263  0.1067 -2.6611
 9098SOL    HW238754   2.429   1.983   6.879 -1.3636  1.2220 -0.6761
 9099SOL     OW38755   4.162   0.355   3.487  0.0252  0.1452  0.6442
 9099SOL    HW138756   4.222   0.380   3.417  0.7176 -0.9896  0.8407
 9099SOL    HW238757   4.094   0.316   3.433  0.7407  1.0632 -0.9173
 9100SOL     OW38758   1.911   1.268   2.914 -0.2013 -0.5764 -0.1653
 9100SOL    HW138759   1.828   1.220   2.913  0.3188 -1.4614  0.1796
 9100SOL    HW238760   1.945   1.259   3.003  1.3173 -1.4678 -0.8397
 9101SOL     OW38761   4.216   0.677  16.209 -0.1582  0.3388  0.4425
 9101SOL    HW138762   4.257   0.712  16.130 -0.2414  0.4077  0.4306
 9101SOL    HW238763   4.148   0.745  16.213 -0.6569 -0.0045 -2.8057
 9102SOL     OW38764   4.330   0.582   7.170 -0.0875  0.1728 -0.3841
 9102SOL    HW138765   4.401   0.532   7.209  0.9395  2.6041  0.8303
 9102SOL    HW238766   4.304   0.513   7.110  2.8034  0.2062 -1.6526
 9103SOL     OW38767   1.454   3.099   5.059 -0.4361  0.8200 -0.1004
 9103SOL    HW138768   1.530   3.086   5.003  0.0158 -0.0351  0.7197
 9103SOL    HW238769   1.447   3.195   5.051 -0.9880  0.7255 -0.7359
 9104SOL     OW38770   1.660   3.630   4.407 -0.0852  0.0030  0.3508
 9104SOL    HW138771   1.593   3.686   4.447 -1.3708 -1.6397  0.4513
 9104SOL    HW238772   1.734   3.691   4.403  0.9945 -1.5217 -3.1431
 9105SOL     OW38773   4.432   1.276   6.897  0.1532  0.4741  0.5341
 9105SOL    HW138774   4.369   1.316   6.837 -0.4847 -0.9841  0.2259
 9105SOL    HW238775   4.403   1.310   6.981 -0.8824 -0.1599  0.4346
 9106SOL     OW38776   1.916   1.880  10.977  0.4590  0.3819 -0.1180
 9106SOL    HW138777   1.841   1.858  11.032  0.4333  1.0806  0.1186
 9106SOL    HW238778   1.881   1.868  10.888  0.8441 -1.0403 -0.0878
 9107SOL     OW38779   4.253   0.579  12.797 -0.4036 -0.1358  0.1504
 9107SOL    HW138780   4.194   0.653  12.808 -1.6315 -1.0378 -0.4216
 9107SOL    HW238781   4.213   0.533  12.723  2.0927  0.3722 -1.5264
 9108SOL     OW38782   3.780   3.809   7.595  0.1000 -0.5188  0.1506
 9108SOL    HW138783   3.871   3.839   7.591 -0.6293  1.9551  1.7511
 9108SOL    HW238784   3.740   3.837   7.513 -2.1816 -1.5861  0.9000
 9109SOL     OW38785   1.320   3.446  12.741 -0.3540 -0.1142  0.3276
 9109SOL    HW138786   1.378   3.512  12.701  1.7714 -0.1776  3.2591
 9109SOL    HW238787   1.385   3.412  12.803 -1.1234 -3.1574 -0.5480
 9110SOL     OW38788   2.104   3.474   0.595  0.3175  0.5946  0.1206
 9110SOL    HW138789   2.126   3.393   0.642  1.6523  0.5306 -0.6174
 9110SOL    HW238790   2.171   3.486   0.528 -0.3051 -1.0681 -0.7901
 9111SOL     OW38791   4.154   2.040   7.954  0.0290 -0.1280 -0.4037
 9111SOL    HW138792   4.122   1.961   7.909 -1.1345  0.7602 -1.1231
 9111SOL    HW238793   4.193   2.086   7.880  0.4856  0.3387  0.1267
 9112SOL     OW38794   3.560   3.554  14.567 -0.3196 -0.4164 -0.1750
 9112SOL    HW138795   3.525   3.478  14.615  0.7300  0.3850  1.8667
 9112SOL    HW238796   3.520   3.636  14.595  2.4468  1.2794 -1.2330
 9113SOL     OW38797   1.164   1.780   4.509  0.2778  0.5529 -0.0252
 9113SOL    HW138798   1.170   1.701   4.563 -0.4672 -0.6525 -1.7223
 9113SOL    HW238799   1.101   1.767   4.438 -0.8277 -1.3372  1.3163
 9114SOL     OW38800   0.705   4.529  12.917  0.1671 -0.1600 -0.0277
 9114SOL    HW138801   0.794   4.509  12.948 -0.2099 -2.2303 -0.2988
 9114SOL    HW238802   0.672   4.583  12.989 -2.1703 -0.6714 -0.7242
 9115SOL     OW38803   3.981   0.483   8.916  0.4660  0.1483 -0.3502
 9115SOL    HW138804   3.891   0.493   8.946  0.2408  0.7529 -1.2378
 9115SOL    HW238805   3.990   0.559   8.860 -0.8629  0.2487 -0.4295
 9116SOL     OW38806   3.907   0.390   6.520  0.0531  0.0229  0.3789
 9116SOL    HW138807   3.996   0.368   6.493  0.5662  1.0135  1.3032
 9116SOL    HW238808   3.917   0.482   6.496  0.6041  0.3520  1.9070
 9117SOL     OW38809   2.702   4.134   7.831 -0.6375 -0.1813 -0.1873
 9117SOL    HW138810   2.612   4.154   7.804  0.0285 -0.6205 -2.7437
 9117SOL    HW238811   2.723   4.208   7.888 -0.6675 -0.0691 -0.3188
 9118SOL     OW38812   2.071   1.947   9.040 -0.4510  0.3211 -0.4355
 9118SOL    HW138813   2.103   2.034   9.062 -4.0448  1.4360  0.5363
 9118SOL    HW238814   2.020   1.963   8.961 -0.5701 -1.6674 -0.7594
 9119SOL     OW38815   1.520   1.717   8.779  0.4385 -0.2161 -0.1011
 9119SOL    HW138816   1.612   1.731   8.803 -0.7999  2.0789  3.3685
 9119SOL    HW238817   1.493   1.722   8.871 -0.0482 -1.1326 -0.1855
 9120SOL     OW38818   3.583   2.580  10.163 -0.5362  0.2718  0.0080
 9120SOL    HW138819   3.670   2.616  10.146 -0.3495 -0.8958 -1.5214
 9120SOL    HW238820   3.614   2.490  10.176  0.9273  0.8591  0.5545
 9121SOL     OW38821   1.789   3.165   6.127  0.0498 -0.0860  0.4758
 9121SOL    HW138822   1.734   3.147   6.203 -2.9635  2.0622 -1.2426
 9121SOL    HW238823   1.876   3.171   6.167  0.7456 -1.6652 -0.7573
 9122SOL     OW38824   1.780   2.584   5.086  0.2236  0.4166  0.0734
 9122SOL    HW138825   1.849   2.535   5.131  1.4737 -0.3234 -2.7083
 9122SOL    HW238826   1.752   2.519   5.022 -0.8437  0.5783  0.3775
 9123SOL     OW38827   4.533   0.618   0.773  0.0327 -0.5400 -0.3741
 9123SOL    HW138828   4.492   0.612   0.687  0.1980 -3.1729 -0.2690
 9123SOL    HW238829   4.546   0.712   0.785 -1.6551 -0.1623 -1.4785
 9124SOL     OW38830   2.013   0.160   2.098  0.1424  0.1458  0.1762
 9124SOL    HW138831   1.920   0.181   2.101  0.0933 -0.0850  0.3330
 9124SOL    HW238832   2.012   0.065   2.110 -0.4085 -0.3380 -3.7482
 9125SOL     OW38833   4.414   0.008   5.398 -0.1088 -0.0015  0.2205
 9125SOL    HW138834   4.458   4.652   5.368  2.8182  1.4530  0.6913
 9125SOL    HW238835   4.486   0.068   5.420  0.0775 -0.4195  0.7398
 9126SOL     OW38836   2.273   3.527   3.466 -0.2355  0.1154 -0.0993
 9126SOL    HW138837   2.234   3.594   3.522  0.8677  0.8586 -0.2073
 9126SOL    HW238838   2.366   3.522   3.486 -0.7548 -0.5138  2.1880
 9127SOL     OW38839   4.098   1.629   2.780  0.1288 -0.3489 -0.0025
 9127SOL    HW138840   4.192   1.642   2.765 -0.0036  0.5919  0.0295
 9127SOL    HW238841   4.093   1.604   2.872  0.2460 -0.9379 -0.1520
 9128SOL     OW38842   3.205   0.421   5.919  0.2303 -0.7302  0.3503
 9128SOL    HW138843   3.184   0.493   5.859 -3.9515 -1.6244  0.7083
 9128SOL    HW238844   3.272   0.377   5.867  0.6976  1.7736 -1.2137
 9129SOL     OW38845   0.336   0.580   9.379 -0.0948 -0.0481  0.1311
 9129SOL    HW138846   0.386   0.659   9.396  3.7695 -2.1647 -1.3579
 9129SOL    HW238847   0.369   0.521   9.447  2.5455 -1.9165 -2.7205
 9130SOL     OW38848   2.232   3.978   8.667  0.3516 -0.0691  0.2465
 9130SOL    HW138849   2.137   3.977   8.672  0.4778 -0.2754  2.5744
 9130SOL    HW238850   2.235   4.027   8.749 -1.1291 -1.0193  0.8628
 9131SOL     OW38851   3.393   0.169   2.513  0.5566 -0.3333  0.0785
 9131SOL    HW138852   3.383   0.213   2.598 -1.0040  0.4087 -0.5021
 9131SOL    HW238853   3.464   0.227   2.486  1.2299 -2.1500 -2.0341
 9132SOL     OW38854   2.311   1.084   8.120 -0.9625  0.1445  0.2383
 9132SOL    HW138855   2.222   1.076   8.085  0.3293 -0.1460 -3.0228
 9132SOL    HW238856   2.313   1.024   8.194 -0.2171 -0.1671 -0.0345
 9133SOL     OW38857   4.692   0.194   6.100 -0.0464 -0.3891  0.1256
 9133SOL    HW138858   4.600   0.219   6.095  0.3424  0.9122 -0.4821
 9133SOL    HW238859   0.009   0.281   6.103  0.8308 -0.8585  2.0529
 9134SOL     OW38860   1.226   1.864   2.946 -0.7091  0.2845  0.2858
 9134SOL    HW138861   1.271   1.924   2.887  0.5504 -1.8722 -0.9498
 9134SOL    HW238862   1.251   1.786   2.896 -2.1941  0.5001 -0.8254
 9135SOL     OW38863   1.469   2.647   4.348 -0.3605 -0.1605 -0.2570
 9135SOL    HW138864   1.547   2.597   4.325  0.8607  1.0892  1.1185
 9135SOL    HW238865   1.485   2.718   4.286 -0.1961  0.1421  0.1285
 9136SOL     OW38866   1.385   2.432   3.489 -0.4741  0.2829 -0.0186
 9136SOL    HW138867   1.368   2.505   3.429  2.4234  0.1430 -1.0116
 9136SOL    HW238868   1.321   2.448   3.558 -0.7873  1.6726 -0.6280
 9137SOL     OW38869   2.643   3.674  16.225 -0.1651  0.3547 -0.2142
 9137SOL    HW138870   2.653   3.667  16.130 -0.5776 -0.4573 -0.1973
 9137SOL    HW238871   2.551   3.650  16.231  0.7543 -2.8618  0.9277
 9138SOL     OW38872   2.791   4.312  14.118  0.1756  0.5839 -0.2998
 9138SOL    HW138873   2.866   4.278  14.167 -0.4500 -1.0483 -0.4608
 9138SOL    HW238874   2.751   4.363  14.188 -3.0909 -3.1316  0.5311
 9139SOL     OW38875   3.902   0.746   0.045 -0.1782  0.7233  0.4578
 9139SOL    HW138876   3.943   0.662   0.025  0.8165  1.6069 -1.2070
 9139SOL    HW238877   3.868   0.769  17.652 -1.5245 -1.7769  0.3173
 9140SOL     OW38878   3.109   0.865   3.608  0.3774 -0.2356  0.2756
 9140SOL    HW138879   3.092   0.784   3.559  0.9997  0.9636 -1.8869
 9140SOL    HW238880   3.195   0.856   3.650  0.7553 -0.3362 -0.5113
 9141SOL     OW38881   0.336   2.777  16.216 -0.0461  0.6839 -0.5911
 9141SOL    HW138882   0.340   2.684  16.194 -1.5383  0.6854 -0.9058
 9141SOL    HW238883   0.358   2.777  16.309 -0.5047 -1.0038 -0.4828
 9142SOL     OW38884   4.684   0.067   9.842 -0.0333 -0.0611  0.0701
 9142SOL    HW138885   0.023   0.041   9.910  0.1154  1.6740  0.5871
 9142SOL    HW238886   4.639   0.138   9.887 -0.8333  0.7881 -2.0623
 9143SOL     OW38887   2.106   1.341  11.913 -0.0633 -0.2071 -0.4409
 9143SOL    HW138888   2.050   1.265  11.932  0.0740 -0.2540 -0.2228
 9143SOL    HW238889   2.084   1.406  11.980 -0.5557  0.3564 -1.1500
 9144SOL     OW38890   4.697   3.535  17.156  0.0936  0.4901  0.0517
 9144SOL    HW138891   4.705   3.497  17.068 -1.4021  2.6107 -1.0102
 9144SOL    HW238892   4.605   3.560  17.161 -0.0140 -0.5549  2.8756
 9145SOL     OW38893   2.771   3.302  14.368  0.6154  0.0809  0.0871
 9145SOL    HW138894   2.703   3.241  14.338 -0.3015  0.9537  0.3792
 9145SOL    HW238895   2.841   3.284  14.306 -1.9560 -0.4241 -2.6726
 9146SOL     OW38896   3.071   3.812   6.249  0.2639  0.8651  0.4663
 9146SOL    HW138897   3.074   3.813   6.345  0.7872  0.7806  0.4490
 9146SOL    HW238898   3.004   3.880   6.244 -1.1272 -0.6124 -1.3145
 9147SOL     OW38899   0.619   1.914   8.957  0.0970 -0.1667 -0.0943
 9147SOL    HW138900   0.621   1.823   8.987 -0.1931 -0.2888 -0.4452
 9147SOL    HW238901   0.533   1.919   8.914 -0.6084 -0.1115  1.3373
 9148SOL     OW38902   1.592   3.897  13.112 -0.2009 -0.2278 -0.2720
 9148SOL    HW138903   1.607   3.991  13.122 -1.5946  0.0662 -0.8730
 9148SOL    HW238904   1.632   3.867  13.193  0.9915 -0.6064 -0.9965
 9149SOL     OW38905   3.121   1.555  14.530 -0.0420 -0.2140  0.4316
 9149SOL    HW138906   3.153   1.618  14.464 -0.5097 -0.1888  0.2273
 9149SOL    HW238907   3.193   1.492  14.526  1.5051  1.5656 -0.3351
 9150SOL     OW38908   2.404   0.235   4.623 -0.0689 -0.0342  0.2261
 9150SOL    HW138909   2.346   0.169   4.586 -1.3374  0.8507  0.6266
 9150SOL    HW238910   2.346   0.310   4.638  0.2630  0.6477 -1.9150
 9151SOL     OW38911   2.284   2.586   4.147  0.4214 -0.0786 -0.2696
 9151SOL    HW138912   2.250   2.515   4.202  1.1675  1.0984  1.6771
 9151SOL    HW238913   2.376   2.562   4.140 -0.1115 -1.9218 -1.0330
 9152SOL     OW38914   3.808   3.123   4.294 -0.1161  0.1319  0.6171
 9152SOL    HW138915   3.793   3.088   4.206  3.8309  0.3449 -0.1371
 9152SOL    HW238916   3.900   3.100   4.308 -0.4453 -1.6687 -0.1231
 9153SOL     OW38917   0.665   3.217   7.511 -0.2701 -0.1370  0.8723
 9153SOL    HW138918   0.609   3.158   7.461 -0.4369 -0.0457  0.9485
 9153SOL    HW238919   0.710   3.253   7.434  2.0323 -2.1740  1.2937
 9154SOL     OW38920   3.769   1.486  13.268 -0.9509  0.3474 -0.3606
 9154SOL    HW138921   3.807   1.442  13.344  0.7530 -1.3734 -2.1843
 9154SOL    HW238922   3.673   1.488  13.272 -0.8845 -1.1266  2.3176
 9155SOL     OW38923   4.561   0.964   9.968  0.2553 -0.6258 -0.0938
 9155SOL    HW138924   4.609   1.040  10.001 -1.4299  0.4525 -0.0988
 9155SOL    HW238925   4.629   0.907   9.932 -1.8756 -2.7708 -0.6975
 9156SOL     OW38926   2.554   1.334  16.740 -0.3637  0.2721 -0.0403
 9156SOL    HW138927   2.641   1.297  16.723 -0.8920 -1.4325  0.9829
 9156SOL    HW238928   2.496   1.258  16.735  2.3330 -1.7505 -0.3546
 9157SOL     OW38929   4.341   0.689   5.828  0.5547  0.5617  0.0217
 9157SOL    HW138930   4.323   0.595   5.832  0.6350  0.5244 -0.4047
 9157SOL    HW238931   4.410   0.682   5.894 -0.0484  0.3175  0.6217
 9158SOL     OW38932   3.226   4.241  17.197  0.2456  0.0425 -0.9582
 9158SOL    HW138933   3.146   4.208  17.239  2.2922 -1.3092  1.8557
 9158SOL    HW238934   3.200   4.317  17.146  0.1730  0.8008  0.2169
 9159SOL     OW38935   0.492   4.501   6.127 -0.1110 -0.1395  0.2427
 9159SOL    HW138936   0.437   4.423   6.138 -2.9507  1.6553 -1.0216
 9159SOL    HW238937   0.431   4.561   6.170  0.8003  0.3942  0.7736
 9160SOL     OW38938   3.078   2.351   1.252 -0.0235 -0.9550 -0.1614
 9160SOL    HW138939   3.015   2.366   1.181 -0.5305  0.0617  0.5053
 9160SOL    HW238940   3.091   2.437   1.292 -1.6752  0.1573 -1.9986
 9161SOL     OW38941   1.472   1.592  12.514 -0.5130 -0.0611  0.2117
 9161SOL    HW138942   1.483   1.627  12.426 -0.5631 -3.5281 -1.1522
 9161SOL    HW238943   1.388   1.626  12.545 -1.3259 -0.3143 -1.7372
 9162SOL     OW38944   1.851   0.633   9.078  0.1808  0.0327  0.0838
 9162SOL    HW138945   1.786   0.590   9.133  0.4206 -1.2580 -0.6581
 9162SOL    HW238946   1.904   0.560   9.047  0.0430 -0.1176  0.2050
 9163SOL     OW38947   2.901   2.605  15.926 -0.2416 -0.1541  0.7041
 9163SOL    HW138948   2.977   2.586  15.981  0.0678 -2.9408 -0.7038
 9163SOL    HW238949   2.833   2.579  15.989  0.5055 -1.1848  1.0820
 9164SOL     OW38950   0.323   4.045   5.243 -0.6392  0.1313 -0.3131
 9164SOL    HW138951   0.333   4.118   5.182  1.8390 -1.2285 -1.5432
 9164SOL    HW238952   0.245   4.073   5.291 -0.1249  2.1438 -0.6586
 9165SOL     OW38953   0.757   3.333   5.596 -0.1965  0.1553 -0.0588
 9165SOL    HW138954   0.674   3.288   5.612 -0.2700  0.0402 -0.7699
 9165SOL    HW238955   0.818   3.264   5.621 -2.9092 -1.9481  0.7166
 9166SOL     OW38956   4.032   0.908   2.776  0.2071 -0.1468  0.0092
 9166SOL    HW138957   4.120   0.943   2.769  0.5193 -1.1976 -1.1834
 9166SOL    HW238958   4.022   0.873   2.688 -0.4081  0.7569 -0.2805
 9167SOL     OW38959   2.631   2.086   5.557  0.4920 -0.1248  0.1075
 9167SOL    HW138960   2.716   2.074   5.600  0.3385 -0.6839  0.2550
 9167SOL    HW238961   2.569   2.110   5.626  0.0320 -1.8884  0.3008
 9168SOL     OW38962   0.537   2.274   9.760 -0.6278 -0.1573 -0.1227
 9168SOL    HW138963   0.524   2.197   9.705  3.8486  0.0370 -1.4153
 9168SOL    HW238964   0.620   2.255   9.803 -1.0860  0.1482  0.9136
 9169SOL     OW38965   0.279   2.684   0.507 -0.1430 -0.0391  0.4408
 9169SOL    HW138966   0.238   2.745   0.569 -0.7981  1.0769 -1.0832
 9169SOL    HW238967   0.367   2.722   0.503  0.6065 -1.8047  0.2347
 9170SOL     OW38968   4.613   0.428   7.659  0.3434 -0.3449 -0.0979
 9170SOL    HW138969   4.660   0.505   7.627  0.5483 -1.4624 -2.4904
 9170SOL    HW238970   4.670   0.360   7.624  1.2499  0.8822 -0.9736
 9171SOL     OW38971   2.813   3.250   7.862  0.6375  0.2247  0.3717
 9171SOL    HW138972   2.813   3.162   7.898  2.9353  0.6049  1.3002
 9171SOL    HW238973   2.897   3.254   7.815  0.3149  0.2171 -0.2068
 9172SOL     OW38974   3.137   3.320   2.312  0.4951 -0.2264 -0.3605
 9172SOL    HW138975   3.163   3.243   2.262  0.1473 -1.1425  0.8640
 9172SOL    HW238976   3.228   3.350   2.314  0.8282 -1.2834  0.2914
 9173SOL     OW38977   3.511   4.524   4.176  0.6465 -0.6718  0.6979
 9173SOL    HW138978   3.510   4.605   4.227 -0.4409 -0.7444  0.7913
 9173SOL    HW238979   3.435   4.531   4.118  0.5358  1.8527  1.1663
 9174SOL     OW38980   2.354   3.147   4.105 -0.4695 -0.6729  0.4027
 9174SOL    HW138981   2.269   3.127   4.066  0.2839  0.1097 -1.6094
 9174SOL    HW238982   2.413   3.156   4.031 -1.1443 -0.6939 -0.1392
 9175SOL     OW38983   2.914   1.402   6.208 -0.9107  0.2775  0.1605
 9175SOL    HW138984   2.961   1.388   6.127 -0.3945  0.1865  0.4779
 9175SOL    HW238985   2.833   1.444   6.179 -0.0045  2.3737  0.6846
 9176SOL     OW38986   3.077   1.944  10.609  0.2761 -0.3757  0.1720
 9176SOL    HW138987   3.058   1.860  10.651  4.5715 -1.0585  0.8193
 9176SOL    HW238988   2.992   1.988  10.616 -0.4379 -1.4250 -2.2030
 9177SOL     OW38989   1.515   4.058   4.203 -0.2893 -0.1430  0.4610
 9177SOL    HW138990   1.556   3.973   4.186  1.8035  0.9344  0.1830
 9177SOL    HW238991   1.593   4.102   4.236  1.5430 -2.4522 -0.8007
 9178SOL     OW38992   0.913   2.147  14.097 -0.4482  0.1499  0.5284
 9178SOL    HW138993   0.904   2.241  14.110  2.9603  0.6440 -0.6140
 9178SOL    HW238994   0.870   2.136  14.011 -0.5884 -0.1527  0.6337
 9179SOL     OW38995   4.083   3.377  16.069 -0.0359 -0.0106 -0.0029
 9179SOL    HW138996   4.056   3.468  16.069 -1.4964 -0.4373 -1.4241
 9179SOL    HW238997   4.092   3.366  15.974  1.2940 -0.5371  0.1750
 9180SOL     OW38998   0.065   4.020  16.302  0.3118 -0.2193  0.1559
 9180SOL    HW138999   0.009   3.943  16.301 -0.4024  0.3052 -0.0898
 9180SOL    HW239000   0.035   4.063  16.382 -0.5523 -1.3676  0.4560
 9181SOL     OW39001   1.338   3.417  15.774  0.2294  0.0263 -0.2734
 9181SOL    HW139002   1.342   3.357  15.849 -3.7945 -2.5331 -2.1086
 9181SOL    HW239003   1.250   3.398  15.742  1.4277 -0.8726 -3.0529
 9182SOL     OW39004   4.188   2.407   8.552  0.4288 -0.2924  0.2433
 9182SOL    HW139005   4.105   2.365   8.527  0.6025 -0.5333  0.0667
 9182SOL    HW239006   4.166   2.487   8.599 -1.7636 -0.4018 -0.5608
 9183SOL     OW39007   0.072   3.866  10.792 -0.4158 -0.1943  0.3681
 9183SOL    HW139008   0.048   3.776  10.814  0.3857 -1.0566 -2.3305
 9183SOL    HW239009   4.706   3.902  10.783 -0.0308  1.5348  3.3807
 9184SOL     OW39010   3.410   1.776   6.780 -0.1380 -0.1345  0.1330
 9184SOL    HW139011   3.499   1.787   6.747 -0.4644  1.2328 -0.3014
 9184SOL    HW239012   3.356   1.845   6.740  1.1402  0.1847 -1.0742
 9185SOL     OW39013   0.334   2.809   6.965  0.9769 -0.3558  0.4094
 9185SOL    HW139014   0.401   2.742   6.979 -1.8113 -2.4353  3.6226
 9185SOL    HW239015   0.359   2.842   6.878  0.3349 -0.3407  0.2317
 9186SOL     OW39016   4.476   4.001  11.138 -0.0147 -0.1716  0.4700
 9186SOL    HW139017   4.557   3.969  11.096 -0.7992  0.2223 -1.3388
 9186SOL    HW239018   4.405   3.978  11.079 -0.2614  0.1809  0.6334
 9187SOL     OW39019   2.658   3.480  10.220  0.1090 -0.7110 -0.4413
 9187SOL    HW139020   2.734   3.453  10.169  0.5505  0.6580 -0.5093
 9187SOL    HW239021   2.599   3.407  10.200  1.4589 -1.7183 -0.7377
 9188SOL     OW39022   4.518   1.423  17.075  0.1582  0.1712  0.3675
 9188SOL    HW139023   4.440   1.369  17.081  0.9171 -0.8821  0.8555
 9188SOL    HW239024   4.506   1.464  16.989 -0.4655 -1.9998 -0.5695
 9189SOL     OW39025   0.375   2.789   4.045  0.1016  0.4803  0.1218
 9189SOL    HW139026   0.425   2.760   3.968  0.2724  0.4919  0.2272
 9189SOL    HW239027   0.435   2.815   4.114  0.7245  1.0027 -0.6138
 9190SOL     OW39028   1.235   0.761   2.230 -0.0105  0.4606  0.1266
 9190SOL    HW139029   1.298   0.785   2.161  0.7145  0.1934  0.6932
 9190SOL    HW239030   1.243   0.839   2.285  0.9879  1.7722 -1.8414
 9191SOL     OW39031   0.423   0.156   3.194  0.1403  0.0190  0.3196
 9191SOL    HW139032   0.350   0.217   3.179  0.9013  0.6186 -0.9814
 9191SOL    HW239033   0.449   0.154   3.102 -0.2398  2.0370  0.1540
 9192SOL     OW39034   2.602   3.192   3.873  0.9087  0.4095  0.4407
 9192SOL    HW139035   2.591   3.276   3.829  3.1473 -0.3595 -1.5845
 9192SOL    HW239036   2.639   3.223   3.956  0.4865 -1.8390  1.4770
 9193SOL     OW39037   4.233   1.273   8.490  0.2680 -0.2286 -0.1777
 9193SOL    HW139038   4.241   1.368   8.480 -2.0429  0.3060  3.0774
 9193SOL    HW239039   4.315   1.239   8.455 -0.0650  1.0828 -2.2625
 9194SOL     OW39040   4.263   2.817   7.845 -0.0092 -0.3661 -0.6025
 9194SOL    HW139041   4.186   2.788   7.893  0.8043  1.7366  1.9843
 9194SOL    HW239042   4.333   2.815   7.910 -2.7945 -3.8715  2.3005
 9195SOL     OW39043   1.555   3.288   6.567 -0.2995  0.0931 -0.2118
 9195SOL    HW139044   1.559   3.224   6.638  0.1420  0.1460 -0.1895
 9195SOL    HW239045   1.468   3.270   6.529 -0.9403 -1.4197  1.9322
 9196SOL     OW39046   0.390   3.537   3.527 -0.0673  0.1159  0.4499
 9196SOL    HW139047   0.329   3.496   3.466 -0.4591  0.7880  0.3870
 9196SOL    HW239048   0.390   3.627   3.494 -0.2155 -0.4681 -1.1581
 9197SOL     OW39049   2.315   1.067  12.541 -0.1739  0.6289 -0.3072
 9197SOL    HW139050   2.240   1.010  12.557 -0.0965  0.2956 -1.1638
 9197SOL    HW239051   2.358   1.077  12.627  1.0139 -0.0287 -0.8215
 9198SOL     OW39052   4.101   3.680   8.626 -0.5849 -0.0306 -0.0530
 9198SOL    HW139053   4.190   3.665   8.593 -0.1984  1.2934  0.4049
 9198SOL    HW239054   4.124   3.740   8.697  0.7411 -2.2913  1.4484
 9199SOL     OW39055   4.506   0.365   2.976  0.8397  1.1752  0.3584
 9199SOL    HW139056   4.472   0.394   2.891  0.8899 -0.6094 -0.2863
 9199SOL    HW239057   4.427   0.378   3.028  0.5109  2.5981 -0.4835
 9200SOL     OW39058   4.521   0.132  12.745  0.0125 -0.3807 -0.1889
 9200SOL    HW139059   4.571   0.175  12.815 -3.1014  0.7909  1.2832
 9200SOL    HW239060   4.452   0.195  12.726 -0.7963 -1.6187 -1.3643
 9201SOL     OW39061   2.902   2.482  11.726  0.2098  0.2471  0.6079
 9201SOL    HW139062   2.854   2.555  11.766 -0.4294  0.8375 -1.2255
 9201SOL    HW239063   2.969   2.467  11.793 -0.5061 -0.7386  1.1046
 9202SOL     OW39064   0.577   2.366   6.947  0.3073 -0.3641  0.1409
 9202SOL    HW139065   0.537   2.282   6.970  0.0085 -0.7681 -1.8315
 9202SOL    HW239066   0.498   2.417   6.933  0.1723 -0.3088  1.0771
 9203SOL     OW39067   1.249   0.384  16.103 -0.1230 -0.0241 -0.2230
 9203SOL    HW139068   1.261   0.477  16.117 -4.0458  0.5262 -0.5570
 9203SOL    HW239069   1.232   0.359  16.194  1.1799  0.5865  0.1869
 9204SOL     OW39070   4.155   0.216   7.231 -0.3433  0.0994 -0.2118
 9204SOL    HW139071   4.241   0.229   7.271 -0.4589 -0.0834  0.0921
 9204SOL    HW239072   4.186   0.184   7.146 -0.8946 -1.1871  0.0836
 9205SOL     OW39073   2.280   1.051   5.232  0.2306 -0.4679  0.3377
 9205SOL    HW139074   2.237   0.975   5.270 -1.2176 -0.8954 -2.1637
 9205SOL    HW239075   2.355   1.009   5.189 -0.6876 -1.6541 -0.0799
 9206SOL     OW39076   0.145   1.776  12.969  0.2169 -0.2475 -0.1418
 9206SOL    HW139077   0.105   1.856  12.934 -1.3288 -0.7714  0.4167
 9206SOL    HW239078   0.196   1.755  12.891  0.4641  0.6444 -0.2206
 9207SOL     OW39079   2.470   4.708   3.132  0.8822 -0.0584  0.2486
 9207SOL    HW139080   2.503   0.062   3.178  1.1183 -0.6886  1.1237
 9207SOL    HW239081   2.423   0.026   3.058  2.4015  1.0644 -0.0875
 9208SOL     OW39082   2.532   1.026   9.191 -0.1799 -0.4183  0.0185
 9208SOL    HW139083   2.518   0.934   9.172  0.6696 -0.4085 -0.6438
 9208SOL    HW239084   2.503   1.019   9.282  1.6093  0.1842  0.6316
 9209SOL     OW39085   4.435   3.955   4.967  0.3032  0.4380 -0.3374
 9209SOL    HW139086   4.350   3.910   4.963  1.2619 -1.5491  1.6631
 9209SOL    HW239087   4.430   4.000   5.051 -0.5556  0.2687 -0.2961
 9210SOL     OW39088   4.246   1.457   0.912 -0.3237  0.0255 -0.2104
 9210SOL    HW139089   4.188   1.531   0.893 -2.8031 -2.0474 -0.7411
 9210SOL    HW239090   4.266   1.420   0.825 -0.7828  1.5393 -0.9510
 9211SOL     OW39091   2.915   1.606  12.007  0.4361  0.3150  0.6147
 9211SOL    HW139092   2.892   1.535  12.067  1.3220 -0.4784  0.0127
 9211SOL    HW239093   2.836   1.659  12.000  0.8981  1.0857  1.3207
 9212SOL     OW39094   0.534   0.045   7.625  0.3366 -0.5505 -0.1262
 9212SOL    HW139095   0.550   0.078   7.713  1.3700  0.6810 -0.7600
 9212SOL    HW239096   0.622   0.016   7.599  0.6289 -1.1366  1.5015
 9213SOL     OW39097   0.515   1.698   4.907 -0.4725 -0.5170 -0.3763
 9213SOL    HW139098   0.453   1.767   4.929 -0.0919 -0.8914  1.8129
 9213SOL    HW239099   0.530   1.668   4.996 -0.4709  1.0241  0.1421
 9214SOL     OW39100   0.529   2.798   0.484  0.0815  0.0958 -0.2869
 9214SOL    HW139101   0.605   2.780   0.539  0.1960 -0.5497 -0.6450
 9214SOL    HW239102   0.548   2.891   0.479  0.1777  0.2021  2.0762
 9215SOL     OW39103   2.005   0.628   7.353  0.1405 -0.4613  0.1904
 9215SOL    HW139104   1.954   0.708   7.339  0.4556 -0.1968  0.5674
 9215SOL    HW239105   2.081   0.656   7.301 -0.0926  0.0853  0.1459
 9216SOL     OW39106   2.488   3.277   1.495 -0.2947 -0.3926 -0.5105
 9216SOL    HW139107   2.509   3.295   1.403 -0.2550  0.9386 -0.2367
 9216SOL    HW239108   2.562   3.234   1.539 -1.9026 -1.2906  1.2908
 9217SOL     OW39109   3.420   0.886  11.661  0.2848  0.2178 -0.5216
 9217SOL    HW139110   3.450   0.813  11.607  1.7746 -0.0312  0.6080
 9217SOL    HW239111   3.330   0.871  11.634  0.1798  2.8631 -1.6015
 9218SOL     OW39112   2.681   4.220   4.981  0.3978  0.3494  0.0010
 9218SOL    HW139113   2.672   4.309   5.014 -1.5288  1.2119 -2.8738
 9218SOL    HW239114   2.739   4.240   4.908  1.6884  0.6463  1.1242
 9219SOL     OW39115   1.004   4.339   2.332  0.3866 -0.0303  0.5091
 9219SOL    HW139116   0.936   4.364   2.395 -0.4162  1.4275 -0.9301
 9219SOL    HW239117   1.087   4.353   2.377  0.0476 -0.7508  1.3400
 9220SOL     OW39118   4.256   2.303   4.140  0.0159  0.0596  0.1936
 9220SOL    HW139119   4.190   2.280   4.074  0.1646 -1.5385  0.5995
 9220SOL    HW239120   4.333   2.267   4.096 -0.0532  0.0752  0.0591
 9221SOL     OW39121   1.389   0.250   9.023 -0.4548  0.6441 -0.9478
 9221SOL    HW139122   1.346   0.164   9.025  1.0848 -0.1572 -2.2912
 9221SOL    HW239123   1.348   0.282   9.103 -0.4890 -0.5938 -0.4616
 9222SOL     OW39124   4.546   1.442   0.135  0.3497  0.8807 -0.3651
 9222SOL    HW139125   4.566   1.535   0.147  2.5379  0.1001  2.1984
 9222SOL    HW239126   4.604   1.413   0.065  1.0557  1.9574 -0.2303
 9223SOL     OW39127   4.495   0.880   6.563 -0.0166  0.6748  0.1160
 9223SOL    HW139128   4.466   0.874   6.472  0.4058 -1.5761  0.1373
 9223SOL    HW239129   4.588   0.899   6.546 -0.0382  1.0886  0.4619
 9224SOL     OW39130   0.625   3.551   1.907 -0.0387 -0.1770 -0.4067
 9224SOL    HW139131   0.589   3.473   1.865  1.1711 -1.1404  0.3574
 9224SOL    HW239132   0.601   3.560   2.000  2.9165 -0.2970  0.3632
 9225SOL     OW39133   4.659   0.081   9.063 -0.0040 -0.1064 -0.2897
 9225SOL    HW139134   4.569   0.113   9.060  0.6721  1.7526 -0.8094
 9225SOL    HW239135   4.654   0.037   9.147  1.3904 -1.1327 -0.7392
 9226SOL     OW39136   3.901   0.120   3.045  0.4571  0.6518 -0.0431
 9226SOL    HW139137   3.974   0.080   3.091  1.3954  2.3790 -0.0113
 9226SOL    HW239138   3.897   0.058   2.972  0.2273  0.9306 -0.2696
 9227SOL     OW39139   0.786   3.087   8.337  0.2299  0.3133  0.3009
 9227SOL    HW139140   0.800   3.181   8.327 -0.3965  0.1644 -1.9363
 9227SOL    HW239141   0.824   3.062   8.421 -1.8660 -2.4449  0.4327
 9228SOL     OW39142   3.194   4.615  11.277 -0.1530 -0.5942 -0.4774
 9228SOL    HW139143   3.118   4.605  11.220 -1.8203 -1.1621  1.8274
 9228SOL    HW239144   3.262   4.599  11.211 -0.6356 -0.2196 -1.0606
 9229SOL     OW39145   1.242   0.191   3.991  0.7050 -0.2308  0.3972
 9229SOL    HW139146   1.263   0.107   3.951 -1.0986  0.8157 -2.6955
 9229SOL    HW239147   1.180   0.219   3.924 -0.5811  0.1331  1.7203
 9230SOL     OW39148   0.943   3.615   4.661  0.2031  0.5410  0.1746
 9230SOL    HW139149   0.931   3.574   4.576  2.1962  0.5516 -0.1199
 9230SOL    HW239150   1.013   3.566   4.703  0.3512  0.7098  0.1271
 9231SOL     OW39151   2.622   1.333   3.369  0.0617  0.1481 -0.0751
 9231SOL    HW139152   2.610   1.241   3.345  0.1432  0.8205 -2.6906
 9231SOL    HW239153   2.532   1.355   3.396 -0.6762 -0.9442 -1.6696
 9232SOL     OW39154   0.133   3.491   4.842  0.6343  0.2192 -0.1618
 9232SOL    HW139155   0.125   3.545   4.921  1.2795  1.1303 -0.7153
 9232SOL    HW239156   0.170   3.415   4.887  0.8223  1.7152  2.2551
 9233SOL     OW39157   1.615   0.693   2.402  0.0611 -0.0878  0.3898
 9233SOL    HW139158   1.692   0.688   2.458 -0.9389  2.2846  1.9734
 9233SOL    HW239159   1.581   0.774   2.441  0.7392 -0.3586  1.5626
 9234SOL     OW39160   1.443   1.328  10.208  0.4695 -0.4809  0.3991
 9234SOL    HW139161   1.408   1.340  10.119  1.4704  0.9580  0.1967
 9234SOL    HW239162   1.458   1.416  10.243  0.5620 -0.5519  0.5386
 9235SOL     OW39163   2.194   4.212   5.739 -0.2163  0.4821 -0.4490
 9235SOL    HW139164   2.116   4.239   5.788  0.3510  4.0963 -1.4868
 9235SOL    HW239165   2.208   4.122   5.766  1.8894  1.0798  0.4326
 9236SOL     OW39166   4.302   1.960   7.366 -0.2442 -0.0682  0.6454
 9236SOL    HW139167   4.302   2.045   7.322  0.4208 -0.3118  0.1748
 9236SOL    HW239168   4.218   1.958   7.412  0.2256  0.3645  1.5221
 9237SOL     OW39169   1.330   2.732   8.383  0.5053 -0.5406 -0.1185
 9237SOL    HW139170   1.313   2.781   8.463 -0.7266 -1.3279  0.1067
 9237SOL    HW239171   1.298   2.786   8.311  1.0486  0.8156  0.6716
 9238SOL     OW39172   2.142   1.081   4.964  0.5840 -0.5745 -0.5986
 9238SOL    HW139173   2.137   1.043   4.876  2.2251 -0.5809 -0.6865
 9238SOL    HW239174   2.184   1.006   5.006  0.8729 -1.9830 -3.4104
 9239SOL     OW39175   4.056   0.248   9.662 -0.3354 -0.2439 -1.1647
 9239SOL    HW139176   4.007   0.304   9.602 -1.7325  0.8217  0.9974
 9239SOL    HW239177   4.105   0.199   9.595  3.2772  1.0845  0.5617
 9240SOL     OW39178   0.856   1.959   4.788  0.4889  0.7967  0.0311
 9240SOL    HW139179   0.923   1.945   4.722 -0.1477 -0.5749 -0.3106
 9240SOL    HW239180   0.808   1.878   4.778  0.8597  0.4525  0.9830
 9241SOL     OW39181   2.980   2.636   8.582 -0.0352 -0.4243  0.3066
 9241SOL    HW139182   2.920   2.710   8.580  0.7179  0.1371 -1.8054
 9241SOL    HW239183   3.050   2.662   8.641  1.6563  0.5150 -2.0934
 9242SOL     OW39184   4.421   2.386   4.888 -0.1693  0.3360 -0.3981
 9242SOL    HW139185   4.386   2.447   4.952  0.0383 -0.0708  0.1022
 9242SOL    HW239186   4.424   2.453   4.819  0.6668  0.7047 -0.0071
 9243SOL     OW39187   2.994   2.224  12.275  0.4772 -0.0812  0.1740
 9243SOL    HW139188   2.934   2.259  12.210  0.9933  0.1398 -0.1838
 9243SOL    HW239189   3.001   2.137  12.235  0.1243  0.6615 -1.5116
 9244SOL     OW39190   0.997   3.169  15.465  0.2829  0.0439 -0.3866
 9244SOL    HW139191   1.044   3.119  15.398  1.2259  2.0214 -1.2061
 9244SOL    HW239192   0.913   3.123  15.472  0.3583 -0.4994 -3.1915
 9245SOL     OW39193   2.016   4.155   0.142 -0.2764 -0.0275 -0.4870
 9245SOL    HW139194   1.932   4.112   0.149 -1.8012  2.9235 -0.4851
 9245SOL    HW239195   2.069   4.076   0.132  0.0465 -0.1042  1.6384
 9246SOL     OW39196   1.901   1.241  14.741 -0.1792  0.4295 -0.7411
 9246SOL    HW139197   1.879   1.148  14.748 -1.0553  0.7394  0.6294
 9246SOL    HW239198   1.836   1.268  14.806 -1.7008  0.4418 -2.2506
 9247SOL     OW39199   2.650   1.440   8.442  0.2914 -0.1280 -0.3186
 9247SOL    HW139200   2.686   1.373   8.499  0.6723  1.0801  0.8520
 9247SOL    HW239201   2.722   1.503   8.440 -1.2145  1.7157  3.7671
 9248SOL     OW39202   0.935   1.125  11.447  0.2820  0.2121  0.2239
 9248SOL    HW139203   1.013   1.074  11.468  0.8288  1.2208  0.6467
 9248SOL    HW239204   0.939   1.196  11.511  0.9673  1.0535 -0.7657
 9249SOL     OW39205   3.566   4.286  12.156  0.4498  0.3482  0.1380
 9249SOL    HW139206   3.574   4.375  12.123 -1.2657 -0.0430 -1.3128
 9249SOL    HW239207   3.484   4.286  12.205  0.8715  1.9851  0.8250
 9250SOL     OW39208   3.919   2.392   6.228 -0.3603 -0.1168  0.1115
 9250SOL    HW139209   3.879   2.422   6.310 -0.2079 -1.1193  0.5553
 9250SOL    HW239210   3.869   2.438   6.162  1.0872  1.3831  0.0517
 9251SOL     OW39211   4.551   0.635   5.998 -0.1097  0.2757 -0.5681
 9251SOL    HW139212   4.562   0.579   6.076 -1.2122  0.8980  0.0402
 9251SOL    HW239213   4.629   0.615   5.947 -0.1214 -1.7057  0.1737
 9252SOL     OW39214   0.079   2.963  16.374  0.4572 -0.1025 -0.0621
 9252SOL    HW139215   0.068   2.887  16.317  1.6387  0.3006 -0.8223
 9252SOL    HW239216   0.159   2.952  16.425  0.1103 -1.2600  0.2345
 9253SOL     OW39217   0.522   2.558  12.439 -0.4704 -0.5797  0.2965
 9253SOL    HW139218   0.604   2.605  12.447 -0.8703  0.3213 -0.8982
 9253SOL    HW239219   0.542   2.466  12.456  0.7659 -0.5217 -0.8917
 9254SOL     OW39220   3.051   3.177   4.561  0.1864  0.6260  0.2192
 9254SOL    HW139221   2.996   3.159   4.637  0.8092 -1.5754  0.1438
 9254SOL    HW239222   3.134   3.146   4.598 -0.3875 -1.9613 -0.6615
 9255SOL     OW39223   1.487   3.328  17.576  0.4871  0.2762 -0.0675
 9255SOL    HW139224   1.527   3.363  17.655 -2.6425  3.7854 -0.0323
 9255SOL    HW239225   1.397   3.360  17.586  0.3939  0.4368 -1.3067
 9256SOL     OW39226   1.069   3.864   8.826 -0.0766 -0.4645  0.6556
 9256SOL    HW139227   1.001   3.926   8.797  0.8101  0.3312  0.2778
 9256SOL    HW239228   1.153   3.910   8.828 -0.0047 -0.5501 -0.2315
 9257SOL     OW39229   2.828   4.288   3.464  0.1898 -0.3415  0.1056
 9257SOL    HW139230   2.920   4.284   3.492  0.0570 -3.1674  0.1411
 9257SOL    HW239231   2.777   4.329   3.533 -0.0632  1.9647 -1.4518
 9258SOL     OW39232   2.155   3.231   8.712 -0.1514 -0.4152 -0.1186
 9258SOL    HW139233   2.165   3.306   8.771 -2.2458 -0.7799  0.7229
 9258SOL    HW239234   2.163   3.270   8.625 -0.7471  0.3499  0.1633
 9259SOL     OW39235   0.303   4.121   7.486 -0.2676 -0.5371  0.5299
 9259SOL    HW139236   0.273   4.085   7.569 -1.6016 -1.0783 -0.1965
 9259SOL    HW239237   0.227   4.103   7.431 -0.5596  0.0646  0.7441
 9260SOL     OW39238   3.544   2.972   5.301 -0.1832  0.0301  0.0095
 9260SOL    HW139239   3.521   3.037   5.234  0.8147 -0.7374 -1.0873
 9260SOL    HW239240   3.467   2.960   5.355 -1.4841  2.4477 -1.3223
 9261SOL     OW39241   1.855   3.807   4.404  0.1571 -0.4641 -0.4536
 9261SOL    HW139242   1.941   3.764   4.414  0.0764 -0.0477  1.8810
 9261SOL    HW239243   1.865   3.892   4.447  0.0017 -1.8721  2.3667
 9262SOL     OW39244   3.275   0.775   5.419 -0.1292 -0.2293  0.3274
 9262SOL    HW139245   3.340   0.845   5.408 -0.7147  0.1806 -0.5048
 9262SOL    HW239246   3.197   0.817   5.384 -0.2537  0.4131  1.3559
 9263SOL     OW39247   2.914   2.267   4.292  0.0987 -0.1183  0.2381
 9263SOL    HW139248   2.971   2.223   4.230 -2.6174 -0.5814 -1.9329
 9263SOL    HW239249   2.889   2.343   4.239 -0.1944 -0.9074 -0.7384
 9264SOL     OW39250   1.829   4.048   1.464 -0.4003  0.4938 -0.2155
 9264SOL    HW139251   1.842   4.035   1.370  0.2172  1.9420 -0.3371
 9264SOL    HW239252   1.757   3.990   1.488 -0.2731  0.8604  1.0621
 9265SOL     OW39253   0.174   1.609  11.972 -0.0224  0.1400  0.2154
 9265SOL    HW139254   0.240   1.616  12.041 -0.6288  1.1162  0.6879
 9265SOL    HW239255   0.163   1.514  11.972 -0.8768  0.2337 -0.9667
 9266SOL     OW39256   0.694   4.110  17.316 -0.7753  0.2082 -0.4605
 9266SOL    HW139257   0.674   4.056  17.393 -0.6679  0.5466 -0.1997
 9266SOL    HW239258   0.680   4.050  17.242 -1.5280 -0.3837  0.1613
 9267SOL     OW39259   0.199   2.112  13.713 -0.2194 -0.4177  0.1591
 9267SOL    HW139260   0.294   2.118  13.704 -0.3321  0.6587 -0.2759
 9267SOL    HW239261   0.178   2.177  13.646 -3.3149 -2.6234 -0.9977
 9268SOL     OW39262   1.095   1.084   4.392  0.2654  0.1327  0.6442
 9268SOL    HW139263   1.117   1.170   4.355 -0.0465 -0.6905 -1.4337
 9268SOL    HW239264   1.136   1.025   4.329  0.6393  2.5113 -1.3541
 9269SOL     OW39265   2.155   3.614   7.242  0.3885  0.4948 -0.0975
 9269SOL    HW139266   2.133   3.671   7.316 -1.1166 -1.1661  0.7236
 9269SOL    HW239267   2.070   3.614   7.198 -0.4704 -2.7213  1.6264
 9270SOL     OW39268   4.072   3.986   8.618  0.0332  0.1056  0.2863
 9270SOL    HW139269   4.128   4.062   8.633  0.9335  0.0364 -2.7367
 9270SOL    HW239270   3.984   4.021   8.636  0.1194  0.7664 -0.5595
 9271SOL     OW39271   0.949   2.667   3.311  0.4422  0.6080  0.4394
 9271SOL    HW139272   0.950   2.633   3.400 -0.1842 -0.9933 -0.1633
 9271SOL    HW239273   1.039   2.697   3.296  0.9109 -1.6224 -1.1730
 9272SOL     OW39274   3.306   3.670  17.521  0.8015  0.4095  0.1297
 9272SOL    HW139275   3.238   3.616  17.482  0.3096  0.8459  0.3779
 9272SOL    HW239276   3.373   3.610  17.553  1.3867  1.2244  0.4434
 9273SOL     OW39277   1.885   0.236   4.780 -0.1830 -0.1912 -0.1925
 9273SOL    HW139278   1.867   0.177   4.707  0.7550  0.8611 -1.2615
 9273SOL    HW239279   1.793   0.256   4.798  0.4230  0.3220  2.3545
 9274SOL     OW39280   2.777   4.031   2.217  0.2364 -0.1694  0.3702
 9274SOL    HW139281   2.820   3.949   2.195  0.6275  0.9473 -3.1530
 9274SOL    HW239282   2.743   4.054   2.130 -0.0559  0.4967  0.6568
 9275SOL     OW39283   0.713   1.688   3.917  0.0484 -0.3041  0.1689
 9275SOL    HW139284   0.636   1.663   3.969 -0.7329  0.3810 -0.6522
 9275SOL    HW239285   0.764   1.607   3.915 -0.7160 -0.7688 -0.4811
 9276SOL     OW39286   4.308   2.603  10.753 -0.6743  0.3693  0.0309
 9276SOL    HW139287   4.233   2.594  10.694  0.2476 -1.0718 -0.9271
 9276SOL    HW239288   4.359   2.677  10.719 -0.0061  0.3052  0.9108
 9277SOL     OW39289   1.154   3.756   3.227  0.1400 -0.5176 -0.2874
 9277SOL    HW139290   1.222   3.774   3.162  1.0693 -0.9309  0.5785
 9277SOL    HW239291   1.077   3.744   3.171  0.3415 -0.6241 -0.5425
 9278SOL     OW39292   3.128   1.283  14.231  0.0179 -0.2485  0.5040
 9278SOL    HW139293   3.188   1.256  14.162  0.2091 -1.4797  1.1352
 9278SOL    HW239294   3.042   1.248  14.208 -1.1671  1.3996  2.3915
 9279SOL     OW39295   4.570   4.202  15.329 -0.0575 -0.0628  0.4033
 9279SOL    HW139296   4.596   4.119  15.288  1.6660  0.4561  0.4887
 9279SOL    HW239297   4.570   4.179  15.422  2.0579  0.3046  0.4908
 9280SOL     OW39298   2.124   2.719   5.184 -0.2275 -0.0577  0.7608
 9280SOL    HW139299   2.066   2.774   5.132  0.0516  0.0203  0.5339
 9280SOL    HW239300   2.174   2.679   5.113  1.4186  2.3222  0.5780
 9281SOL     OW39301   3.320   3.259   0.445 -0.3383  0.0065 -0.1730
 9281SOL    HW139302   3.343   3.347   0.414 -0.7847 -0.0742 -0.7312
 9281SOL    HW239303   3.405   3.235   0.482 -0.0206  0.0855 -0.8647
 9282SOL     OW39304   2.006   0.368   7.841  0.5389  0.5758  0.4660
 9282SOL    HW139305   2.019   0.298   7.777  1.1592  1.5679 -0.4855
 9282SOL    HW239306   1.964   0.325   7.916 -1.2404  1.2265 -0.1828
 9283SOL     OW39307   1.129   4.395   7.152 -0.0401  0.4692 -0.0439
 9283SOL    HW139308   1.110   4.306   7.124 -2.1541  1.2677 -1.1435
 9283SOL    HW239309   1.092   4.396   7.240  0.4168 -0.5005  0.1522
 9284SOL     OW39310   1.915   0.189   0.694 -0.6109 -0.6450  0.3808
 9284SOL    HW139311   1.909   0.263   0.633 -0.6372 -0.8036  0.1916
 9284SOL    HW239312   1.855   0.212   0.765  0.3040 -1.3957  1.4019
 9285SOL     OW39313   3.051   3.600   6.919  0.3841  0.4693  0.0335
 9285SOL    HW139314   3.056   3.692   6.893 -1.1512  0.6799  0.4693
 9285SOL    HW239315   2.963   3.606   6.956  0.2173  0.2309 -0.3224
 9286SOL     OW39316   4.595   0.498  16.069  0.1375  0.1354  0.2139
 9286SOL    HW139317   4.503   0.479  16.087  0.0996  0.2565  0.1466
 9286SOL    HW239318   4.631   0.444  16.140 -0.2332  1.4947  1.4359
 9287SOL     OW39319   4.519   2.008  10.440 -0.6841 -0.1465 -0.1732
 9287SOL    HW139320   4.572   2.076  10.398 -1.7196 -0.7021 -2.4094
 9287SOL    HW239321   4.574   1.990  10.516  0.3918  3.2248 -0.1504
 9288SOL     OW39322   0.965   0.885   2.210  0.5930  0.3864 -0.2741
 9288SOL    HW139323   1.042   0.829   2.200  0.9213  0.8081 -0.1259
 9288SOL    HW239324   1.008   0.970   2.197  0.7294  0.3094 -0.3228
 9289SOL     OW39325   0.799   0.316   4.016 -0.1101 -0.5212  0.0900
 9289SOL    HW139326   0.812   0.309   4.111  0.3548 -1.0906 -0.0212
 9289SOL    HW239327   0.731   0.384   4.016 -1.1213 -1.5238  0.3675
 9290SOL     OW39328   2.680   4.131   5.765  0.3639 -0.5856 -0.0726
 9290SOL    HW139329   2.690   4.084   5.848 -0.9498 -1.6863 -0.5543
 9290SOL    HW239330   2.639   4.207   5.807 -1.6199 -1.9217  0.3806
 9291SOL     OW39331   1.404   3.687   1.733 -0.7699  0.1459 -0.0281
 9291SOL    HW139332   1.375   3.647   1.816 -0.9049  1.3555  0.5157
 9291SOL    HW239333   1.324   3.712   1.686  0.8033 -0.1980 -2.8144
 9292SOL     OW39334   2.538   3.919  11.718 -0.2364  0.0768 -0.2767
 9292SOL    HW139335   2.454   3.917  11.671 -1.2833  0.3138  1.5918
 9292SOL    HW239336   2.540   4.002  11.764  0.3558  0.7296 -1.4892
 9293SOL     OW39337   0.581   4.567  15.319  0.3652  0.3677 -0.2479
 9293SOL    HW139338   0.506   4.624  15.301 -0.5957 -0.3670  1.4404
 9293SOL    HW239339   0.577   4.558  15.414  0.9677 -0.4833 -0.3088
 9294SOL     OW39340   3.434   2.698   4.183 -0.5688 -0.1376 -0.2771
 9294SOL    HW139341   3.497   2.715   4.113 -0.8324 -0.6916 -0.6492
 9294SOL    HW239342   3.350   2.734   4.155 -0.8878 -0.2686  0.5085
 9295SOL     OW39343   0.220   3.415  17.372 -0.2386 -0.0554  0.1795
 9295SOL    HW139344   0.170   3.465  17.437 -1.3209  1.7599 -2.0275
 9295SOL    HW239345   0.217   3.325  17.404  0.4932 -0.1526 -0.0320
 9296SOL     OW39346   0.086   1.591   0.389  0.1981 -0.2161 -0.1880
 9296SOL    HW139347   0.180   1.585   0.407 -0.2976  2.0038  3.1595
 9296SOL    HW239348   0.090   1.598   0.294 -2.4788  1.3933 -0.1797
 9297SOL     OW39349   3.647   4.299   9.622  0.2399 -0.0260 -0.1356
 9297SOL    HW139350   3.554   4.298   9.603  0.1104 -0.1793  0.5147
 9297SOL    HW239351   3.660   4.205   9.609 -0.0209  0.0230 -0.7707
 9298SOL     OW39352   1.683   0.181   6.997 -0.1541 -0.6237  0.1048
 9298SOL    HW139353   1.588   0.183   7.008 -0.1429 -2.4076  0.4426
 9298SOL    HW239354   1.710   0.184   7.089  2.5850 -0.3412 -0.7116
 9299SOL     OW39355   2.709   2.284   9.333 -0.1560  0.1666 -0.3026
 9299SOL    HW139356   2.770   2.250   9.268  0.8420 -2.2213  1.8870
 9299SOL    HW239357   2.628   2.243   9.302  0.2403  0.2356 -1.4282
 9300SOL     OW39358   4.339   1.770   7.844  0.6566 -0.4301  0.6437
 9300SOL    HW139359   4.377   1.858   7.850 -0.8738  0.1205  2.1056
 9300SOL    HW239360   4.244   1.779   7.841  0.7821  1.0808  0.9780
 9301SOL     OW39361   1.031   2.094   2.106 -0.4004 -0.5642 -0.3668
 9301SOL    HW139362   0.946   2.055   2.084  0.2440 -1.6591 -0.8942
 9301SOL    HW239363   1.031   2.173   2.051 -1.7631 -0.3828 -0.1135
 9302SOL     OW39364   1.961   0.810   8.762 -0.7280 -1.1517 -0.3861
 9302SOL    HW139365   2.041   0.859   8.781 -1.4390 -0.3073  0.3743
 9302SOL    HW239366   1.916   0.820   8.846  0.2268  0.3026 -0.0538
 9303SOL     OW39367   2.524   3.734   2.352 -0.4019  0.2894 -0.3739
 9303SOL    HW139368   2.571   3.812   2.380 -0.7929  0.0753  0.8705
 9303SOL    HW239369   2.494   3.772   2.269 -3.0369  0.5967  0.7107
 9304SOL     OW39370   0.027   4.435   5.085  0.3803 -0.1620 -0.5827
 9304SOL    HW139371   0.012   4.422   4.991 -2.0281  1.5426 -0.4252
 9304SOL    HW239372   0.005   4.528   5.094 -1.4501 -0.4945 -1.5830
 9305SOL     OW39373   2.025   0.377   3.719  0.2686  0.2846 -0.3142
 9305SOL    HW139374   2.002   0.377   3.812  0.2716 -0.9135 -0.3246
 9305SOL    HW239375   2.084   0.453   3.720  1.5081 -0.6920  0.5536
 9306SOL     OW39376   0.463   3.746  10.591 -0.1234 -0.5685  0.4527
 9306SOL    HW139377   0.368   3.734  10.583  0.4396 -2.2882 -3.6121
 9306SOL    HW239378   0.465   3.811  10.661 -0.8259 -0.6700  0.5683
 9307SOL     OW39379   3.594   0.946  14.703 -0.0474  0.5777 -1.0483
 9307SOL    HW139380   3.639   0.982  14.779 -1.9113 -1.7057  1.1184
 9307SOL    HW239381   3.601   0.851  14.702  0.4853  0.6253 -1.9187
 9308SOL     OW39382   3.600   1.375   9.603 -0.3959 -0.1864  0.3671
 9308SOL    HW139383   3.540   1.411   9.538  0.9909 -1.5299 -1.6650
 9308SOL    HW239384   3.566   1.437   9.667 -2.6023  0.2320 -1.2182
 9309SOL     OW39385   4.090   2.347   4.783 -0.3581 -0.3080 -0.5816
 9309SOL    HW139386   4.087   2.353   4.878  0.2373  2.5657 -0.7579
 9309SOL    HW239387   4.001   2.370   4.758 -0.0445 -0.2111 -1.6231
 9310SOL     OW39388   0.594   0.152   6.114  0.2057 -0.4865  0.2484
 9310SOL    HW139389   0.510   0.166   6.069  1.9863 -0.5671 -3.1065
 9310SOL    HW239390   0.571   0.101   6.191  0.6778  0.8646  1.2814
 9311SOL     OW39391   2.850   3.719   5.050 -0.0815 -0.3167 -0.0100
 9311SOL    HW139392   2.813   3.644   5.096 -0.2319  0.9191  1.8542
 9311SOL    HW239393   2.938   3.684   5.031  1.0864  1.1789  2.6715
 9312SOL     OW39394   3.829   2.031   8.567 -0.1304  0.2709 -0.1061
 9312SOL    HW139395   3.782   1.984   8.498  2.7382 -0.6691 -1.4056
 9312SOL    HW239396   3.892   2.083   8.517 -0.0297  0.3032  0.0535
 9313SOL     OW39397   2.477   2.924   4.229  0.0484  0.1326 -0.0642
 9313SOL    HW139398   2.433   2.887   4.152  0.7604 -0.8493  0.0059
 9313SOL    HW239399   2.436   3.010   4.221 -0.0722  0.0604 -0.2575
 9314SOL     OW39400   0.891   1.472  11.850  0.0552  0.3188  0.3117
 9314SOL    HW139401   0.896   1.531  11.775 -2.9301  0.7516  0.4403
 9314SOL    HW239402   0.966   1.499  11.902 -1.4363  2.5442  1.2776
 9315SOL     OW39403   0.832   2.482   8.372 -0.2428 -0.2903 -0.1785
 9315SOL    HW139404   0.910   2.475   8.317 -0.1452 -0.8103  0.0309
 9315SOL    HW239405   0.783   2.401   8.361 -0.8772 -0.3584  3.0626
 9316SOL     OW39406   2.306   0.239   8.645  0.3908  0.0438 -0.1243
 9316SOL    HW139407   2.364   0.164   8.634 -1.9759 -1.5793 -1.5169
 9316SOL    HW239408   2.329   0.283   8.563 -1.9154  0.7411 -0.4039
 9317SOL     OW39409   1.522   2.241   1.365  0.3497  0.0677 -0.4256
 9317SOL    HW139410   1.596   2.270   1.313  0.2073  0.1785 -0.5644
 9317SOL    HW239411   1.461   2.314   1.370 -0.1041 -0.2891 -0.7496
 9318SOL     OW39412   3.403   3.018   6.273 -0.6625  0.7406 -0.5868
 9318SOL    HW139413   3.473   3.057   6.325 -0.0762 -0.7441 -0.2514
 9318SOL    HW239414   3.355   2.960   6.333  2.6587 -0.2786  1.1075
 9319SOL     OW39415   2.982   0.010   6.874 -0.4075  0.2335 -0.2570
 9319SOL    HW139416   2.964   0.034   6.783 -0.5942  0.8620 -0.0491
 9319SOL    HW239417   2.931   4.652   6.881 -2.2559  1.6319  2.0740
 9320SOL     OW39418   1.465   1.746   9.057  0.1959  0.4152  0.1076
 9320SOL    HW139419   1.399   1.813   9.076  1.9056  2.4754 -1.2192
 9320SOL    HW239420   1.541   1.780   9.105 -1.3035  0.4151  2.4922
 9321SOL     OW39421   1.207   3.350   4.093 -0.0101  0.8982  0.2030
 9321SOL    HW139422   1.145   3.362   4.021 -3.2829  1.6876  3.1339
 9321SOL    HW239423   1.211   3.443   4.115 -1.9709  1.3309 -1.2816
 9322SOL     OW39424   1.944   4.555   8.025  0.1234  0.7158  0.3618
 9322SOL    HW139425   1.987   4.630   8.066 -0.2479  1.3415 -0.3933
 9322SOL    HW239426   2.014   4.490   8.015  0.7636  1.3577  0.5977
 9323SOL     OW39427   2.929   0.553   3.764  0.3919  0.1281  0.4818
 9323SOL    HW139428   2.921   0.465   3.800 -2.0630  0.4461  0.6899
 9323SOL    HW239429   2.855   0.601   3.800  0.1736  1.6582 -2.0113
 9324SOL     OW39430   1.110   2.126  10.681 -0.7326  0.3117  0.4943
 9324SOL    HW139431   1.177   2.070  10.720 -0.4672  0.3390  0.0686
 9324SOL    HW239432   1.058   2.050  10.654 -0.0970  0.4980 -1.2071
 9325SOL     OW39433   0.378   1.184  14.805  0.3313 -0.0595 -0.8973
 9325SOL    HW139434   0.472   1.201  14.792  0.1419 -0.3412 -2.6406
 9325SOL    HW239435   0.345   1.194  14.716  2.7123 -1.7580 -1.9646
 9326SOL     OW39436   3.940   4.257   5.459 -0.2090 -0.1277 -0.2514
 9326SOL    HW139437   4.009   4.230   5.519 -1.0720 -0.1143  0.7321
 9326SOL    HW239438   3.901   4.171   5.442  0.0501 -0.6705  1.9560
 9327SOL     OW39439   1.922   3.691  13.770 -0.4343  1.1746  0.2206
 9327SOL    HW139440   1.860   3.716  13.701  1.2731  4.4277 -0.1754
 9327SOL    HW239441   1.897   3.599  13.777  1.0350  0.7657  0.0314
 9328SOL     OW39442   1.451   0.722   4.769 -0.0418  0.0524 -0.0540
 9328SOL    HW139443   1.369   0.724   4.819  0.3001  1.3589  0.4474
 9328SOL    HW239444   1.462   0.813   4.739 -3.0780  0.2999 -0.4020
 9329SOL     OW39445   0.466   0.856  15.959  0.3477  0.0101 -0.1800
 9329SOL    HW139446   0.447   0.948  15.972 -1.2490 -0.3469  0.0208
 9329SOL    HW239447   0.477   0.843  15.865 -0.5690  0.6045 -0.3627
 9330SOL     OW39448   2.698   0.077   8.409 -0.4061  0.2097 -0.1362
 9330SOL    HW139449   2.793   0.074   8.425 -0.3543  2.9146  0.0342
 9330SOL    HW239450   2.675   4.709   8.392  1.5140  0.0225 -1.8223
 9331SOL     OW39451   0.325   1.584  12.184  0.1322  0.3605  0.4375
 9331SOL    HW139452   0.402   1.602  12.238  0.9797 -0.9271 -0.3368
 9331SOL    HW239453   0.258   1.560  12.249 -0.1423  1.7064  0.6508
 9332SOL     OW39454   2.100   3.888   1.170 -0.1837  0.3800  0.2848
 9332SOL    HW139455   2.144   3.875   1.087 -3.0795 -0.0857 -1.1679
 9332SOL    HW239456   2.009   3.871   1.148  0.0682  0.3348 -0.7279
 9333SOL     OW39457   0.472   0.787   5.723  0.9202 -0.1830  0.5791
 9333SOL    HW139458   0.442   0.876   5.738  1.3839 -0.0345  0.6149
 9333SOL    HW239459   0.402   0.744   5.674  0.3327 -1.3293  2.4336
 9334SOL     OW39460   2.771   1.127   3.802  0.6061  0.0758 -0.4533
 9334SOL    HW139461   2.764   1.110   3.708  0.4404 -2.7585  0.0461
 9334SOL    HW239462   2.843   1.068   3.827  0.4555 -0.2133 -0.7062
 9335SOL     OW39463   0.467   0.871   8.396  0.0043  0.0329  0.4427
 9335SOL    HW139464   0.501   0.949   8.440 -0.9288  0.6040  0.1330
 9335SOL    HW239465   0.392   0.859   8.454 -0.4787 -2.5094 -0.6985
 9336SOL     OW39466   4.055   1.514   7.792 -0.2477 -0.4003  0.6674
 9336SOL    HW139467   3.985   1.453   7.767 -1.1149  0.8882 -0.0467
 9336SOL    HW239468   4.131   1.463   7.819  0.7378  0.0058 -1.3545
 9337SOL     OW39469   0.945   3.648  15.977 -0.4026  0.1593  0.3216
 9337SOL    HW139470   0.914   3.577  15.922 -0.4072  0.0993  0.4019
 9337SOL    HW239471   1.037   3.622  15.978 -0.0842  1.2045 -0.8475
 9338SOL     OW39472   1.176   3.186   9.901 -0.3970  0.1021 -0.5253
 9338SOL    HW139473   1.165   3.238   9.980 -0.2815  0.0371 -0.4666
 9338SOL    HW239474   1.270   3.193   9.884 -0.5168  1.4365 -0.6093
 9339SOL     OW39475   0.897   2.944   9.382 -0.3243 -0.4387 -0.6424
 9339SOL    HW139476   0.892   2.916   9.291 -0.8723  1.5109 -1.2063
 9339SOL    HW239477   0.822   2.896   9.418 -1.2385  1.7949  0.4008
 9340SOL     OW39478   1.711   1.645  10.297  0.1281  0.4502  0.2206
 9340SOL    HW139479   1.702   1.737  10.324  1.2303  0.6169  0.0200
 9340SOL    HW239480   1.781   1.615  10.355 -0.3908 -0.1179  0.5443
 9341SOL     OW39481   1.397   2.851   6.692 -0.0071 -0.3378  0.1230
 9341SOL    HW139482   1.431   2.768   6.728  1.7489 -0.3023 -1.4745
 9341SOL    HW239483   1.404   2.903   6.772 -3.7919  1.5638 -0.7992
 9342SOL     OW39484   1.466   2.567   7.362 -0.1364 -0.0146 -0.4155
 9342SOL    HW139485   1.488   2.558   7.455  0.5513  0.3263 -0.5424
 9342SOL    HW239486   1.439   2.476   7.349  2.7851 -1.4762  3.4906
 9343SOL     OW39487   3.084   3.548   6.522 -0.6257 -0.0933  0.4103
 9343SOL    HW139488   3.059   3.640   6.513 -1.0103 -0.3407 -1.1075
 9343SOL    HW239489   3.003   3.498   6.525 -0.6558 -0.1246 -0.8201
 9344SOL     OW39490   4.034   0.790   3.184  0.1328 -0.4340 -0.3014
 9344SOL    HW139491   4.114   0.782   3.132  1.3741  2.1904  1.1931
 9344SOL    HW239492   4.051   0.734   3.259  0.8063  0.3753  0.1546
 9345SOL     OW39493   0.396   4.074  14.167  0.2622  0.1527  0.6533
 9345SOL    HW139494   0.331   4.061  14.235  0.3861 -0.5836  0.6288
 9345SOL    HW239495   0.449   4.144  14.207  0.0672  0.7039 -0.0420
 9346SOL     OW39496   1.050   4.652   6.369  0.2233 -0.2408 -0.4772
 9346SOL    HW139497   1.031   4.678   6.459  2.1918 -1.2169  0.2374
 9346SOL    HW239498   1.137   4.692   6.366  0.6345 -1.1073 -0.1323
 9347SOL     OW39499   4.074   2.409  11.716 -0.1167 -0.4731  0.6824
 9347SOL    HW139500   4.031   2.364  11.788  0.8834 -1.6110  0.5759
 9347SOL    HW239501   4.071   2.498  11.750  1.2255 -0.4185  0.6651
 9348SOL     OW39502   0.227   0.328   3.039 -0.2604  0.5534  0.4768
 9348SOL    HW139503   0.248   0.413   3.079 -0.6286  0.4606  0.8633
 9348SOL    HW239504   0.131   0.326   3.046 -0.3739 -1.6604 -1.7798
 9349SOL     OW39505   4.662   2.012   0.296  0.1486 -0.1706 -0.1666
 9349SOL    HW139506   4.690   1.996   0.206  0.8946 -0.4464  0.1109
 9349SOL    HW239507   4.575   1.971   0.292  0.8798 -1.8824  1.3223
 9350SOL     OW39508   1.470   2.879  12.017  0.0519 -0.1449  0.1032
 9350SOL    HW139509   1.482   2.903  11.925  1.1516  1.1936  0.5842
 9350SOL    HW239510   1.410   2.951  12.037  2.0364  1.0219  1.8662
 9351SOL     OW39511   0.155   2.633   8.409 -0.1990 -0.2822 -0.1622
 9351SOL    HW139512   0.225   2.699   8.416 -0.4167 -0.2248  1.3790
 9351SOL    HW239513   0.083   2.693   8.431  1.6605  1.4683  1.2462
 9352SOL     OW39514   3.323   0.331   2.730 -0.5163  0.5024  0.3205
 9352SOL    HW139515   3.409   0.371   2.738 -0.2275 -0.6403  2.9637
 9352SOL    HW239516   3.261   0.399   2.702 -0.9138  0.0505  0.0890
 9353SOL     OW39517   3.791   4.678  10.427  0.1635  0.5830 -0.0062
 9353SOL    HW139518   3.877   4.653  10.461  0.7992 -1.8118 -3.2903
 9353SOL    HW239519   3.758   4.593  10.400  2.0118  0.2816 -1.3548
 9354SOL     OW39520   0.257   2.529   8.119 -0.8537 -0.3024 -0.3200
 9354SOL    HW139521   0.287   2.550   8.030  0.1642  1.5293  0.4723
 9354SOL    HW239522   0.163   2.550   8.116 -0.7311  0.2050 -0.5089
 9355SOL     OW39523   2.192   3.001   1.990  0.1453  0.6110 -0.1202
 9355SOL    HW139524   2.207   2.912   1.960  0.9765  1.1552 -1.3350
 9355SOL    HW239525   2.130   3.034   1.925 -0.2487  0.7307  0.3092
 9356SOL     OW39526   1.396   0.819   1.516 -0.3363  0.4209 -0.2561
 9356SOL    HW139527   1.308   0.783   1.519  0.4945 -1.4722  1.1885
 9356SOL    HW239528   1.390   0.892   1.454 -2.1127  1.0752  0.6760
 9357SOL     OW39529   2.857   4.137  10.592 -0.0430 -0.6944 -0.0630
 9357SOL    HW139530   2.800   4.209  10.568  0.6600 -0.4564 -1.0069
 9357SOL    HW239531   2.860   4.083  10.513 -0.0728  0.8607 -1.1214
 9358SOL     OW39532   2.720   1.032   1.432  0.4553 -0.4822  0.4267
 9358SOL    HW139533   2.709   0.937   1.433  0.4224 -0.5003 -1.8009
 9358SOL    HW239534   2.781   1.039   1.358  1.5524  1.0039  1.4706
 9359SOL     OW39535   1.722   4.699   3.061 -0.4073  0.0719 -0.3579
 9359SOL    HW139536   1.628   4.703   3.043 -0.3070 -3.3617 -1.5737
 9359SOL    HW239537   1.754   4.672   2.975  0.9561 -0.9877  0.4932
 9360SOL     OW39538   3.242   2.226   5.481 -0.0969  0.4023  0.0596
 9360SOL    HW139539   3.190   2.162   5.531  0.4751  0.2742  0.4881
 9360SOL    HW239540   3.185   2.303   5.489 -1.0761 -0.5039  1.8199
 9361SOL     OW39541   2.410   1.686   6.824 -0.6577 -0.0088 -0.0886
 9361SOL    HW139542   2.403   1.777   6.796  0.0633 -0.6285 -2.2758
 9361SOL    HW239543   2.474   1.634   6.777  2.0721  2.3501  1.0131
 9362SOL     OW39544   3.601   3.328   7.933 -0.1152  0.1339  0.1102
 9362SOL    HW139545   3.548   3.347   8.010 -0.5520  1.8181 -0.6153
 9362SOL    HW239546   3.657   3.258   7.968  2.5819  2.0954 -0.2563
 9363SOL     OW39547   3.920   1.355  15.753 -0.9622 -0.1509  0.6141
 9363SOL    HW139548   3.862   1.428  15.731  0.3548  0.8501  0.4540
 9363SOL    HW239549   3.987   1.360  15.686 -0.7831 -2.8149  0.5995
 9364SOL     OW39550   0.490   0.422   4.848  0.2126 -0.2546 -0.3484
 9364SOL    HW139551   0.563   0.421   4.786  0.0897  4.0811 -0.5530
 9364SOL    HW239552   0.415   0.415   4.788 -0.7302 -3.5425  1.1971
 9365SOL     OW39553   2.978   1.896   1.522 -0.0195 -0.2382 -0.0825
 9365SOL    HW139554   2.981   1.843   1.442  0.6457 -2.4235  1.3878
 9365SOL    HW239555   2.994   1.979   1.477  0.2706 -0.0186  0.4199
 9366SOL     OW39556   2.279   3.256   3.290  0.0342 -0.1711 -0.2204
 9366SOL    HW139557   2.200   3.304   3.265  0.7071  0.1160 -1.8401
 9366SOL    HW239558   2.290   3.204   3.210 -1.0073 -2.3632  1.0795
 9367SOL     OW39559   0.844   4.014   5.310 -0.0036  0.2586 -0.3099
 9367SOL    HW139560   0.904   3.958   5.261 -2.2156 -1.3762 -1.1219
 9367SOL    HW239561   0.757   3.976   5.302  0.2258  0.0748 -1.9249
 9368SOL     OW39562   1.909   3.678   4.892  0.1000  0.0604 -0.8416
 9368SOL    HW139563   1.976   3.745   4.907  1.6827 -1.3273 -1.8473
 9368SOL    HW239564   1.841   3.720   4.945  0.1600 -0.7153 -0.1447
 9369SOL     OW39565   2.578   3.456   3.797 -0.5630 -0.5348 -0.3252
 9369SOL    HW139566   2.523   3.457   3.875  0.9997  0.8063  0.7738
 9369SOL    HW239567   2.650   3.513   3.824 -1.3618  0.5967 -0.6093
 9370SOL     OW39568   1.245   1.173   2.971  0.2078  0.4788  0.4773
 9370SOL    HW139569   1.304   1.155   2.898 -1.1290  0.3338 -0.5823
 9370SOL    HW239570   1.269   1.104   3.032 -1.5149 -0.1664  0.4356
 9371SOL     OW39571   3.500   4.166   4.808 -0.6240 -0.1684 -0.0975
 9371SOL    HW139572   3.550   4.248   4.811  0.4279 -0.8299  0.5619
 9371SOL    HW239573   3.552   4.135   4.733 -1.1614  1.1844 -1.0323
 9372SOL     OW39574   4.181   4.374   7.248 -0.3649 -0.0876 -0.5320
 9372SOL    HW139575   4.194   4.415   7.333 -2.1030 -1.8864  0.5661
 9372SOL    HW239576   4.108   4.422   7.209 -1.7837 -0.6902  1.4083
 9373SOL     OW39577   3.201   3.435   5.216  0.6544  0.0215  0.3893
 9373SOL    HW139578   3.208   3.503   5.284 -0.9643  0.5004  0.0848
 9373SOL    HW239579   3.138   3.378   5.260  0.9983 -0.6691 -0.0183
 9374SOL     OW39580   3.569   3.606   5.001 -0.4787  0.2430  0.2708
 9374SOL    HW139581   3.554   3.679   4.941  4.5955  0.4960 -0.6915
 9374SOL    HW239582   3.665   3.612   5.005 -0.4103 -0.5010 -0.1408
 9375SOL     OW39583   4.440   3.847  14.948 -0.6903  0.4036 -0.3197
 9375SOL    HW139584   4.350   3.878  14.939  0.1678  3.0049  0.0526
 9375SOL    HW239585   4.447   3.815  15.038 -0.4198  2.5356  0.4097
 9376SOL     OW39586   4.608   0.251  10.736 -0.2804  0.3224  0.4401
 9376SOL    HW139587   4.700   0.276  10.727  0.3365 -2.1234 -0.0814
 9376SOL    HW239588   4.562   0.329  10.705 -0.7166 -0.1273 -0.0294
 9377SOL     OW39589   0.962   2.670   5.508 -0.0514  0.0721 -0.0012
 9377SOL    HW139590   0.915   2.725   5.571 -0.7193  1.1838 -1.4782
 9377SOL    HW239591   0.903   2.617   5.455  2.8198 -1.0636 -2.1014
 9378SOL     OW39592   0.742   3.388   3.884 -0.1818  0.4344  0.3086
 9378SOL    HW139593   0.749   3.439   3.804 -1.7492  0.9441  0.4990
 9378SOL    HW239594   0.667   3.329   3.875  1.2389 -0.9487 -2.4621
 9379SOL     OW39595   4.159   2.950  15.219 -0.5536  0.5348 -0.3119
 9379SOL    HW139596   4.135   2.883  15.156  2.6966 -0.5586 -0.3963
 9379SOL    HW239597   4.218   3.002  15.164  0.4929 -0.2567  0.0586
 9380SOL     OW39598   3.335   2.781  17.238 -0.2505  0.5921  0.0258
 9380SOL    HW139599   3.413   2.727  17.243 -1.5861 -1.3217  0.0004
 9380SOL    HW239600   3.265   2.721  17.264  0.2499  0.7624  1.7657
 9381SOL     OW39601   4.712   4.599   8.392 -0.0222 -0.2859  0.4373
 9381SOL    HW139602   0.026   4.687   8.398 -1.4818  0.1046  3.2983
 9381SOL    HW239603   4.648   4.596   8.321 -0.3106  0.9006  0.6424
 9382SOL     OW39604   1.169   4.468   4.420 -0.0483 -0.7415  0.3835
 9382SOL    HW139605   1.182   4.524   4.342 -0.2512 -0.5969  0.4531
 9382SOL    HW239606   1.096   4.412   4.395 -0.6649  0.4208 -0.4634
 9383SOL     OW39607   2.431   2.280   2.092 -0.1218 -0.4683  0.0973
 9383SOL    HW139608   2.357   2.246   2.144 -0.7975  0.6895 -0.1033
 9383SOL    HW239609   2.428   2.360   2.144 -1.6027  1.8748 -3.6005
 9384SOL     OW39610   3.921   4.455   9.125  0.2626  0.0657 -0.2132
 9384SOL    HW139611   3.842   4.421   9.083 -0.9809  3.2994 -0.5141
 9384SOL    HW239612   3.987   4.388   9.108  1.2399  1.0435 -0.3196
 9385SOL     OW39613   3.454   1.910  12.097 -0.1925 -0.2178  0.1486
 9385SOL    HW139614   3.476   1.818  12.080 -0.3154 -0.0352 -0.9940
 9385SOL    HW239615   3.541   1.951  12.094 -0.2956 -0.1410 -1.8685
 9386SOL     OW39616   1.941   3.378   7.602  0.3576  0.2258 -0.1473
 9386SOL    HW139617   1.996   3.455   7.588 -0.0337  0.2190 -1.7984
 9386SOL    HW239618   1.954   3.361   7.695 -1.7143 -0.2409  0.0660
 9387SOL     OW39619   0.288   3.843  10.331  0.2794  0.1677  0.1591
 9387SOL    HW139620   0.340   3.771  10.295  2.7443  2.2842 -0.5115
 9387SOL    HW239621   0.210   3.830  10.277  0.5382 -0.4108 -0.0692
 9388SOL     OW39622   2.951   4.642   7.323 -0.2294 -0.0483  0.2744
 9388SOL    HW139623   3.019   4.708   7.335  0.5615 -0.9483  0.7659
 9388SOL    HW239624   2.870   4.691   7.311 -0.1480 -0.5334 -2.2150
 9389SOL     OW39625   2.300   2.230   4.712  0.2858 -0.3821 -0.7119
 9389SOL    HW139626   2.315   2.298   4.647  0.1676  0.5704  0.2613
 9389SOL    HW239627   2.339   2.268   4.791 -0.3041  0.9236 -1.0463
 9390SOL     OW39628   2.799   2.988   3.185 -0.4211  0.0363  0.5028
 9390SOL    HW139629   2.716   2.945   3.165  0.2168 -1.0669  0.2116
 9390SOL    HW239630   2.829   2.939   3.261 -1.8457 -0.4969  0.7085
 9391SOL     OW39631   1.277   1.914  10.807  0.2469 -0.2077  0.5665
 9391SOL    HW139632   1.322   1.857  10.744  0.4821  0.7274 -0.1180
 9391SOL    HW239633   1.358   1.944  10.848  0.7800  2.1472 -2.1778
 9392SOL     OW39634   4.488   0.033  15.527  0.5262 -0.2534  0.0440
 9392SOL    HW139635   4.576   0.058  15.499  0.0713  0.5312 -0.6843
 9392SOL    HW239636   4.453   4.717  15.446  0.0250 -0.2477  0.2580
 9393SOL     OW39637   3.380   2.975   4.784 -0.1159  0.6219  0.5664
 9393SOL    HW139638   3.371   2.881   4.766 -1.0847  0.9369 -0.5389
 9393SOL    HW239639   3.302   2.975   4.840  0.8731 -0.9487  1.9526
 9394SOL     OW39640   2.757   3.058   0.380 -0.4690 -0.1132 -0.3204
 9394SOL    HW139641   2.701   3.045   0.304  0.4183  1.2847 -1.2104
 9394SOL    HW239642   2.841   3.047   0.335 -1.4046  1.7481 -2.4867
 9395SOL     OW39643   0.066   3.342   2.707 -0.2953 -0.5826 -0.6251
 9395SOL    HW139644   0.100   3.339   2.617 -0.2373  0.6815 -0.6375
 9395SOL    HW239645   0.065   3.247   2.724  1.0923 -0.8652 -2.1149
 9396SOL     OW39646   0.566   0.190   2.125 -0.2374  0.1272  0.4396
 9396SOL    HW139647   0.572   0.183   2.029 -0.4997  0.9765  0.3669
 9396SOL    HW239648   0.517   0.108   2.137  0.4614 -0.1957  1.1083
 9397SOL     OW39649   4.271   3.039   6.904 -0.0579  0.4232  0.1147
 9397SOL    HW139650   4.235   3.022   6.991 -2.0204 -2.9098 -1.3689
 9397SOL    HW239651   4.222   3.119   6.883 -0.8593  0.0437  0.5474
 9398SOL     OW39652   2.260   0.054   1.366 -0.1323  0.5537 -0.4465
 9398SOL    HW139653   2.217   0.055   1.281  2.4716  2.4633 -1.7188
 9398SOL    HW239654   2.196   0.051   1.437 -1.5224 -1.8755 -1.7995
 9399SOL     OW39655   1.569   1.498   2.431  0.3838  0.3218 -0.2317
 9399SOL    HW139656   1.648   1.553   2.431 -0.6594  1.8378  0.2324
 9399SOL    HW239657   1.530   1.515   2.346  0.8670 -1.7918 -0.8731
 9400SOL     OW39658   1.975   2.698   9.711  0.0062  0.0683  0.1368
 9400SOL    HW139659   1.973   2.776   9.656  0.2883 -0.2617 -0.3391
 9400SOL    HW239660   2.068   2.699   9.732  0.0420 -0.2362 -0.0064
 9401SOL     OW39661   2.371   3.743   6.697  0.2898  0.3889  0.3555
 9401SOL    HW139662   2.290   3.741   6.749  0.6932  2.6426  1.0527
 9401SOL    HW239663   2.400   3.833   6.707  2.3601 -0.4125  1.5419
 9402SOL     OW39664   0.293   1.209   4.581  0.7450 -0.0941 -0.6467
 9402SOL    HW139665   0.203   1.238   4.563 -0.2641 -0.7483  3.2829
 9402SOL    HW239666   0.338   1.257   4.512  0.9987  0.2006 -0.2767
 9403SOL     OW39667   2.016   1.021   8.187 -0.4209 -0.5540  0.0071
 9403SOL    HW139668   1.976   1.107   8.173 -0.6865 -0.3440  1.9507
 9403SOL    HW239669   2.022   1.030   8.282  1.4276  1.5154 -0.3120
 9404SOL     OW39670   3.580   0.798   5.813 -0.0817 -0.3942 -0.3758
 9404SOL    HW139671   3.556   0.854   5.739  0.3446 -1.1295 -1.0629
 9404SOL    HW239672   3.675   0.803   5.817 -0.0076 -1.1966 -1.2331
 9405SOL     OW39673   1.928   0.334   5.616 -0.2771  0.4397  0.5658
 9405SOL    HW139674   1.903   0.252   5.574  0.8211  1.1442 -1.4451
 9405SOL    HW239675   1.848   0.362   5.661 -2.4335 -2.1828 -1.6354
 9406SOL     OW39676   2.256   1.757   0.123  0.5507  0.0817  0.0614
 9406SOL    HW139677   2.177   1.705   0.141  0.8547 -0.8669 -1.3622
 9406SOL    HW239678   2.231   1.847   0.144  2.8786  0.8793 -0.5581
 9407SOL     OW39679   1.248   0.209   0.929 -0.2782  0.2496 -0.8257
 9407SOL    HW139680   1.227   0.174   0.843  0.3477  0.9170 -1.2489
 9407SOL    HW239681   1.343   0.205   0.930 -0.4714 -3.6422  0.0958
 9408SOL     OW39682   0.323   2.891  15.256  0.1805 -0.3502 -0.0725
 9408SOL    HW139683   0.284   2.845  15.182 -1.9565  1.6275 -0.1744
 9408SOL    HW239684   0.320   2.818  15.318 -1.3800  1.3543  1.8440
 9409SOL     OW39685   3.158   2.084   7.275  0.1256  0.0792  0.2674
 9409SOL    HW139686   3.158   2.016   7.342 -2.7368 -1.2175 -1.0497
 9409SOL    HW239687   3.068   2.069   7.248 -0.1287  2.0518  0.0015
 9410SOL     OW39688   2.076   4.620   3.801  0.6615 -0.3860  0.4822
 9410SOL    HW139689   2.126   4.687   3.754 -0.3166 -1.1761 -1.7082
 9410SOL    HW239690   2.146   4.590   3.859  2.4225 -0.8482 -1.8532
 9411SOL     OW39691   1.597   0.426   2.327  0.0694 -0.1977 -0.0531
 9411SOL    HW139692   1.684   0.443   2.292 -0.5292  0.7115 -1.1254
 9411SOL    HW239693   1.579   0.505   2.378 -2.9756 -1.8029  1.4045
 9412SOL     OW39694   4.543   1.396  11.043  0.2342  0.2580  0.3548
 9412SOL    HW139695   4.509   1.404  11.132  1.1193 -2.4876  0.9517
 9412SOL    HW239696   4.638   1.384  11.044  0.5477  2.5741 -2.6798
 9413SOL     OW39697   0.796   4.261  17.515  0.5820  0.2628 -0.0252
 9413SOL    HW139698   0.751   4.220  17.442  2.1556 -0.2236 -0.7365
 9413SOL    HW239699   0.758   4.210  17.586 -0.5234 -2.5379 -2.6578
 9414SOL     OW39700   0.112   1.075   2.989 -0.6796 -0.0048  0.1812
 9414SOL    HW139701   0.066   1.097   3.070  0.4971 -0.8870  1.1097
 9414SOL    HW239702   0.163   1.151   2.961 -0.8703 -0.6341 -1.8371
 9415SOL     OW39703   4.466   2.633   5.316  0.1055  0.2770 -0.1699
 9415SOL    HW139704   4.561   2.637   5.327  0.3936 -4.9446 -0.6399
 9415SOL    HW239705   4.451   2.616   5.223  1.4041 -0.4039 -0.2490
 9416SOL     OW39706   3.543   3.451  15.731  0.2721 -0.2872  0.2072
 9416SOL    HW139707   3.613   3.427  15.792  1.6393  0.2410 -1.1160
 9416SOL    HW239708   3.581   3.463  15.643 -0.8509 -2.1774 -0.5327
 9417SOL     OW39709   1.059   2.463   8.193 -0.5640  0.1310  0.3135
 9417SOL    HW139710   1.152   2.474   8.173 -0.0771  0.0925  2.5900
 9417SOL    HW239711   1.076   2.379   8.236 -0.8718 -0.5501 -0.9095
 9418SOL     OW39712   2.573   2.559   7.396 -0.0744  0.2971 -0.5486
 9418SOL    HW139713   2.572   2.639   7.343  1.8419  1.3588  1.0347
 9418SOL    HW239714   2.479   2.553   7.413  0.1586  0.7270  0.8465
 9419SOL     OW39715   4.130   4.518  15.165  0.3602 -0.5526  0.2557
 9419SOL    HW139716   4.130   4.516  15.070  3.2474  0.3429  0.2085
 9419SOL    HW239717   4.158   4.609  15.179  2.6119 -1.3670  1.1306
 9420SOL     OW39718   3.579   1.676   0.262  0.7192 -0.0804 -0.6500
 9420SOL    HW139719   3.507   1.666   0.199  1.0247  3.4828 -1.5636
 9420SOL    HW239720   3.588   1.589   0.301  1.7433  0.1294 -0.4107
 9421SOL     OW39721   2.727   0.873  10.388 -0.0097  0.2057  0.2057
 9421SOL    HW139722   2.772   0.955  10.368  0.1045 -0.0392 -0.5508
 9421SOL    HW239723   2.756   0.823  10.312 -1.1316  2.9469 -2.0246
 9422SOL     OW39724   3.062   0.046   1.540 -0.0208  0.0082  0.2243
 9422SOL    HW139725   3.153   0.019   1.532 -0.0567 -0.2558  0.7651
 9422SOL    HW239726   3.014   4.694   1.574 -0.2531 -1.1941 -2.7060
 9423SOL     OW39727   4.273   2.930  13.608  0.6002 -0.1131 -0.1431
 9423SOL    HW139728   4.273   2.987  13.685  0.1949 -0.0882 -0.1604
 9423SOL    HW239729   4.266   2.998  13.542  3.0950  0.4397  0.1714
 9424SOL     OW39730   1.291   1.776  16.777  0.7323  0.1201 -0.2697
 9424SOL    HW139731   1.268   1.690  16.813  1.0477  0.1527  0.0001
 9424SOL    HW239732   1.377   1.751  16.744 -0.3252  0.1143 -3.0868
 9425SOL     OW39733   4.647   1.635   2.836 -0.7476  0.5335 -0.0641
 9425SOL    HW139734   4.612   1.549   2.858  1.2976  0.4671  2.9521
 9425SOL    HW239735   0.015   1.614   2.815 -0.4990  0.0879  1.5056
 9426SOL     OW39736   2.303   3.015  13.509 -0.0696 -0.7357  0.0517
 9426SOL    HW139737   2.259   3.022  13.424  1.9067  2.0640 -0.7179
 9426SOL    HW239738   2.254   2.942  13.547 -1.4315 -0.1483 -0.5670
 9427SOL     OW39739   4.544   0.559   3.274 -0.2833 -1.0832 -0.5430
 9427SOL    HW139740   4.451   0.579   3.263 -0.0237  0.2864 -0.2212
 9427SOL    HW239741   4.571   0.608   3.197 -1.6405  0.2739 -0.1566
 9428SOL     OW39742   1.948   2.582   4.297  0.0096  0.0741 -0.5185
 9428SOL    HW139743   1.955   2.525   4.373  0.0679  0.8983  0.0892
 9428SOL    HW239744   1.972   2.668   4.331 -1.0022 -0.3587  1.2763
 9429SOL     OW39745   3.309   1.511   6.753  0.6595  0.1845  0.4236
 9429SOL    HW139746   3.343   1.506   6.842 -3.7155  0.2649  2.0998
 9429SOL    HW239747   3.324   1.604   6.733 -1.7683  0.3032 -0.8175
 9430SOL     OW39748   2.086   3.467   6.472 -0.2831  0.6651 -0.0829
 9430SOL    HW139749   2.054   3.508   6.391  1.0651  2.2099  0.1601
 9430SOL    HW239750   2.011   3.495   6.525  0.8796  1.4342  1.1428
 9431SOL     OW39751   0.352   1.580   1.938 -0.2724  0.5417 -1.0172
 9431SOL    HW139752   0.337   1.635   2.014  3.5875 -1.3680  1.1565
 9431SOL    HW239753   0.445   1.567   1.958 -0.5346  0.8671  0.3465
 9432SOL     OW39754   1.674   1.110   8.372  0.1794 -0.4779 -0.4262
 9432SOL    HW139755   1.722   1.106   8.454  1.3309  1.2599 -1.0101
 9432SOL    HW239756   1.659   1.019   8.346  0.7962  0.1691 -3.0515
 9433SOL     OW39757   1.108   3.282   3.580 -0.4778  0.6119  0.5428
 9433SOL    HW139758   1.097   3.368   3.539 -0.6303  0.3652  0.0684
 9433SOL    HW239759   1.120   3.222   3.506 -1.8752  0.9559  0.0419
 9434SOL     OW39760   0.481   1.981  12.587 -0.0344  0.0859  0.1301
 9434SOL    HW139761   0.416   1.976  12.658 -1.0971 -1.0291 -0.9264
 9434SOL    HW239762   0.445   1.915  12.528 -0.5766  0.4472  0.0512
 9435SOL     OW39763   1.264   2.342   5.800 -0.2805 -0.1042  0.2853
 9435SOL    HW139764   1.232   2.432   5.803  1.1141  0.4463 -1.3575
 9435SOL    HW239765   1.263   2.321   5.706 -2.1985 -2.1146  0.7579
 9436SOL     OW39766   4.712   4.692   7.058  0.0150  0.3408 -0.3993
 9436SOL    HW139767   4.633   4.640   7.069 -0.1232  0.7490  0.6013
 9436SOL    HW239768   0.070   4.644   7.078 -0.2848  1.8031  4.4314
 9437SOL     OW39769   2.704   0.032   3.432  0.1738  0.0947 -0.1602
 9437SOL    HW139770   2.668   0.076   3.355 -1.6687 -0.5292  0.3254
 9437SOL    HW239771   2.774   0.095   3.450  1.2928 -1.4156  0.7590
 9438SOL     OW39772   3.717   4.159   3.952  0.0252 -0.3244 -0.1495
 9438SOL    HW139773   3.691   4.071   3.925  1.2845 -0.0138 -2.3874
 9438SOL    HW239774   3.795   4.140   4.004  0.7684  1.6834 -0.5514
 9439SOL     OW39775   1.783   4.238   7.439 -0.3796  0.7377  0.0623
 9439SOL    HW139776   1.878   4.234   7.427 -0.3404  1.7739  0.0645
 9439SOL    HW239777   1.749   4.280   7.360  1.5105 -0.4382 -1.3878
 9440SOL     OW39778   1.150   0.596   4.564  0.0618  0.1145  0.1505
 9440SOL    HW139779   1.092   0.607   4.489 -2.2345 -1.5346  1.6812
 9440SOL    HW239780   1.185   0.685   4.557 -0.5854  0.3080 -0.6291
 9441SOL     OW39781   3.689   3.642   3.207 -1.1970  0.1173  0.5186
 9441SOL    HW139782   3.748   3.572   3.180  0.7653  2.1744 -0.4647
 9441SOL    HW239783   3.607   3.597   3.190 -1.3894  0.3160  0.9039
 9442SOL     OW39784   2.191   1.995   6.555 -0.2838 -0.4064 -0.1781
 9442SOL    HW139785   2.180   2.085   6.584 -0.4614 -0.9645  1.5153
 9442SOL    HW239786   2.114   1.975   6.502 -1.4016  1.5900  0.7009
 9443SOL     OW39787   3.553   0.913   7.670 -0.0165  0.3113 -0.0308
 9443SOL    HW139788   3.481   0.856   7.643  1.3171 -1.0554 -0.6441
 9443SOL    HW239789   3.533   0.998   7.630  0.1617  0.6895  0.6758
 9444SOL     OW39790   3.392   0.891   2.608  0.2850  0.3481 -0.1622
 9444SOL    HW139791   3.404   0.806   2.566 -1.7412 -0.2842  0.5267
 9444SOL    HW239792   3.486   0.910   2.610  0.2688  0.3874  0.2429
 9445SOL     OW39793   3.954   2.074   2.614 -0.2075  0.0811 -0.1614
 9445SOL    HW139794   3.933   2.100   2.704 -0.0111 -1.1860  0.2515
 9445SOL    HW239795   3.865   2.059   2.582 -0.9302 -0.4821  2.1381
 9446SOL     OW39796   3.166   1.837  15.495 -0.1579 -0.2021  0.1960
 9446SOL    HW139797   3.070   1.841  15.494 -0.1214  0.7284  0.5844
 9446SOL    HW239798   3.180   1.752  15.453  0.5657 -0.1335  0.3012
 9447SOL     OW39799   0.323   1.320   5.443 -0.3433  0.6432  0.1342
 9447SOL    HW139800   0.409   1.361   5.441 -0.3332  0.6364  0.3745
 9447SOL    HW239801   0.296   1.327   5.352  0.0048 -2.3378 -0.2016
 9448SOL     OW39802   1.036   1.000  10.737 -0.3960  0.1037 -0.1500
 9448SOL    HW139803   0.994   0.963  10.659 -1.4583  2.7934 -0.8300
 9448SOL    HW239804   1.105   0.935  10.754  0.6278  0.9864 -0.9099
 9449SOL     OW39805   0.555   3.934  16.158 -0.0894 -0.3239 -0.3943
 9449SOL    HW139806   0.473   3.972  16.189 -0.0663  0.1007 -0.8595
 9449SOL    HW239807   0.619   3.981  16.211  1.0120 -0.6170 -1.4657
 9450SOL     OW39808   0.225   0.975   5.829 -0.2663  0.2719 -1.2695
 9450SOL    HW139809   0.252   1.061   5.798 -0.4366  1.1850  1.1270
 9450SOL    HW239810   0.306   0.951   5.874 -1.5129  0.4304  1.0527
 9451SOL     OW39811   3.505   1.454  10.251 -0.8043  0.1686 -0.2960
 9451SOL    HW139812   3.465   1.429  10.168  1.1067 -1.4995 -0.7112
 9451SOL    HW239813   3.537   1.541  10.228 -1.1192  0.2502 -0.4225
 9452SOL     OW39814   3.390   1.116   5.899 -0.0879  0.5212 -0.0997
 9452SOL    HW139815   3.323   1.071   5.847  0.0002  0.3396 -0.0558
 9452SOL    HW239816   3.339   1.163   5.964 -0.1738 -0.2062  0.3600
 9453SOL     OW39817   4.249   3.004   0.932 -0.0626 -0.3494 -0.2080
 9453SOL    HW139818   4.164   3.032   0.898  0.3247  0.2603 -0.6586
 9453SOL    HW239819   4.291   2.978   0.850  0.1920  0.5617 -0.3681
 9454SOL     OW39820   3.738   4.056   1.993 -0.8964 -0.4513 -0.0749
 9454SOL    HW139821   3.727   4.071   2.087 -1.3095 -1.9610  0.1184
 9454SOL    HW239822   3.828   4.085   1.980 -0.8649 -0.3215  0.4469
 9455SOL     OW39823   4.244   3.409   5.496 -0.1797 -0.0093  0.6172
 9455SOL    HW139824   4.245   3.503   5.511  0.7049 -0.1388  1.3161
 9455SOL    HW239825   4.164   3.400   5.444  0.2138  1.5159 -0.2621
 9456SOL     OW39826   1.572   1.009   9.095 -0.4223  0.3350  0.4712
 9456SOL    HW139827   1.519   1.075   9.139 -0.6061 -0.2192  1.0973
 9456SOL    HW239828   1.515   0.978   9.025  0.5343  2.3835 -1.1843
 9457SOL     OW39829   2.873   0.974  13.983 -0.7825  0.3213  0.3440
 9457SOL    HW139830   2.805   0.913  13.955  0.8987 -1.6841  0.6605
 9457SOL    HW239831   2.898   0.999  13.894  1.2876 -0.4921  0.7032
 9458SOL     OW39832   3.777   2.656   5.045  0.1785 -0.2274 -0.5599
 9458SOL    HW139833   3.763   2.678   4.953  2.6217 -0.8259 -1.0889
 9458SOL    HW239834   3.830   2.577   5.034 -1.6508 -1.7947  1.8058
 9459SOL     OW39835   3.814   2.537   3.476  0.3256  0.4712 -0.0103
 9459SOL    HW139836   3.772   2.464   3.430 -0.6124  1.0001  0.0197
 9459SOL    HW239837   3.751   2.606   3.455  1.2003  1.1099 -0.5332
 9460SOL     OW39838   2.993   2.898   8.098  0.7162 -0.2176  0.1505
 9460SOL    HW139839   3.022   2.812   8.066  0.4136  0.0897 -0.9485
 9460SOL    HW239840   3.074   2.921   8.144  1.4137  0.5523 -1.4517
 9461SOL     OW39841   3.855   0.714  16.729  0.7015  0.6304  0.9619
 9461SOL    HW139842   3.925   0.776  16.714  0.3473  0.6550 -0.5305
 9461SOL    HW239843   3.808   0.718  16.646  1.6451 -2.7118  0.2475
 9462SOL     OW39844   0.610   2.891  16.732 -0.8107 -0.3369  0.1507
 9462SOL    HW139845   0.689   2.838  16.731 -0.6141 -0.0209 -1.6958
 9462SOL    HW239846   0.609   2.908  16.637  0.6625  2.0705  0.5660
 9463SOL     OW39847   2.318   2.273   3.987  0.7434  0.4466 -0.6195
 9463SOL    HW139848   2.333   2.323   3.907 -1.3329  0.1458 -1.2164
 9463SOL    HW239849   2.365   2.193   3.964  0.4817  0.4349 -1.1215
 9464SOL     OW39850   2.529   0.166   7.581 -0.0136  0.1485 -0.0031
 9464SOL    HW139851   2.489   0.156   7.668 -2.0153 -0.8516 -1.0407
 9464SOL    HW239852   2.538   0.074   7.558 -3.0672 -0.5046  1.3431
 9465SOL     OW39853   2.519   4.032  11.964 -0.2017  0.1772  0.0529
 9465SOL    HW139854   2.553   3.953  12.007 -1.4990  0.0718  0.8771
 9465SOL    HW239855   2.449   4.055  12.025  0.9988  1.2739  1.0237
 9466SOL     OW39856   3.481   3.386   3.410 -0.5217 -0.0070 -0.3127
 9466SOL    HW139857   3.430   3.334   3.348 -0.3227 -1.2403  0.5514
 9466SOL    HW239858   3.410   3.396   3.473 -0.9073  1.1753 -0.9470
 9467SOL     OW39859   0.967   4.602   3.752  0.4068 -0.4589 -0.8021
 9467SOL    HW139860   0.887   4.562   3.787  0.3857  1.0700  0.8837
 9467SOL    HW239861   0.945   4.602   3.659 -1.1840 -0.7391 -0.4283
 9468SOL     OW39862   2.146   2.812   3.771  0.1385  0.0317  0.2360
 9468SOL    HW139863   2.113   2.807   3.681  1.1501 -1.3566 -0.0489
 9468SOL    HW239864   2.078   2.862   3.817 -0.3636  0.9263 -1.5031
 9469SOL     OW39865   0.529   4.450   4.869  0.0325  0.2113 -0.1269
 9469SOL    HW139866   0.472   4.522   4.841  1.1130  2.3511  3.1647
 9469SOL    HW239867   0.516   4.457   4.964 -1.4715  1.5512 -0.4390
 9470SOL     OW39868   1.207   0.007   1.897 -0.1955  0.5245 -0.1053
 9470SOL    HW139869   1.176   4.642   1.875  0.1756 -0.4545  3.3427
 9470SOL    HW239870   1.195   0.010   1.992  1.0740 -0.5258  0.0889
 9471SOL     OW39871   1.433   1.551  10.356  0.4110  0.1720 -0.3903
 9471SOL    HW139872   1.479   1.629  10.326  0.8171  0.3203  0.6295
 9471SOL    HW239873   1.484   1.526  10.433 -1.9171 -1.6294  0.5994
 9472SOL     OW39874   2.960   3.986  16.076 -0.1130 -0.7155 -0.2782
 9472SOL    HW139875   3.023   3.951  16.139 -0.8914 -3.8120 -1.2473
 9472SOL    HW239876   2.903   4.023  16.143 -0.3378 -0.0942 -0.8044
 9473SOL     OW39877   4.718   1.036   6.445 -0.1485  0.7492  0.2906
 9473SOL    HW139878   0.085   1.068   6.436 -0.0781  1.6305  3.7981
 9473SOL    HW239879   0.004   0.959   6.389 -0.3335 -0.7235  2.2603
 9474SOL     OW39880   2.429   3.365   0.446 -0.7650 -0.0638  0.5527
 9474SOL    HW139881   2.441   3.422   0.370 -1.7771  1.1448  1.3079
 9474SOL    HW239882   2.356   3.308   0.426 -1.6704  1.5830 -0.8800
 9475SOL     OW39883   3.917   2.245  13.638  0.0101  0.1469 -0.2172
 9475SOL    HW139884   3.911   2.321  13.579  0.3538  1.3670  1.3190
 9475SOL    HW239885   3.914   2.283  13.726  0.4770  0.3146 -0.2706
 9476SOL     OW39886   2.253   2.453   3.550 -0.1104  0.7799  0.2524
 9476SOL    HW139887   2.228   2.380   3.495 -0.8189 -0.9269  2.8369
 9476SOL    HW239888   2.299   2.510   3.489  1.9169 -0.4946  0.5742
 9477SOL     OW39889   1.675   0.472   6.945  0.0885 -0.3312  0.8227
 9477SOL    HW139890   1.606   0.419   6.905  0.6176  0.1298 -0.6990
 9477SOL    HW239891   1.651   0.557   6.909 -1.3893 -1.0566  0.0590
 9478SOL     OW39892   2.419   3.052  11.864 -0.0567  0.0578 -0.0097
 9478SOL    HW139893   2.358   2.983  11.891 -0.0708 -0.6528 -1.8795
 9478SOL    HW239894   2.401   3.125  11.924 -1.4676 -1.3781  1.3321
 9479SOL     OW39895   0.036   0.517   7.916  0.5632  0.5271  0.1425
 9479SOL    HW139896   0.073   0.603   7.936  0.7708  0.1174  1.5260
 9479SOL    HW239897   4.689   0.523   7.851 -1.8224  1.3482  2.7683
 9480SOL     OW39898   2.403   0.258   2.636 -0.1235  0.1352  0.5296
 9480SOL    HW139899   2.452   0.264   2.718 -2.4287 -0.9158  1.9708
 9480SOL    HW239900   2.479   0.255   2.578 -0.7703  1.1351 -0.3639
 9481SOL     OW39901   3.485   1.217   8.460  0.5846 -0.1135 -0.2811
 9481SOL    HW139902   3.452   1.306   8.463 -0.6343 -0.5802  0.0200
 9481SOL    HW239903   3.499   1.201   8.554 -1.6263  0.7489  0.1919
 9482SOL     OW39904   2.965   2.030   6.043 -0.4154  0.2887 -0.1372
 9482SOL    HW139905   2.934   1.941   6.028  0.4989  0.3914 -2.7182
 9482SOL    HW239906   2.888   2.071   6.004 -1.1023 -0.1071  0.8176
 9483SOL     OW39907   1.186   3.396   2.959 -0.2559  0.1250  0.5694
 9483SOL    HW139908   1.254   3.462   2.948 -0.3136  0.1129  0.1336
 9483SOL    HW239909   1.218   3.339   2.889 -1.7908 -0.2660  0.1749
 9484SOL     OW39910   1.819   4.525   4.090  0.2835 -0.1184 -0.7130
 9484SOL    HW139911   1.814   4.521   3.995 -0.7075  3.5703 -0.8075
 9484SOL    HW239912   1.891   4.589   4.093  1.0731 -0.9306 -2.2011
 9485SOL     OW39913   0.021   1.344   6.555 -0.4540 -0.5799 -0.3627
 9485SOL    HW139914   4.697   1.375   6.632 -0.8776 -1.9998 -0.0632
 9485SOL    HW239915   0.034   1.251   6.574  2.9420 -0.0838 -0.2314
 9486SOL     OW39916   2.998   4.302  12.857 -1.0409  0.1441  0.4232
 9486SOL    HW139917   2.948   4.349  12.791 -0.6965  0.8549  0.6684
 9486SOL    HW239918   3.023   4.227  12.804 -1.9602 -0.7068  1.1785
 9487SOL     OW39919   1.580   3.937   9.298 -0.3109 -0.3076  0.0270
 9487SOL    HW139920   1.547   3.873   9.360 -0.4047 -0.0473  0.2443
 9487SOL    HW239921   1.668   3.953   9.333 -0.8390  0.2680  1.0827
 9488SOL     OW39922   2.755   2.957   5.004 -0.1469  0.3263 -0.2372
 9488SOL    HW139923   2.671   3.002   4.993  0.6152  1.6345 -0.6356
 9488SOL    HW239924   2.770   2.930   4.913  2.9986 -2.1273  1.0202
 9489SOL     OW39925   1.230   0.968  12.727 -0.3309  0.0235  0.0902
 9489SOL    HW139926   1.196   0.894  12.778  0.3518 -0.6602 -0.4533
 9489SOL    HW239927   1.148   1.017  12.717 -0.3332  0.1061  0.5051
 9490SOL     OW39928   2.627   3.391   0.927  0.3985 -0.1395  0.2754
 9490SOL    HW139929   2.553   3.377   0.868  0.2794  0.4819  0.2725
 9490SOL    HW239930   2.651   3.481   0.902  1.1148 -0.1265  1.0213
 9491SOL     OW39931   1.993   3.460  14.918 -0.1479  0.1578 -0.4813
 9491SOL    HW139932   2.005   3.402  14.843 -1.1175 -1.3762  0.5469
 9491SOL    HW239933   1.913   3.507  14.894 -1.5158 -0.5306  2.6948
 9492SOL     OW39934   2.801   1.496  14.432  0.3984  0.9945 -0.1909
 9492SOL    HW139935   2.739   1.569  14.437 -0.7286 -0.0879  1.6922
 9492SOL    HW239936   2.888   1.534  14.441  0.9534 -0.8143  1.9772
 9493SOL     OW39937   2.756   2.272   6.752  0.1671 -0.1724 -0.3072
 9493SOL    HW139938   2.822   2.298   6.817  1.4505 -0.9041 -1.3235
 9493SOL    HW239939   2.779   2.180   6.744  0.3151 -0.1029 -0.6589
 9494SOL     OW39940   0.020   3.722  16.250 -0.2868  0.0421  0.6473
 9494SOL    HW139941   4.676   3.754  16.310  1.1235  0.7829  1.8282
 9494SOL    HW239942   0.020   3.628  16.268 -1.9896  0.1792  1.3909
 9495SOL     OW39943   2.676   0.002   4.581  0.1533  0.0066  0.5882
 9495SOL    HW139944   2.654   0.085   4.625 -0.3709  0.5725 -0.7488
 9495SOL    HW239945   2.590   4.695   4.554  0.5249  0.1056 -0.6821
 9496SOL     OW39946   2.190   0.176   7.319  0.4774 -0.0611  0.5539
 9496SOL    HW139947   2.179   0.255   7.372 -0.4256  0.7829 -0.8942
 9496SOL    HW239948   2.193   0.113   7.391 -1.6532 -1.1023 -0.2556
 9497SOL     OW39949   2.923   0.990   6.250 -0.4109  0.1838 -0.3232
 9497SOL    HW139950   2.915   0.895   6.258  0.7124  0.2043  1.0152
 9497SOL    HW239951   2.994   0.997   6.185 -0.3235  1.8937 -0.0516
 9498SOL     OW39952   3.374   0.598   7.207  0.1994 -0.5286 -0.0494
 9498SOL    HW139953   3.448   0.629   7.260  0.3187 -0.3094 -0.3416
 9498SOL    HW239954   3.422   0.540   7.148 -0.5376 -2.5409  1.3383
 9499SOL     OW39955   1.133   1.141   7.856  0.3658  0.2188 -0.5463
 9499SOL    HW139956   1.163   1.226   7.889 -2.2445  1.1034 -0.4480
 9499SOL    HW239957   1.206   1.088   7.887 -1.1426 -0.5344  1.7557
 9500SOL     OW39958   3.463   4.523   6.297  0.1014  0.2814  0.0073
 9500SOL    HW139959   3.371   4.522   6.273  0.0773 -1.2831  0.1356
 9500SOL    HW239960   3.463   4.580   6.374  0.5227  0.6673 -0.2847
 9501SOL     OW39961   1.872   3.200   8.217 -0.3060  0.1143  0.3464
 9501SOL    HW139962   1.847   3.124   8.164  3.3893 -0.4478 -0.6017
 9501SOL    HW239963   1.916   3.147   8.283 -1.1534 -0.2116  0.6452
 9502SOL     OW39964   2.449   0.569  10.039 -0.4724 -0.5189  0.1225
 9502SOL    HW139965   2.471   0.479  10.063  0.2650  0.4000  2.8280
 9502SOL    HW239966   2.511   0.583   9.967  0.7606  1.0827  1.5063
 9503SOL     OW39967   1.924   4.380   8.446 -0.0450 -0.5474  0.5483
 9503SOL    HW139968   1.946   4.420   8.530  0.9439 -0.3957  0.2048
 9503SOL    HW239969   2.001   4.406   8.396  0.0691  0.3735  1.2112
 9504SOL     OW39970   0.011   3.205  11.397  0.0197 -0.1414  0.5229
 9504SOL    HW139971   0.038   3.144  11.328  0.8840 -1.5378  2.1170
 9504SOL    HW239972   4.645   3.174  11.414  0.1274 -1.0818 -0.5984
 9505SOL     OW39973   1.567   0.540  16.167 -0.0236 -0.5467  0.2187
 9505SOL    HW139974   1.635   0.549  16.100 -0.0403 -0.2465  0.2446
 9505SOL    HW239975   1.577   0.447  16.186  0.8609 -0.3550  0.6656
 9506SOL     OW39976   3.041   2.633   0.750  0.0899 -0.3933  0.3670
 9506SOL    HW139977   2.955   2.661   0.718  1.0741  1.0080 -1.0031
 9506SOL    HW239978   3.074   2.619   0.662 -1.4800 -4.2372  0.4080
 9507SOL     OW39979   2.574   4.711   3.778  0.2154  0.3259 -0.0644
 9507SOL    HW139980   2.651   4.700   3.834 -0.9028 -1.6861  1.0722
 9507SOL    HW239981   2.595   0.073   3.740  0.0106  0.0182 -0.8509
 9508SOL     OW39982   2.185   2.745   4.368  0.3478  0.5454 -0.3086
 9508SOL    HW139983   2.279   2.740   4.387  0.5152  0.0327 -1.2631
 9508SOL    HW239984   2.185   2.714   4.278 -1.0520 -1.9663  0.5487
 9509SOL     OW39985   0.960   0.329  17.112 -0.3493 -0.1641  0.5372
 9509SOL    HW139986   1.026   0.292  17.171 -0.0575  0.8492  0.8613
 9509SOL    HW239987   0.995   0.316  17.024 -0.3792 -1.7466  0.7573
 9510SOL     OW39988   1.586   0.968   5.496  0.0407  0.2446 -0.1718
 9510SOL    HW139989   1.576   0.942   5.588 -0.2619  1.3375  0.1037
 9510SOL    HW239990   1.666   1.018   5.513 -1.4601  2.2892  0.8632
 9511SOL     OW39991   1.182   4.565   7.533 -0.4572  0.5748 -0.1139
 9511SOL    HW139992   1.253   4.551   7.471 -1.3127 -1.7879 -0.5800
 9511SOL    HW239993   1.165   4.657   7.517  0.2529  0.9048  1.0288
 9512SOL     OW39994   2.960   2.519   6.107  0.4580 -0.8079  0.2181
 9512SOL    HW139995   2.887   2.467   6.073  0.7040 -0.0823 -1.4471
 9512SOL    HW239996   2.919   2.592   6.152  1.6253  0.0993 -0.1664
 9513SOL     OW39997   4.259   4.213   8.684 -0.0939  0.1376  0.0149
 9513SOL    HW139998   4.229   4.304   8.688  0.1337  0.1081  2.1909
 9513SOL    HW239999   4.258   4.185   8.775 -3.6403  3.2135  0.9137
 9514SOL     OW40000   3.531   1.498   6.955  0.3404 -0.0429  0.1461
 9514SOL    HW140001   3.544   1.405   6.941  1.9144  0.0448  0.9367
 9514SOL    HW240002   3.579   1.538   6.882 -2.2394  0.1903 -1.4144
 9515SOL     OW40003   0.568   3.065   1.989  0.3193  0.0623  0.0027
 9515SOL    HW140004   0.618   2.998   2.036  0.8716  1.3362  1.2330
 9515SOL    HW240005   0.600   3.141   2.038 -0.4456 -0.1830  0.8817
 9516SOL     OW40006   3.343   1.676  15.984  0.2363 -0.6458 -0.0478
 9516SOL    HW140007   3.358   1.617  15.910 -1.6288 -1.1000 -0.0570
 9516SOL    HW240008   3.334   1.763  15.947 -0.4084 -0.6246  0.1633
 9517SOL     OW40009   2.653   0.119   5.998 -0.1319  1.1177 -0.5131
 9517SOL    HW140010   2.611   0.103   5.913  0.0374  0.3587 -0.4555
 9517SOL    HW240011   2.577   0.113   6.055 -0.5725 -2.6002 -1.5248
 9518SOL     OW40012   3.019   1.411   2.916  0.1466  0.1481 -0.5430
 9518SOL    HW140013   3.024   1.394   2.822 -1.6767  0.2859 -0.6751
 9518SOL    HW240014   2.926   1.410   2.939  0.0285  1.9164 -0.9758
 9519SOL     OW40015   3.400   1.483   3.099 -0.2854 -0.5626  0.3676
 9519SOL    HW140016   3.433   1.415   3.040  0.3286  0.4666 -0.4885
 9519SOL    HW240017   3.480   1.508   3.145  1.0411 -2.0163 -1.1321
 9520SOL     OW40018   0.880   0.387  13.395 -0.1147  0.0467  0.0694
 9520SOL    HW140019   0.905   0.436  13.317 -3.7250 -0.1133 -1.2162
 9520SOL    HW240020   0.956   0.330  13.408  1.4075  1.1324 -4.1775
 9521SOL     OW40021   2.239   4.586   7.290  0.2261  0.6916 -1.1071
 9521SOL    HW140022   2.170   4.605   7.227 -0.4279 -0.0752 -0.6293
 9521SOL    HW240023   2.208   4.630   7.369 -1.9838 -0.0075 -1.5816
 9522SOL     OW40024   3.264   1.973   4.548 -0.0440  0.7861  0.2826
 9522SOL    HW140025   3.350   2.013   4.535  1.3124 -2.4599 -0.5935
 9522SOL    HW240026   3.261   1.980   4.644 -1.7579  0.2084  0.2602
 9523SOL     OW40027   3.324   1.436   8.533  0.3990  0.1211 -0.7423
 9523SOL    HW140028   3.235   1.443   8.499 -1.2636  0.7887  3.6383
 9523SOL    HW240029   3.314   1.459   8.626  0.0694 -0.4680 -0.6361
 9524SOL     OW40030   1.250   3.076   3.163  0.5388  0.0788 -0.3022
 9524SOL    HW140031   1.208   3.071   3.077 -0.0953 -0.8190  0.0473
 9524SOL    HW240032   1.330   3.116   3.129  0.0766 -0.4907 -2.0553
 9525SOL     OW40033   2.237   2.447  14.868  0.1691  0.1350  0.2258
 9525SOL    HW140034   2.284   2.461  14.950  0.4420  1.8001 -0.2237
 9525SOL    HW240035   2.191   2.366  14.890 -0.8173  0.2305 -1.4898
 9526SOL     OW40036   0.111   1.936   2.138  0.2447  0.3324  0.5241
 9526SOL    HW140037   0.193   1.896   2.167 -0.6480 -0.7313  1.6205
 9526SOL    HW240038   0.054   1.926   2.214 -0.8749  1.1494 -0.2066
 9527SOL     OW40039   3.795   1.136  14.642 -0.0134  0.2224 -0.3774
 9527SOL    HW140040   3.811   1.161  14.551 -0.5379 -0.0831 -0.5525
 9527SOL    HW240041   3.705   1.103  14.647  0.3091 -0.7727 -1.0503
 9528SOL     OW40042   2.376   1.229   7.196 -0.1043  0.2223  0.2786
 9528SOL    HW140043   2.384   1.147   7.147 -1.6257  0.1963  0.0894
 9528SOL    HW240044   2.446   1.207   7.258  1.4023 -0.0292 -1.5027
 9529SOL     OW40045   2.488   1.189   9.464 -0.0682 -0.4224  0.0765
 9529SOL    HW140046   2.468   1.107   9.509 -0.6292 -0.3529 -0.0464
 9529SOL    HW240047   2.400   1.210   9.432 -0.0742 -0.5010  0.0412
 9530SOL     OW40048   4.619   0.328  15.431  0.6329 -0.4162  0.2089
 9530SOL    HW140049   4.701   0.377  15.421  1.2293 -1.3182  0.5912
 9530SOL    HW240050   4.645   0.267  15.501  0.9622  0.9884  1.3015
 9531SOL     OW40051   4.396   3.718   5.419 -1.0088 -0.0711  0.0563
 9531SOL    HW140052   4.382   3.720   5.513  0.9306 -0.3221  0.3649
 9531SOL    HW240053   4.326   3.780   5.401  0.5246  1.1995 -1.5825
 9532SOL     OW40054   2.888   4.714   8.842 -0.1441  0.1109 -0.3051
 9532SOL    HW140055   2.889   4.650   8.913  1.6888 -0.1815 -0.5866
 9532SOL    HW240056   2.850   4.661   8.772 -0.0371 -0.0625 -0.2309
 9533SOL     OW40057   3.504   3.755  10.219  0.0680  0.1576 -0.4584
 9533SOL    HW140058   3.495   3.833  10.272 -0.5626  0.2926 -0.7646
 9533SOL    HW240059   3.414   3.741  10.190 -0.1113  0.5640 -0.0919
 9534SOL     OW40060   0.561   3.952   7.046  0.5481 -0.1488  0.4703
 9534SOL    HW140061   0.511   3.965   6.966  1.9880  1.5044 -0.1694
 9534SOL    HW240062   0.608   4.034   7.064 -0.3198  0.3313  0.5439
 9535SOL     OW40063   1.446   2.131   8.875 -0.3552  0.0575  0.4985
 9535SOL    HW140064   1.366   2.177   8.900 -0.2620 -0.2630  1.3912
 9535SOL    HW240065   1.448   2.139   8.780  0.3307  2.8729  0.7395
 9536SOL     OW40066   3.848   0.400   3.614  0.1336  0.1077 -0.4810
 9536SOL    HW140067   3.764   0.439   3.637 -1.4474 -2.5941 -1.6198
 9536SOL    HW240068   3.843   0.408   3.519  1.0104  0.1463 -0.5297
 9537SOL     OW40069   4.656   1.820   2.638 -0.5555 -0.1168 -0.1202
 9537SOL    HW140070   4.603   1.891   2.674  1.9465  2.6414 -1.8742
 9537SOL    HW240071   4.648   1.756   2.709  1.3721  0.4854  0.6311
 9538SOL     OW40072   0.951   1.337   3.156 -0.1088  0.1162  0.2605
 9538SOL    HW140073   1.041   1.324   3.128 -0.0701  1.1533 -0.1105
 9538SOL    HW240074   0.915   1.391   3.085  1.8981  1.7498  0.4745
 9539SOL     OW40075   1.837   1.486   0.666 -0.8121 -0.6317 -0.0152
 9539SOL    HW140076   1.884   1.556   0.620  0.3245 -1.7346 -0.5346
 9539SOL    HW240077   1.908   1.477   0.729 -0.0184  0.7019 -0.7323
 9540SOL     OW40078   0.028   1.921  10.968  0.3087  0.0187  0.8040
 9540SOL    HW140079   0.103   1.961  10.924  1.8938 -1.3984  2.1999
 9540SOL    HW240080   0.050   1.828  10.972  2.1252  0.4447  0.7262
 9541SOL     OW40081   3.539   2.233  11.548 -0.2957  0.2447  0.4191
 9541SOL    HW140082   3.553   2.139  11.535 -1.8385 -0.1058  1.2264
 9541SOL    HW240083   3.514   2.254  11.458  0.7949 -1.6628 -0.3403
 9542SOL     OW40084   4.600   4.402  12.177  0.6115  0.6205 -0.1059
 9542SOL    HW140085   4.601   4.312  12.209  1.7411  1.0355  1.0274
 9542SOL    HW240086   4.662   4.438  12.240  1.0142 -1.7373  0.8217
 9543SOL     OW40087   3.328   1.423   8.134 -0.6486 -0.2130  0.4861
 9543SOL    HW140088   3.264   1.484   8.098  1.6384 -0.1859 -3.5499
 9543SOL    HW240089   3.342   1.350   8.073  0.3219  0.7419 -0.4446
 9544SOL     OW40090   1.992   0.807   9.562 -0.1920  0.1735  0.1070
 9544SOL    HW140091   1.917   0.766   9.605  2.0634  0.3028  4.0797
 9544SOL    HW240092   1.979   0.761   9.479 -3.5536 -1.2236  1.3880
 9545SOL     OW40093   0.793   0.435   3.599 -0.2667 -0.1172 -0.2135
 9545SOL    HW140094   0.803   0.363   3.662 -1.9170 -1.2123 -1.1906
 9545SOL    HW240095   0.726   0.490   3.639  1.7071  1.6012  0.7231
 9546SOL     OW40096   0.242   1.877  10.613 -0.3095 -0.4240 -0.2539
 9546SOL    HW140097   0.274   1.787  10.624  1.8903  0.2688 -0.9904
 9546SOL    HW240098   0.328   1.919  10.608 -1.4816  1.8692 -1.1989
 9547SOL     OW40099   1.441   3.356   3.412 -0.4245 -0.0118 -0.1324
 9547SOL    HW140100   1.348   3.365   3.391 -0.3513  0.4333 -0.2835
 9547SOL    HW240101   1.447   3.261   3.406  1.3198  0.2059 -1.7901
 9548SOL     OW40102   3.642   3.746   5.321  0.3647 -0.1472  0.0123
 9548SOL    HW140103   3.570   3.715   5.265 -0.7220 -3.6274  3.3827
 9548SOL    HW240104   3.614   3.829   5.360  2.4792  0.7060 -0.2661
 9549SOL     OW40105   0.331   0.636   8.777  0.0495 -0.0408 -0.3551
 9549SOL    HW140106   0.275   0.571   8.818 -1.1335  0.1340 -1.6944
 9549SOL    HW240107   0.382   0.577   8.721 -1.9480 -1.1977 -0.9585
 9550SOL     OW40108   0.050   0.300  16.742  0.2385 -0.3415 -0.1218
 9550SOL    HW140109   0.067   0.299  16.836 -0.6264 -0.6258  0.0298
 9550SOL    HW240110   0.058   0.206  16.727 -1.2613 -0.4003 -0.6207
 9551SOL     OW40111   2.047   1.661  15.524  0.2791  0.8697  0.3447
 9551SOL    HW140112   2.104   1.685  15.451 -0.4162  0.0108 -0.4716
 9551SOL    HW240113   2.069   1.727  15.590 -0.5074 -0.3416  1.7908
 9552SOL     OW40114   3.491   1.231   4.918  0.2972  0.3299  0.0902
 9552SOL    HW140115   3.535   1.313   4.938  1.3025  0.0805 -1.0702
 9552SOL    HW240116   3.549   1.172   4.967 -0.4528 -1.4488 -1.1627
 9553SOL     OW40117   0.121   1.336  11.048  0.0354 -0.3177 -0.4434
 9553SOL    HW140118   0.193   1.354  11.109 -0.5418  0.0534  0.1365
 9553SOL    HW240119   0.161   1.267  10.996  1.5976  1.2045 -1.2441
 9554SOL     OW40120   1.476   4.612   0.614 -0.2399  0.1480  0.2960
 9554SOL    HW140121   1.469   4.518   0.634 -1.3613 -0.0566 -1.0340
 9554SOL    HW240122   1.424   4.616   0.534  0.4667  0.0317 -0.1753
 9555SOL     OW40123   1.034   2.534   1.088  0.2604 -0.0290 -0.1455
 9555SOL    HW140124   1.039   2.586   1.008 -1.4889  1.6638  0.8552
 9555SOL    HW240125   0.969   2.592   1.128 -0.5460 -2.6200  2.3381
 9556SOL     OW40126   3.474   1.808   3.910 -0.3413 -0.4327 -0.2644
 9556SOL    HW140127   3.532   1.850   3.845 -1.9086 -0.6915 -1.8250
 9556SOL    HW240128   3.394   1.788   3.861 -1.2433 -0.1559  1.1159
 9557SOL     OW40129   1.290   4.523  15.117 -0.3302 -0.1693 -0.2956
 9557SOL    HW140130   1.343   4.486  15.047 -0.8184  1.4040 -1.4737
 9557SOL    HW240131   1.319   4.462  15.186  1.2432  0.5746 -0.3040
 9558SOL     OW40132   0.596   2.113  17.301 -0.3135  0.2927 -0.3353
 9558SOL    HW140133   0.676   2.153  17.268  0.1449 -0.0431  0.3651
 9558SOL    HW240134   0.615   2.093  17.393 -2.4075 -4.7034 -0.9360
 9559SOL     OW40135   1.299   1.402   7.786  0.8142 -0.3349 -0.6961
 9559SOL    HW140136   1.327   1.458   7.714  0.6511 -0.4606 -0.8571
 9559SOL    HW240137   1.337   1.322   7.750  0.3730 -0.5602 -0.6663
 9560SOL     OW40138   3.394   3.807   6.664 -0.0306 -0.0730  0.1966
 9560SOL    HW140139   3.427   3.845   6.583 -0.3668  2.0184  1.0312
 9560SOL    HW240140   3.356   3.879   6.716  0.3104 -0.8251  1.4855
 9561SOL     OW40141   0.900   3.771   1.643  0.0116 -0.7336 -0.2566
 9561SOL    HW140142   0.864   3.853   1.610  1.7458 -0.2517 -0.9904
 9561SOL    HW240143   0.857   3.708   1.584  0.8244 -0.9722 -0.6023
 9562SOL     OW40144   3.715   2.597  13.665 -0.1851  0.4921  0.0561
 9562SOL    HW140145   3.646   2.645  13.711 -0.4842  1.1180 -1.0311
 9562SOL    HW240146   3.692   2.593  13.572  1.6297 -0.0497 -0.3667
 9563SOL     OW40147   2.336   4.259   6.748  0.3731 -0.7238 -0.2870
 9563SOL    HW140148   2.331   4.236   6.656 -1.7852 -0.4403 -0.2409
 9563SOL    HW240149   2.395   4.335   6.751 -1.2068  0.4245  1.7038
 9564SOL     OW40150   2.444   2.335   4.925  0.0877 -0.0315 -0.0244
 9564SOL    HW140151   2.451   2.282   5.004  1.4221  0.0192 -0.1031
 9564SOL    HW240152   2.476   2.423   4.947 -1.1058  0.5945 -0.8211
 9565SOL     OW40153   3.714   3.038   2.086 -0.3380 -0.0858 -0.0753
 9565SOL    HW140154   3.713   3.078   2.174  0.7131 -0.6851  0.2066
 9565SOL    HW240155   3.763   2.959   2.107  2.0986  1.1179 -1.2532
   4.72295   4.72295  17.69375
