Membrane in water
40155
    1TCq1    O1    1   3.061   2.972  11.289  0.2363  0.3244  0.3419
    1TCq1    C1    2   3.049   2.851  11.345 -0.1543  0.0927  0.2899
    1TCq1    O2    3   3.117   2.812  11.434  0.3650 -0.3620 -0.0319
    1TCq1    C2    4   2.915   2.820  11.326 -0.0193  0.1240  0.1798
    1TCq1    C3    5   2.854   2.853  11.206 -0.4461 -0.2257 -0.3895
    1TCq1    C4    6   2.717   2.817  11.198  0.0316  0.3691  0.0209
    1TCq1    C5    7   2.655   2.751  11.303  0.5694  0.1927 -0.0225
    1TCq1    C6    8   2.726   2.719  11.418 -0.2483 -0.6407 -0.0855
    1TCq1    C7    9   2.859   2.751  11.436 -0.0677  0.6448  0.6955
    1TCq1    C8   10   2.664   2.609  11.495 -0.5141  0.0833  0.4382
    1TCq1    O4   11   2.546   2.593  11.486 -0.0730  0.0128 -0.8087
    1TCq1    C9   12   2.639   2.837  11.081  0.0510 -0.8549  0.3578
    1TCq1    O5   13   2.528   2.773  11.067 -0.3695 -0.1488  0.0676
    1TCq1    O6   14   2.691   2.907  10.992 -0.1168  0.3341 -0.0986
    1TCq1    H1   15   2.973   3.000  11.256 -0.6874 -0.7641  1.8767
    1TCq1    H2   16   2.911   2.880  11.119 -0.6202  0.3936 -0.3095
    1TCq1    H3   17   2.556   2.710  11.287  0.2116  0.4720  1.4402
    1TCq1    H4   18   2.917   2.741  11.527  1.4558 -1.3937 -0.4875
    2MPD2     C   19   2.664   2.367  11.933 -1.1247 -0.2964  0.4287
    2MPD2    C1   20   2.567   2.442  11.871 -0.6235 -0.1068 -0.6183
    2MPD2    C2   21   2.586   2.488  11.745 -0.0897  0.5505 -0.2032
    2MPD2    C3   22   2.709   2.473  11.687 -0.1208 -0.3783 -0.7494
    2MPD2    C4   23   2.803   2.393  11.746  0.1501  0.0862  0.6645
    2MPD2    C5   24   2.781   2.342  11.873 -0.6048 -0.0689  0.8257
    2MPD2     H   25   2.506   2.544  11.699 -0.6034 -1.0365 -1.2296
    2MPD2    H1   26   2.904   2.383  11.708 -0.3407  1.3234 -0.9602
    2MPD2    H2   27   2.649   2.332  12.034  3.3678  0.2555  1.2653
    2MPD2    H3   28   2.861   2.295  11.929  0.2694  0.7309  0.2483
    2MPD2     N   29   2.750   2.539  11.570  0.3077  0.2266  0.1519
    2MPD2    H5   30   2.850   2.534  11.553  0.5117  2.5694  0.7147
    2MPD2    N1   31   2.443   2.479  11.935 -0.0212  0.4575 -0.0652
    2MPD2    H7   32   2.374   2.510  11.866 -0.7765 -1.7809 -0.3021
    3TCq1    O1   33   1.125   3.443   9.917 -0.1457 -0.7231 -0.1919
    3TCq1    C1   34   1.130   3.328   9.984 -0.3449  0.3827 -0.0476
    3TCq1    O2   35   1.038   3.249   9.982 -0.4367  0.1995 -0.5343
    3TCq1    C2   36   1.236   3.344  10.081 -0.7158  0.7071  0.2003
    3TCq1    C3   37   1.345   3.422  10.052 -0.6799 -0.5901 -0.1803
    3TCq1    C4   38   1.407   3.476  10.161  0.2193  0.3135 -0.6938
    3TCq1    C5   39   1.367   3.450  10.294  0.1774  0.9763 -0.6094
    3TCq1    C6   40   1.252   3.372  10.313  0.4304 -0.4301 -0.0154
    3TCq1    C7   41   1.193   3.319  10.206  0.3315 -0.3637  0.2094
    3TCq1    C8   42   1.196   3.347  10.450  0.1416 -0.4486 -0.0350
    3TCq1    O4   43   1.106   3.262  10.458  0.4704  0.5779 -0.0112
    3TCq1    C9   44   1.510   3.576  10.130 -0.2340  0.4236 -0.2779
    3TCq1    O5   45   1.510   3.637  10.018  0.1350  0.4313  0.0841
    3TCq1    O6   46   1.597   3.601  10.215 -0.4004  0.2204  0.1803
    3TCq1    H1   47   1.194   3.510   9.936  0.7376 -1.8504  0.6140
    3TCq1    H2   48   1.377   3.452   9.953 -0.1315  0.2456  0.2534
    3TCq1    H3   49   1.417   3.501  10.375  0.5998  0.1487 -0.3530
    3TCq1    H4   50   1.098   3.271  10.223  1.0822 -2.5802 -1.8260
    4MPD2     C   51   1.078   3.519  10.919  0.5592 -0.1080  0.1371
    4MPD2    C1   52   1.169   3.611  10.856  0.3292 -0.0818  0.1685
    4MPD2    C2   53   1.228   3.576  10.735  0.0719 -0.2785 -0.2326
    4MPD2    C3   54   1.194   3.464  10.670  0.3390 -0.2274  0.9380
    4MPD2    C4   55   1.097   3.383  10.729 -0.0105  0.1490 -0.1480
    4MPD2    C5   56   1.046   3.406  10.853  0.4085 -0.5100 -0.5568
    4MPD2     H   57   1.291   3.650  10.686 -0.3525  0.0439 -0.2881
    4MPD2    H1   58   1.057   3.300  10.673  0.3389 -0.6325  0.7642
    4MPD2    H2   59   1.040   3.525  11.021 -1.7887 -0.9775 -0.6950
    4MPD2    H3   60   0.978   3.340  10.905 -0.8033  1.1430 -0.0379
    4MPD2     N   61   1.236   3.443  10.536 -0.3242 -0.1122  0.2673
    4MPD2    H5   62   1.299   3.514  10.502 -1.5358 -0.3090 -2.3637
    4MPD2    N1   63   1.201   3.742  10.906 -0.0125  0.3923 -0.3462
    4MPD2    H7   64   1.287   3.788  10.881  0.1333 -0.2569 -1.0484
    5TCq1    O1   65   1.225   0.801   9.716  0.0424 -0.1242 -0.3248
    5TCq1    C1   66   1.168   0.860   9.824  0.7077  0.0403 -0.6250
    5TCq1    O2   67   1.051   0.899   9.823 -0.0874 -0.6366 -0.2424
    5TCq1    C2   68   1.267   0.949   9.868  0.8182 -0.0150  0.1500
    5TCq1    C3   69   1.272   1.085   9.830 -0.3679 -0.3276  0.2830
    5TCq1    C4   70   1.378   1.156   9.856 -0.7150 -1.0585  0.2818
    5TCq1    C5   71   1.484   1.091   9.914  0.3538  0.2648 -0.3931
    5TCq1    C6   72   1.471   0.970   9.977  0.0090  0.1668 -0.5933
    5TCq1    C7   73   1.366   0.897   9.947 -0.5996  0.4041  0.0957
    5TCq1    C8   74   1.584   0.897  10.037  0.2052 -0.2190 -0.1837
    5TCq1    O4   75   1.570   0.774  10.052  0.2268  0.0314 -0.5522
    5TCq1    C9   76   1.395   1.285   9.796 -0.4656  0.1035 -0.2383
    5TCq1    O5   77   1.288   1.341   9.756 -0.3992 -0.1225 -0.1233
    5TCq1    O6   78   1.512   1.318   9.762 -0.2405  0.3571  0.4143
    5TCq1    H1   79   1.321   0.791   9.727  0.0484  0.0312 -0.2336
    5TCq1    H2   80   1.192   1.123   9.767 -0.9895  1.9709  2.4483
    5TCq1    H3   81   1.577   1.146   9.918  0.1283  0.7268 -1.6102
    5TCq1    H4   82   1.351   0.797   9.986  2.8035  0.7941  2.3727
    6MPD2     C   83   1.913   1.044  10.105  0.4202 -0.1522 -0.5909
    6MPD2    C1   84   1.824   0.941  10.088  0.1635  0.0861 -0.0430
    6MPD2    C2   85   1.874   0.804  10.088 -0.1875 -0.5642 -0.8092
    6MPD2    C3   86   2.007   0.778  10.099 -0.0644 -0.6938 -0.7408
    6MPD2    C4   87   2.088   0.889  10.123 -0.4140  0.6348 -0.1993
    6MPD2    C5   88   2.047   1.018  10.128  0.0527 -0.0676  0.8216
    6MPD2     H   89   1.800   0.725  10.099  0.2717 -0.7065  1.2218
    6MPD2    H1   90   2.191   0.886  10.158 -0.7806  2.3389  1.0363
    6MPD2    H2   91   1.875   1.145  10.106  4.7072  1.4119 -0.4028
    6MPD2    H3   92   2.127   1.083  10.160  0.1381 -0.7099  1.9209
    6MPD2     N   93   2.052   0.642  10.115 -0.3953  0.2772  0.3468
    6MPD2    H5   94   1.985   0.567  10.102 -1.0781  1.3294 -2.1794
    6MPD2    N1   95   1.689   0.978  10.066 -0.3148 -0.7158 -0.3983
    6MPD2    H7   96   1.667   1.077  10.059  0.7366 -0.4332  0.2201
    7TCq1    O1   97   4.504   0.712  13.146 -0.7607  0.2728  0.2397
    7TCq1    C1   98   4.619   0.777  13.115 -0.4805 -0.4980  1.1377
    7TCq1    O2   99   4.627   0.890  13.076  0.5443 -0.4052  0.1884
    7TCq1    C2  100   0.015   0.701  13.141 -0.5441  0.3661 -0.5729
    7TCq1    C3  101   0.129   0.750  13.093 -0.4444  0.7318  0.0229
    7TCq1    C4  102   0.245   0.676  13.109 -0.3462 -0.3053 -0.3529
    7TCq1    C5  103   0.251   0.569  13.183 -0.6431  0.8060  0.3113
    7TCq1    C6  104   0.130   0.524  13.235  0.2644  0.0145  0.1335
    7TCq1    C7  105   0.014   0.590  13.215  0.1527  0.1215  0.8442
    7TCq1    C8  106   0.126   0.407  13.324  0.5306  0.1094 -0.0012
    7TCq1    O4  107   0.225   0.330  13.320 -0.0018  0.4530  0.2042
    7TCq1    C9  108   0.361   0.713  13.032 -0.5334  0.5930  0.5099
    7TCq1    O5  109   0.457   0.631  13.017 -0.1500  0.5727 -0.1553
    7TCq1    O6  110   0.347   0.820  12.969  0.5015 -0.2699 -0.2112
    7TCq1    H1  111   4.510   0.615  13.153 -1.2849  0.1628 -0.7973
    7TCq1    H2  112   0.122   0.834  13.025  2.4747 -0.7125 -2.0604
    7TCq1    H3  113   0.336   0.502  13.196 -2.1155 -1.4843 -1.9761
    7TCq1    H4  114   4.642   0.556  13.258 -0.6311  0.1580 -0.8790
    8MPD2     C  115   4.682   0.127  13.728 -0.2783  0.0517 -0.0227
    8MPD2    C1  116   0.041   0.097  13.618 -0.2775 -1.2490 -0.2347
    8MPD2    C2  117   0.060   0.193  13.523  0.6665  0.4642  0.2644
    8MPD2    C3  118   0.016   0.326  13.534  0.2663  0.2561  0.2175
    8MPD2    C4  119   4.668   0.351  13.647 -0.2900  0.3277 -0.1574
    8MPD2    C5  120   4.634   0.252  13.737 -0.5538 -0.2321  0.5785
    8MPD2     H  121   0.113   0.164  13.434  1.3557  1.0244  0.4911
    8MPD2    H1  122   4.620   0.448  13.654 -1.0593 -0.0634  0.0317
    8MPD2    H2  123   4.651   0.060  13.806 -0.6355 -0.7731 -0.8750
    8MPD2    H3  124   4.570   0.283  13.819  0.4161  1.1554  0.8096
    8MPD2     N  125   0.044   0.424  13.436  0.1530 -1.0797 -0.4165
    8MPD2    H5  126   4.709   0.508  13.440  0.9807 -0.4882 -1.1725
    8MPD2    N1  127   0.077   4.690  13.604  0.1026 -0.0473  0.6217
    8MPD2    H7  128   0.059   4.634  13.687  0.6625  0.8513  1.3560
    9TCq1    O1  129   1.560   3.711  10.468  0.4972 -0.1074  0.2234
    9TCq1    C1  130   1.666   3.736  10.547  0.1668  0.0623  0.1523
    9TCq1    O2  131   1.668   3.711  10.668 -0.2673  0.0989  0.0946
    9TCq1    C2  132   1.782   3.767  10.468  0.0028  0.4643 -0.1171
    9TCq1    C3  133   1.759   3.829  10.352  0.2166  0.2149  0.3821
    9TCq1    C4  134   1.865   3.825  10.261 -0.4889  0.2140  1.7062
    9TCq1    C5  135   1.979   3.758  10.299  0.2614 -0.2066 -0.4949
    9TCq1    C6  136   1.997   3.694  10.416  0.7584  0.1895  0.2955
    9TCq1    C7  137   1.899   3.711  10.511 -0.0939  0.1421  0.7672
    9TCq1    C8  138   2.119   3.622  10.452  0.0663 -0.0936  0.6088
    9TCq1    O4  139   2.202   3.610  10.362 -0.2603  0.3758 -0.4861
    9TCq1    C9  140   1.853   3.895  10.137 -0.7067  0.6324 -0.3635
    9TCq1    O5  141   1.945   3.893  10.049  0.0020  0.2737 -0.4531
    9TCq1    O6  142   1.734   3.896  10.096  0.3406 -0.7936  0.0048
    9TCq1    H1  143   1.592   3.689  10.378 -1.2922  0.0203 -0.4392
    9TCq1    H2  144   1.668   3.877  10.317  0.9951  2.0915  0.9383
    9TCq1    H3  145   2.071   3.771  10.243  1.6522  1.2507  2.1025
    9TCq1    H4  146   1.902   3.659  10.606 -0.9935  0.6468  1.0667
   10MPD2     C  147   2.360   3.519  10.580  0.5018 -0.1331 -0.2338
   10MPD2    C1  148   2.234   3.510  10.639 -0.2351 -0.1918  0.1526
   10MPD2    C2  149   2.215   3.434  10.753 -0.1164 -0.3025  0.4359
   10MPD2    C3  150   2.325   3.358  10.804  0.4254  1.0896 -0.3742
   10MPD2    C4  151   2.451   3.385  10.759 -0.0163 -0.4583 -0.0432
   10MPD2    C5  152   2.461   3.459  10.645 -0.3928  0.7779 -0.3731
   10MPD2     H  153   2.115   3.412  10.787 -0.2232 -0.3953  0.0606
   10MPD2    H1  154   2.539   3.333  10.795 -1.5292 -3.4417 -0.6007
   10MPD2    H2  155   2.380   3.573  10.488  1.5257 -0.1588 -0.0238
   10MPD2    H3  156   2.558   3.476  10.599 -0.6827 -0.1307 -1.3276
   10MPD2     N  157   2.319   3.270  10.912 -0.2061 -0.3781  0.0681
   10MPD2    H5  158   2.410   3.233  10.937 -0.8449 -1.2195  1.2026
   10MPD2    N1  159   2.128   3.582  10.585  0.1023  0.3968  0.3285
   10MPD2    H7  160   2.045   3.594  10.643 -1.0275  1.5952 -1.5486
   11TCq1    O1  161   3.265   3.865  13.846  0.0543  0.0106  0.3262
   11TCq1    C1  162   3.214   3.772  13.937 -0.3503 -0.7596 -0.8575
   11TCq1    O2  163   3.117   3.799  14.009 -0.2015  0.0920  0.2495
   11TCq1    C2  164   3.310   3.681  13.988  0.4524 -1.0491  0.4922
   11TCq1    C3  165   3.433   3.731  14.015 -0.2932 -0.6191  0.9571
   11TCq1    C4  166   3.510   3.663  14.103 -0.2038 -0.1102  0.0843
   11TCq1    C5  167   3.467   3.560  14.178  0.1100  0.0530 -0.6698
   11TCq1    C6  168   3.340   3.517  14.157  0.7138  0.6496  0.9423
   11TCq1    C7  169   3.257   3.575  14.064  0.1585 -0.2731  0.1915
   11TCq1    C8  170   3.294   3.395  14.221 -0.2873 -0.6991  0.2939
   11TCq1    O4  171   3.360   3.344  14.311  0.4806 -0.0065  0.9468
   11TCq1    C9  172   3.650   3.710  14.123 -0.0902  0.0528  0.1164
   11TCq1    O5  173   3.708   3.786  14.037 -0.0289  0.7658  0.2526
   11TCq1    O6  174   3.707   3.653  14.219  0.1038 -0.5364  0.0827
   11TCq1    H1  175   3.335   3.814  13.801 -1.5212 -0.5151 -1.5452
   11TCq1    H2  176   3.480   3.812  13.961 -1.6349  0.6032  1.6309
   11TCq1    H3  177   3.533   3.502  14.241  0.5066  1.2859  0.0502
   11TCq1    H4  178   3.150   3.561  14.072 -0.1718  2.2933  0.2556
   12MPD2     C  179   3.196   3.100  14.226 -0.5385  0.2916  0.4344
   12MPD2    C1  180   3.129   3.206  14.171  0.0427 -0.4259  0.7754
   12MPD2    C2  181   3.006   3.184  14.107  0.2662  0.6122  0.2441
   12MPD2    C3  182   2.949   3.054  14.103 -0.3480 -0.6576  0.3682
   12MPD2    C4  183   3.029   2.950  14.150  0.0760 -0.2760  0.4139
   12MPD2    C5  184   3.143   2.973  14.211 -0.5526  0.4109  0.1240
   12MPD2     H  185   2.951   3.264  14.058 -2.1014 -0.8836  0.4551
   12MPD2    H1  186   2.998   2.846  14.152  0.6568 -0.4677 -0.2820
   12MPD2    H2  187   3.289   3.102  14.281 -1.7506 -1.8854  2.5819
   12MPD2    H3  188   3.203   2.892  14.251  0.6635  0.9123 -0.6988
   12MPD2     N  189   2.826   3.022  14.049  0.5127 -0.3397 -0.7224
   12MPD2    H5  190   2.807   2.922  14.052 -0.5343 -0.0897  1.1291
   12MPD2    N1  191   3.185   3.339  14.154  0.0911 -0.0070 -0.3139
   12MPD2    H7  192   3.128   3.404  14.101 -0.2067  1.5866  1.9490
   13TCq1    O1  193   2.449   3.352  10.091 -0.0184 -1.3372 -0.1142
   13TCq1    C1  194   2.392   3.234  10.136  0.6956  0.3774 -0.0036
   13TCq1    O2  195   2.443   3.164  10.217 -0.8300 -0.4500 -0.4199
   13TCq1    C2  196   2.254   3.274  10.142  0.7175 -0.2243 -0.3545
   13TCq1    C3  197   2.190   3.350  10.048  0.4673 -0.3738  0.4468
   13TCq1    C4  198   2.069   3.412  10.072  0.4700 -0.2767 -0.2487
   13TCq1    C5  199   1.998   3.384  10.185  0.1950  0.0334 -0.8401
   13TCq1    C6  200   2.061   3.313  10.280  0.5916  0.5042  0.9975
   13TCq1    C7  201   2.182   3.250  10.258  0.7912  0.1695  0.4063
   13TCq1    C8  202   2.003   3.301  10.412 -0.0410  0.0512 -0.1154
   13TCq1    O4  203   2.056   3.222  10.488  0.4541  0.2096  0.1304
   13TCq1    C9  204   2.014   3.507   9.975  0.2927  0.6544 -0.6055
   13TCq1    O5  205   1.909   3.565  10.012 -0.1032  0.0709 -0.3026
   13TCq1    O6  206   2.099   3.559   9.895 -0.5157 -0.1786  0.0215
   13TCq1    H1  207   2.391   3.416  10.044  1.7036  0.3274  0.0075
   13TCq1    H2  208   2.237   3.360   9.951  1.1080  1.6553  0.9663
   13TCq1    H3  209   1.906   3.434  10.209 -0.5056 -1.3288 -0.6969
   13TCq1    H4  210   2.226   3.187  10.334 -0.3343 -0.5285  0.4766
   14MPD2     C  211   1.671   3.388  10.527  0.7675  0.3475 -0.2332
   14MPD2    C1  212   1.801   3.360  10.539  0.2613 -0.4663  0.3182
   14MPD2    C2  213   1.850   3.331  10.664 -0.1995 -0.0441  0.4608
   14MPD2    C3  214   1.765   3.351  10.772  0.3840 -0.0477  0.0903
   14MPD2    C4  215   1.631   3.371  10.757  0.0580 -0.3606 -0.3790
   14MPD2    C5  216   1.585   3.390  10.631  0.7682 -0.1448 -0.2093
   14MPD2     H  217   1.956   3.309  10.669  0.6603  4.1114  0.7434
   14MPD2    H1  218   1.560   3.378  10.838 -0.4007 -0.3326 -0.7876
   14MPD2    H2  219   1.622   3.388  10.431 -2.0680 -1.3636  1.2070
   14MPD2    H3  220   1.481   3.409  10.610  0.5229 -0.5382  0.6483
   14MPD2     N  221   1.824   3.340  10.896 -0.2281 -0.1525  0.1635
   14MPD2    H5  222   1.924   3.324  10.898  0.1725  2.2302 -1.2060
   14MPD2    N1  223   1.872   3.347  10.419 -0.1749  0.1861  0.0488
   14MPD2    H7  224   1.824   3.394  10.343 -2.4867 -0.6099  1.0150
   15TCq1    O1  225   4.188   2.722   1.892  0.7574 -0.2333 -0.1950
   15TCq1    C1  226   4.302   2.724   1.815  0.3864  0.5884  0.4638
   15TCq1    O2  227   4.413   2.752   1.859  1.2046  0.7988 -0.2015
   15TCq1    C2  228   4.274   2.642   1.694 -0.7162  0.2092  0.4004
   15TCq1    C3  229   4.147   2.652   1.638  0.1817 -0.0930  0.5583
   15TCq1    C4  230   4.123   2.556   1.536  0.3458 -0.6822 -0.3543
   15TCq1    C5  231   4.214   2.462   1.495 -0.1683  0.3866  0.9948
   15TCq1    C6  232   4.338   2.458   1.557  0.1176  0.2571  0.4256
   15TCq1    C7  233   4.367   2.542   1.660  0.4527  0.4657  0.3812
   15TCq1    C8  234   4.442   2.382   1.498 -0.4421 -0.0423  0.0338
   15TCq1    O4  235   4.539   2.368   1.569 -0.3866 -0.7960  0.0967
   15TCq1    C9  236   3.997   2.567   1.471  0.0474 -0.2129 -0.2769
   15TCq1    O5  237   3.977   2.492   1.373  0.3026  0.0056  0.0607
   15TCq1    O6  238   3.936   2.672   1.495  0.2652  0.4630 -0.1180
   15TCq1    H1  239   4.111   2.682   1.849  0.4023 -2.0713  2.1548
   15TCq1    H2  240   4.077   2.729   1.670 -0.3400 -0.5157  0.4297
   15TCq1    H3  241   4.179   2.395   1.418 -1.5852  2.4597 -0.1672
   15TCq1    H4  242   4.456   2.540   1.722  1.1017 -1.1220 -0.6038
   16MPD2     C  243   4.454   2.209   1.181 -0.3090  0.1568 -0.6555
   16MPD2    C1  244   4.501   2.260   1.297  0.1110 -0.0209  0.3016
   16MPD2    C2  245   4.630   2.214   1.338 -0.5351 -0.0082  0.9251
   16MPD2    C3  246   4.703   2.121   1.257  0.5088 -0.7937 -0.0732
   16MPD2    C4  247   4.647   2.079   1.139 -0.9146  0.5086  0.4221
   16MPD2    C5  248   4.522   2.118   1.107  0.9792  0.0918  0.5909
   16MPD2     H  249   4.682   2.260   1.421  2.3732 -0.6230 -0.5571
   16MPD2    H1  250   4.691   2.003   1.075 -1.6433  0.7392 -0.3385
   16MPD2    H2  251   4.351   2.235   1.159 -0.2793  0.5885 -0.2843
   16MPD2    H3  252   4.475   2.072   1.021 -0.6742 -0.1464  1.6127
   16MPD2     N  253   0.116   2.086   1.297  0.6908  0.2604 -0.9147
   16MPD2    H5  254   0.151   2.129   1.382 -0.6852 -0.5572  0.0605
   16MPD2    N1  255   4.421   2.348   1.369  0.0439 -0.3193  0.5452
   16MPD2    H7  256   4.336   2.374   1.319  1.7250  0.4769 -1.8894
   17TCq1    O1  257   2.679   2.108  11.486 -0.1700 -0.1159 -0.5629
   17TCq1    C1  258   2.593   2.204  11.468  0.6289 -0.1501  0.4758
   17TCq1    O2  259   2.487   2.212  11.531  0.0563  0.2135  0.3929
   17TCq1    C2  260   2.601   2.230  11.322 -0.6608 -0.2312 -0.0866
   17TCq1    C3  261   2.490   2.247  11.250  0.0337 -0.4256  0.3992
   17TCq1    C4  262   2.484   2.346  11.160 -0.3002 -0.6311 -0.6746
   17TCq1    C5  263   2.598   2.419  11.126  0.8538 -0.3667  0.1616
   17TCq1    C6  264   2.714   2.383  11.182  0.1350 -1.1556 -0.3641
   17TCq1    C7  265   2.720   2.285  11.275 -0.4325  0.4856  0.2381
   17TCq1    C8  266   2.826   2.469  11.173  0.8275  0.1256 -0.0218
   17TCq1    O4  267   2.891   2.490  11.274 -0.3102  0.4345  0.0973
   17TCq1    C9  268   2.359   2.380  11.103 -0.2064  0.4339  0.2660
   17TCq1    O5  269   2.366   2.472  11.020 -0.0365 -0.3142 -0.4884
   17TCq1    O6  270   2.255   2.313  11.140 -0.1525  0.9373 -0.2979
   17TCq1    H1  271   2.714   2.054  11.412 -1.9187 -0.1733 -1.3369
   17TCq1    H2  272   2.400   2.214  11.300  0.5801 -0.5589  1.2957
   17TCq1    H3  273   2.590   2.514  11.075 -2.3319 -0.3549  0.6801
   17TCq1    H4  274   2.799   2.282  11.349  0.1158 -1.4340 -0.4308
   18MPD2     C  275   3.072   2.627  11.098 -0.1501  0.0225  0.2358
   18MPD2    C1  276   2.975   2.579  11.008 -0.2411 -0.8296 -0.4802
   18MPD2    C2  277   2.991   2.611  10.879 -1.0468 -0.0386  0.7698
   18MPD2    C3  278   3.106   2.671  10.827 -0.2902  0.0403  0.1593
   18MPD2    C4  279   3.200   2.714  10.918  0.3119  0.0994  0.0287
   18MPD2    C5  280   3.178   2.697  11.052 -0.3114  0.4168 -0.1609
   18MPD2     H  281   2.915   2.586  10.806 -0.3682 -2.1802  0.7989
   18MPD2    H1  282   3.293   2.755  10.881  0.9658  0.4064  2.0233
   18MPD2    H2  283   3.058   2.612  11.205  1.0118 -0.4418  0.3120
   18MPD2    H3  284   3.245   2.738  11.126 -1.7276 -0.2515  1.4993
   18MPD2     N  285   3.137   2.670  10.692  0.1872 -0.5016 -0.0334
   18MPD2    H5  286   3.226   2.718  10.677 -0.1963  0.3895  0.5912
   18MPD2    N1  287   2.857   2.509  11.043  0.2248 -0.1875 -0.0112
   18MPD2    H7  288   2.792   2.486  10.969 -0.1457 -0.0109  0.2580
   19TMC2    C1  289   3.622   3.266  13.920 -0.3515 -0.6949 -0.4636
   19TMC2    C2  290   3.569   3.325  13.809  0.4954  0.1976  0.3097
   19TMC2    C3  291   3.447   3.279  13.761 -0.0556 -0.8270 -0.3911
   19TMC2    C4  292   3.570   3.152  13.969 -0.2440 -0.7279  0.5101
   19TMC2    C5  293   3.445   3.109  13.920  0.1466  0.0351 -0.3285
   19TMC2    C6  294   3.383   3.173  13.812 -0.2372  0.1117  0.5618
   19TMC2     C  295   3.753   3.310  13.960 -0.4042 -0.4912 -0.6643
   19TMC2     O  296   3.783   3.428  13.948 -0.1048 -0.9410  0.0633
   19TMC2     H  297   3.626   3.404  13.761  0.6423  0.9922  1.7962
   19TMC2    H1  298   3.616   3.108  14.057 -0.2633 -0.6971  0.5358
   19TMC2    H2  299   3.292   3.130  13.771 -0.3276 -0.0920  0.9713
   19TMC2    C7  300   3.403   2.977  13.959  0.0172 -0.1224  0.0461
   19TMC2    C8  301   3.396   3.329  13.634 -0.0783  0.2681  0.6391
   19TMC2    O1  302   3.324   2.930  13.881 -0.3413 -0.1691 -0.6504
   19TMC2    O2  303   3.307   3.273  13.572  0.1539 -0.7426  0.3249
   19TMC2    O5  304   3.412   3.463  13.631 -0.1281 -0.7867  0.2680
   19TMC2    H5  305   3.480   3.507  13.687 -2.3552  0.9764  1.5743
   20MPD2     C  306   4.053   3.318  13.942 -0.0537 -0.7311 -0.6377
   20MPD2    C1  307   3.974   3.208  13.992  0.1281  0.3141 -0.3520
   20MPD2    C2  308   4.035   3.095  14.049 -0.7210  0.5331  0.2221
   20MPD2    C3  309   4.172   3.101  14.070 -0.9673 -0.4390 -0.2920
   20MPD2    C4  310   4.242   3.211  14.030 -0.6302 -0.4437 -0.3181
   20MPD2    C5  311   4.186   3.314  13.962 -0.2555  0.0836  0.0698
   20MPD2     H  312   3.975   3.011  14.082 -0.6659  0.6325  0.5726
   20MPD2    H1  313   4.344   3.230  14.059 -1.1587  0.3552  1.0389
   20MPD2    H2  314   4.006   3.394  13.881  0.7705 -0.8375 -1.4113
   20MPD2    H3  315   4.256   3.390  13.930 -0.3617 -0.0766 -0.5305
   20MPD2     N  316   4.253   2.997  14.128 -0.0221  0.5428  0.0805
   20MPD2    H5  317   4.353   3.010  14.123  0.0835 -0.0834  0.5467
   20MPD2    N1  318   3.835   3.203  13.984 -0.1360  0.0411  0.4182
   20MPD2    H7  319   3.798   3.109  13.993 -0.9375  0.1418 -1.9898
   21MPD2     C  320   1.807   3.763  14.248 -0.6101 -0.0271 -0.2179
   21MPD2    C1  321   1.815   3.638  14.186 -0.4246  0.3287  0.3293
   21MPD2    C2  322   1.715   3.541  14.201 -0.3914 -0.4556  0.2505
   21MPD2    C3  323   1.606   3.574  14.277  0.5538 -0.0110  0.2368
   21MPD2    C4  324   1.589   3.702  14.320  0.1279  0.5928  0.3464
   21MPD2    C5  325   1.688   3.796  14.309  0.4772 -0.6811  0.1439
   21MPD2     H  326   1.731   3.441  14.162  0.1093 -0.5326  0.6463
   21MPD2    H1  327   1.492   3.735  14.356 -1.2110 -2.4168 -0.4252
   21MPD2    H2  328   1.885   3.838  14.241 -1.7476  0.9281 -2.7159
   21MPD2    H3  329   1.674   3.896  14.349  0.0320 -0.5171 -0.4336
   21MPD2     N  330   1.516   3.476  14.306  0.0096  0.0650  0.1091
   21MPD2    H5  331   1.438   3.500  14.366  2.4451  1.5038  2.6346
   21MPD2    N1  332   1.938   3.587  14.135  0.0520 -0.0520  0.1658
   21MPD2    H7  333   1.947   3.487  14.117 -2.4283  0.1007 -1.9369
   22TCq2    C1  334   1.512   3.340  14.265 -0.3635  0.2775 -0.5577
   22TCq2    O2  335   1.594   3.271  14.207  0.4762  0.2509 -0.1816
   22TCq2    C2  336   1.406   3.266  14.341 -0.4492 -0.6928  0.2074
   22TCq2    C3  337   1.435   3.135  14.369  0.3349  0.3786  0.9588
   22TCq2    C4  338   1.391   3.074  14.482 -0.7890  0.0775  0.2669
   22TCq2    C5  339   1.316   3.140  14.577 -1.1375 -0.1565 -0.0271
   22TCq2    C6  340   1.288   3.274  14.547 -0.0309  0.9382  0.5772
   22TCq2    C7  341   1.323   3.334  14.430 -0.2970  0.2634  0.3286
   22TCq2    C8  342   1.213   3.346  14.653 -0.2609  0.3513  0.8185
   22TCq2    O4  343   1.244   3.326  14.770 -0.0419  0.0779  0.1303
   22TCq2    C9  344   1.427   2.936  14.501  0.2217  0.3483  0.2320
   22TCq2    O5  345   1.409   2.893  14.618  0.2293  0.4269 -0.7769
   22TCq2    O6  346   1.495   2.871  14.419  0.0859 -0.1156  0.3228
   22TCq2    H2  347   1.500   3.076  14.305  0.4575  0.8657  0.6336
   22TCq2    H3  348   1.286   3.095  14.671 -0.5314 -0.5572 -0.0242
   22TCq2    H4  349   1.296   3.438  14.421 -0.3219  0.1698 -0.7066
   23MPD2     C  350   3.386   4.303  14.330  0.0564  0.2247 -0.1512
   23MPD2    C1  351   3.273   4.326  14.403 -0.4078 -0.8603 -0.1220
   23MPD2    C2  352   3.182   4.421  14.354 -0.0370  0.5763  0.0624
   23MPD2    C3  353   3.220   4.491  14.237 -0.1973 -0.7479  0.2842
   23MPD2    C4  354   3.346   4.480  14.182  0.5835 -0.3921  0.0954
   23MPD2    C5  355   3.432   4.391  14.234 -0.1938 -0.0327  0.2090
   23MPD2     H  356   3.086   4.433  14.401 -0.7557  1.3057 -1.5801
   23MPD2    H1  357   3.372   4.536  14.093 -0.8951 -0.0853 -0.1526
   23MPD2    H2  358   3.451   4.222  14.361 -2.6306 -3.0897 -3.2024
   23MPD2    H3  359   3.530   4.375  14.189 -1.5091 -0.1397 -2.5949
   23MPD2     N  360   3.120   4.567  14.180  0.9878  0.0912  0.4125
   23MPD2    H5  361   3.028   4.570  14.223  1.0969  0.8007  0.5979
   23MPD2    N1  362   3.231   4.247  14.517 -0.1060  0.2626 -0.1448
   23MPD2    H7  363   3.135   4.251  14.551 -0.1896  1.4580 -0.5002
   24TCq2    C1  364   3.145   4.670  14.099  0.5209 -0.3369  0.9540
   24TCq2    O2  365   3.247   0.017  14.091 -0.2148 -0.0727  0.6911
   24TCq2    C2  366   3.023   0.021  14.062 -0.2296 -0.0910  0.3177
   24TCq2    C3  367   3.030   0.158  14.041  0.0540  0.0182 -0.3015
   24TCq2    C4  368   2.924   0.218  13.977 -0.5468  0.0237 -0.0152
   24TCq2    C5  369   2.819   0.139  13.925  0.0302  0.1969  0.6607
   24TCq2    C6  370   2.806   0.012  13.961 -0.5488  0.4490  0.4795
   24TCq2    C7  371   2.906   4.670  14.037 -0.8802  0.4514  0.4689
   24TCq2    C8  372   2.714   4.664  13.878  0.4695 -0.3207  0.7916
   24TCq2    O4  373   2.725   4.682  13.757 -0.3749  0.3566  0.4042
   24TCq2    C9  374   2.926   0.356  13.932 -0.5313  0.2663  0.3817
   24TCq2    O5  375   3.019   0.423  13.977  0.2988  0.9919  0.1344
   24TCq2    O6  376   2.842   0.392  13.850  0.3734 -0.3825 -0.3467
   24TCq2    H2  377   3.115   0.213  14.079  0.9566 -1.1549 -0.6151
   24TCq2    H3  378   2.739   0.180  13.864  0.1391  2.4798  2.0508
   24TCq2    H4  379   2.893   4.563  14.049  1.0166  0.2207  0.4531
   25TMC2    C1  380   2.042   2.155  11.559  0.3729  0.6306  0.3378
   25TMC2    C2  381   2.149   2.245  11.579  0.5615 -0.3458 -0.1920
   25TMC2    C3  382   2.136   2.350  11.659 -0.0480 -0.1513 -0.5511
   25TMC2    C4  383   1.927   2.175  11.626  0.1664 -0.3425 -0.0753
   25TMC2    C5  384   1.920   2.288  11.712 -0.1611  0.8231  0.4952
   25TMC2    C6  385   2.025   2.374  11.733 -0.5785  0.1213 -0.7141
   25TMC2     C  386   2.070   2.039  11.477 -0.0620  0.0527 -0.2505
   25TMC2     O  387   2.190   2.015  11.456 -0.1830  0.3951  0.9217
   25TMC2     H  388   2.246   2.227  11.532 -0.0270  1.7902 -2.2340
   25TMC2    H1  389   1.843   2.110  11.606  1.8010 -2.8319  1.2273
   25TMC2    H2  390   2.014   2.468  11.785  0.7149  0.9031 -1.8328
   25TMC2    C7  391   1.791   2.344  11.740  0.5609  1.1733 -0.5399
   25TMC2    C8  392   2.227   2.461  11.624  0.0595 -0.2264  0.0016
   25TMC2    O1  393   1.794   2.413  11.839 -0.0259  0.0462  0.1059
   25TMC2    O2  394   2.254   2.544  11.715 -0.1046 -0.4131  0.4185
   25TMC2    O5  395   2.237   2.472  11.493 -0.5841 -0.1979  0.9491
   25TMC2    H5  396   2.179   2.408  11.446  0.6143 -2.8014  3.0147
   26MPD2     C  397   1.950   1.640  11.169 -0.2100 -0.3769 -0.3384
   26MPD2    C1  398   1.837   1.709  11.206  0.3246 -0.4062  0.8382
   26MPD2    C2  399   1.842   1.827  11.281 -0.6945  0.0016  0.6450
   26MPD2    C3  400   1.960   1.865  11.340  0.8728  0.2540 -0.2864
   26MPD2    C4  401   2.070   1.788  11.320  0.6046  0.1824  0.2704
   26MPD2    C5  402   2.062   1.683  11.232 -0.1946  0.4429  0.4633
   26MPD2     H  403   1.751   1.880  11.307 -2.0533 -2.7039  1.3916
   26MPD2    H1  404   2.171   1.822  11.341  1.2329 -1.6835  0.2511
   26MPD2    H2  405   1.962   1.558  11.099  2.2498 -0.4829  0.2086
   26MPD2    H3  406   2.151   1.626  11.206 -0.3066  0.0944  0.8534
   26MPD2     N  407   1.954   1.975  11.428 -0.0934 -0.0815  0.0845
   26MPD2    H5  408   1.865   2.022  11.425  1.3218  2.6135  0.2064
   26MPD2    N1  409   1.717   1.665  11.139 -0.6726 -0.5749 -0.0707
   26MPD2    H7  410   1.722   1.569  11.106 -3.0349 -0.1042 -1.8342
   27TMC2    C1  411   1.141   4.415  11.727  0.6038  0.0535  0.2762
   27TMC2    C2  412   1.124   4.528  11.654 -0.0293 -0.0391  0.3006
   27TMC2    C3  413   1.090   4.645  11.717 -0.1405  0.1094  0.7310
   27TMC2    C4  414   1.117   4.415  11.866  0.2455  0.2569 -0.4372
   27TMC2    C5  415   1.076   4.532  11.917  0.1190 -0.1493 -0.7221
   27TMC2    C6  416   1.072   4.648  11.847 -0.2927  0.8998 -0.1729
   27TMC2     C  417   1.060   4.313  11.668 -0.9191 -0.2971 -0.1752
   27TMC2     O  418   1.092   4.261  11.563 -0.8817 -0.2792  0.2173
   27TMC2     H  419   1.129   4.525  11.546 -0.3076  1.6577  0.2303
   27TMC2    H1  420   1.118   4.320  11.918 -1.4043  0.9854  0.9294
   27TMC2    H2  421   1.032   0.022  11.879 -2.0389 -0.4002  1.5400
   27TMC2    C7  422   0.970   4.507  12.017  0.5048  0.2259 -1.2847
   27TMC2    C8  423   1.034   0.034  11.644  0.4654 -0.4953  0.0143
   27TMC2    O1  424   0.925   4.392  12.000  0.8126 -0.2376 -0.6663
   27TMC2    O2  425   0.963   0.122  11.695 -0.5012  0.2583  0.1458
   27TMC2    O5  426   1.086   0.030  11.521  1.0624  0.3399 -1.0328
   27TMC2    H5  427   1.163   4.692  11.510  1.2550 -0.3313  4.1318
   28MPD2     C  428   0.576   4.197  11.570 -0.1401  0.8163 -0.5669
   28MPD2    C1  429   0.581   4.242  11.703 -0.3237  0.0402  0.5754
   28MPD2    C2  430   0.703   4.276  11.750  0.1135 -0.1655  0.3038
   28MPD2    C3  431   0.817   4.267  11.672 -0.3656  0.1451  0.6555
   28MPD2    C4  432   0.810   4.222  11.542  0.5264  0.3380 -0.4508
   28MPD2    C5  433   0.683   4.193  11.492  0.3686  0.0350  0.3990
   28MPD2     H  434   0.711   4.305  11.854 -0.3444 -0.0193  0.2986
   28MPD2    H1  435   0.894   4.217  11.475 -0.4804 -1.7794 -1.5403
   28MPD2    H2  436   0.480   4.160  11.535 -0.0360 -1.6276  1.7636
   28MPD2    H3  437   0.663   4.158  11.392 -2.6261  2.6808  0.0614
   28MPD2     N  438   0.937   4.310  11.735  0.0767 -0.1034 -0.1159
   28MPD2    H5  439   0.928   4.352  11.827 -1.2974  1.0750 -0.7672
   28MPD2    N1  440   0.467   4.237  11.786 -0.0585  0.8185  0.4917
   28MPD2    H7  441   0.386   4.204  11.734 -0.3025  1.5188  0.4331
   29MPD2     C  442   0.121   1.212  13.725  0.5237 -0.3621  0.3628
   29MPD2    C1  443   0.199   1.226  13.839 -0.1587 -0.1174 -0.9674
   29MPD2    C2  444   0.199   1.353  13.897 -0.0642  0.2554  0.1159
   29MPD2    C3  445   0.127   1.456  13.843 -0.6242  0.0589 -0.3255
   29MPD2    C4  446   0.060   1.445  13.723  0.3234 -0.2202  0.1311
   29MPD2    C5  447   0.057   1.318  13.666 -0.3703  0.7273  0.2053
   29MPD2     H  448   0.263   1.365  13.983  0.1256 -0.6357  0.0975
   29MPD2    H1  449   0.012   1.526  13.670 -0.4984 -1.2360 -0.6792
   29MPD2    H2  450   0.098   1.113  13.686  2.6722 -0.9856  0.6958
   29MPD2    H3  451   0.001   1.298  13.575  0.0276  0.5244  0.0042
   29MPD2     N  452   0.145   1.585  13.890 -0.1291  0.5628 -0.9184
   29MPD2    H5  453   0.115   1.658  13.826  0.4772 -0.3945 -2.3109
   29MPD2    N1  454   0.262   1.114  13.895  0.4752 -0.8224 -0.7173
   29MPD2    H7  455   0.238   1.018  13.871 -0.6599 -1.4301  2.7376
   30TCq2    C1  456   0.193   1.627  14.018  0.4773 -0.0509 -0.6565
   30TCq2    O2  457   0.231   1.553  14.107  0.3493  0.5430 -0.5066
   30TCq2    C2  458   0.167   1.767  14.048  0.7081 -0.0740 -0.2704
   30TCq2    C3  459   0.192   1.802  14.176 -0.0873 -0.0820 -0.6770
   30TCq2    C4  460   0.176   1.932  14.212 -0.2424 -0.5223 -0.9479
   30TCq2    C5  461   0.130   2.026  14.120 -0.2549 -0.4587 -0.2607
   30TCq2    C6  462   0.110   1.982  13.992  0.9468 -0.1994  1.1803
   30TCq2    C7  463   0.131   1.856  13.953  0.4886  0.0652 -0.4279
   30TCq2    C8  464   0.113   2.080  13.890 -0.4218  0.3690 -0.5068
   30TCq2    O4  465   0.048   2.068  13.789  0.2252  0.3206 -0.4694
   30TCq2    C9  466   0.194   1.987  14.347  0.3881 -0.0088 -0.3471
   30TCq2    O5  467   0.138   2.094  14.385 -0.2670 -0.4772 -0.2037
   30TCq2    O6  468   0.247   1.906  14.425 -0.2483  0.3692 -0.1070
   30TCq2    H2  469   0.219   1.730  14.252 -1.9781 -1.0187 -0.8868
   30TCq2    H3  470   0.095   2.121  14.158 -0.6904 -0.1105 -1.5179
   30TCq2    H4  471   0.119   1.834  13.847 -2.1796  1.8202 -0.5054
   31MPD2     C  472   2.920   0.622  14.529 -0.3876  0.2340  0.1225
   31MPD2    C1  473   2.786   0.644  14.528 -0.4940  0.0045  0.2557
   31MPD2    C2  474   2.708   0.599  14.635  0.1422 -0.0114  0.0115
   31MPD2    C3  475   2.763   0.532  14.745 -0.0778  0.0424 -0.5127
   31MPD2    C4  476   2.898   0.497  14.740 -0.3467  0.8551 -0.2379
   31MPD2    C5  477   2.975   0.545  14.633  0.0597 -0.2093 -0.3365
   31MPD2     H  478   2.602   0.622  14.637  0.6727  2.2187  2.2687
   31MPD2    H1  479   2.946   0.428  14.808 -3.5345  0.1756  1.3494
   31MPD2    H2  480   2.976   0.641  14.439  0.1064  0.0624  0.3886
   31MPD2    H3  481   3.080   0.519  14.634 -0.3868 -1.9603 -0.0505
   31MPD2     N  482   2.683   0.482  14.855  1.3461  0.1199  0.1809
   31MPD2    H5  483   2.738   0.439  14.930 -2.5319  0.1076  3.0037
   31MPD2    N1  484   2.739   0.730  14.425 -0.4462  0.1187  0.5314
   31MPD2    H7  485   2.807   0.769  14.362 -1.5129 -0.8181 -1.1882
   32TCq2    C1  486   2.550   0.513  14.885 -0.2957 -0.2581  0.2461
   32TCq2    O2  487   2.465   0.570  14.818 -0.0433  0.0061 -0.1556
   32TCq2    C2  488   2.506   0.447  15.009 -0.2640  0.4360 -0.6388
   32TCq2    C3  489   2.378   0.481  15.054  0.3927  0.4589  0.2333
   32TCq2    C4  490   2.339   0.459  15.185  0.6268 -0.2256  0.6746
   32TCq2    C5  491   2.426   0.389  15.268 -0.2997 -0.0189 -0.5192
   32TCq2    C6  492   2.552   0.361  15.226  0.6493  0.0123  0.6052
   32TCq2    C7  493   2.594   0.394  15.102 -0.6465 -1.1430 -0.2340
   32TCq2    C8  494   2.652   0.353  15.333 -0.1397  0.1514  0.0924
   32TCq2    O4  495   2.742   0.270  15.314 -0.3928 -0.4238  0.1595
   32TCq2    C9  496   2.205   0.501  15.222 -0.0799  0.3017  0.3134
   32TCq2    O5  497   2.181   0.512  15.347  0.4148  0.2359 -0.1163
   32TCq2    O6  498   2.143   0.557  15.130 -1.0197 -0.1291  0.4711
   32TCq2    H2  499   2.311   0.534  14.987 -1.4493 -1.9718  0.1479
   32TCq2    H3  500   2.405   0.367  15.372 -0.4825 -0.0799 -0.5692
   32TCq2    H4  501   2.698   0.369  15.083 -0.9293 -2.2353 -0.3105
   33MPD2     C  502   2.786   2.762   9.948 -0.0909  0.6215 -0.2135
   33MPD2    C1  503   2.869   2.857  10.001 -0.1413 -0.6805 -0.3036
   33MPD2    C2  504   2.858   2.990   9.964 -0.2587  0.7119 -0.6245
   33MPD2    C3  505   2.748   3.030   9.882 -0.1032 -0.4377  0.5557
   33MPD2    C4  506   2.657   2.938   9.844 -0.0840 -0.2210 -0.0219
   33MPD2    C5  507   2.683   2.802   9.866  0.6685 -0.3162  0.7611
   33MPD2     H  508   2.923   3.066  10.006  0.7703 -0.7832  0.4935
   33MPD2    H1  509   2.563   2.957   9.793  0.5716 -0.3760 -1.2976
   33MPD2    H2  510   2.791   2.661   9.987 -0.7554 -0.2041 -2.2419
   33MPD2    H3  511   2.601   2.735   9.842  0.3198  1.3586 -2.7804
   33MPD2     N  512   2.731   3.158   9.839  0.5068  0.2481 -0.0047
   33MPD2    H5  513   2.646   3.179   9.788 -0.3745  0.1313  1.4287
   33MPD2    N1  514   2.953   2.814  10.106 -0.9107 -0.3434 -0.5934
   33MPD2    H7  515   2.947   2.718  10.138 -0.4466 -0.5391 -1.0857
   34TCq2    C1  516   2.808   3.269   9.871  0.3067 -0.6821  0.8429
   34TCq2    O2  517   2.913   3.281   9.930 -0.4876  0.5335  0.3481
   34TCq2    C2  518   2.750   3.396   9.826  0.1314 -0.0646  0.4277
   34TCq2    C3  519   2.614   3.408   9.814 -0.8958 -0.6744  0.0369
   34TCq2    C4  520   2.569   3.527   9.768 -1.2210  0.1248 -0.2333
   34TCq2    C5  521   2.653   3.636   9.746 -0.0183 -0.4319  0.0447
   34TCq2    C6  522   2.792   3.616   9.758  0.3079  0.2413  0.1207
   34TCq2    C7  523   2.842   3.500   9.803  0.1994  0.2027 -0.3329
   34TCq2    C8  524   2.882   3.727   9.744  0.2548  0.1110 -0.0484
   34TCq2    O4  525   2.842   3.833   9.699 -0.0426 -0.8200 -0.1132
   34TCq2    C9  526   2.426   3.543   9.748  1.2294  0.0588  0.1431
   34TCq2    O5  527   2.360   3.436   9.754 -0.0113 -0.3912  0.2569
   34TCq2    O6  528   2.374   3.660   9.732 -0.6839 -0.2599  0.0269
   34TCq2    H2  529   2.546   3.324   9.829 -1.9859  0.1216 -0.4419
   34TCq2    H3  530   2.617   3.735   9.723 -0.3220 -0.2191  1.4786
   34TCq2    H4  531   2.946   3.476   9.787  0.5199  1.6434 -0.4388
   35MPD2     C  532   3.573   4.395  11.859 -0.4162 -0.0852  0.3177
   35MPD2    C1  533   3.617   4.327  11.757 -0.0729 -0.1819 -0.3370
   35MPD2    C2  534   3.554   4.348  11.631  0.0648 -0.8260  0.4175
   35MPD2    C3  535   3.462   4.444  11.616  0.0918  0.4347  0.5597
   35MPD2    C4  536   3.427   4.527  11.719 -0.8474 -0.1320 -0.1938
   35MPD2    C5  537   3.483   4.497  11.840  0.2895  0.1039 -0.3692
   35MPD2     H  538   3.574   4.275  11.554  1.1292  0.3481 -0.4241
   35MPD2    H1  539   3.363   4.614  11.705  0.3057  0.2252 -3.1553
   35MPD2    H2  540   3.633   4.376  11.947 -1.2254 -0.6806  0.7368
   35MPD2    H3  541   3.450   4.555  11.926 -1.5958  0.4332 -1.3311
   35MPD2     N  542   3.402   4.452  11.485 -0.2845 -0.9659  0.0501
   35MPD2    H5  543   3.426   4.373  11.425  2.9124 -1.7323  2.2881
   35MPD2    N1  544   3.733   4.247  11.774 -0.5841  0.0703 -0.0263
   35MPD2    H7  545   3.776   4.232  11.865 -0.1265  0.6709 -0.1382
   36TCq2    C1  546   3.336   4.560  11.431  0.2697 -0.0887  0.0445
   36TCq2    O2  547   3.325   4.676  11.481 -0.2816  0.0537  0.1305
   36TCq2    C2  548   3.288   4.526  11.294 -0.3251 -0.6356  0.7355
   36TCq2    C3  549   3.277   4.629  11.202 -0.0429  0.3336  1.0897
   36TCq2    C4  550   3.244   4.598  11.076  0.0361 -0.0197 -0.3102
   36TCq2    C5  551   3.220   4.471  11.041  0.0313 -0.9211  0.1474
   36TCq2    C6  552   3.213   4.376  11.140  0.0751  1.0095  0.1500
   36TCq2    C7  553   3.249   4.402  11.266 -0.6003  0.2826  0.0022
   36TCq2    C8  554   3.191   4.235  11.096  0.5011 -0.2824  0.7232
   36TCq2    O4  555   3.236   4.147  11.172  0.4130 -0.0573 -0.0570
   36TCq2    C9  556   3.210   4.706  10.986 -0.3203 -0.4109 -0.1381
   36TCq2    O5  557   3.231   0.101  11.021 -0.3743 -0.7650  0.2606
   36TCq2    O6  558   3.150   4.674  10.877  0.5437 -0.0313  0.2095
   36TCq2    H2  559   3.287   0.014  11.222 -0.1569  0.5653 -0.0704
   36TCq2    H3  560   3.194   4.444  10.939  2.9259  0.4885 -0.9444
   36TCq2    H4  561   3.258   4.325  11.341 -0.8360  0.4880  0.2393
   37TMC2    C1  562   1.495   3.986  11.689 -0.9537 -0.7759  0.2581
   37TMC2    C2  563   1.425   3.959  11.576  0.0418 -0.4799  0.2025
   37TMC2    C3  564   1.490   3.929  11.465 -0.0542  0.2372  0.0414
   37TMC2    C4  565   1.631   3.990  11.694  0.2054 -0.0112 -0.2888
   37TMC2    C5  566   1.697   3.944  11.579 -0.3203 -0.3362 -0.5015
   37TMC2    C6  567   1.628   3.916  11.462 -0.4818 -0.3947  0.7039
   37TMC2     C  568   1.420   4.056  11.794  0.2438  0.3033  0.2938
   37TMC2     O  569   1.311   4.098  11.761  0.1296 -0.2668  0.3313
   37TMC2     H  570   1.317   3.968  11.575  0.0054 -0.8163  1.1197
   37TMC2    H1  571   1.689   4.007  11.784 -1.4087 -3.6160  1.4079
   37TMC2    H2  572   1.681   3.896  11.370 -0.0314  0.5589  0.7499
   37TMC2    C7  573   1.840   3.948  11.587  0.1967  0.8786  0.5188
   37TMC2    C8  574   1.419   3.841  11.380  0.4177 -0.0043  0.1574
   37TMC2    O1  575   1.886   3.991  11.691 -0.2223 -0.5486  0.3525
   37TMC2    O2  576   1.362   3.745  11.431 -0.5049  0.0320  0.2807
   37TMC2    O5  577   1.486   3.840  11.262 -0.9550  0.4740  0.0364
   37TMC2    H5  578   1.518   3.930  11.238 -1.4653  0.3288 -1.1430
   38MPD2     C  579   1.402   4.305  12.247  0.7402 -0.1025 -0.0297
   38MPD2    C1  580   1.535   4.270  12.221  0.8715  0.3264 -0.2739
   38MPD2    C2  581   1.560   4.205  12.101 -0.4292  0.0175 -0.3904
   38MPD2    C3  582   1.461   4.162  12.017  0.0794  0.1511 -0.3976
   38MPD2    C4  583   1.330   4.192  12.048 -0.6897  0.6496 -0.8186
   38MPD2    C5  584   1.299   4.251  12.169 -0.0984 -0.0920 -0.6492
   38MPD2     H  585   1.658   4.175  12.067 -0.6371 -1.2474  0.1221
   38MPD2    H1  586   1.245   4.171  11.984 -1.7485 -1.9880  1.4182
   38MPD2    H2  587   1.371   4.359  12.336 -3.2732  1.2235 -2.2262
   38MPD2    H3  588   1.195   4.268  12.191 -0.1143 -2.1758  0.8703
   38MPD2     N  589   1.502   4.101  11.897  0.4134  0.5598  0.2980
   38MPD2    H5  590   1.603   4.090  11.894  0.1827 -1.2817 -0.4866
   38MPD2    N1  591   1.644   4.310  12.296  0.2944  0.2261 -1.1138
   38MPD2    H7  592   1.736   4.310  12.253  1.4570  0.4143  1.3638
   39MPD2     C  593   0.584   1.554   1.837  0.3255  0.1282 -0.1143
   39MPD2    C1  594   0.521   1.674   1.830  0.3708  0.0820  0.0791
   39MPD2    C2  595   0.422   1.688   1.738 -0.4120  0.3849  0.0778
   39MPD2    C3  596   0.385   1.581   1.658  0.2333  0.1591  0.2193
   39MPD2    C4  597   0.449   1.459   1.673 -0.3117  0.2409 -0.5999
   39MPD2    C5  598   0.552   1.447   1.762 -0.2415  0.5044  0.5725
   39MPD2     H  599   0.371   1.783   1.724  0.7405  1.3002  2.0120
   39MPD2    H1  600   0.417   1.366   1.628 -3.7455  0.6692  0.9771
   39MPD2    H2  601   0.682   1.542   1.883  0.0851 -0.4978  0.2266
   39MPD2    H3  602   0.616   1.359   1.763  1.7976  1.9543 -0.6590
   39MPD2     N  603   0.287   1.592   1.552  0.2853 -0.3667  0.0434
   39MPD2    H5  604   0.295   1.525   1.475  0.6341  2.0753 -2.0610
   39MPD2    N1  605   0.582   1.780   1.900 -0.4275  0.1600  0.4444
   39MPD2    H7  606   0.675   1.761   1.936  0.0257  2.1888  0.3525
   40TCq2    C1  607   0.525   1.906   1.919  0.5945  0.1484  0.2395
   40TCq2    O2  608   0.410   1.935   1.901  0.4546  0.2971 -0.6280
   40TCq2    C2  609   0.626   2.004   1.951  0.1499 -0.3045  0.4065
   40TCq2    C3  610   0.597   2.111   2.034 -0.4312 -0.2558  0.4209
   40TCq2    C4  611   0.702   2.191   2.076 -0.5737  0.1991 -0.0763
   40TCq2    C5  612   0.826   2.169   2.036 -0.8046 -0.2098  0.1326
   40TCq2    C6  613   0.854   2.059   1.953  0.5509 -0.8021 -0.9899
   40TCq2    C7  614   0.757   1.972   1.909  0.7412  0.2611  0.6523
   40TCq2    C8  615   0.990   2.020   1.923 -0.7623 -0.3868  0.3298
   40TCq2    O4  616   1.017   1.908   1.882  0.0887 -0.0404 -0.5753
   40TCq2    C9  617   0.673   2.300   2.170 -0.0925  0.5273 -0.3209
   40TCq2    O5  618   0.773   2.365   2.214 -0.0790  0.3407  0.5602
   40TCq2    O6  619   0.556   2.324   2.214 -0.5686 -0.6826  0.1109
   40TCq2    H2  620   0.499   2.123   2.078 -1.0712  1.0358 -1.3599
   40TCq2    H3  621   0.903   2.240   2.064  0.3670 -1.6974  0.6847
   40TCq2    H4  622   0.791   1.900   1.835 -0.7072 -1.4175  1.6254
   41TMC2    C1  623   4.064   0.040  13.279 -0.1287  0.5829 -0.0811
   41TMC2    C2  624   3.955   0.119  13.307  0.8222 -0.2703 -0.8382
   41TMC2    C3  625   3.951   0.245  13.243 -0.2360  0.1994  0.2597
   41TMC2    C4  626   4.139   0.064  13.168  0.2324  0.2774 -0.6480
   41TMC2    C5  627   4.130   0.186  13.108  0.5155 -0.2188 -0.0032
   41TMC2    C6  628   4.041   0.279  13.151 -0.4891  0.0131 -0.1585
   41TMC2     C  629   4.087   4.632  13.350 -0.7971  0.0098  0.2677
   41TMC2     O  630   4.164   4.556  13.291  0.0327 -0.7850 -0.5550
   41TMC2     H  631   3.877   0.096  13.379  0.2522 -0.6929 -1.5821
   41TMC2    H1  632   4.220   4.717  13.146 -0.6649 -1.4063  1.2993
   41TMC2    H2  633   4.026   0.366  13.089 -0.9867  0.3675  0.4585
   41TMC2    C7  634   4.212   0.211  12.990 -0.2164 -0.6924  0.4583
   41TMC2    C8  635   3.844   0.344  13.259 -0.4174 -0.3361  0.1299
   41TMC2    O1  636   4.233   0.329  12.970  0.3371  0.0241  0.3293
   41TMC2    O2  637   3.866   0.464  13.271 -0.2571  0.0183 -0.0912
   41TMC2    O5  638   3.731   0.273  13.275  0.1804 -0.2888  0.2558
   41TMC2    H5  639   3.736   0.182  13.239 -1.1060  0.0576 -0.8313
   42MPD2     C  640   4.162   4.417  13.540 -0.5282  0.3370 -0.0436
   42MPD2    C1  641   4.068   4.511  13.563  0.0998  0.2095 -0.7250
   42MPD2    C2  642   3.999   4.507  13.685  0.3209 -0.2819 -0.3008
   42MPD2    C3  643   4.017   4.403  13.778  0.0690  0.1327  0.1480
   42MPD2    C4  644   4.113   4.301  13.742 -0.2387 -0.4557 -0.2783
   42MPD2    C5  645   4.184   4.318  13.625  0.5359 -0.2821 -0.5314
   42MPD2     H  646   3.921   4.581  13.692  1.2575  0.6574  0.2168
   42MPD2    H1  647   4.140   4.215  13.802  3.9111 -0.2297 -1.8732
   42MPD2    H2  648   4.207   4.401  13.442  0.2364 -2.3916  0.7637
   42MPD2    H3  649   4.253   4.245  13.583  1.7864  0.4767  0.2331
   42MPD2     N  650   3.945   4.382  13.898 -0.6342 -0.2798  0.0026
   42MPD2    H5  651   3.970   4.296  13.945  0.3846 -0.1341 -0.2694
   42MPD2    N1  652   4.040   4.621  13.477  0.8951  0.1795 -1.2837
   42MPD2    H7  653   3.994   4.700  13.522 -0.2872 -0.3261 -1.6100
   43MPD2     C  654   0.519   3.061   0.329  0.3388 -0.7395  0.0752
   43MPD2    C1  655   0.590   3.006   0.431  0.1455  0.1631 -0.3884
   43MPD2    C2  656   0.544   3.036   0.557 -0.2825 -0.0351  0.3211
   43MPD2    C3  657   0.431   3.110   0.579  0.3289 -0.5756  0.6535
   43MPD2    C4  658   0.365   3.169   0.480  0.1084  0.0543 -0.4302
   43MPD2    C5  659   0.405   3.136   0.354 -0.6587 -0.1261 -0.2352
   43MPD2     H  660   0.597   2.993   0.641 -2.3495 -3.4456 -0.1046
   43MPD2    H1  661   0.277   3.232   0.488 -0.3947 -0.9739  2.0517
   43MPD2    H2  662   0.543   3.034   0.227 -3.3057  1.0127 -1.2199
   43MPD2    H3  663   0.346   3.181   0.275 -0.3713 -0.3117 -0.5542
   43MPD2     N  664   0.388   3.149   0.710 -0.4588 -0.0101  0.2349
   43MPD2    H5  665   0.297   3.193   0.720 -1.7713 -1.7288 -4.0409
   43MPD2    N1  666   0.686   2.907   0.403  0.7060  0.2678  0.1439
   43MPD2    H7  667   0.693   2.869   0.309  0.1159  0.5142  0.0039
   44TCq2    C1  668   0.468   3.147   1.298 -0.0740  0.1646 -0.5001
   44TCq2    O2  669   0.587   3.143   1.295 -0.3325 -0.0812 -0.4571
   44TCq2    C2  670   0.397   3.181   1.180 -0.1434  0.8778 -0.2075
   44TCq2    C3  671   0.281   3.256   1.185  1.3218 -0.4640 -0.6830
   44TCq2    C4  672   0.209   3.255   1.071 -0.4206  0.3692  0.2054
   44TCq2    C5  673   0.248   3.192   0.957  0.2233 -0.1469 -0.0107
   44TCq2    C6  674   0.369   3.132   0.953  0.2231  0.7847  0.0898
   44TCq2    C7  675   0.444   3.122   1.064 -0.3508 -0.0449 -0.9795
   44TCq2    C8  676   0.439   3.098   0.833  0.0188  0.2494 -0.5300
   44TCq2    O4  677   0.547   3.047   0.853 -0.3832  0.2797  0.3731
   44TCq2    C9  678   0.099   3.344   1.064  0.8198 -0.3128 -0.5117
   44TCq2    O5  679   0.085   3.446   1.136 -0.0272  0.3299 -0.1969
   44TCq2    O6  680   0.015   3.312   0.978 -0.1174  0.0102 -0.2118
   44TCq2    H2  681   0.257   3.321   1.269 -0.2032 -0.7386 -0.9209
   44TCq2    H3  682   0.193   3.198   0.864  2.7386 -2.6237 -1.6723
   44TCq2    H4  683   0.543   3.080   1.061 -0.6439 -0.6483 -2.3796
   45TMC2    C1  684   0.792   0.423   9.091 -0.7269  0.1761  0.2396
   45TMC2    C2  685   0.902   0.357   9.136 -0.6212 -0.7495  0.1050
   45TMC2    C3  686   0.999   0.433   9.195 -0.5812 -0.2548 -0.1795
   45TMC2    C4  687   0.769   0.559   9.107  0.0237  0.3003 -0.6528
   45TMC2    C5  688   0.878   0.633   9.152  0.7973  0.6028 -0.2049
   45TMC2    C6  689   0.996   0.565   9.182  0.4816 -0.3453 -0.5558
   45TMC2     C  690   0.667   0.344   9.091 -0.2789 -0.8148 -0.0882
   45TMC2     O  691   0.567   0.410   9.122  0.2773 -0.6220  0.2454
   45TMC2     H  692   0.925   0.251   9.125 -0.8012 -0.7671 -0.1164
   45TMC2    H1  693   0.681   0.603   9.063  1.0404  0.2248 -2.7611
   45TMC2    H2  694   1.086   0.615   9.217  1.0033  0.2863 -2.7374
   45TMC2    C7  695   0.859   0.772   9.166 -0.1629 -0.2675  0.6546
   45TMC2    C8  696   1.132   0.384   9.196 -0.4085  0.0839 -0.1876
   45TMC2    O1  697   0.754   0.821   9.118  0.4329 -0.3231 -0.0715
   45TMC2    O2  698   1.220   0.435   9.127 -0.0319  0.0861  0.0746
   45TMC2    O5  699   1.148   0.334   9.318  0.2983  0.1229  0.1483
   45TMC2    H5  700   1.062   0.300   9.349 -0.8460  1.4249 -1.6655
   46MPD2     C  701   0.623   4.696   9.053 -0.0512 -0.2564  0.8087
   46MPD2    C1  702   0.586   0.109   9.068  0.2076  0.7114  0.3163
   46MPD2    C2  703   0.448   0.140   9.065  0.1771 -0.3096  0.0522
   46MPD2    C3  704   0.349   0.041   9.069 -0.5483  0.7480  0.5204
   46MPD2    C4  705   0.391   4.634   9.064 -0.6571  1.1775  0.3273
   46MPD2    C5  706   0.526   4.595   9.049  0.7280 -0.0570 -0.8856
   46MPD2     H  707   0.418   0.244   9.062  0.5046 -0.1638  1.8946
   46MPD2    H1  708   0.323   4.549   9.060  0.3216  0.4356 -0.3159
   46MPD2    H2  709   0.726   4.667   9.036 -0.0810  0.3095 -0.3171
   46MPD2    H3  710   0.548   4.489   9.040 -0.1853 -0.3250 -0.0070
   46MPD2     N  711   0.209   0.079   9.076  0.3702  0.1782  0.2796
   46MPD2    H5  712   0.186   0.178   9.079 -1.5972 -0.2813 -0.0830
   46MPD2    N1  713   0.685   0.211   9.071 -0.3366  0.4678 -0.6520
   46MPD2    H7  714   0.778   0.177   9.045  0.0464  0.4754  0.7029
   47TMC2    C1  715   3.501   1.048   9.107 -0.4814 -0.8143  1.1286
   47TMC2    C2  716   3.433   1.161   9.070  0.0652  0.9906 -0.1052
   47TMC2    C3  717   3.303   1.144   9.019 -0.4147 -0.2140  0.0503
   47TMC2    C4  718   3.450   0.921   9.096 -0.5144 -0.0864 -0.4736
   47TMC2    C5  719   3.319   0.911   9.041 -0.0870 -0.5353 -0.2449
   47TMC2    C6  720   3.250   1.022   8.998  0.1394 -0.6388 -0.1065
   47TMC2     C  721   3.638   1.063   9.166 -0.0326 -0.0425  0.2155
   47TMC2     O  722   3.698   1.165   9.139 -0.2424 -0.4550  0.2736
   47TMC2     H  723   3.472   1.261   9.083  0.3928  0.9351 -0.6465
   47TMC2    H1  724   3.516   0.835   9.102  0.0960  0.3073 -1.4773
   47TMC2    H2  725   3.161   1.016   8.938 -0.2211  0.9862  0.2755
   47TMC2    C7  726   3.263   0.779   9.012  0.1799  1.2749  0.3206
   47TMC2    C8  727   3.224   1.258   8.967  0.5338 -0.5033  0.5661
   47TMC2    O1  728   3.183   0.773   8.922  0.2180  0.2109  0.1541
   47TMC2    O2  729   3.141   1.242   8.877  0.2009 -0.4727  0.2902
   47TMC2    O5  730   3.232   1.360   9.056 -0.1732 -0.0121 -0.4433
   47TMC2    H5  731   3.261   1.337   9.147  0.2285  0.2652 -0.5001
   48MPD2     C  732   3.894   1.060   9.318 -0.6291 -0.8986  0.3630
   48MPD2    C1  733   3.810   0.948   9.305  0.3681  0.0709  0.0979
   48MPD2    C2  734   3.840   0.842   9.387  0.0399 -0.5142 -0.9002
   48MPD2    C3  735   3.960   0.831   9.456 -0.0405  0.4785  0.8870
   48MPD2    C4  736   4.053   0.932   9.449  0.0224  0.4883 -1.1792
   48MPD2    C5  737   4.014   1.042   9.381 -0.5067  0.1005 -0.3015
   48MPD2     H  738   3.766   0.764   9.400  0.0636 -0.3598  0.1069
   48MPD2    H1  739   4.153   0.922   9.489  0.7770  0.9720 -2.9160
   48MPD2    H2  740   3.875   1.159   9.281  1.2910 -0.6943 -0.1037
   48MPD2    H3  741   4.091   1.119   9.380 -0.9911  0.5921  0.4695
   48MPD2     N  742   3.990   0.728   9.538  0.4705  0.1742  0.2050
   48MPD2    H5  743   4.083   0.735   9.576  1.7721 -1.4040 -2.6913
   48MPD2    N1  744   3.683   0.958   9.241 -0.6694  0.0979  0.9618
   48MPD2    H7  745   3.610   0.891   9.264 -2.7495  1.9559 -0.1140
   49MPD2     C  746   2.219   2.917   9.895  0.5083  0.2150  0.4467
   49MPD2    C1  747   2.087   2.891   9.929  0.3977 -0.1638  0.1321
   49MPD2    C2  748   2.055   2.846  10.059  0.7305 -0.3598  0.0541
   49MPD2    C3  749   2.154   2.843  10.151  0.2565  0.5087  0.2329
   49MPD2    C4  750   2.285   2.879  10.117 -0.5887 -1.3253  0.3247
   49MPD2    C5  751   2.316   2.909   9.993 -0.1013 -0.0008 -0.3009
   49MPD2     H  752   1.951   2.819  10.075  0.7905  0.7670  2.3792
   49MPD2    H1  753   2.365   2.860  10.187  0.7272 -1.0819 -1.1140
   49MPD2    H2  754   2.249   2.954   9.797 -0.0849  0.4455  0.3493
   49MPD2    H3  755   2.422   2.905   9.970  0.0840 -0.4497  0.6530
   49MPD2     N  756   2.127   2.832  10.292 -0.1183  0.4409 -0.0388
   49MPD2    H5  757   2.207   2.826  10.355  0.5848  1.1831 -0.8766
   49MPD2    N1  758   1.981   2.900   9.833  0.3036 -0.0799  0.0640
   49MPD2    H7  759   1.888   2.876   9.863  0.8178 -2.6111 -0.3083
   50TCq2    C1  760   1.984   2.967   9.707  0.5663 -0.1135  0.2536
   50TCq2    O2  761   2.068   3.042   9.660 -0.0957  0.0290 -0.3238
   50TCq2    C2  762   1.853   2.979   9.662 -0.3554 -0.7770  0.7421
   50TCq2    C3  763   1.824   3.086   9.583 -0.8455 -0.2451  0.6859
   50TCq2    C4  764   1.704   3.096   9.523 -0.9065 -0.0786 -0.7883
   50TCq2    C5  765   1.601   3.007   9.544  0.8625  0.3577  0.3460
   50TCq2    C6  766   1.635   2.902   9.627  0.0224  0.4425  0.3410
   50TCq2    C7  767   1.761   2.881   9.678  0.0141 -0.0180 -0.3585
   50TCq2    C8  768   1.548   2.788   9.655 -0.1199  0.2543  0.2960
   50TCq2    O4  769   1.581   2.712   9.743  0.0229 -0.7014 -0.2182
   50TCq2    C9  770   1.680   3.205   9.436 -0.8342 -0.5123  0.3002
   50TCq2    O5  771   1.773   3.293   9.427 -0.0363 -0.3525  0.2708
   50TCq2    O6  772   1.575   3.188   9.360  0.1284  0.3925 -0.5073
   50TCq2    H2  773   1.898   3.163   9.563 -0.8644  0.3507  2.9296
   50TCq2    H3  774   1.505   3.029   9.497  1.2267  1.7805  0.2457
   50TCq2    H4  775   1.775   2.796   9.743 -0.6318 -0.3826 -0.6999
   51MPD2     C  776   1.668   1.686   0.683 -0.1128 -0.2229  0.3824
   51MPD2    C1  777   1.722   1.562   0.715 -0.6782  0.1254 -0.1561
   51MPD2    C2  778   1.841   1.563   0.786 -0.8244 -0.4945  0.2489
   51MPD2    C3  779   1.906   1.681   0.812 -0.3751  0.4130  0.8328
   51MPD2    C4  780   1.857   1.797   0.765 -0.4944  0.1157  0.7183
   51MPD2    C5  781   1.739   1.805   0.695  1.0558 -0.5376 -0.4292
   51MPD2     H  782   1.889   1.468   0.806  1.4869  0.0720 -2.5975
   51MPD2    H1  783   1.906   1.892   0.787  2.3926 -1.2698  0.2944
   51MPD2    H2  784   1.583   1.694   0.617 -0.5691  2.2430  1.2961
   51MPD2    H3  785   1.700   1.902   0.666  2.8573  0.5117  0.6204
   51MPD2     N  786   2.038   1.690   0.871 -0.3601 -0.2710  0.3483
   51MPD2    H5  787   2.087   1.779   0.878 -0.9194  0.3164 -3.4038
   51MPD2    N1  788   1.669   1.441   0.666  0.4270  0.1011 -0.2293
   51MPD2    H7  789   1.731   1.361   0.655 -0.1192 -0.2507 -0.7583
   52TCq2    C1  790   2.110   1.582   0.925  0.3793 -0.3117 -0.8330
   52TCq2    O2  791   2.065   1.474   0.952 -0.2600  0.1348  0.4726
   52TCq2    C2  792   2.247   1.618   0.957  0.1387 -0.1986 -0.2996
   52TCq2    C3  793   2.327   1.512   0.973  0.1852  0.7437 -0.6737
   52TCq2    C4  794   2.450   1.544   1.019 -0.2890  0.3001 -0.3908
   52TCq2    C5  795   2.495   1.671   1.046  0.3109  0.1724  0.1105
   52TCq2    C6  796   2.406   1.776   1.046 -0.0782  0.0689  0.7259
   52TCq2    C7  797   2.281   1.752   0.994  0.2235 -0.1258  0.5146
   52TCq2    C8  798   2.454   1.901   1.120 -0.6045  1.0256 -0.2151
   52TCq2    O4  799   2.573   1.905   1.155  0.1244  0.6177  0.6544
   52TCq2    C9  800   2.536   1.436   1.049  0.2338  0.0961 -0.6580
   52TCq2    O5  801   2.491   1.317   1.030  0.0557 -0.8063 -1.0846
   52TCq2    O6  802   2.650   1.470   1.099 -0.6785  0.0004  0.4031
   52TCq2    H2  803   2.301   1.413   0.939  0.5509  1.2680 -2.5191
   52TCq2    H3  804   2.590   1.696   1.093  1.4373 -0.7085 -1.6714
   52TCq2    H4  805   2.208   1.829   0.970 -0.1759 -1.0490 -1.2279
   53TMC2    C1  806   2.475   4.304  11.657 -0.0214 -0.5251  0.1511
   53TMC2    C2  807   2.601   4.281  11.710  0.3145 -0.3427  0.4727
   53TMC2    C3  808   2.631   4.345  11.830 -0.2788  0.4427  0.1383
   53TMC2    C4  809   2.380   4.383  11.714  1.2645 -0.1739 -0.5521
   53TMC2    C5  810   2.427   4.445  11.828 -0.5978  0.0638  0.3208
   53TMC2    C6  811   2.545   4.430  11.889 -0.5838 -0.8361  0.5057
   53TMC2     C  812   2.442   4.216  11.551  0.0326 -0.3242 -0.7701
   53TMC2     O  813   2.529   4.180  11.470 -0.1618 -0.9174  0.1295
   53TMC2     H  814   2.667   4.210  11.661  0.7776  0.6986 -0.4245
   53TMC2    H1  815   2.293   4.413  11.658  0.9684  0.6712  0.3538
   53TMC2    H2  816   2.567   4.486  11.979  2.4570 -1.0412 -0.0917
   53TMC2    C7  817   2.315   4.507  11.901 -0.2556  0.3861  0.0650
   53TMC2    C8  818   2.771   4.348  11.877 -0.3774 -0.1787 -0.0945
   53TMC2    O1  819   2.203   4.489  11.850 -0.3950 -0.3924  0.1511
   53TMC2    O2  820   2.802   4.456  11.923 -0.4711 -0.4053 -0.3251
   53TMC2    O5  821   2.808   4.227  11.914 -0.1409  0.2122  0.2205
   53TMC2    H5  822   2.752   4.150  11.891  0.2774 -0.1058  0.2592
   54MPD2     C  823   2.301   4.028  11.373  0.2052  0.2304  0.0086
   54MPD2    C1  824   2.243   4.086  11.478 -0.2060 -0.2280  0.0838
   54MPD2    C2  825   2.108   4.060  11.514  0.0740 -0.4670  0.3166
   54MPD2    C3  826   2.033   3.974  11.433  0.4483 -0.0130  0.4009
   54MPD2    C4  827   2.092   3.916  11.323 -0.2727 -0.1069  0.1747
   54MPD2    C5  828   2.219   3.941  11.301 -0.5912  0.0238 -1.1994
   54MPD2     H  829   2.061   4.121  11.590 -0.1600 -0.8777  0.5024
   54MPD2    H1  830   2.036   3.843  11.265 -0.3970  1.5588 -1.8099
   54MPD2    H2  831   2.403   4.044  11.340 -0.2420  0.1914 -1.3951
   54MPD2    H3  832   2.249   3.902  11.205  0.1969  1.1308 -1.4063
   54MPD2     N  833   1.904   3.931  11.467  0.0134  0.2050 -0.1346
   54MPD2    H5  834   1.866   3.870  11.395  0.1080  0.2333 -0.2080
   54MPD2    N1  835   2.309   4.179  11.566  0.2056 -0.1256 -0.7949
   54MPD2    H7  836   2.249   4.204  11.644 -0.1297 -0.7509 -0.8541
   55MPD2     C  837   3.025   2.668   0.105  0.2663  0.0478 -0.1743
   55MPD2    C1  838   2.995   2.551   0.169  0.1979 -0.3252 -0.5180
   55MPD2    C2  839   2.877   2.536   0.241  0.3434 -0.0884 -0.1567
   55MPD2    C3  840   2.784   2.640   0.238 -0.2751 -0.3206 -0.1013
   55MPD2    C4  841   2.812   2.759   0.172 -0.1297  0.1705 -0.9522
   55MPD2    C5  842   2.934   2.772   0.113 -0.3888 -0.1201 -0.0148
   55MPD2     H  843   2.855   2.446   0.298 -0.2193 -1.0054 -1.8291
   55MPD2    H1  844   2.745   2.844   0.160 -0.2942 -0.1672 -2.4301
   55MPD2    H2  845   3.107   2.689   0.037 -0.6113  1.5610 -0.7733
   55MPD2    H3  846   2.959   2.860   0.055 -0.7888 -0.4010 -0.6186
   55MPD2     N  847   2.657   2.609   0.295 -0.5048  0.3995  0.4986
   55MPD2    H5  848   2.645   2.520   0.341  0.9486  0.0258  0.1437
   55MPD2    N1  849   3.087   2.451   0.160  0.0599  0.2062 -0.2384
   55MPD2    H7  850   3.140   2.458   0.074 -0.0889  2.1830 -0.1808
   56TCq2    C1  851   3.086   2.331   0.234 -0.6369  0.1459  0.3294
   56TCq2    O2  852   3.025   2.305   0.339  0.6113  0.1860  0.4983
   56TCq2    C2  853   3.187   2.234   0.187 -0.1567 -0.3777  0.2500
   56TCq2    C3  854   3.300   2.267   0.120  0.6247 -0.4412  0.0575
   56TCq2    C4  855   3.391   2.168   0.099  0.2601  0.3182 -0.2365
   56TCq2    C5  856   3.366   2.037   0.141  0.3894  0.1812 -0.0411
   56TCq2    C6  857   3.258   2.007   0.221  0.5732  0.0015  0.1870
   56TCq2    C7  858   3.173   2.109   0.245 -0.1120 -0.4480  0.1581
   56TCq2    C8  859   3.200   1.875   0.200 -0.1678 -0.2228 -0.4128
   56TCq2    O4  860   3.269   1.797   0.138 -0.3095 -0.1473 -0.8461
   56TCq2    C9  861   3.511   2.198   0.025  0.2360 -0.1440  0.3134
   56TCq2    O5  862   3.596   2.107   0.018  0.8669  0.1112 -0.1166
   56TCq2    O6  863   3.532   2.316  17.684  0.2792  1.0059  0.1449
   56TCq2    H2  864   3.335   2.367   0.095 -2.7470  0.5189 -0.9344
   56TCq2    H3  865   3.436   1.961   0.108  1.5764  1.7305 -1.1052
   56TCq2    H4  866   3.083   2.085   0.301  1.7778  0.4265  3.6050
   57TMC2    C1  867   2.567   3.670  13.728 -0.1721  0.2507  0.8844
   57TMC2    C2  868   2.634   3.628  13.839  0.3667 -0.8494 -0.0206
   57TMC2    C3  869   2.738   3.535  13.824 -0.2970 -0.0160 -0.2213
   57TMC2    C4  870   2.608   3.634  13.600  0.0185  0.4305 -0.6376
   57TMC2    C5  871   2.723   3.564  13.591  0.1092  0.5658 -0.4147
   57TMC2    C6  872   2.781   3.510  13.698  0.0922 -0.1193  0.0364
   57TMC2     C  873   2.425   3.702  13.758  0.3869  0.1507  0.5584
   57TMC2     O  874   2.398   3.766  13.860 -0.1839 -0.3252  0.0575
   57TMC2     H  875   2.598   3.668  13.933 -0.0898  0.0608 -0.5893
   57TMC2    H1  876   2.562   3.689  13.519  2.9571  1.7205 -1.4563
   57TMC2    H2  877   2.869   3.448  13.691 -0.6004 -1.1243  0.2464
   57TMC2    C7  878   2.786   3.542  13.463  0.5772  0.2797 -0.2948
   57TMC2    C8  879   2.841   3.510  13.928  0.6951  0.1809 -0.5553
   57TMC2    O1  880   2.772   3.626  13.376 -0.5721  0.1651 -0.1437
   57TMC2    O2  881   2.955   3.470  13.906  0.3788  1.0739  0.1867
   57TMC2    O5  882   2.806   3.589  14.033 -0.1373 -0.0555 -0.6270
   57TMC2    H5  883   2.862   3.586  14.114 -0.0952  0.6716 -0.6339
   58MPD2     C  884   1.944   3.557  13.637 -0.6052  0.1027 -0.0487
   58MPD2    C1  885   1.981   3.658  13.728 -0.3508  0.2148 -1.2491
   58MPD2    C2  886   2.120   3.680  13.738 -0.3159  0.0262 -0.0691
   58MPD2    C3  887   2.209   3.620  13.652 -0.2239 -0.2527 -0.3944
   58MPD2    C4  888   2.159   3.539  13.552  0.2566 -0.8780 -0.6896
   58MPD2    C5  889   2.030   3.506  13.546 -0.7672  0.2432  0.0537
   58MPD2     H  890   2.156   3.753  13.810 -2.7606  2.6938 -1.5219
   58MPD2    H1  891   2.224   3.490  13.480  0.4028  0.9233 -1.8089
   58MPD2    H2  892   1.844   3.518  13.635 -0.3080 -0.5851 -1.9354
   58MPD2    H3  893   1.997   3.440  13.467 -0.9836 -2.4146  2.3597
   58MPD2     N  894   2.347   3.632  13.663  0.1932 -0.1185 -0.1183
   58MPD2    H5  895   2.398   3.590  13.586 -0.5783 -1.9156  0.3654
   58MPD2    N1  896   1.889   3.724  13.814 -0.3422 -0.3151 -0.0018
   58MPD2    H7  897   1.930   3.793  13.876 -1.0139  0.0530  0.0292
   59MPD2     C  898   4.305   3.548  13.229  0.1682 -0.4841  0.3162
   59MPD2    C1  899   4.394   3.552  13.122  0.2275  0.1289  0.3390
   59MPD2    C2  900   4.528   3.564  13.145  0.3909 -0.1540 -0.0598
   59MPD2    C3  901   4.573   3.591  13.269 -0.1960 -0.2722 -0.1921
   59MPD2    C4  902   4.484   3.590  13.375  1.4004 -0.1981 -0.1491
   59MPD2    C5  903   4.349   3.571  13.353  0.3655 -0.3321  0.2778
   59MPD2     H  904   4.597   3.546  13.063 -0.8068 -1.7710 -0.6989
   59MPD2    H1  905   4.525   3.608  13.473  0.3187  0.3175  0.2078
   59MPD2    H2  906   4.200   3.530  13.209 -0.1080  0.2808  1.0288
   59MPD2    H3  907   4.288   3.562  13.442  0.6890  1.6939  0.7193
   59MPD2     N  908   4.707   3.612  13.294  0.9901  0.3811 -0.4727
   59MPD2    H5  909   0.020   3.620  13.389 -1.2042  1.6595  0.2071
   59MPD2    N1  910   4.355   3.532  12.992  0.2200 -0.2573 -0.1838
   59MPD2    H7  911   4.428   3.524  12.921  0.8135 -0.9567  0.5088
   60TCq2    C1  912   4.236   3.557  12.939 -0.0062  0.7577 -0.3821
   60TCq2    O2  913   4.133   3.591  12.996  0.1604 -0.5146  0.1840
   60TCq2    C2  914   4.221   3.545  12.793  0.2139  0.3992 -0.0204
   60TCq2    C3  915   4.315   3.486  12.719 -0.8371  0.2253  0.3840
   60TCq2    C4  916   4.279   3.453  12.589 -0.0107 -0.2415  0.8745
   60TCq2    C5  917   4.152   3.472  12.535 -0.8576  0.0302 -0.3051
   60TCq2    C6  918   4.061   3.520  12.621  0.4665  0.1167  0.2096
   60TCq2    C7  919   4.093   3.559  12.743  0.0171  0.4267  0.1176
   60TCq2    C8  920   3.936   3.586  12.574 -0.3534 -0.1690 -0.4776
   60TCq2    O4  921   3.842   3.589  12.653 -0.6241 -0.0469  0.8361
   60TCq2    C9  922   4.369   3.374  12.502  0.0002 -0.0949  0.1480
   60TCq2    O5  923   4.474   3.332  12.550  0.1386  0.4856  1.1174
   60TCq2    O6  924   4.328   3.351  12.387  0.4699 -0.2226 -0.6083
   60TCq2    H2  925   4.416   3.469  12.753 -1.2364 -2.1434  0.3791
   60TCq2    H3  926   4.120   3.436  12.438  1.3634 -1.4570 -0.4864
   60TCq2    H4  927   4.017   3.597  12.811  0.4394  1.0191  0.2584
   61MPD2     C  928   3.902   0.180  14.012 -0.0515 -0.3414  0.1634
   61MPD2    C1  929   3.966   0.273  14.093  0.1560 -0.7759 -0.4088
   61MPD2    C2  930   3.946   0.411  14.083  0.6405  0.3343 -0.5238
   61MPD2    C3  931   3.842   0.460  14.010  0.1554 -0.0036 -0.2212
   61MPD2    C4  932   3.773   0.369  13.936  0.1033 -0.0639  0.2183
   61MPD2    C5  933   3.810   0.233  13.924  0.1619 -0.1338 -0.4743
   61MPD2     H  934   4.007   0.474  14.146 -0.7197 -1.2794  2.4236
   61MPD2    H1  935   3.694   0.399  13.868 -0.7195 -0.1672  1.1222
   61MPD2    H2  936   3.919   0.073  14.013 -1.2291 -0.5273  0.7313
   61MPD2    H3  937   3.759   0.170  13.852 -1.2302 -0.7862  1.0872
   61MPD2     N  938   3.779   0.588  14.035 -0.3498 -1.0879 -0.5025
   61MPD2    H5  939   3.687   0.609  14.001 -0.2615 -2.1116 -1.3845
   61MPD2    N1  940   4.052   0.231  14.201  0.5013  0.1298  0.5298
   61MPD2    H7  941   4.087   0.304  14.263  3.3647  0.5129 -1.5789
   62TCq2    C1  942   4.074   0.106  14.254  1.0551  0.1970  0.0267
   62TCq2    O2  943   4.052   4.713  14.218  0.5189  0.3771 -0.1274
   62TCq2    C2  944   4.141   0.122  14.381 -0.1814  0.2750  0.4162
   62TCq2    C3  945   4.213   0.013  14.434 -0.0782 -0.2204  0.8482
   62TCq2    C4  946   4.260   0.036  14.562  0.0255 -0.8648  0.3302
   62TCq2    C5  947   4.227   0.149  14.636  1.3319 -0.3323  0.2691
   62TCq2    C6  948   4.165   0.254  14.582  0.4457 -0.0166  0.1865
   62TCq2    C7  949   4.109   0.238  14.456  0.3484  0.2948 -0.4669
   62TCq2    C8  950   4.124   0.368  14.655  0.6141 -0.1538  0.3357
   62TCq2    O4  951   4.149   0.476  14.602  0.1212  0.2107  0.1998
   62TCq2    C9  952   4.348   4.657  14.610  0.0531 -0.1593  0.3420
   62TCq2    O5  953   4.358   4.541  14.560 -0.0860 -0.0451  0.0210
   62TCq2    O6  954   4.430   4.697  14.695  0.3617 -0.2472  0.3073
   62TCq2    H2  955   4.255   4.652  14.378 -0.4373  0.0551  0.1706
   62TCq2    H3  956   4.265   0.151  14.737 -1.1031  0.4142  1.1783
   62TCq2    H4  957   4.048   0.319  14.419 -1.9534 -0.9610  0.6036
   63TMC2    C1  958   3.173   0.894   9.930  0.3662 -0.6971  0.0113
   63TMC2    C2  959   3.119   1.018   9.905 -0.7259 -0.1208 -0.1769
   63TMC2    C3  960   3.189   1.121   9.944  0.3237 -0.2413 -0.6735
   63TMC2    C4  961   3.301   0.875   9.987 -0.2275  0.1733  0.5751
   63TMC2    C5  962   3.369   0.993  10.021 -0.1195 -0.4210 -0.5803
   63TMC2    C6  963   3.313   1.117  10.000  0.4026  0.3184  0.1148
   63TMC2     C  964   3.085   0.784   9.903  0.5270  0.1379  0.5476
   63TMC2     O  965   2.983   0.824   9.850  0.3770  0.0048  0.1029
   63TMC2     H  966   3.022   1.029   9.859 -1.0301  1.6133  0.8799
   63TMC2    H1  967   3.348   0.778   9.997 -3.4359 -1.1108  3.3931
   63TMC2    H2  968   3.365   1.211  10.016  1.0036 -0.4038  2.3750
   63TMC2    C7  969   3.511   0.983  10.057  0.8564 -0.1662 -0.4773
   63TMC2    C8  970   3.130   1.256   9.932  0.9962 -0.3308 -1.1663
   63TMC2    O1  971   3.575   0.888  10.005 -0.0879  0.2181 -0.0609
   63TMC2    O2  972   3.173   1.349  10.002 -0.7656  0.1913  0.2775
   63TMC2    O5  973   3.066   1.277   9.811 -0.4973  0.0790  0.6971
   63TMC2    H5  974   3.047   1.193   9.765  0.7445  0.9339 -1.3609
   64MPD2     C  975   2.870   0.327   9.937 -0.7374  0.6555  0.5168
   64MPD2    C1  976   2.994   0.317   9.989  0.0424 -0.6129 -0.1447
   64MPD2    C2  977   3.071   0.434   9.996 -0.3429  0.1981 -0.2239
   64MPD2    C3  978   3.028   0.558   9.957  0.5748  0.6555 -0.1107
   64MPD2    C4  979   2.897   0.566   9.911 -0.1777  0.2854  0.7462
   64MPD2    C5  980   2.822   0.454   9.906  0.0640 -0.1228 -0.0938
   64MPD2     H  981   3.171   0.426  10.037  0.0588  0.7530 -1.1143
   64MPD2    H1  982   2.846   0.658   9.884  0.5564  0.4448 -0.0915
   64MPD2    H2  983   2.797   0.247   9.927  0.7885 -0.6776 -0.0004
   64MPD2    H3  984   2.721   0.466   9.869  0.1998 -1.3263 -0.8216
   64MPD2     N  985   3.116   0.668   9.960 -0.1365  0.8117  0.6992
   64MPD2    H5  986   3.210   0.653   9.995 -0.2537  1.1615  1.1653
   64MPD2    N1  987   3.053   0.194  10.025  0.0785 -0.1141 -0.5539
   64MPD2    H7  988   3.153   0.196  10.043 -0.1466  0.0553  0.6697
   65MPD2     C  989   4.305   4.325  16.046 -0.5811 -0.3167 -0.3056
   65MPD2    C1  990   4.391   4.295  15.944 -0.0965  0.1533 -0.2745
   65MPD2    C2  991   4.380   4.172  15.890  0.8447  0.4812 -0.1313
   65MPD2    C3  992   4.274   4.082  15.915 -0.3971  0.1085  0.5732
   65MPD2    C4  993   4.184   4.119  16.008 -0.1761  0.6398 -0.4190
   65MPD2    C5  994   4.205   4.241  16.069  0.2383 -0.0862 -0.9702
   65MPD2     H  995   4.450   4.140  15.814 -1.6382 -2.2379 -1.2979
   65MPD2    H1  996   4.103   4.055  16.040 -1.3348  2.5654  0.5187
   65MPD2    H2  997   4.304   4.419  16.100  0.9924  0.7317 -2.0960
   65MPD2    H3  998   4.137   4.280  16.143  1.2350  0.3813 -0.2988
   65MPD2     N  999   4.241   3.970  15.833 -0.3758  0.3793 -0.1374
   65MPD2    H5 1000   4.152   3.926  15.853  0.1562  0.2363  1.9279
   65MPD2    N1 1001   4.500   4.373  15.895  0.2454 -0.6156  0.6058
   65MPD2    H7 1002   4.558   4.333  15.822 -0.4232  1.1415 -0.8872
   66TCq2    C1 1003   4.526   4.502  15.933  0.0222  0.8144  0.0504
   66TCq2    O2 1004   4.446   4.564  15.999  0.3673  0.5205 -0.0306
   66TCq2    C2 1005   4.621   4.564  15.843 -0.4389  0.4204 -0.3612
   66TCq2    C3 1006   4.714   4.485  15.791 -0.3362  0.0755 -0.3159
   66TCq2    C4 1007   0.064   4.521  15.683  0.2217  0.0709  0.3604
   66TCq2    C5 1008   0.039   4.647  15.624 -0.1377  0.0402  0.4746
   66TCq2    C6 1009   4.666   0.010  15.684  0.5559  0.0833 -0.0111
   66TCq2    C7 1010   4.587   4.688  15.789  0.6576 -0.4974  0.0906
   66TCq2    C8 1011   4.640   0.138  15.614 -0.4710  0.3733 -0.6303
   66TCq2    O4 1012   4.673   0.141  15.499 -0.5881 -0.0474 -0.1583
   66TCq2    C9 1013   0.164   4.428  15.630 -0.6604 -0.4380 -0.2251
   66TCq2    O5 1014   0.146   4.305  15.638  0.5168 -0.1293  0.1580
   66TCq2    O6 1015   0.254   4.486  15.567 -0.4291  0.0960  0.0512
   66TCq2    H2 1016   0.010   4.388  15.837 -1.2509  0.5806  1.1125
   66TCq2    H3 1017   0.102   4.681  15.543 -1.0282  1.4926  0.3900
   66TCq2    H4 1018   4.504   0.029  15.819  0.8438 -1.5121  2.7328
   67MPD2     C 1019   0.225   3.728  14.146 -0.1294  0.1809  0.4922
   67MPD2    C1 1020   0.117   3.770  14.220  0.2268 -0.4721 -0.7974
   67MPD2    C2 1021   4.719   3.791  14.152 -0.3357 -0.3344 -0.1419
   67MPD2    C3 1022   4.712   3.771  14.022  0.3462 -0.3206  0.4392
   67MPD2    C4 1023   0.094   3.706  13.954  0.4031  0.1534 -0.2888
   67MPD2    C5 1024   0.215   3.694  14.017  0.6044 -0.6177 -0.2550
   67MPD2     H 1025   4.638   3.830  14.212 -0.3521  0.1679 -0.4965
   67MPD2    H1 1026   0.107   3.679  13.850  0.8338 -0.6319 -0.0345
   67MPD2    H2 1027   0.329   3.736  14.176  1.3837  0.8929 -4.8668
   67MPD2    H3 1028   0.294   3.682  13.944  3.0123  0.0294  2.2444
   67MPD2     N 1029   4.601   3.810  13.944 -0.1707 -0.0581  0.0400
   67MPD2    H5 1030   4.628   3.814  13.846  1.0078 -0.5426  0.3431
   67MPD2    N1 1031   0.122   3.811  14.361 -0.2298 -0.9884 -0.0804
   67MPD2    H7 1032   0.040   3.856  14.400  0.3431 -1.9582  2.2243
   68TCq2    C1 1033   0.234   3.783  14.429  0.4767 -0.1094 -0.2908
   68TCq2    O2 1034   0.339   3.731  14.396 -0.4834 -0.4153  0.4509
   68TCq2    C2 1035   0.233   3.844  14.556  0.6082  0.3275 -0.3319
   68TCq2    C3 1036   0.113   3.882  14.623 -0.3148  0.0002  0.2654
   68TCq2    C4 1037   0.131   3.939  14.748 -0.2563 -0.4875 -0.2633
   68TCq2    C5 1038   0.250   3.973  14.797  0.0689 -0.6663 -0.9733
   68TCq2    C6 1039   0.359   3.929  14.731  0.1064 -0.2784  0.7707
   68TCq2    C7 1040   0.355   3.862  14.613 -0.5953 -0.1927 -0.3908
   68TCq2    C8 1041   0.496   3.926  14.799 -0.6393  0.3158  0.1494
   68TCq2    O4 1042   0.592   3.894  14.728 -0.2774 -0.3863 -0.3863
   68TCq2    C9 1043   0.021   3.999  14.819 -0.3666 -0.3190  0.2938
   68TCq2    O5 1044   4.627   3.984  14.778 -0.4399  0.0142  0.4304
   68TCq2    O6 1045   0.046   4.048  14.931 -0.5363  0.4189 -0.5519
   68TCq2    H2 1046   0.012   3.866  14.586 -0.9439  0.4641  1.7903
   68TCq2    H3 1047   0.258   4.045  14.877 -1.0028 -0.0161 -1.4624
   68TCq2    H4 1048   0.449   3.827  14.574 -0.6672 -1.8011  0.8457
   69TMC2    C1 1049   1.685   0.211  11.849  0.4881 -0.6073  0.4845
   69TMC2    C2 1050   1.554   0.224  11.865  0.6746 -0.0650  0.3843
   69TMC2    C3 1051   1.472   0.177  11.762 -0.0381 -0.4336 -0.5581
   69TMC2    C4 1052   1.738   0.150  11.738 -0.4219 -0.2134  0.2177
   69TMC2    C5 1053   1.659   0.103  11.643  0.0406 -0.4745  0.3775
   69TMC2    C6 1054   1.524   0.116  11.645  0.1395 -0.2165 -0.4057
   69TMC2     C 1055   1.772   0.281  11.942 -0.0150  0.6854 -0.5482
   69TMC2     O 1056   1.717   0.325  12.042  0.0180 -0.2637  0.3313
   69TMC2     H 1057   1.516   0.262  11.959 -0.1204  1.5527 -0.5844
   69TMC2    H1 1058   1.841   0.118  11.739 -0.5040 -0.4519  2.2243
   69TMC2    H2 1059   1.458   0.050  11.589  0.8947 -0.5145 -0.9329
   69TMC2    C7 1060   1.702   0.027  11.524  0.1402 -0.0343 -0.2828
   69TMC2    C8 1061   1.326   0.197  11.775 -0.6200  0.2076  0.6246
   69TMC2    O1 1062   1.804   4.679  11.531 -0.3342  0.4961  0.5040
   69TMC2    O2 1063   1.278   0.228  11.885 -0.5212  0.3347 -0.4426
   69TMC2    O5 1064   1.289   0.253  11.659 -0.7298 -0.0816  0.4366
   69TMC2    H5 1065   1.355   0.234  11.590 -1.7465  1.4333 -0.9447
   70MPD2     C 1066   2.133   0.314  11.947 -0.0950 -0.5340  0.2587
   70MPD2    C1 1067   2.009   0.294  11.997 -0.1140 -0.1181  0.0067
   70MPD2    C2 1068   1.999   0.281  12.135 -0.3988 -0.0588  0.4517
   70MPD2    C3 1069   2.107   0.297  12.216  0.0810 -0.4939  0.4116
   70MPD2    C4 1070   2.229   0.309  12.160 -0.3105 -0.2030 -0.8925
   70MPD2    C5 1071   2.244   0.321  12.029  0.3371 -0.0879 -0.0503
   70MPD2     H 1072   1.899   0.254  12.170 -1.6886  2.9068 -0.9388
   70MPD2    H1 1073   2.317   0.298  12.223  1.4746 -2.4928 -3.8404
   70MPD2    H2 1074   2.151   0.318  11.841 -1.1409 -0.8656  0.0634
   70MPD2    H3 1075   2.341   0.345  11.987  0.3275  2.2536  1.2372
   70MPD2     N 1076   2.099   0.273  12.351  0.1412 -0.3039 -0.2838
   70MPD2    H5 1077   2.183   0.236  12.394 -0.5440 -1.2719  0.2292
   70MPD2    N1 1078   1.900   0.278  11.907 -0.0208  0.9098  0.5843
   70MPD2    H7 1079   1.924   0.254  11.811 -0.2503  2.5305  0.1230
   71TMC2    C1 1080   0.454   0.568   2.018 -0.5950 -0.7590  0.1886
   71TMC2    C2 1081   0.552   0.624   2.090  0.7645  0.1889  0.2014
   71TMC2    C3 1082   0.544   0.625   2.226 -0.1812 -0.0257  0.3372
   71TMC2    C4 1083   0.338   0.534   2.081  0.6519  0.2973 -0.5706
   71TMC2    C5 1084   0.320   0.552   2.216 -0.0172 -0.5143  0.1675
   71TMC2    C6 1085   0.431   0.586   2.291  0.0365  0.0986 -0.2534
   71TMC2     C 1086   0.450   0.595   1.880 -0.7196 -0.4392 -0.5683
   71TMC2     O 1087   0.538   0.673   1.846 -0.3116 -0.5864 -0.0464
   71TMC2     H 1088   0.642   0.657   2.039 -0.4077  0.9426 -1.4014
   71TMC2    H1 1089   0.253   0.502   2.023  0.0359 -0.7519  0.9053
   71TMC2    H2 1090   0.427   0.593   2.399 -1.6155 -0.0781 -0.3027
   71TMC2    C7 1091   0.195   0.518   2.281  0.5650 -0.3811 -0.0147
   71TMC2    C8 1092   0.667   0.650   2.301 -0.1194  0.6398 -0.4843
   71TMC2    O1 1093   0.194   0.483   2.396  0.6054  0.3829 -0.6539
   71TMC2    O2 1094   0.761   0.717   2.252  0.2261  0.3439 -0.3718
   71TMC2    O5 1095   0.672   0.568   2.408  0.6900 -0.1621  0.6763
   71TMC2    H5 1096   0.591   0.513   2.410 -0.0867  0.9912  1.1886
   72MPD2     C 1097   0.196   0.685   1.452  0.3113  0.1309 -0.1493
   72MPD2    C1 1098   0.330   0.688   1.464  0.4564 -0.0071  0.4768
   72MPD2    C2 1099   0.382   0.642   1.581  0.4792  0.0491  0.2592
   72MPD2    C3 1100   0.298   0.579   1.679  0.3487 -0.1132  0.0295
   72MPD2    C4 1101   0.171   0.554   1.649 -0.3974  0.3647 -0.2486
   72MPD2    C5 1102   0.120   0.614   1.542 -0.0909  0.3599 -0.4117
   72MPD2     H 1103   0.489   0.645   1.598  0.2139 -0.2118  2.0585
   72MPD2    H1 1104   0.104   0.499   1.713 -0.2951  0.1884 -0.2945
   72MPD2    H2 1105   0.148   0.741   1.373 -0.0512  1.0867  0.7586
   72MPD2    H3 1106   0.016   0.607   1.514  0.0885  0.8116 -1.1939
   72MPD2     N 1107   0.344   0.544   1.804 -0.1722  0.1504  0.2053
   72MPD2    H5 1108   0.282   0.476   1.846 -0.7698  1.4387  1.4381
   72MPD2    N1 1109   0.413   0.740   1.360 -0.2661 -0.0123  0.0501
   72MPD2    H7 1110   0.511   0.723   1.380 -0.2491  1.5140  1.3528
   73TMC2    C1 1111   3.947   2.429  13.841 -0.5770 -0.0334 -0.3169
   73TMC2    C2 1112   3.887   2.429  13.961  0.3999  1.0920  0.0999
   73TMC2    C3 1113   3.961   2.413  14.068 -0.0908  0.0528 -0.4724
   73TMC2    C4 1114   4.084   2.414  13.829 -0.1635  0.3691 -0.5724
   73TMC2    C5 1115   4.165   2.415  13.936  0.5961  0.3367  0.0161
   73TMC2    C6 1116   4.102   2.420  14.061  0.5383 -0.6847  0.6586
   73TMC2     C 1117   3.913   2.549  13.758  0.3346  0.1816  0.2393
   73TMC2     O 1118   4.005   2.625  13.719  0.4178  0.1632 -0.0468
   73TMC2     H 1119   3.785   2.464  13.964 -0.0184 -0.0910 -0.6801
   73TMC2    H1 1120   4.126   2.436  13.731  0.2832 -0.1497 -0.4949
   73TMC2    H2 1121   4.156   2.433  14.154 -0.0706 -0.5397  0.9940
   73TMC2    C7 1122   4.276   2.514  13.937  0.1375 -0.5047  0.1603
   73TMC2    C8 1123   3.899   2.444  14.195 -0.1164 -0.4440  0.2999
   73TMC2    O1 1124   4.364   2.497  14.025  0.4921  0.0967  0.9860
   73TMC2    O2 1125   3.958   2.495  14.286 -0.4538  0.2187 -0.1912
   73TMC2    O5 1126   3.787   2.375  14.201  0.4946 -0.0946 -0.5552
   73TMC2    H5 1127   3.763   2.329  14.117  0.2896 -0.4405 -0.3048
   74MPD2     C 1128   3.598   2.932  13.608 -0.1449 -0.2896  0.0781
   74MPD2    C1 1129   3.741   2.926  13.612  0.3216  0.3112  0.2098
   74MPD2    C2 1130   3.794   2.806  13.654  0.9032 -0.7886 -0.2458
   74MPD2    C3 1131   3.722   2.692  13.697  0.3860 -0.0396  0.2859
   74MPD2    C4 1132   3.583   2.700  13.690  0.1657 -0.2273  0.3729
   74MPD2    C5 1133   3.526   2.813  13.642 -0.3674 -0.3783  0.1065
   74MPD2     H 1134   3.902   2.806  13.656  0.8760  0.1876  2.3478
   74MPD2    H1 1135   3.527   2.612  13.718  0.2479 -1.1653 -2.4591
   74MPD2    H2 1136   3.533   3.014  13.581 -1.6160 -0.8840  1.7901
   74MPD2    H3 1137   3.418   2.803  13.646 -0.3714 -0.3989 -0.0421
   74MPD2     N 1138   3.778   2.572  13.749  0.0913  0.0068  0.2310
   74MPD2    H5 1139   3.715   2.498  13.778 -0.8153 -0.3684 -2.7529
   74MPD2    N1 1140   3.830   3.035  13.601  0.8356 -0.8088 -0.2282
   74MPD2    H7 1141   3.928   3.010  13.613  0.0518 -2.8940  1.8979
   75TCq2    C1 1142   4.477   3.848  13.984  0.5546 -0.5009 -1.2105
   75TCq2    O2 1143   4.437   3.828  14.099 -0.6169 -0.2096 -0.0596
   75TCq2    C2 1144   4.372   3.846  13.880 -0.0616 -0.3722  0.8272
   75TCq2    C3 1145   4.253   3.792  13.907  0.8646 -0.8891 -0.1271
   75TCq2    C4 1146   4.172   3.766  13.802 -0.6348 -1.2828 -0.0859
   75TCq2    C5 1147   4.199   3.799  13.673  0.5005 -0.1291  0.1503
   75TCq2    C6 1148   4.320   3.865  13.651 -0.6575 -0.0772  0.4440
   75TCq2    C7 1149   4.413   3.878  13.757  0.6825  0.6585  0.3284
   75TCq2    C8 1150   4.340   3.920  13.520  0.1769 -0.0645 -0.2149
   75TCq2    O4 1151   4.240   3.949  13.450  0.0154  0.2499 -0.2966
   75TCq2    C9 1152   4.031   3.723  13.835 -0.1452  0.4628  0.2315
   75TCq2    O5 1153   3.965   3.687  13.737  0.2337  0.4862 -0.2252
   75TCq2    O6 1154   3.992   3.715  13.955  0.3890  0.0186 -0.1477
   75TCq2    H2 1155   4.231   3.754  14.006  2.8435 -1.3961  0.1209
   75TCq2    H3 1156   4.119   3.798  13.599  0.2907  0.6977  0.3560
   75TCq2    H4 1157   4.506   3.934  13.754  1.2957 -0.4594 -1.7109
   76MPD2     C 1158   2.587   4.633  11.539 -0.0001 -0.1817  0.0735
   76MPD2    C1 1159   2.631   4.534  11.451  0.1404  0.6211 -0.4036
   76MPD2    C2 1160   2.759   4.486  11.465  0.1327  0.2896 -0.2249
   76MPD2    C3 1161   2.842   4.526  11.565  0.6065  0.1531 -0.9129
   76MPD2    C4 1162   2.796   4.631  11.648  0.7665 -0.1306 -0.3836
   76MPD2    C5 1163   2.669   4.680  11.636 -0.2357  0.2527 -0.7580
   76MPD2     H 1164   2.783   4.395  11.412  1.3357 -1.6243  3.5891
   76MPD2    H1 1165   2.855   4.664  11.733  0.0956  1.0227 -0.3719
   76MPD2    H2 1166   2.488   4.674  11.527  0.5598  0.9723 -0.5880
   76MPD2    H3 1167   2.639   0.030  11.712  0.0635 -0.2961 -0.1185
   76MPD2     N 1168   2.964   4.461  11.603  0.0139 -0.5262  0.4695
   76MPD2    H5 1169   3.015   4.504  11.680 -0.8938  2.6446 -0.6869
   76MPD2    N1 1170   2.544   4.476  11.351  0.0554 -0.4048  0.6429
   76MPD2    H7 1171   2.580   4.399  11.296 -0.1145  0.9022 -1.3076
   77TCq2    C1 1172   3.012   4.347  11.547  0.4176  0.0762 -0.3851
   77TCq2    O2 1173   2.975   4.276  11.455 -0.1475 -0.0952 -0.2228
   77TCq2    C2 1174   3.117   4.292  11.632 -0.1327  0.0826  0.1989
   77TCq2    C3 1175   3.194   4.201  11.564 -0.2865  0.2716  0.3126
   77TCq2    C4 1176   3.274   4.123  11.639  0.2676  0.4154  0.1641
   77TCq2    C5 1177   3.292   4.144  11.778 -0.7387  0.5268 -0.3120
   77TCq2    C6 1178   3.209   4.231  11.842  0.0361  0.0547  0.5070
   77TCq2    C7 1179   3.119   4.304  11.768 -0.8011  0.5312 -0.2074
   77TCq2    C8 1180   3.230   4.261  11.983  0.1384 -0.6148 -0.0029
   77TCq2    O4 1181   3.154   4.347  12.024  0.5176  0.9389 -0.4383
   77TCq2    C9 1182   3.368   4.041  11.569  0.7855  0.3596 -1.0025
   77TCq2    O5 1183   3.407   3.940  11.637 -0.1196 -0.2850 -0.0893
   77TCq2    O6 1184   3.372   4.044  11.443 -0.4982 -0.4073 -0.5669
   77TCq2    H2 1185   3.189   4.183  11.457 -1.5825 -1.8130  0.7395
   77TCq2    H3 1186   3.363   4.077  11.825  0.6509  3.3900  1.6745
   77TCq2    H4 1187   3.069   4.384  11.822 -0.5793  0.7602 -0.3407
   78MPD1     C 1188   4.402   4.685   2.465  0.2470 -0.3086 -0.5395
   78MPD1    C1 1189   4.282   0.034   2.471  0.1066  0.7006  0.4147
   78MPD1    C2 1190   4.230   0.080   2.353 -0.5539  0.3166  0.3618
   78MPD1    C3 1191   4.281   0.040   2.233 -0.1302 -0.2641 -0.2234
   78MPD1    C4 1192   4.391   4.680   2.226  0.6760  0.2825 -0.1664
   78MPD1    C5 1193   4.456   4.645   2.344  0.6927  0.0567  0.1402
   78MPD1     H 1194   4.146   0.144   2.377 -0.2089  1.6146 -1.9007
   78MPD1    H1 1195   4.427   4.640   2.132 -0.7253 -0.6333 -0.3277
   78MPD1    H2 1196   4.465   4.680   2.552  0.3361  1.2216 -0.5228
   78MPD1    H3 1197   4.548   4.588   2.350  0.5156 -0.1151  1.2039
   78MPD1     N 1198   4.226   0.071   2.104  1.2724  0.6643  0.2971
   78MPD1    H5 1199   4.279   0.039   2.023  1.6607  0.3746  0.6621
   78MPD1    N1 1200   4.226   0.079   2.596 -0.3488  0.2812  0.3053
   78MPD1    H6 1201   4.125   0.086   2.602 -0.3454 -1.1393  1.8668
   78MPD1    H7 1202   4.254   0.024   2.677 -2.1834  1.1249  1.5060
   79TCq2    C1 1203   4.104   0.128   2.082  0.9429 -0.0359 -0.3609
   79TCq2    O2 1204   4.015   0.150   2.166  0.7551 -0.9942 -0.0532
   79TCq2    C2 1205   4.085   0.173   1.944 -0.1039  0.6325 -1.4578
   79TCq2    C3 1206   3.962   0.219   1.903  0.0987  0.2273  0.3986
   79TCq2    C4 1207   3.949   0.265   1.775  1.3969  0.1767 -0.7459
   79TCq2    C5 1208   4.058   0.281   1.692  0.1387 -0.7919 -0.1300
   79TCq2    C6 1209   4.178   0.225   1.735  0.3681  0.2990  0.0764
   79TCq2    C7 1210   4.195   0.167   1.857  0.0056  0.2570  0.3940
   79TCq2    C8 1211   4.302   0.228   1.647  0.2364  0.4283  0.0517
   79TCq2    O4 1212   4.406   0.195   1.699 -0.1314 -0.4268 -0.4978
   79TCq2    C9 1213   3.818   0.302   1.725  0.1699  0.6228 -0.7065
   79TCq2    O5 1214   3.803   0.339   1.607  0.5972  0.1485 -0.0675
   79TCq2    O6 1215   3.722   0.261   1.804  0.4380  0.7583 -0.7402
   79TCq2    H2 1216   3.879   0.210   1.971  0.5035  0.1973  0.8870
   79TCq2    H3 1217   4.026   0.322   1.597 -1.4329  0.6345  1.0163
   79TCq2    H4 1218   4.289   0.128   1.894  0.0227  0.4614  0.5631
   80MPD2     C 1219   2.546   4.098  12.136 -0.8129  0.6249  0.2017
   80MPD2    C1 1220   2.425   4.101  12.071  0.2409  0.2007  0.0221
   80MPD2    C2 1221   2.312   4.175  12.123  0.7682 -0.0570 -0.6817
   80MPD2    C3 1222   2.322   4.222  12.252  0.1907  0.7636 -0.6548
   80MPD2    C4 1223   2.444   4.214  12.320  0.0172  0.0288  0.1228
   80MPD2    C5 1224   2.551   4.156  12.256 -0.1520  0.6324 -0.1480
   80MPD2     H 1225   2.217   4.180  12.070  0.8530 -3.3403 -1.1373
   80MPD2    H1 1226   2.455   4.264  12.416 -2.1416 -0.6084  0.7069
   80MPD2    H2 1227   2.632   4.047  12.094 -0.0142  0.9906  1.3881
   80MPD2    H3 1228   2.645   4.150  12.308 -0.2630  2.5032  0.2608
   80MPD2     N 1229   2.217   4.286  12.327 -0.6091 -0.6974  0.5452
   80MPD2    H5 1230   2.229   4.319  12.422  0.3158  1.0874 -0.1865
   80MPD2    N1 1231   2.415   4.041  11.942 -0.8251  0.3666 -0.6231
   80MPD2    H7 1232   2.319   4.033  11.909 -1.2591 -0.4213  0.8568
   81TCq2    C1 1233   2.512   3.999  11.858  0.6906 -0.1868 -0.5746
   81TCq2    O2 1234   2.628   4.026  11.857  0.4202 -0.2988 -0.1792
   81TCq2    C2 1235   2.456   3.915  11.748  0.1862 -0.4619 -0.0561
   81TCq2    C3 1236   2.536   3.889  11.641  0.0633 -0.1273 -0.3545
   81TCq2    C4 1237   2.495   3.794  11.548 -0.3185 -1.0150 -0.0617
   81TCq2    C5 1238   2.371   3.730  11.546  0.5169  0.5544 -0.9965
   81TCq2    C6 1239   2.294   3.760  11.659 -0.5169 -0.0610 -0.2087
   81TCq2    C7 1240   2.340   3.847  11.761 -0.0545 -0.2445  0.1988
   81TCq2    C8 1241   2.199   3.650  11.681 -0.0706  0.6247 -0.1935
   81TCq2    O4 1242   2.141   3.600  11.584 -0.6931 -0.4722 -0.5675
   81TCq2    C9 1243   2.576   3.776  11.434  0.2479  0.4068  0.3831
   81TCq2    O5 1244   2.668   3.858  11.402 -0.2563 -0.1768 -0.3398
   81TCq2    O6 1245   2.532   3.693  11.353 -0.8841  0.0445  0.4467
   81TCq2    H2 1246   2.628   3.944  11.628 -0.6031  0.5245 -2.2617
   81TCq2    H3 1247   2.347   3.654  11.472  1.3775  0.5614 -1.2836
   81TCq2    H4 1248   2.278   3.865  11.848 -1.6933  2.3054 -1.5005
   82MPD2     C 1249   0.266   4.476  10.110 -0.0728  0.7963  0.0500
   82MPD2    C1 1250   0.235   4.347  10.093 -0.4662 -0.2503 -0.6774
   82MPD2    C2 1251   0.260   4.256  10.193 -0.0786  0.5410 -0.7073
   82MPD2    C3 1252   0.315   4.293  10.310  0.0776 -0.1910  0.5473
   82MPD2    C4 1253   0.321   4.428  10.347 -0.1886 -0.1208  0.1037
   82MPD2    C5 1254   0.299   4.519  10.243 -0.7377  0.0053 -0.1533
   82MPD2     H 1255   0.231   4.153  10.175 -1.1107  0.6008  0.5766
   82MPD2    H1 1256   0.348   4.467  10.445  0.6998 -1.9748  0.5880
   82MPD2    H2 1257   0.255   4.543  10.025  1.1269 -1.2776 -1.7414
   82MPD2    H3 1258   0.311   4.627  10.253 -0.0386 -0.0252 -0.6114
   82MPD2     N 1259   0.360   4.196  10.400  0.2652 -0.2622 -0.0299
   82MPD2    H5 1260   0.379   4.228  10.494 -0.2511 -2.4750  0.8209
   82MPD2    N1 1261   0.199   4.307   9.968  0.3399  0.0536 -0.5086
   82MPD2    H7 1262   0.231   4.367   9.893 -1.4815  1.2393 -0.3325
   83TCq2    C1 1263   0.381   4.059  10.382  0.7883 -0.6147 -1.2517
   83TCq2    O2 1264   0.375   3.989  10.281 -0.1710  0.3637 -0.5042
   83TCq2    C2 1265   0.404   3.987  10.505  0.2552  0.3023  0.2778
   83TCq2    C3 1266   0.500   4.027  10.592  0.1932 -0.1235 -0.1089
   83TCq2    C4 1267   0.561   3.946  10.687  0.6266 -0.2384  0.5389
   83TCq2    C5 1268   0.530   3.816  10.683  0.8484 -0.3042 -0.4947
   83TCq2    C6 1269   0.453   3.760  10.585 -0.1211 -0.8635 -0.1985
   83TCq2    C7 1270   0.381   3.848  10.499 -0.2498  0.3013 -0.0761
   83TCq2    C8 1271   0.384   3.642  10.628  0.6382  0.8500 -0.5272
   83TCq2    O4 1272   0.401   3.601  10.741  0.1363  0.1426 -0.2292
   83TCq2    C9 1273   0.667   3.995  10.782 -0.4733 -0.4406  0.5296
   83TCq2    O5 1274   0.708   3.921  10.871  0.2061  0.7454  0.2589
   83TCq2    O6 1275   0.688   4.121  10.778 -0.5451  0.2365 -0.0450
   83TCq2    H2 1276   0.535   4.130  10.599  0.8096 -0.2796 -0.8044
   83TCq2    H3 1277   0.578   3.746  10.751 -0.3158 -0.6695 -0.0606
   83TCq2    H4 1278   0.309   3.809  10.428 -0.4392 -0.3711  0.4892
   84TCq2    C1 1279   2.009   2.858  10.356 -0.7250 -0.0809  0.8616
   84TCq2    O2 1280   1.899   2.873  10.305  0.4859  0.4012  0.3802
   84TCq2    C2 1281   2.018   2.840  10.505  0.0351 -0.0006  0.5252
   84TCq2    C3 1282   2.128   2.801  10.573 -0.0587 -0.2746  0.3485
   84TCq2    C4 1283   2.125   2.816  10.714 -0.2221  0.5170  0.0735
   84TCq2    C5 1284   2.008   2.841  10.780 -0.0066  0.3997  0.4089
   84TCq2    C6 1285   1.896   2.878  10.701 -0.9870  0.1283 -0.2344
   84TCq2    C7 1286   1.897   2.880  10.570  0.4138 -0.2095  0.2361
   84TCq2    C8 1287   1.777   2.926  10.768 -0.6935 -0.1168 -0.2676
   84TCq2    O4 1288   1.800   2.953  10.886  0.2513  0.2442  0.0230
   84TCq2    C9 1289   2.245   2.803  10.784  0.6389  0.8295  0.0387
   84TCq2    O5 1290   2.350   2.790  10.713 -0.6568  0.2057  0.5302
   84TCq2    O6 1291   2.221   2.794  10.907 -0.2434  0.3726  0.0016
   84TCq2    H2 1292   2.223   2.768  10.533  0.4044  1.1870  0.2199
   84TCq2    H3 1293   2.012   2.853  10.888 -0.0254 -0.5112  0.5041
   84TCq2    H4 1294   1.813   2.913  10.509  0.7575  1.1015  0.4745
   85MPD2     C 1295   1.837   0.699  15.680 -0.0568 -0.5769 -1.0569
   85MPD2    C1 1296   1.917   0.622  15.762  0.6470  1.1117  0.1217
   85MPD2    C2 1297   2.043   0.666  15.797 -0.5635 -0.2333 -0.3075
   85MPD2    C3 1298   2.091   0.790  15.756  0.0127 -0.0497 -0.5367
   85MPD2    C4 1299   2.004   0.872  15.688 -0.2876  0.4422 -0.0701
   85MPD2    C5 1300   1.881   0.830  15.653  0.3298  0.3521 -0.1047
   85MPD2     H 1301   2.112   0.596  15.843  0.8221  0.1457 -1.8195
   85MPD2    H1 1302   2.033   0.972  15.658 -0.1518 -0.0027 -1.4207
   85MPD2    H2 1303   1.736   0.673  15.649 -0.2857 -0.0520 -0.7438
   85MPD2    H3 1304   1.804   0.893  15.610 -1.3273 -2.0393 -0.6515
   85MPD2     N 1305   2.211   0.843  15.795  0.4247 -0.1773 -0.2264
   85MPD2    H5 1306   2.236   0.932  15.754 -0.7106  0.9097  1.4634
   85MPD2    N1 1307   1.868   0.490  15.787 -0.0414 -0.1137  0.0048
   85MPD2    H7 1308   1.791   0.462  15.727 -0.2008 -0.8499  0.5537
   86TCq2    C1 1309   2.313   0.769  15.846 -0.3038 -0.6435  0.5744
   86TCq2    O2 1310   2.318   0.656  15.892 -0.2079 -0.2527 -0.0455
   86TCq2    C2 1311   2.431   0.857  15.866 -0.2486 -1.1252 -0.2303
   86TCq2    C3 1312   2.532   0.793  15.932 -0.5389 -0.0202  0.7923
   86TCq2    C4 1313   2.634   0.871  15.972 -0.2530 -0.0485  0.2425
   86TCq2    C5 1314   2.637   1.004  15.956  0.8789  0.6494 -0.0998
   86TCq2    C6 1315   2.537   1.068  15.900  0.5330  0.2339  0.0787
   86TCq2    C7 1316   2.430   0.995  15.857  0.0082  0.1583 -0.2832
   86TCq2    C8 1317   2.543   1.205  15.867  0.3470 -0.0170 -0.0082
   86TCq2    O4 1318   2.449   1.249  15.798 -0.2606  0.1282 -0.2839
   86TCq2    C9 1319   2.740   0.799  16.037  0.4647  1.1333  0.3573
   86TCq2    O5 1320   2.724   0.677  16.055  0.1435 -0.0622 -0.4326
   86TCq2    O6 1321   2.822   0.869  16.099 -0.2463 -0.1355 -0.0151
   86TCq2    H2 1322   2.535   0.685  15.935  0.7917  0.0057  0.0300
   86TCq2    H3 1323   2.724   1.057  15.993 -1.5500  3.2792  1.7947
   86TCq2    H4 1324   2.350   1.055  15.814 -0.4010 -0.4325 -0.3480
   87MPD2     C 1325   4.630   4.028   1.472  0.9000  0.3671  0.0355
   87MPD2    C1 1326   4.715   3.991   1.372  0.0725  0.2002  0.0782
   87MPD2    C2 1327   4.693   4.034   1.237 -0.6054 -0.7289  0.4648
   87MPD2    C3 1328   4.575   4.108   1.211  0.6426  0.5761 -0.3692
   87MPD2    C4 1329   4.482   4.124   1.310 -0.2181 -0.1968 -0.0616
   87MPD2    C5 1330   4.512   4.090   1.441 -0.1298  0.2555 -0.8169
   87MPD2     H 1331   0.042   4.008   1.159  1.8619  2.6121  1.5610
   87MPD2    H1 1332   4.388   4.171   1.283  0.0767  0.3153 -0.2104
   87MPD2    H2 1333   4.651   3.994   1.573 -2.0019 -2.1737 -0.2134
   87MPD2    H3 1334   4.437   4.102   1.519  0.1339 -0.0069 -0.5212
   87MPD2     N 1335   4.541   4.155   1.082  0.2066 -0.3039  0.3071
   87MPD2    H5 1336   4.463   4.219   1.077 -1.3962 -2.2730  0.2433
   87MPD2    N1 1337   0.107   3.919   1.417  0.1339  0.0235 -0.1697
   87MPD2    H7 1338   0.127   3.935   1.515 -1.3070  0.5675  0.0448
   88TCq2    C1 1339   0.197   3.856   1.337  0.1973  0.6371 -0.7707
   88TCq2    O2 1340   0.162   3.795   1.232  0.0980 -0.1821  1.1552
   88TCq2    C2 1341   0.333   3.860   1.388 -0.0520  0.3599  0.0865
   88TCq2    C3 1342   0.371   3.960   1.469  0.4138  0.3593  0.3231
   88TCq2    C4 1343   0.500   3.992   1.491  0.1291 -0.4664  0.2933
   88TCq2    C5 1344   0.601   3.923   1.434 -0.3892 -0.3864  0.6037
   88TCq2    C6 1345   0.568   3.822   1.344 -0.5656 -0.3344 -0.3579
   88TCq2    C7 1346   0.433   3.789   1.319 -0.2290  0.0849  0.2478
   88TCq2    C8 1347   0.666   3.774   1.254  0.3554 -0.0476 -0.5064
   88TCq2    O4 1348   0.762   3.838   1.219 -0.1423 -0.1834 -0.6127
   88TCq2    C9 1349   0.530   4.096   1.593 -0.1211  0.2902 -0.0473
   88TCq2    O5 1350   0.646   4.143   1.597 -0.2959  0.4396  0.1041
   88TCq2    O6 1351   0.434   4.113   1.679  0.4403  0.5706  0.1576
   88TCq2    H2 1352   0.304   4.027   1.522  0.7816  0.5846  0.4981
   88TCq2    H3 1353   0.701   3.959   1.453 -0.3618  0.4026 -1.0880
   88TCq2    H4 1354   0.397   3.729   1.236 -0.9904 -1.0666  1.3944
   89MPD2     C 1355   1.288   2.006   1.880  0.1883 -0.2235  0.3295
   89MPD2    C1 1356   1.219   2.125   1.893 -0.5122 -0.7834  0.2230
   89MPD2    C2 1357   1.282   2.242   1.869  0.1602 -0.9664  0.1808
   89MPD2    C3 1358   1.413   2.243   1.842  0.3626  0.2995  0.0244
   89MPD2    C4 1359   1.484   2.128   1.833  0.3916  0.0210  0.1830
   89MPD2    C5 1360   1.423   2.007   1.853 -0.1157 -0.1510 -0.9789
   89MPD2     H 1361   1.240   2.339   1.890 -2.0644 -1.8961  0.1195
   89MPD2    H1 1362   1.585   2.117   1.796  0.0715 -1.4690 -0.2406
   89MPD2    H2 1363   1.243   1.907   1.884  2.4792 -1.2354  0.7995
   89MPD2    H3 1364   1.473   1.911   1.842 -0.2390 -0.0871 -2.0657
   89MPD2     N 1365   1.464   2.371   1.819  0.3376  0.1516  0.5119
   89MPD2    H5 1366   1.398   2.448   1.813  1.3552  1.0076  0.1296
   89MPD2    N1 1367   1.079   2.128   1.923  0.9664  0.4252  0.0090
   89MPD2    H7 1368   1.034   2.217   1.940  0.1912 -0.0261  0.2949
   90TCq2    C1 1369   1.599   2.399   1.802  0.0516  0.1875 -0.3981
   90TCq2    O2 1370   1.703   2.336   1.816 -0.2339 -0.2327  0.4930
   90TCq2    C2 1371   1.625   2.532   1.768  0.6010 -0.0211  0.5827
   90TCq2    C3 1372   1.756   2.577   1.776  1.2157  0.2858 -0.5897
   90TCq2    C4 1373   1.793   2.694   1.726 -0.0281  0.3145 -0.1919
   90TCq2    C5 1374   1.712   2.767   1.643 -0.3994 -0.2656  0.5553
   90TCq2    C6 1375   1.587   2.722   1.624  0.3153  0.1105  0.6024
   90TCq2    C7 1376   1.541   2.603   1.687  0.8165 -0.6584  0.5360
   90TCq2    C8 1377   1.502   2.792   1.529  0.1258 -0.7866 -0.2716
   90TCq2    O4 1378   1.381   2.764   1.524 -0.2764  0.2365 -0.0315
   90TCq2    C9 1379   1.928   2.736   1.731 -0.2954  0.2652 -0.3920
   90TCq2    O5 1380   1.966   2.821   1.645  0.5034 -0.0963  0.4429
   90TCq2    O6 1381   2.008   2.690   1.818 -0.5107 -0.1035 -0.1266
   90TCq2    H2 1382   1.831   2.521   1.830  1.0739 -0.3752 -1.0931
   90TCq2    H3 1383   1.744   2.868   1.619 -0.7042 -0.1209  0.7587
   90TCq2    H4 1384   1.445   2.562   1.659  1.4626 -1.4143 -0.5801
   91TMC2    C1 1385   2.772   2.105  16.572 -1.0680 -0.0410  0.1811
   91TMC2    C2 1386   2.862   2.069  16.668  0.5081 -0.2777 -0.1364
   91TMC2    C3 1387   2.816   2.021  16.787  0.2365  0.2114  0.5303
   91TMC2    C4 1388   2.636   2.093  16.590 -0.3881 -0.1275 -0.1757
   91TMC2    C5 1389   2.597   2.042  16.713 -0.7599 -0.6853  0.4871
   91TMC2    C6 1390   2.684   2.010  16.814  0.7156  0.6238  0.0830
   91TMC2     C 1391   2.817   2.143  16.441 -0.7617  0.5334 -0.4544
   91TMC2     O 1392   2.743   2.206  16.368 -0.3535  0.7709 -0.2847
   91TMC2     H 1393   2.968   2.092  16.655  1.2186 -2.8096  1.2966
   91TMC2    H1 1394   2.566   2.142  16.523 -0.3441  4.0891  2.8622
   91TMC2    H2 1395   2.644   1.964  16.904 -2.2775 -2.6614 -2.9181
   91TMC2    C7 1396   2.460   2.038  16.748  0.0406  0.3827 -0.7050
   91TMC2    C8 1397   2.898   1.962  16.886 -0.5183 -0.4805 -0.6842
   91TMC2    O1 1398   2.431   2.044  16.868 -0.6916 -0.2440  0.0984
   91TMC2    O2 1399   2.879   2.000  17.000 -0.4027 -0.3249  0.0423
   91TMC2    O5 1400   3.013   1.928  16.829  0.9222  0.7733 -0.0868
   91TMC2    H5 1401   3.008   1.890  16.739 -2.4670 -1.1899  0.9189
   92MPD2     C 1402   3.009   2.243  16.245  0.5812  0.0861 -0.0905
   92MPD2    C1 1403   3.037   2.136  16.327 -0.2293  0.9044  0.9399
   92MPD2    C2 1404   3.161   2.076  16.336  0.3338 -0.1228  0.3367
   92MPD2    C3 1405   3.259   2.126  16.255 -0.1594 -0.3655  0.4476
   92MPD2    C4 1406   3.234   2.243  16.182  0.1179 -0.4919  0.1076
   92MPD2    C5 1407   3.110   2.297  16.176  0.4455  0.4184  0.1545
   92MPD2     H 1408   3.193   2.000  16.406  0.4581  0.3707  0.8104
   92MPD2    H1 1409   3.318   2.291  16.134 -0.1915  0.1075  0.1513
   92MPD2    H2 1410   2.913   2.293  16.241 -0.0389 -0.8773  2.7467
   92MPD2    H3 1411   3.104   2.386  16.114  2.0116  1.1172  0.9831
   92MPD2     N 1412   3.387   2.065  16.259 -0.3505  0.4017 -0.0792
   92MPD2    H5 1413   3.386   1.996  16.334  2.2839  1.2337  0.7131
   92MPD2    N1 1414   2.938   2.090  16.422 -0.0194  0.1438  0.2988
   92MPD2    H7 1415   2.958   2.013  16.486 -0.4836 -1.3836 -1.3886
   93MPD2     C 1416   3.518   1.482  13.583 -0.1035  0.3200 -1.3436
   93MPD2    C1 1417   3.476   1.602  13.643  0.0514 -0.2786 -0.1591
   93MPD2    C2 1418   3.339   1.625  13.632  0.2307  0.1001  0.1395
   93MPD2    C3 1419   3.252   1.546  13.556 -0.4898 -0.6420  0.7450
   93MPD2    C4 1420   3.300   1.426  13.512 -0.5726  0.4317  0.3585
   93MPD2    C5 1421   3.430   1.397  13.527 -0.1620  0.5896 -0.1478
   93MPD2     H 1422   3.301   1.719  13.672  0.9679  1.6737 -2.8712
   93MPD2    H1 1423   3.233   1.360  13.458 -0.8072 -1.0471  2.4689
   93MPD2    H2 1424   3.617   1.443  13.600 -0.9494 -0.2790  2.2274
   93MPD2    H3 1425   3.481   1.308  13.492 -1.3216  0.6721 -2.0407
   93MPD2     N 1426   3.125   1.581  13.517 -0.2364 -0.3090 -0.1015
   93MPD2    H5 1427   3.072   1.520  13.455 -0.0768 -0.2026 -0.3426
   93MPD2    N1 1428   3.562   1.694  13.714  0.1534 -0.3556  0.2347
   93MPD2    H7 1429   3.516   1.775  13.754 -1.9492 -0.8801 -1.1237
   94TCq2    C1 1430   3.698   1.679  13.734 -0.3227 -0.3806 -0.2373
   94TCq2    O2 1431   3.770   1.582  13.720  0.3798 -0.0633 -0.1580
   94TCq2    C2 1432   3.752   1.788  13.808  0.0020  0.3160 -0.5066
   94TCq2    C3 1433   3.677   1.883  13.879  0.2952 -0.7716  0.4709
   94TCq2    C4 1434   3.731   1.996  13.921 -0.1187 -0.7684 -0.0500
   94TCq2    C5 1435   3.858   2.028  13.878 -0.6791  0.1431 -0.4862
   94TCq2    C6 1436   3.937   1.931  13.826  0.6998  0.8077  0.5294
   94TCq2    C7 1437   3.889   1.812  13.787 -0.0303 -0.5205 -0.9142
   94TCq2    C8 1438   4.051   1.982  13.763 -0.1318  0.4429 -0.0397
   94TCq2    O4 1439   4.146   1.906  13.767 -0.1835  0.2871 -0.0277
   94TCq2    C9 1440   3.653   2.100  13.980 -0.4223 -0.4515  0.1516
   94TCq2    O5 1441   3.528   2.090  13.967 -0.0743  0.0214 -0.3231
   94TCq2    O6 1442   3.716   2.211  13.989 -0.5907  0.4396 -0.2449
   94TCq2    H2 1443   3.573   1.867  13.905  0.6965 -1.1643  1.8391
   94TCq2    H3 1444   3.900   2.126  13.899  1.3856 -0.8084 -0.1867
   94TCq2    H4 1445   3.946   1.742  13.727 -0.4467  0.1513 -2.0826
   95TMC2    C1 1446   3.550   4.487  15.235 -0.1932  0.1453 -0.5168
   95TMC2    C2 1447   3.445   4.490  15.150  0.2702 -0.2045 -0.9599
   95TMC2    C3 1448   3.385   4.611  15.127 -0.3794 -0.0969 -0.3273
   95TMC2    C4 1449   3.607   4.601  15.289 -0.2320 -0.6432  1.0720
   95TMC2    C5 1450   3.547   0.002  15.254 -0.4618  0.0364 -0.5273
   95TMC2    C6 1451   3.429   0.008  15.180  0.2600  0.2414 -0.0599
   95TMC2     C 1452   3.617   4.363  15.272  0.4365  0.0497 -0.4391
   95TMC2     O 1453   3.711   4.369  15.348 -0.3048 -0.0469  0.4492
   95TMC2     H 1454   3.410   4.397  15.107 -2.5162 -0.0002  0.8030
   95TMC2    H1 1455   3.694   4.596  15.353  0.4115  0.2632  0.2744
   95TMC2    H2 1456   3.391   0.101  15.138 -0.0677 -0.7147 -1.8757
   95TMC2    C7 1457   3.582   0.124  15.328 -0.0585 -0.6552  0.6584
   95TMC2    C8 1458   3.307   4.622  15.007 -0.1290  0.0605  0.4470
   95TMC2    O1 1459   3.639   0.102  15.432  0.5103  0.3331 -0.3648
   95TMC2    O2 1460   3.303   4.537  14.924 -0.2066  0.2782 -0.1458
   95TMC2    O5 1461   3.213   4.719  15.026  0.2845  0.2311  0.1648
   95TMC2    H5 1462   3.211   0.061  15.101  0.4931  0.4090  0.0207
   96MPD2     C 1463   3.706   3.857  15.188  0.1551  0.0588 -0.5426
   96MPD2    C1 1464   3.765   3.937  15.279  0.1277 -0.3943 -0.7625
   96MPD2    C2 1465   3.728   4.073  15.278 -1.1803  0.2089 -0.4713
   96MPD2    C3 1466   3.626   4.123  15.196  0.5574 -0.1682  0.3357
   96MPD2    C4 1467   3.569   4.033  15.106  0.1955  0.4264  0.2219
   96MPD2    C5 1468   3.609   3.902  15.102 -0.4267 -0.5225  0.8223
   96MPD2     H 1469   3.772   4.138  15.353 -1.2839 -0.8256  0.4896
   96MPD2    H1 1470   3.481   4.047  15.045 -0.5650 -2.8570  0.5262
   96MPD2    H2 1471   3.744   3.756  15.178  2.0740  0.4496  2.9653
   96MPD2    H3 1472   3.574   3.838  15.022  0.4518 -0.5038  0.4292
   96MPD2     N 1473   3.578   4.253  15.194 -0.4292 -0.4863  0.3949
   96MPD2    H5 1474   3.500   4.274  15.132  0.9190 -0.2199 -1.2070
   96MPD2    N1 1475   3.876   3.882  15.348  0.2365 -0.1578 -0.4310
   96MPD2    H7 1476   3.890   3.783  15.329  3.2506  0.1782 -0.0650
   97MPD2     C 1477   0.907   0.887   1.064  0.6525  0.4758  0.1840
   97MPD2    C1 1478   0.950   1.019   1.049 -0.2329 -0.0205 -0.7712
   97MPD2    C2 1479   0.936   1.080   0.927  0.0218 -0.6683  0.3013
   97MPD2    C3 1480   0.888   1.018   0.813  0.2024 -0.3192 -0.4563
   97MPD2    C4 1481   0.849   0.890   0.831 -0.3750 -0.3362  0.1842
   97MPD2    C5 1482   0.851   0.825   0.955  0.7191 -0.6928  0.8912
   97MPD2     H 1483   0.978   1.179   0.913  1.7161 -1.4167  0.0575
   97MPD2    H1 1484   0.814   0.827   0.749 -0.3969 -0.3907  0.2357
   97MPD2    H2 1485   0.931   0.826   1.150  0.9306  0.5384  0.1499
   97MPD2    H3 1486   0.822   0.721   0.970  0.7596 -0.7491  0.5892
   97MPD2     N 1487   0.899   1.072   0.681  0.3177  0.2824 -0.1315
   97MPD2    H5 1488   0.887   1.004   0.606  0.7263 -0.4113  0.4312
   97MPD2    N1 1489   1.004   1.089   1.161 -0.2560  0.4469  0.1392
   97MPD2    H7 1490   1.016   1.040   1.249  2.6595 -2.3637 -1.8650
   98TCq2    C1 1491   0.960   1.186   0.651 -0.5552 -0.2379  0.2766
   98TCq2    O2 1492   0.985   1.282   0.725  0.1225  0.0448 -0.0367
   98TCq2    C2 1493   0.938   1.219   0.512 -0.1277 -0.3719  0.6682
   98TCq2    C3 1494   0.838   1.163   0.440 -0.9111  0.2862  0.3720
   98TCq2    C4 1495   0.828   1.184   0.306  0.2744 -0.2371  0.0378
   98TCq2    C5 1496   0.928   1.248   0.241  0.0625 -0.1410  0.5583
   98TCq2    C6 1497   1.012   1.322   0.321 -0.5317  0.3375  0.5524
   98TCq2    C7 1498   1.007   1.321   0.460 -0.0732 -0.4833 -0.7050
   98TCq2    C8 1499   1.142   1.347   0.266 -0.5849  0.2344 -0.3893
   98TCq2    O4 1500   1.222   1.418   0.320  0.5007 -0.6270  0.0362
   98TCq2    C9 1501   0.723   1.129   0.220 -0.2204  0.8691 -0.0233
   98TCq2    O5 1502   0.749   1.113   0.098  0.3798  0.1080 -0.3528
   98TCq2    O6 1503   0.614   1.096   0.272 -0.5739 -0.4224 -0.4979
   98TCq2    H2 1504   0.764   1.100   0.488  1.0542 -2.5120 -0.2782
   98TCq2    H3 1505   0.924   1.252   0.133 -0.4355 -0.2441  0.5747
   98TCq2    H4 1506   1.084   1.369   0.520  0.8486 -1.0533 -1.4365
   99MPD2     C 1507   0.475   3.224   1.809 -0.0703 -0.2132  0.2830
   99MPD2    C1 1508   0.345   3.229   1.769  0.6731  0.2752  0.3857
   99MPD2    C2 1509   0.324   3.218   1.633  0.0023  0.1614 -0.6808
   99MPD2    C3 1510   0.429   3.190   1.545 -0.3303  0.1514 -0.3746
   99MPD2    C4 1511   0.558   3.188   1.592 -0.1772 -0.0542  0.1676
   99MPD2    C5 1512   0.580   3.202   1.724  0.2182 -0.0828 -0.5737
   99MPD2     H 1513   0.221   3.217   1.599  0.1401  0.0517 -1.0942
   99MPD2    H1 1514   0.642   3.158   1.530 -0.0641 -0.1417  0.3607
   99MPD2    H2 1515   0.505   3.246   1.911 -0.1910  1.8846 -0.1299
   99MPD2    H3 1516   0.682   3.186   1.757  0.4589  3.7117  0.4696
   99MPD2     N 1517   0.387   3.158   1.409 -0.5717  0.0171  0.1695
   99MPD2    H5 1518   0.287   3.158   1.393 -0.4674  1.8174 -0.4567
   99MPD2    N1 1519   0.236   3.250   1.852  0.6375  0.0710 -0.1654
   99MPD2    H7 1520   0.144   3.234   1.813 -0.5179  2.2531  1.6276
  100TCq2    C1 1521   0.240   3.267   1.987 -0.2988  0.4112 -0.0586
  100TCq2    O2 1522   0.337   3.282   2.061  0.1682  0.3219  0.5194
  100TCq2    C2 1523   0.111   3.277   2.049  0.6697 -0.5969  0.4192
  100TCq2    C3 1524   0.097   3.334   2.178 -0.0052 -0.4447 -0.1628
  100TCq2    C4 1525   4.696   3.348   2.231  0.0085 -0.6381  0.3014
  100TCq2    C5 1526   4.577   3.313   2.161 -0.2681  0.0113  0.7693
  100TCq2    C6 1527   4.598   3.256   2.046  0.2390  0.5702  0.1109
  100TCq2    C7 1528   4.719   3.239   1.982 -0.4292 -0.1411  0.0885
  100TCq2    C8 1529   4.478   3.226   1.968  0.2555 -0.4539 -0.4760
  100TCq2    O4 1530   4.379   3.288   2.001  1.4773  0.1965  0.1584
  100TCq2    C9 1531   4.693   3.384   2.369 -0.5265 -0.5706  0.8496
  100TCq2    O5 1532   4.582   3.421   2.415 -0.6209  0.4958 -0.4238
  100TCq2    O6 1533   0.081   3.387   2.430  0.3434 -0.1870 -0.2386
  100TCq2    H2 1534   0.183   3.372   2.233  0.0249 -1.6246  0.6260
  100TCq2    H3 1535   4.487   3.314   2.222  0.3273 -2.1677  1.6957
  100TCq2    H4 1536   4.712   3.198   1.883  0.8746  2.6003 -1.1363
  101MPD2     C 1537   0.846   4.052  12.811  0.0898  0.2562  0.7516
  101MPD2    C1 1538   0.776   4.125  12.901 -0.5092  0.1441  0.7710
  101MPD2    C2 1539   0.695   4.058  12.992 -0.3408 -0.0712  0.7645
  101MPD2    C3 1540   0.677   3.924  12.988  0.1943 -0.4572 -0.3299
  101MPD2    C4 1541   0.744   3.851  12.892  0.4480 -0.1355 -0.3777
  101MPD2    C5 1542   0.827   3.918  12.805  0.0267  0.3127  0.4819
  101MPD2     H 1543   0.645   4.112  13.072 -1.3268 -0.1530  0.2086
  101MPD2    H1 1544   0.732   3.743  12.887  0.0858 -0.1428  0.5207
  101MPD2    H2 1545   0.908   4.094  12.733  2.1083 -0.4441  1.9766
  101MPD2    H3 1546   0.867   3.858  12.725  0.5522 -0.2954  1.1933
  101MPD2     N 1547   0.586   3.866  13.082  0.7039 -0.3954 -0.0632
  101MPD2    H5 1548   0.550   3.928  13.154 -1.0633 -0.4389 -0.9114
  101MPD2    N1 1549   0.799   4.261  12.907  0.4203 -0.0798  0.5639
  101MPD2    H7 1550   0.872   4.295  12.846  1.4202 -0.9937  1.2496
  102TCq2    C1 1551   0.943   4.664  12.675  0.2945 -0.0893  0.6274
  102TCq2    O2 1552   1.021   4.574  12.642 -1.0066 -0.0091  0.1930
  102TCq2    C2 1553   0.828   4.634  12.762  0.4949 -0.2331 -0.5144
  102TCq2    C3 1554   0.715   4.713  12.752 -0.2531 -0.3752 -0.1018
  102TCq2    C4 1555   0.602   4.665  12.811 -0.2681 -0.8101  0.2553
  102TCq2    C5 1556   0.612   4.561  12.898 -0.1805  0.3577 -0.3894
  102TCq2    C6 1557   0.726   4.488  12.912 -0.3702  0.0482  0.3455
  102TCq2    C7 1558   0.839   4.523  12.844  0.3878  0.4048  0.0512
  102TCq2    C8 1559   0.709   4.351  12.961 -0.3362 -0.4421  0.1817
  102TCq2    O4 1560   0.611   4.326  13.029  0.1274 -0.6902 -0.2874
  102TCq2    C9 1561   0.475   4.721  12.787  0.2374  0.0308 -0.3823
  102TCq2    O5 1562   0.377   4.651  12.826  0.2923 -0.0247 -0.1610
  102TCq2    O6 1563   0.477   0.083  12.693  0.0669  0.5208  0.3254
  102TCq2    H2 1564   0.704   0.065  12.673  0.1206 -0.0128  0.1855
  102TCq2    H3 1565   0.517   4.517  12.926  1.3920 -2.5824  0.2566
  102TCq2    H4 1566   0.937   4.478  12.844  0.8790  1.4746 -1.2941
  103TMC2    C1 1567   3.977   4.354  12.223 -0.8532 -0.3058  0.4235
  103TMC2    C2 1568   4.084   4.308  12.161  0.1371  0.2856 -0.1450
  103TMC2    C3 1569   4.208   4.359  12.188  0.4993 -0.3784 -0.0060
  103TMC2    C4 1570   3.986   4.462  12.309  0.4201  0.2055  0.4326
  103TMC2    C5 1571   4.114   4.517  12.329  0.0637 -0.2966 -0.0783
  103TMC2    C6 1572   4.227   4.463  12.274  0.0506  0.1176 -1.0339
  103TMC2     C 1573   3.838   4.298  12.201  0.1183  0.5643  0.8940
  103TMC2     O 1574   3.819   4.249  12.090 -0.1545  0.1821  0.0432
  103TMC2     H 1575   4.075   4.225  12.091  0.1174  0.3608 -0.2325
  103TMC2    H1 1576   3.897   4.504  12.355 -1.1317 -1.2204 -1.2688
  103TMC2    H2 1577   4.329   4.499  12.288  0.2556 -1.1176  0.6164
  103TMC2    C7 1578   4.127   4.597  12.446 -0.1249  0.7133 -0.5818
  103TMC2    C8 1579   4.328   4.311  12.122  0.2656  0.7145  0.1991
  103TMC2    O1 1580   4.043   4.574  12.534  0.1424 -0.4870  0.4827
  103TMC2    O2 1581   4.442   4.349  12.140  0.3515 -0.7582 -0.8787
  103TMC2    O5 1582   4.283   4.273  11.996  0.0796  0.5936  0.2060
  103TMC2    H5 1583   4.348   4.231  11.937  0.7885  0.9512  0.7309
  104MPD2     C 1584   3.527   4.389  12.385  0.4712 -0.1299  0.2523
  104MPD2    C1 1585   3.598   4.321  12.290 -0.2317  0.4233 -0.3682
  104MPD2    C2 1586   3.541   4.256  12.181  0.2802  0.4879 -1.0171
  104MPD2    C3 1587   3.406   4.279  12.153 -0.5655 -0.2013 -0.3581
  104MPD2    C4 1588   3.337   4.362  12.244 -0.0381  0.3917 -0.0831
  104MPD2    C5 1589   3.396   4.399  12.358 -0.2925  0.5716  0.0608
  104MPD2     H 1590   3.601   4.199  12.110 -1.2652 -2.5508  0.1411
  104MPD2    H1 1591   3.230   4.377  12.233 -0.0602  1.1928  1.2193
  104MPD2    H2 1592   3.565   4.451  12.466  1.9552  0.0950 -0.6153
  104MPD2    H3 1593   3.337   4.460  12.426 -0.0421  1.8810 -0.8876
  104MPD2     N 1594   3.352   4.228  12.034  0.0183 -0.2556  0.4796
  104MPD2    H5 1595   3.410   4.156  11.992 -0.7593 -1.3287  1.2548
  104MPD2    N1 1596   3.744   4.330  12.299  0.3552 -0.2945  0.3213
  104MPD2    H7 1597   3.779   4.357  12.390  0.3584  1.6207 -0.2587
  105MPD2     C 1598   1.245   3.627  17.465  0.0939 -0.3230  0.5728
  105MPD2    C1 1599   1.147   3.727  17.465  0.1317 -0.4936  0.2927
  105MPD2    C2 1600   1.114   3.787  17.586  0.3398  0.0374 -0.0128
  105MPD2    C3 1601   1.176   3.731   0.016  0.0409 -0.2896 -0.8454
  105MPD2    C4 1602   1.281   3.645   0.011  0.3754  0.5095  0.5589
  105MPD2    C5 1603   1.320   3.602  17.574 -0.0678  0.2087  0.2375
  105MPD2     H 1604   1.032   3.857  17.593  0.5091  0.2714 -0.3446
  105MPD2    H1 1605   1.329   3.600   0.097 -0.0719  0.5179  0.8140
  105MPD2    H2 1606   1.275   3.586  17.369  3.1492  1.0498  0.9191
  105MPD2    H3 1607   1.388   3.518  17.582 -1.4630 -0.8854  0.6626
  105MPD2     N 1608   1.109   3.777   0.135 -0.5673 -0.5431  0.0435
  105MPD2    H5 1609   1.044   3.853   0.119 -0.7363 -0.7334 -0.1635
  105MPD2    N1 1610   1.074   3.764  17.353 -0.3923 -0.0786 -0.2199
  105MPD2    H7 1611   1.011   3.843  17.364 -0.0737  0.5617 -3.0723
  106TCq2    C1 1612   1.146   3.729   0.260  0.5892  0.2785 -0.4481
  106TCq2    O2 1613   1.226   3.642   0.292  0.3715  0.1643  0.6230
  106TCq2    C2 1614   1.053   3.786   0.360  0.5394  0.4681  0.3569
  106TCq2    C3 1615   0.967   3.894   0.335  0.2746 -0.3892 -0.5533
  106TCq2    C4 1616   0.874   3.926   0.426  0.7445  0.0036  0.6591
  106TCq2    C5 1617   0.852   3.850   0.540  0.6700 -0.4698  0.1846
  106TCq2    C6 1618   0.934   3.743   0.557 -0.6969 -0.0119  0.1131
  106TCq2    C7 1619   1.032   3.706   0.468 -0.5216  0.1887  0.0255
  106TCq2    C8 1620   0.907   3.638   0.654 -0.1412 -0.6897 -0.2771
  106TCq2    O4 1621   0.933   3.524   0.620 -0.0873  0.0832  0.0935
  106TCq2    C9 1622   0.792   4.043   0.403  0.8008 -1.3049  0.8615
  106TCq2    O5 1623   0.720   4.091   0.493  0.0253 -0.1302  0.1212
  106TCq2    O6 1624   0.789   4.078   0.286 -0.1329  0.2491  0.0849
  106TCq2    H2 1625   0.979   3.961   0.251 -1.6579  0.8539  0.1554
  106TCq2    H3 1626   0.770   3.876   0.606  1.0676 -0.2289  0.5831
  106TCq2    H4 1627   1.096   3.619   0.480  0.4291  1.0120  0.9209
  107TMC2    C1 1628   1.275   3.326  11.370  0.5639  0.2193  0.4379
  107TMC2    C2 1629   1.373   3.423  11.376  0.3768 -0.6117  0.1616
  107TMC2    C3 1630   1.433   3.474  11.261  0.7962  0.0630  0.7293
  107TMC2    C4 1631   1.224   3.288  11.247 -0.3522 -0.4333  0.1550
  107TMC2    C5 1632   1.292   3.332  11.140 -0.1576  0.1998 -0.8079
  107TMC2    C6 1633   1.390   3.430  11.137  0.2231 -0.1398  0.0869
  107TMC2     C 1634   1.187   3.312  11.485 -0.3540 -0.2327  0.2495
  107TMC2     O 1635   1.150   3.408  11.543 -0.1580  0.1006  0.0467
  107TMC2     H 1636   1.403   3.466  11.471  0.6198  0.7308 -0.5248
  107TMC2    H1 1637   1.146   3.213  11.242  0.0989 -0.8053 -1.4861
  107TMC2    H2 1638   1.429   3.471  11.045  1.4691 -0.0584  0.6493
  107TMC2    C7 1639   1.278   3.247  11.029  0.2686 -0.3442 -0.5035
  107TMC2    C8 1640   1.568   3.529  11.276 -0.4710  0.0087 -0.4189
  107TMC2    O1 1641   1.179   3.185  11.025 -0.0623 -0.3488  0.4193
  107TMC2    O2 1642   1.630   3.525  11.379  0.1165 -0.1571  0.2887
  107TMC2    O5 1643   1.614   3.569  11.152 -0.0016 -0.0032  0.4876
  107TMC2    H5 1644   1.545   3.586  11.084 -1.1383  0.1613  1.6776
  108MPD2     C 1645   1.029   2.999  11.602 -0.7663  0.6713 -0.0943
  108MPD2    C1 1646   1.036   3.138  11.587  0.0112  0.0666  0.8005
  108MPD2    C2 1647   0.953   3.224  11.661 -0.0160 -0.1026  0.5238
  108MPD2    C3 1648   0.853   3.167  11.742 -0.5860  0.0251 -0.4630
  108MPD2    C4 1649   0.845   3.031  11.747  0.8259  0.8059  0.5743
  108MPD2    C5 1650   0.924   2.945  11.673 -0.0131 -0.4359 -0.4969
  108MPD2     H 1651   0.965   3.332  11.659 -0.4988 -0.0170  1.8382
  108MPD2    H1 1652   0.770   2.988  11.812  2.3482 -2.5048  0.1671
  108MPD2    H2 1653   1.091   2.930  11.547 -1.5402  0.5968 -0.8762
  108MPD2    H3 1654   0.904   2.839  11.671 -4.5999  0.3888  2.5005
  108MPD2     N 1655   0.772   3.240  11.827  0.1814  0.6024  0.0503
  108MPD2    H5 1656   0.716   3.184  11.891 -1.1004  0.3874 -1.2665
  108MPD2    N1 1657   1.138   3.181  11.495  0.4539  0.5525 -0.0728
  108MPD2    H7 1658   1.188   3.109  11.444  0.5957  0.0460  0.7755
  109MPD2     C 1659   0.453   0.112   1.930  0.2024  0.1698 -0.3053
  109MPD2    C1 1660   0.517   0.197   1.846  0.5672 -0.9115  0.2641
  109MPD2    C2 1661   0.631   0.264   1.887 -0.6572  0.6442  0.4959
  109MPD2    C3 1662   0.677   0.257   2.020  0.6413  0.0778 -0.3089
  109MPD2    C4 1663   0.603   0.173   2.106 -0.4726  0.3619 -0.5634
  109MPD2    C5 1664   0.491   0.102   2.064  0.7813  0.1651 -0.6444
  109MPD2     H 1665   0.662   0.351   1.829  2.3269 -0.3138  0.6252
  109MPD2    H1 1666   0.630   0.167   2.210 -0.0316  0.8622 -0.6480
  109MPD2    H2 1667   0.370   0.053   1.893  0.6154 -1.8823  1.9577
  109MPD2    H3 1668   0.436   0.042   2.135 -0.4276  0.4884 -1.3102
  109MPD2     N 1669   0.779   0.332   2.082  0.3062  0.2012 -0.1996
  109MPD2    H5 1670   0.805   0.309   2.178 -1.2295  0.6787  0.3300
  109MPD2    N1 1671   0.464   0.222   1.715  0.6973  0.3052 -0.0193
  109MPD2    H7 1672   0.380   0.170   1.691  1.3842 -0.3637 -1.0155
  110TCq2    C1 1673   0.853   0.425   2.014  0.3562 -0.3312  0.7059
  110TCq2    O2 1674   0.834   0.470   1.901 -0.3777 -0.1724 -0.1088
  110TCq2    C2 1675   0.958   0.496   2.090 -0.1434 -0.0523 -0.0978
  110TCq2    C3 1676   1.036   0.428   2.188 -1.0085  0.3346 -0.4157
  110TCq2    C4 1677   1.156   0.475   2.232 -0.0224  1.4388 -0.5240
  110TCq2    C5 1678   1.187   0.608   2.200  0.6102 -0.2914 -0.9762
  110TCq2    C6 1679   1.111   0.672   2.106  0.6669 -0.6388  0.2083
  110TCq2    C7 1680   1.000   0.619   2.047 -0.2720 -0.3234 -0.8442
  110TCq2    C8 1681   1.163   0.784   2.037 -0.0853 -0.1772 -0.2896
  110TCq2    O4 1682   1.092   0.870   1.989 -0.0944 -0.3936  0.0235
  110TCq2    C9 1683   1.242   0.400   2.315  0.3416 -0.8100  1.0216
  110TCq2    O5 1684   1.359   0.449   2.323  0.2028  0.4733  0.6160
  110TCq2    O6 1685   1.209   0.282   2.342 -0.5728 -0.3966  0.6525
  110TCq2    H2 1686   1.022   0.322   2.202 -2.2614  0.6706  0.8866
  110TCq2    H3 1687   1.259   0.659   2.262 -0.0833 -1.3508  0.6821
  110TCq2    H4 1688   0.949   0.670   1.966 -0.3381 -2.9484 -2.4613
  111TMC2    C1 1689   1.170   4.615  11.043  0.1903 -0.0195 -0.6801
  111TMC2    C2 1690   1.251   4.596  10.936 -0.6724  0.1110  0.0284
  111TMC2    C3 1691   1.380   4.562  10.972 -0.7544 -0.1798 -0.0703
  111TMC2    C4 1692   1.213   4.625  11.172  0.5173 -0.6406  0.2018
  111TMC2    C5 1693   1.344   4.594  11.196  0.6266 -0.9740 -0.4157
  111TMC2    C6 1694   1.424   4.552  11.094  0.0414 -0.1889  0.7438
  111TMC2     C 1695   1.040   4.681  11.009  0.3689 -0.7061 -0.1848
  111TMC2     O 1696   1.000   4.677  10.897  0.2006  0.4763  0.9194
  111TMC2     H 1697   1.231   4.625  10.833  0.4381 -2.7361 -0.9998
  111TMC2    H1 1698   1.148   4.617  11.258  0.6686  0.0146  0.3766
  111TMC2    H2 1699   1.527   4.527  11.115  0.1126  0.5892  1.3370
  111TMC2    C7 1700   1.375   4.554  11.333 -0.3946 -0.0686  0.2962
  111TMC2    C8 1701   1.478   4.526  10.866  0.3163 -0.3581 -0.0771
  111TMC2    O1 1702   1.318   4.615  11.420 -0.1043 -0.1926 -0.9864
  111TMC2    O2 1703   1.489   4.587  10.762 -0.6192 -0.2089 -0.5926
  111TMC2    O5 1704   1.554   4.423  10.911 -0.2489 -0.4173  0.1717
  111TMC2    H5 1705   1.520   4.377  10.991 -0.2522 -0.7749 -0.0358
  112MPD2     C 1706   0.684   0.307  11.111 -0.1902  0.2223 -0.1385
  112MPD2    C1 1707   0.700   0.226  10.996  0.0083 -0.7453 -0.6339
  112MPD2    C2 1708   0.800   0.141  11.005 -0.0711 -0.4087 -0.4656
  112MPD2    C3 1709   0.890   0.130  11.111  0.9334 -0.0370  0.6756
  112MPD2    C4 1710   0.871   0.201  11.225 -0.8901  0.0041 -0.7817
  112MPD2    C5 1711   0.768   0.295  11.215 -0.1111  0.5633  0.3693
  112MPD2     H 1712   0.817   0.080  10.917  0.2878  1.5283 -1.7577
  112MPD2    H1 1713   0.939   0.193  11.309 -1.2988  0.3599 -0.4138
  112MPD2    H2 1714   0.596   0.369  11.120  0.3519  0.5915  2.4664
  112MPD2    H3 1715   0.748   0.364  11.296 -2.2755  0.8393 -0.4122
  112MPD2     N 1716   0.994   0.039  11.114 -0.6434  0.1758  0.4921
  112MPD2    H5 1717   1.058   0.041  11.193  0.0061 -0.9829 -0.0063
  112MPD2    N1 1718   0.633   0.237  10.878 -0.2491  0.3329  0.6086
  112MPD2    H7 1719   0.669   0.182  10.800 -0.6874  0.9743 -0.0479
  113MPD2     C 1720   0.222   2.845   1.267  0.7961  0.0399 -0.2806
  113MPD2    C1 1721   0.105   2.885   1.192  0.6839  0.6707 -0.9441
  113MPD2    C2 1722   0.100   2.828   1.063 -0.2877  0.1693  0.2223
  113MPD2    C3 1723   0.187   2.741   1.018 -0.3115  0.4997 -0.1092
  113MPD2    C4 1724   0.305   2.717   1.083 -0.2688  0.2599 -0.4840
  113MPD2    C5 1725   0.318   2.761   1.214  0.3036  0.3979  0.0411
  113MPD2     H 1726   0.017   2.864   1.003 -0.6049  0.5428  0.8753
  113MPD2    H1 1727   0.382   2.662   1.030 -1.4259 -0.2535 -1.6361
  113MPD2    H2 1728   0.257   2.896   1.356  1.1883  0.1706 -0.5084
  113MPD2    H3 1729   0.404   2.736   1.275 -0.4425 -0.6943  0.6518
  113MPD2     N 1730   0.171   2.675   0.896 -0.7876 -0.3528 -0.3271
  113MPD2    H5 1731   0.249   2.620   0.864 -1.3736 -1.6351  0.4720
  113MPD2    N1 1732   0.015   2.986   1.229 -1.0386  0.7689 -0.1305
  113MPD2    H7 1733   4.655   2.994   1.170 -2.6130 -0.7162  1.8532
  114TCq2    C1 1734   0.073   2.701   0.800 -0.7882 -0.0378  0.1319
  114TCq2    O2 1735   0.011   2.806   0.774  0.0744 -0.2164  0.3619
  114TCq2    C2 1736   0.066   2.604   0.695  0.0445  0.2837 -0.1582
  114TCq2    C3 1737   0.002   2.630   0.577  0.5859 -0.0973  0.0650
  114TCq2    C4 1738   4.682   2.530   0.501  1.0191 -0.9925  0.3093
  114TCq2    C5 1739   0.002   2.404   0.523  0.2683  0.0999 -0.1352
  114TCq2    C6 1740   0.073   2.376   0.636 -0.1562 -0.7488 -0.7291
  114TCq2    C7 1741   0.103   2.477   0.728 -0.0769  0.3161  1.2558
  114TCq2    C8 1742   0.040   2.250   0.706 -0.7866 -0.0344  0.4840
  114TCq2    O4 1743   0.119   2.214   0.788 -0.3749 -0.0321  0.2775
  114TCq2    C9 1744   4.596   2.564   0.388  0.1981  0.6552  0.0966
  114TCq2    O5 1745   4.538   2.676   0.382  0.3586 -0.2306  0.3910
  114TCq2    O6 1746   4.578   2.474   0.301 -0.2338  0.0478  0.0483
  114TCq2    H2 1747   4.693   2.728   0.542  1.9781  0.5837  0.7639
  114TCq2    H3 1748   4.678   2.330   0.458 -1.2471  0.3387  0.6664
  114TCq2    H4 1749   0.154   2.451   0.820 -0.6234 -0.4321  1.3456
  115TMC2    C1 1750   0.127   0.862  17.366 -0.5824  0.4573  0.2404
  115TMC2    C2 1751   0.168   0.843  17.233  1.0590  0.4121  0.0519
  115TMC2    C3 1752   0.204   0.956  17.164  0.4115  0.3202  0.0747
  115TMC2    C4 1753   0.154   0.985  17.434 -0.0475  0.0428 -0.4337
  115TMC2    C5 1754   0.204   1.086  17.360  0.0325 -0.0422  0.0645
  115TMC2    C6 1755   0.217   1.078  17.224 -0.1728  0.2851  0.4193
  115TMC2     C 1756   0.047   0.755  17.418 -0.0352 -0.0652  0.5481
  115TMC2     O 1757   0.092   0.644  17.385  0.4778 -0.4362  0.6020
  115TMC2     H 1758   0.144   0.744  17.195  2.0969 -1.1486  3.4620
  115TMC2    H1 1759   0.128   0.991  17.539  0.1222  1.8601 -0.5072
  115TMC2    H2 1760   0.244   1.166  17.167  1.3714 -0.6639 -0.3347
  115TMC2    C7 1761   0.248   1.205  17.427  0.5395  0.8515 -0.7950
  115TMC2    C8 1762   0.169   0.970  17.022 -0.5863  1.1203  0.6113
  115TMC2    O1 1763   0.210   1.233  17.542  0.0089  0.1658  0.4579
  115TMC2    O2 1764   0.149   1.081  16.974 -1.4822 -0.5826  0.0212
  115TMC2    O5 1765   0.169   0.849  16.963  0.1202  0.4169  0.5692
  115TMC2    H5 1766   0.173   0.763  17.010 -1.6404 -0.2056 -0.4108
  116MPD2     C 1767   4.335   0.596  17.646  0.7102 -0.4634 -1.1808
  116MPD2    C1 1768   4.433   0.535  17.572  0.0019 -0.0156  1.3656
  116MPD2    C2 1769   4.551   0.594  17.527  0.5618 -0.2463  0.2966
  116MPD2    C3 1770   4.570   0.727  17.564 -0.2267  0.4678  0.4106
  116MPD2    C4 1771   4.470   0.789  17.635  0.3016 -0.6638 -0.3094
  116MPD2    C5 1772   4.356   0.728  17.674  0.5815  0.0754  0.8441
  116MPD2     H 1773   4.627   0.544  17.468  0.7711  1.0752 -0.5488
  116MPD2    H1 1774   4.486   0.892  17.667  0.7245 -1.1025  0.8902
  116MPD2    H2 1775   4.248   0.542  17.682  0.5130 -0.6036 -1.8632
  116MPD2    H3 1776   4.289   0.789   0.045  1.3807  3.0213 -1.3103
  116MPD2     N 1777   4.680   0.796  17.516  0.1621  0.1862 -0.2550
  116MPD2    H5 1778   4.672   0.897  17.526  0.3830  0.2200 -0.4207
  116MPD2    N1 1779   4.398   0.414  17.512  0.6725  0.4545  0.4036
  116MPD2    H7 1780   4.304   0.378  17.526  1.5405 -2.3477 -0.9788
  117TMC2    C1 1781   3.039   2.178  13.736  0.2671  0.0395 -0.6102
  117TMC2    C2 1782   3.136   2.087  13.707  1.0538 -0.0131  0.6856
  117TMC2    C3 1783   3.265   2.110  13.731 -0.5411  0.0382 -0.6023
  117TMC2    C4 1784   3.070   2.291  13.796 -0.4963  0.5570  0.1520
  117TMC2    C5 1785   3.205   2.314  13.834 -0.0594 -0.0130 -0.9739
  117TMC2    C6 1786   3.309   2.226  13.794  0.3202  0.3069  0.3769
  117TMC2     C 1787   2.949   2.196  13.630 -0.0001  0.1458 -0.7896
  117TMC2     O 1788   2.976   2.161  13.518 -0.2398  0.2080 -0.2438
  117TMC2     H 1789   3.114   1.992  13.659  0.0765  0.0714  0.9506
  117TMC2    H1 1790   3.003   2.372  13.822  0.3809  1.4465 -0.4104
  117TMC2    H2 1791   3.410   2.264  13.782  0.1770  0.5672 -0.0452
  117TMC2    C7 1792   3.242   2.451  13.868  0.4032  0.6377 -0.3960
  117TMC2    C8 1793   3.359   2.013  13.674 -0.2081 -0.1695  0.3045
  117TMC2    O1 1794   3.197   2.554  13.817 -0.0975 -0.2425  0.0907
  117TMC2    O2 1795   3.337   1.943  13.578  0.1415 -0.1646  0.2147
  117TMC2    O5 1796   3.481   2.047  13.717  0.1657 -0.0168 -0.0802
  117TMC2    H5 1797   3.473   2.092  13.804 -0.1385 -0.5792  0.1849
  118MPD2     C 1798   3.469   2.508  14.147 -0.1568 -1.2280  0.4838
  118MPD2    C1 1799   3.392   2.546  14.045 -0.2768  0.5807 -0.2253
  118MPD2    C2 1800   3.395   2.681  14.018 -1.6333  0.7803 -0.8421
  118MPD2    C3 1801   3.467   2.778  14.084  0.1601 -0.2390  0.0386
  118MPD2    C4 1802   3.550   2.738  14.189 -0.3634  0.4310 -0.3207
  118MPD2    C5 1803   3.539   2.606  14.217 -0.2135  0.3179  0.7953
  118MPD2     H 1804   3.340   2.712  13.930  0.0606  0.3538 -2.0473
  118MPD2    H1 1805   3.608   2.802  14.255  0.8259  0.7869 -1.6970
  118MPD2    H2 1806   3.471   2.405  14.179 -3.3332 -0.8788  1.7359
  118MPD2    H3 1807   3.587   2.563  14.305  3.7579  0.6033 -1.2024
  118MPD2     N 1808   3.473   2.913  14.060 -0.3488 -0.4548  0.0426
  118MPD2    H5 1809   3.537   2.969  14.115  0.2722 -2.3657  1.2322
  118MPD2    N1 1810   3.330   2.440  13.972 -0.0235  0.4795  0.4780
  118MPD2    H7 1811   3.345   2.354  14.024  1.5225 -0.1987 -1.1115
  119MPD2     C 1812   2.102   4.089  14.062 -0.1059  0.3609 -0.6109
  119MPD2    C1 1813   1.977   4.095  14.010  0.1899  0.1821 -0.2313
  119MPD2    C2 1814   1.952   4.078  13.873  0.1096  0.3171 -0.2225
  119MPD2    C3 1815   2.056   4.043  13.789  0.1208  0.3023  0.1265
  119MPD2    C4 1816   2.183   4.039  13.844 -0.0172  0.0818  0.1381
  119MPD2    C5 1817   2.204   4.072  13.976  0.0514 -0.0923  0.1972
  119MPD2     H 1818   1.848   4.087  13.842  0.3383  0.0349 -1.0617
  119MPD2    H1 1819   2.274   4.013  13.791  0.0805  1.2034 -0.2499
  119MPD2    H2 1820   2.129   4.103  14.166 -1.8180  0.0780 -0.1271
  119MPD2    H3 1821   2.307   4.066  14.009  0.1985  1.1362 -0.0220
  119MPD2     N 1822   2.041   4.011  13.652 -0.4495 -0.0604  0.2543
  119MPD2    H5 1823   2.120   3.999  13.590 -0.4890  0.8797  0.0318
  119MPD2    N1 1824   1.871   4.102  14.107 -0.3080 -0.0999 -0.3013
  119MPD2    H7 1825   1.907   4.110  14.201  1.0591 -2.2222 -0.6388
  120TCq2    C1 1826   1.920   3.982  13.594  0.0543  0.0919  0.1497
  120TCq2    O2 1827   1.810   3.993  13.645 -0.4246 -0.1459  0.1782
  120TCq2    C2 1828   1.935   3.917  13.470 -0.4299  0.8441  1.2790
  120TCq2    C3 1829   2.059   3.921  13.407 -0.2991  0.5235 -0.2670
  120TCq2    C4 1830   2.093   3.821  13.319  1.0041 -0.1016  0.1842
  120TCq2    C5 1831   1.998   3.720  13.287  0.5493 -0.2103  0.3826
  120TCq2    C6 1832   1.875   3.725  13.349  0.1392  0.5403 -0.0197
  120TCq2    C7 1833   1.845   3.816  13.450 -0.3803  0.3081  0.1504
  120TCq2    C8 1834   1.769   3.639  13.296 -0.4640  0.6948  0.0621
  120TCq2    O4 1835   1.772   3.592  13.185  0.5100 -0.7740 -0.6328
  120TCq2    C9 1836   2.222   3.829  13.255  0.2244  0.6972  0.0118
  120TCq2    O5 1837   2.255   3.731  13.185  0.6285 -0.4876  1.6255
  120TCq2    O6 1838   2.284   3.936  13.255 -0.2266  0.3403  0.4258
  120TCq2    H2 1839   2.127   4.004  13.425  1.1947 -0.5731 -0.8361
  120TCq2    H3 1840   2.015   3.634  13.224  1.0728  1.5608 -1.9063
  120TCq2    H4 1841   1.750   3.821  13.503 -1.3676 -0.4850 -1.5640
  121TMC2    C1 1842   2.904   0.936  13.812  0.7866 -0.1577 -0.5766
  121TMC2    C2 1843   2.923   0.847  13.921  0.0177 -0.2514 -0.0022
  121TMC2    C3 1844   2.811   0.774  13.959 -0.2204  0.9162  0.2322
  121TMC2    C4 1845   2.790   0.950  13.755 -0.1712 -0.2130 -0.0144
  121TMC2    C5 1846   2.681   0.880  13.802  0.3433  0.4997 -0.3940
  121TMC2    C6 1847   2.690   0.788  13.897  0.4329 -1.0954  0.3516
  121TMC2     C 1848   3.025   0.959  13.744 -0.1373 -0.5578 -0.0968
  121TMC2     O 1849   3.128   0.944  13.808  0.3206 -0.6843 -0.1351
  121TMC2     H 1850   3.022   0.816  13.952 -0.1499  0.9659  1.7311
  121TMC2    H1 1851   2.771   1.040  13.698 -0.0220 -0.7708 -0.9479
  121TMC2    H2 1852   2.602   0.737  13.935 -0.6456  2.6524  2.8941
  121TMC2    C7 1853   2.564   0.892  13.718 -0.1794 -0.9003  0.5739
  121TMC2    C8 1854   2.832   0.689  14.071  0.2566 -0.3024 -0.5409
  121TMC2    O1 1855   2.563   0.979  13.629  0.2103 -0.1638 -0.2403
  121TMC2    O2 1856   2.909   0.725  14.160  0.4013  0.5267 -0.5201
  121TMC2    O5 1857   2.724   0.614  14.099 -0.2451 -0.1104 -0.2000
  121TMC2    H5 1858   2.687   0.579  14.015 -1.5542 -0.6969  0.6285
  122MPD2     C 1859   3.256   1.036  13.557  0.4664  0.0231  0.5156
  122MPD2    C1 1860   3.122   1.043  13.525  0.4343  0.0269  0.6710
  122MPD2    C2 1861   3.095   1.071  13.389 -0.1060  0.0021 -0.4817
  122MPD2    C3 1862   3.197   1.092  13.296  0.1066  0.0715  0.5925
  122MPD2    C4 1863   3.336   1.075  13.330 -0.0607  0.0808  0.0210
  122MPD2    C5 1864   3.355   1.048  13.465  0.3864  0.4225  0.3500
  122MPD2     H 1865   2.991   1.074  13.356 -0.5591 -0.7062  0.8911
  122MPD2    H1 1866   3.422   1.105  13.272  1.2479 -3.6415 -0.0073
  122MPD2    H2 1867   3.288   1.037  13.661  0.6922 -3.0915  0.4850
  122MPD2    H3 1868   3.456   1.045  13.503 -0.3579  1.4300  2.4052
  122MPD2     N 1869   3.176   1.114  13.153  0.6800  0.1109 -0.1155
  122MPD2    H5 1870   3.255   1.101  13.091  0.6718  0.5566 -0.2173
  122MPD2    N1 1871   3.017   0.995  13.609  0.1137 -0.2224 -0.2161
  122MPD2    H7 1872   2.926   1.007  13.565  0.1057 -0.9287 -0.3805
  123MPD2     C 1873   4.570   3.952   9.432 -0.2173  0.1600  0.1918
  123MPD2    C1 1874   4.612   4.043   9.342 -0.9879 -0.3428  0.4414
  123MPD2    C2 1875   0.016   4.021   9.284  0.5375  0.3000  0.6211
  123MPD2    C3 1876   0.103   3.921   9.321  0.2201 -0.2123  0.2048
  123MPD2    C4 1877   0.058   3.826   9.406 -0.4058 -0.3287  0.3521
  123MPD2    C5 1878   4.650   3.839   9.449  0.0577  0.4505  1.0631
  123MPD2     H 1879   0.046   4.089   9.205 -0.0880 -0.0955  0.0449
  123MPD2    H1 1880   0.114   3.740   9.439  0.4786  0.5413  1.1244
  123MPD2    H2 1881   4.468   3.942   9.468 -0.8090  1.1783 -1.1813
  123MPD2    H3 1882   4.613   3.761   9.516  1.2269 -1.3944 -0.4477
  123MPD2     N 1883   0.228   3.905   9.258 -0.0498  0.0143  0.1249
  123MPD2    H5 1884   0.253   3.972   9.186 -1.8603 -0.7547 -1.2280
  123MPD2    N1 1885   4.521   4.144   9.303 -0.0052 -0.3204 -0.3659
  123MPD2    H7 1886   4.434   4.153   9.355  1.0971  0.7724  1.3064
  124TCq2    C1 1887   0.327   3.823   9.306  0.6913  0.0321 -0.6184
  124TCq2    O2 1888   0.335   3.766   9.414 -0.2764  0.5357 -0.1270
  124TCq2    C2 1889   0.435   3.820   9.205 -0.1906 -0.2117  0.0263
  124TCq2    C3 1890   0.417   3.872   9.078  0.0568 -0.3404 -0.0985
  124TCq2    C4 1891   0.525   3.930   9.023 -0.3795  0.1143 -0.0296
  124TCq2    C5 1892   0.640   3.954   9.086 -0.0758  0.1989  0.7389
  124TCq2    C6 1893   0.662   3.898   9.212  0.0639  0.0353 -0.2243
  124TCq2    C7 1894   0.558   3.830   9.268 -0.2199  0.3140 -0.6523
  124TCq2    C8 1895   0.800   3.896   9.273 -0.5145 -0.2106 -0.0893
  124TCq2    O4 1896   0.807   3.832   9.379  1.0085 -0.4492 -0.4291
  124TCq2    C9 1897   0.507   3.978   8.889 -0.3072 -0.6637 -0.2665
  124TCq2    O5 1898   0.407   3.931   8.828  0.5698  0.3351  0.5248
  124TCq2    O6 1899   0.597   4.049   8.843 -0.2656  0.3944 -0.1279
  124TCq2    H2 1900   0.321   3.853   9.030  0.1277  0.8383 -0.7018
  124TCq2    H3 1901   0.721   4.004   9.032  0.6240 -1.7686 -0.0565
  124TCq2    H4 1902   0.572   3.785   9.365  1.2357  2.1715  0.0183
  125TMC2    C1 1903   2.852   0.014   8.654 -0.0908  0.3717 -0.0164
  125TMC2    C2 1904   2.809   0.123   8.577 -0.3962 -0.2734  0.1165
  125TMC2    C3 1905   2.835   0.243   8.628 -0.5030  0.0169 -0.0811
  125TMC2    C4 1906   2.934   0.024   8.763  1.1530  0.2984  0.9465
  125TMC2    C5 1907   2.961   0.150   8.805 -0.1430 -0.2992  0.1728
  125TMC2    C6 1908   2.903   0.260   8.747 -0.4726 -0.4712  0.5643
  125TMC2     C 1909   2.855   4.616   8.569  0.0871 -0.6989 -0.2051
  125TMC2     O 1910   2.789   4.612   8.461 -0.3548  0.8043  0.5758
  125TMC2     H 1911   2.763   0.103   8.482  0.7134  2.2805 -0.9574
  125TMC2    H1 1912   2.962   4.661   8.826 -1.5065 -0.5177  1.0189
  125TMC2    H2 1913   2.917   0.360   8.787  1.5374 -0.3906 -0.3341
  125TMC2    C7 1914   3.046   0.172   8.923  0.3311  0.1884  0.8661
  125TMC2    C8 1915   2.821   0.355   8.537 -0.2615  0.5344  0.1695
  125TMC2    O1 1916   3.063   0.075   8.998 -0.1727 -0.2815 -0.6272
  125TMC2    O2 1917   2.914   0.427   8.512 -0.0466  0.1661 -0.1842
  125TMC2    O5 1918   2.716   0.413   8.598  0.5011  0.6324 -0.0258
  125TMC2    H5 1919   2.652   0.339   8.606 -0.0083  1.3761  2.6117
  126MPD1     C 1920   3.012   4.141   8.456  0.3004 -0.1388 -0.1412
  126MPD1    C1 1921   2.898   4.205   8.421  0.1962 -0.0920  0.2921
  126MPD1    C2 1922   2.878   4.339   8.470 -0.2636 -0.0851  0.3921
  126MPD1    C3 1923   2.965   4.398   8.562 -0.2739 -0.4277 -0.7800
  126MPD1    C4 1924   3.073   4.320   8.606 -0.6127  0.0463  0.1212
  126MPD1    C5 1925   3.099   4.196   8.547  0.6510  0.2581 -0.9849
  126MPD1     H 1926   2.790   4.394   8.437  1.0757  1.8473  0.1076
  126MPD1    H1 1927   3.134   4.347   8.691 -1.2408 -0.6263  0.7919
  126MPD1    H2 1928   3.033   4.042   8.415 -0.1943  0.6545 -2.2992
  126MPD1    H3 1929   3.182   4.136   8.581 -0.9724 -0.2541  2.0926
  126MPD1     N 1930   2.943   4.522   8.618  0.1040  0.5100  0.1965
  126MPD1    H5 1931   3.003   4.553   8.694  4.1763 -1.6281 -2.1879
  126MPD1    N1 1932   2.825   4.151   8.312 -0.3695 -0.3449 -0.1662
  126MPD1    H6 1933   2.803   4.052   8.323  0.5599 -0.3030  2.0968
  126MPD1    H7 1934   2.737   4.197   8.289 -0.0981 -0.4618 -1.4462
  127MPD2     C 1935   3.935   4.404   9.598  0.0222 -0.0786  0.0624
  127MPD2    C1 1936   3.843   4.478   9.529 -0.1797  0.0291 -0.1423
  127MPD2    C2 1937   3.857   4.617   9.531  0.0289  0.3069 -0.2223
  127MPD2    C3 1938   3.956   4.687   9.609  0.2964  0.7147 -0.7282
  127MPD2    C4 1939   4.057   4.605   9.664  0.0275  0.1966  0.4446
  127MPD2    C5 1940   4.042   4.471   9.663  0.2091 -0.0929  0.7105
  127MPD2     H 1941   3.787   4.682   9.481  0.9738  0.0464 -1.9204
  127MPD2    H1 1942   4.143   4.652   9.711  1.1771 -1.1035 -0.3737
  127MPD2    H2 1943   3.931   4.295   9.603 -1.4561  0.0044  0.6596
  127MPD2    H3 1944   4.124   4.414   9.705 -0.9085  0.0500  3.1289
  127MPD2     N 1945   3.956   0.107   9.623 -0.5465  0.1577 -0.0886
  127MPD2    H5 1946   3.925   0.168   9.548  0.4793  0.9248  0.0970
  127MPD2    N1 1947   3.734   4.413   9.471 -0.7340  0.0410  0.3304
  127MPD2    H7 1948   3.730   4.314   9.492 -2.4260 -0.3163 -1.6664
  128TCq2    C1 1949   3.632   4.466   9.400  0.4040 -0.5705  0.4971
  128TCq2    O2 1950   3.625   4.579   9.354  0.3655 -0.2162  0.2366
  128TCq2    C2 1951   3.522   4.369   9.389 -0.1809 -0.2189  0.8588
  128TCq2    C3 1952   3.431   4.374   9.285  0.2102 -0.4583  0.0962
  128TCq2    C4 1953   3.350   4.269   9.264 -0.6795 -0.3604  0.0063
  128TCq2    C5 1954   3.350   4.156   9.342  0.5783 -0.1771 -0.0094
  128TCq2    C6 1955   3.426   4.162   9.460  0.3164  0.0792 -0.3764
  128TCq2    C7 1956   3.513   4.267   9.485 -0.0589 -0.2010 -0.5302
  128TCq2    C8 1957   3.429   4.051   9.552  0.0423 -0.3535  0.0220
  128TCq2    O4 1958   3.537   4.026   9.600  0.5684 -0.0999 -0.0912
  128TCq2    C9 1959   3.274   4.259   9.148 -0.0958  0.4357  1.1560
  128TCq2    O5 1960   3.198   4.163   9.137  0.2199  0.5777  0.2287
  128TCq2    O6 1961   3.322   4.330   9.054  0.0476 -0.5419  0.4204
  128TCq2    H2 1962   3.448   4.446   9.207  0.2304 -0.8228 -0.2337
  128TCq2    H3 1963   3.291   4.067   9.319 -0.5255  0.6933 -0.5142
  128TCq2    H4 1964   3.577   4.269   9.572 -0.8138  1.5743  0.0091
  129MPD2     C 1965   1.160   0.679   0.804  0.4359  0.7334 -0.1894
  129MPD2    C1 1966   1.218   0.788   0.867  0.4591  0.0945 -0.2407
  129MPD2    C2 1967   1.264   0.895   0.793  0.6138  0.5839 -0.9104
  129MPD2    C3 1968   1.244   0.917   0.654 -0.3962 -0.1445  0.0922
  129MPD2    C4 1969   1.174   0.823   0.594 -0.2880  0.2518 -0.0514
  129MPD2    C5 1970   1.144   0.701   0.665 -0.0346 -0.0831 -0.3203
  129MPD2     H 1971   1.323   0.967   0.850  1.0324 -1.0515  0.7203
  129MPD2    H1 1972   1.139   0.817   0.491  0.4813  0.2443 -0.3112
  129MPD2    H2 1973   1.106   0.600   0.854  0.2759  0.8424 -0.1874
  129MPD2    H3 1974   1.094   0.624   0.608 -3.0972  1.0116  0.8975
  129MPD2     N 1975   1.290   1.035   0.588 -0.8017 -0.1715 -0.3597
  129MPD2    H5 1976   1.317   1.107   0.654  0.1813 -0.2145 -0.7145
  129MPD2    N1 1977   1.246   0.780   1.004 -0.3365 -0.5035 -0.3193
  129MPD2    H7 1978   1.312   0.852   1.032 -2.7113  1.6897 -0.3288
  130TCq2    C1 1979   1.207   0.687   1.101  0.4948 -0.4163  0.3747
  130TCq2    O2 1980   1.129   0.591   1.090 -0.1239  0.1743  0.4399
  130TCq2    C2 1981   1.283   0.700   1.222  0.0799 -0.4912 -0.6105
  130TCq2    C3 1982   1.403   0.757   1.226  0.3223  0.2206 -0.2351
  130TCq2    C4 1983   1.460   0.787   1.344  0.1501 -0.2651 -0.2700
  130TCq2    C5 1984   1.400   0.768   1.464 -0.1173  0.1698  0.0226
  130TCq2    C6 1985   1.278   0.712   1.457 -0.8622 -0.5622 -0.0835
  130TCq2    C7 1986   1.208   0.692   1.336 -0.6819  0.3874  0.4397
  130TCq2    C8 1987   1.225   0.634   1.567  1.1622  0.6292  0.5870
  130TCq2    O4 1988   1.115   0.584   1.550  0.4292  0.2357 -0.4819
  130TCq2    C9 1989   1.595   0.830   1.344 -0.1681  0.2977  0.0898
  130TCq2    O5 1990   1.640   0.858   1.230  0.2402  0.1781 -0.6033
  130TCq2    O6 1991   1.652   0.862   1.456  0.1460 -0.2541 -0.3271
  130TCq2    H2 1992   1.460   0.759   1.134 -1.6310  0.0217 -1.4431
  130TCq2    H3 1993   1.455   0.781   1.556  1.4035 -1.8695 -0.5867
  130TCq2    H4 1994   1.106   0.654   1.338 -0.7163  0.5179  1.1778
  131MPD2     C 1995   4.671   0.226   8.724  0.0453 -0.7537 -0.2163
  131MPD2    C1 1996   0.015   0.109   8.730 -0.0232 -0.7071  0.4797
  131MPD2    C2 1997   4.667   0.005   8.789  0.6396 -0.0200 -0.1078
  131MPD2    C3 1998   4.537   0.016   8.847  0.1409  0.4858 -0.1130
  131MPD2    C4 1999   4.473   0.145   8.838  0.1292  0.0654 -0.0561
  131MPD2    C5 2000   4.545   0.247   8.769  0.6876  0.7057 -0.0051
  131MPD2     H 2001   0.001   4.637   8.815 -0.2399 -0.1393  1.3158
  131MPD2    H1 2002   4.383   0.168   8.893 -0.1721  3.0955 -1.8337
  131MPD2    H2 2003   0.002   0.303   8.668  1.2699 -1.7616 -0.4545
  131MPD2    H3 2004   4.506   0.347   8.755  2.1531  1.4259  0.9832
  131MPD2     N 2005   4.480   4.638   8.928  0.3198 -0.4039 -0.3079
  131MPD2    H5 2006   4.525   4.547   8.920  1.6374  0.1709  0.6964
  131MPD2    N1 2007   0.156   0.104   8.694 -0.0551  0.1015  0.1740
  131MPD2    H7 2008   0.197   0.189   8.656  1.1293 -0.4773  0.1386
  132TCq2    C1 2009   0.560   0.372   8.731  0.0531  0.0272  0.1569
  132TCq2    O2 2010   0.463   0.447   8.729  0.5829 -0.2051 -0.2953
  132TCq2    C2 2011   0.544   0.227   8.729  0.6265 -0.0065 -0.0518
  132TCq2    C3 2012   0.649   0.145   8.706 -0.2772  0.1021  0.1604
  132TCq2    C4 2013   0.617   0.011   8.707 -0.3617 -0.4050  0.1417
  132TCq2    C5 2014   0.490   4.690   8.696  0.7878  0.4368 -0.2828
  132TCq2    C6 2015   0.385   0.053   8.702  0.6394 -0.1554  0.3228
  132TCq2    C7 2016   0.417   0.186   8.723  0.7490 -0.0642 -0.1925
  132TCq2    C8 2017   0.243   0.002   8.702  0.8792 -0.1673  0.4589
  132TCq2    O4 2018   0.225   4.601   8.708 -0.1014  0.3566  0.5156
  132TCq2    C9 2019   0.728   4.644   8.705  1.2214 -0.3088  0.7136
  132TCq2    O5 2020   0.847   4.686   8.737  0.0492  0.1626  0.2098
  132TCq2    O6 2021   0.702   4.528   8.662  0.0616 -0.0887  0.0837
  132TCq2    H2 2022   0.752   0.179   8.696  0.5605 -1.8658  1.9765
  132TCq2    H3 2023   0.478   4.583   8.698  0.9053  0.4425  1.1830
  132TCq2    H4 2024   0.342   0.258   8.754  0.4840 -0.6592  0.5594
  133MPD2     C 2025   4.650   0.833   8.887  0.5667 -0.2261  0.4844
  133MPD2    C1 2026   4.540   0.752   8.855  0.4004 -0.4406  0.0281
  133MPD2    C2 2027   4.530   0.627   8.915 -0.3299  0.1206 -0.2874
  133MPD2    C3 2028   4.629   0.579   9.006  0.5186 -0.5393  0.6070
  133MPD2    C4 2029   0.019   0.654   9.027  0.3117 -0.4344  0.3962
  133MPD2    C5 2030   0.026   0.780   8.973  0.5112  0.2902 -0.2739
  133MPD2     H 2031   4.452   0.554   8.897  1.6864 -2.4289  1.2155
  133MPD2    H1 2032   0.100   0.615   9.087  0.9409  0.4108  0.0978
  133MPD2    H2 2033   4.677   0.929   8.842 -0.6690  0.2594  0.7908
  133MPD2    H3 2034   0.118   0.833   8.993  1.3315 -0.7045 -1.4014
  133MPD2     N 2035   4.634   0.452   9.062  0.2319  0.3756 -0.1017
  133MPD2    H5 2036   0.003   0.420   9.096  0.4698  0.3093 -0.7959
  133MPD2    N1 2037   4.433   0.809   8.777 -0.9346 -0.4179 -0.0487
  133MPD2    H7 2038   4.445   0.907   8.754  0.3410 -0.7195 -0.6350
  134TCq2    C1 2039   4.320   0.740   8.738 -0.8115 -0.1519  0.3972
  134TCq2    O2 2040   4.278   0.628   8.764  0.1388 -0.0258 -0.3680
  134TCq2    C2 2041   4.227   0.818   8.658  0.0923 -0.3663  0.0996
  134TCq2    C3 2042   4.245   0.949   8.640  0.3529 -0.2037 -0.0809
  134TCq2    C4 2043   4.151   1.031   8.585  0.3734 -0.0680  0.2590
  134TCq2    C5 2044   4.025   0.982   8.558 -0.6706  0.2167  0.2115
  134TCq2    C6 2045   4.007   0.842   8.582  0.1786 -0.4736 -0.3565
  134TCq2    C7 2046   4.108   0.759   8.622 -0.7455  0.7261 -0.5839
  134TCq2    C8 2047   3.871   0.795   8.567 -0.0380 -0.3294  0.0404
  134TCq2    O4 2048   3.844   0.685   8.623 -0.3674  0.1683 -0.5574
  134TCq2    C9 2049   4.180   1.172   8.551 -0.1698  0.1972 -0.1191
  134TCq2    O5 2050   4.098   1.235   8.479  0.3821 -0.6799  0.4052
  134TCq2    O6 2051   4.289   1.216   8.590  0.1602  0.0717 -0.4909
  134TCq2    H2 2052   4.343   0.990   8.664  0.5331 -0.3235 -0.6158
  134TCq2    H3 2053   3.937   1.042   8.543  0.1217  1.3482  0.1039
  134TCq2    H4 2054   4.084   0.657   8.649  0.0595  0.5127 -0.6909
  135MPD2     C 2055   2.822   2.166   8.982  0.3814  0.0610  0.3363
  135MPD2    C1 2056   2.834   2.038   9.023 -0.4125  0.6618 -0.0977
  135MPD2    C2 2057   2.955   1.973   8.997  0.0720  1.4283 -0.8619
  135MPD2    C3 2058   3.062   2.036   8.938  0.4756 -0.3245 -0.5098
  135MPD2    C4 2059   3.040   2.170   8.895 -0.0672 -0.0828  0.0214
  135MPD2    C5 2060   2.924   2.236   8.922 -0.1406  0.2957 -0.6628
  135MPD2     H 2061   2.960   1.870   9.030 -2.3548  1.9551  1.1110
  135MPD2    H1 2062   3.118   2.227   8.845 -0.1712 -0.1946 -0.2679
  135MPD2    H2 2063   2.726   2.214   8.992  0.0765 -0.5626  0.4144
  135MPD2    H3 2064   2.902   2.334   8.880 -1.9304  0.3541  0.4145
  135MPD2     N 2065   3.189   1.977   8.928 -0.0293  0.4316  0.0635
  135MPD2    H5 2066   3.259   2.042   8.894  0.8966  0.9033  2.8770
  135MPD2    N1 2067   2.740   1.975   9.112  0.1102 -0.3762 -0.4089
  135MPD2    H7 2068   2.768   1.881   9.139  1.9604  0.6022  1.1368
  136TCq2    C1 2069   2.610   1.997   9.127 -0.0113  0.4470 -0.6402
  136TCq2    O2 2070   2.541   2.085   9.084 -0.5103  0.2167  0.5047
  136TCq2    C2 2071   2.548   1.889   9.196 -0.5979 -0.1195  0.1862
  136TCq2    C3 2072   2.603   1.766   9.215 -0.1448 -0.3966  0.0502
  136TCq2    C4 2073   2.531   1.673   9.291 -0.2116 -0.5683  0.4005
  136TCq2    C5 2074   2.409   1.701   9.340  0.4476  0.3724  0.1023
  136TCq2    C6 2075   2.363   1.828   9.323 -0.4869  0.0174  0.4698
  136TCq2    C7 2076   2.427   1.922   9.249 -0.5294  0.3024  0.0230
  136TCq2    C8 2077   2.253   1.874   9.410 -0.5740  0.0699  0.0587
  136TCq2    O4 2078   2.186   1.972   9.392  0.1330  0.4115 -0.0039
  136TCq2    C9 2079   2.585   1.532   9.295 -0.1133 -0.0844  0.3554
  136TCq2    O5 2080   2.502   1.438   9.331  0.2370 -0.5060  0.4344
  136TCq2    O6 2081   2.703   1.515   9.266  0.2364  0.7240 -0.1955
  136TCq2    H2 2082   2.690   1.730   9.162  0.3801  0.1331  0.5602
  136TCq2    H3 2083   2.356   1.617   9.385 -0.5401 -0.3115 -2.3717
  136TCq2    H4 2084   2.366   2.011   9.236 -0.3815  0.5306  0.8402
  137MPD2     C 2085   2.701   0.989   8.817 -0.2963 -0.3858 -0.1718
  137MPD2    C1 2086   2.621   0.876   8.831  0.7142  0.0812 -0.0414
  137MPD2    C2 2087   2.618   0.808   8.956  0.1365 -0.6469 -0.2241
  137MPD2    C3 2088   2.691   0.850   9.065 -0.1647 -0.2221  0.3150
  137MPD2    C4 2089   2.759   0.969   9.052 -0.5248  0.5381  0.2107
  137MPD2    C5 2090   2.765   1.034   8.929  0.0246 -0.5552 -0.1548
  137MPD2     H 2091   2.572   0.711   8.976 -0.2467 -0.4017  0.0844
  137MPD2    H1 2092   2.831   1.012   9.120  0.4267 -1.6029  0.5519
  137MPD2    H2 2093   2.712   1.039   8.722 -1.5799  0.4476  0.1126
  137MPD2    H3 2094   2.827   1.122   8.922  1.6457 -1.8413 -1.8544
  137MPD2     N 2095   2.690   0.775   9.187  0.2892  0.8082 -0.0818
  137MPD2    H5 2096   2.635   0.689   9.188 -1.3789  1.8778 -1.9541
  137MPD2    N1 2097   2.567   0.821   8.712  0.0772 -0.5508  0.2273
  137MPD2    H7 2098   2.587   0.868   8.624 -1.8400  2.1902  1.2245
  138TCq2    C1 2099   2.469   0.728   8.711 -0.9019 -0.0745 -0.1775
  138TCq2    O2 2100   2.409   0.683   8.805  0.3274 -0.5186 -0.1590
  138TCq2    C2 2101   2.436   0.676   8.578 -0.0888  0.2601  0.0604
  138TCq2    C3 2102   2.532   0.695   8.481  0.1741  0.1738 -0.0645
  138TCq2    C4 2103   2.516   0.625   8.364 -0.0632 -0.2536 -0.3291
  138TCq2    C5 2104   2.404   0.549   8.341  0.0029  0.2334  0.1869
  138TCq2    C6 2105   2.316   0.528   8.449  0.2237 -0.7444  0.2039
  138TCq2    C7 2106   2.325   0.588   8.566 -0.6326  0.1415  0.3071
  138TCq2    C8 2107   2.196   0.447   8.429 -0.1201 -0.0387  0.7067
  138TCq2    O4 2108   2.191   0.368   8.337 -0.0825 -0.2099  0.2396
  138TCq2    C9 2109   2.627   0.621   8.269 -0.7306  0.1141  0.0161
  138TCq2    O5 2110   2.718   0.707   8.286  0.4398 -0.1247 -0.1563
  138TCq2    O6 2111   2.629   0.533   8.181  0.0679 -0.6955 -0.0275
  138TCq2    H2 2112   2.625   0.749   8.493  0.3300 -0.5192  1.9343
  138TCq2    H3 2113   2.389   0.498   8.247  1.8802  0.8011 -0.4217
  138TCq2    H4 2114   2.271   0.553   8.653 -1.1055 -1.2557 -0.5443
  139TMC2    C1 2115   3.548   3.339  13.228  0.4889  0.5739 -0.0407
  139TMC2    C2 2116   3.646   3.381  13.148 -0.1994 -0.1643  0.4727
  139TMC2    C3 2117   3.661   3.514  13.125  0.2957  0.5535  0.2126
  139TMC2    C4 2118   3.459   3.429  13.295 -0.0204 -0.0983  0.6144
  139TMC2    C5 2119   3.479   3.557  13.266 -0.2310 -0.5575 -0.3054
  139TMC2    C6 2120   3.578   3.604  13.179 -0.2151 -0.1507  0.4919
  139TMC2     C 2121   3.539   3.199  13.241 -0.5891 -0.1020  0.3366
  139TMC2     O 2122   3.612   3.131  13.172 -0.1312  0.5779 -0.2409
  139TMC2     H 2123   3.720   3.313  13.107 -1.2565 -0.4867 -0.9004
  139TMC2    H1 2124   3.367   3.401  13.345 -0.0419 -0.6071  0.2928
  139TMC2    H2 2125   3.588   3.709  13.153  0.9837 -0.0960  1.2239
  139TMC2    C7 2126   3.377   3.656  13.304  0.1285 -0.1489 -0.1006
  139TMC2    C8 2127   3.763   3.554  13.041  0.1190 -0.2077 -0.0532
  139TMC2    O1 2128   3.387   3.765  13.252  0.6018 -0.1829 -0.1046
  139TMC2    O2 2129   3.804   3.667  13.042  0.1555 -0.2757 -0.0103
  139TMC2    O5 2130   3.742   3.490  12.927 -0.2667  0.2562  0.0418
  139TMC2    H5 2131   3.675   3.418  12.925  0.0725 -0.0970  1.1675
  140MPD2     C 2132   3.279   2.993  13.397  0.3828 -0.3245  0.5483
  140MPD2    C1 2133   3.396   3.016  13.332 -0.1015  0.7668  0.6373
  140MPD2    C2 2134   3.467   2.905  13.285 -0.4474  0.0552  0.3286
  140MPD2    C3 2135   3.420   2.778  13.304  0.2192  0.4120  0.3363
  140MPD2    C4 2136   3.296   2.758  13.363 -0.3950 -0.0635  0.5851
  140MPD2    C5 2137   3.221   2.870  13.402  0.5671  0.3587  0.1871
  140MPD2     H 2138   3.564   2.918  13.239 -0.4445 -0.0522  0.3060
  140MPD2    H1 2139   3.258   2.658  13.373  2.8421 -1.3637  0.0374
  140MPD2    H2 2140   3.224   3.076  13.440 -0.5524  0.2934 -1.8326
  140MPD2    H3 2141   3.129   2.856  13.458  0.7306  1.8178  0.8003
  140MPD2     N 2142   3.500   2.677  13.248  0.2244  0.6929  0.0310
  140MPD2    H5 2143   3.587   2.702  13.203  0.4314  1.9735  1.1530
  140MPD2    N1 2144   3.434   3.152  13.319 -0.3253 -0.4849  0.8009
  140MPD2    H7 2145   3.382   3.221  13.372  0.8520 -0.9472  2.5513
  141TCq2    C1 2146   3.849   4.473  13.947  0.5454  0.2856  0.4868
  141TCq2    O2 2147   3.826   4.580  13.901  0.4146  0.1401  0.0639
  141TCq2    C2 2148   3.807   4.416  14.074 -0.8268  0.0731  0.0341
  141TCq2    C3 2149   3.808   4.279  14.102 -0.2483  0.0693  0.1032
  141TCq2    C4 2150   3.778   4.242  14.230 -0.1867 -0.1803 -0.0256
  141TCq2    C5 2151   3.744   4.333  14.326  0.2048  0.7086 -0.1850
  141TCq2    C6 2152   3.748   4.467  14.291 -0.2795  0.4458 -0.0398
  141TCq2    C7 2153   3.786   4.511  14.166 -0.2819  0.9995  0.4480
  141TCq2    C8 2154   3.760   4.557  14.407  0.1769 -0.3363 -0.5527
  141TCq2    O4 2155   3.757   4.511  14.519  0.4387 -0.3413  0.3382
  141TCq2    C9 2156   3.792   4.099  14.260  0.1541  0.0611  1.0640
  141TCq2    O5 2157   3.730   4.065  14.363 -0.3339  0.0200  0.5535
  141TCq2    O6 2158   3.830   4.022  14.170  0.4263 -0.0140 -0.1484
  141TCq2    H2 2159   3.830   4.199  14.032 -0.6425 -1.6391  1.9328
  141TCq2    H3 2160   3.716   4.293  14.423  0.8878 -0.2689 -0.3951
  141TCq2    H4 2161   3.822   4.611  14.145  1.6573 -0.0862 -1.4417
  142MPD2     C 2162   1.725   3.067  10.055 -0.2282  0.4132  0.4359
  142MPD2    C1 2163   1.588   3.076  10.008  0.0064 -0.0936  0.8327
  142MPD2    C2 2164   1.555   3.169   9.913 -0.1384  0.3279 -0.0358
  142MPD2    C3 2165   1.646   3.259   9.874 -0.3107 -0.0357 -0.8507
  142MPD2    C4 2166   1.777   3.249   9.908 -0.3155  0.7335 -0.2271
  142MPD2    C5 2167   1.818   3.153  10.000 -1.1783 -0.3298 -0.2113
  142MPD2     H 2168   1.453   3.179   9.878 -0.0547 -1.3348 -0.7479
  142MPD2    H1 2169   1.844   3.331   9.882 -1.5427  1.2450 -1.8128
  142MPD2    H2 2170   1.760   2.989  10.123 -1.2446  1.0419  1.6818
  142MPD2    H3 2171   1.921   3.142  10.031 -0.4423  1.4108 -2.0601
  142MPD2     N 2172   1.625   3.366   9.782  0.4477  0.7942 -0.2357
  142MPD2    H5 2173   1.709   3.420   9.762 -0.4650  1.8351 -1.2750
  142MPD2    N1 2174   1.503   2.975  10.055  0.0636  0.3305  0.4638
  142MPD2    H7 2175   1.531   2.914  10.132 -1.3194 -0.1118  0.6071
  143TCq2    C1 2176   1.511   3.392   9.713 -0.4274  0.6923 -0.3117
  143TCq2    O2 2177   1.404   3.335   9.700 -0.4147 -0.2888 -0.8350
  143TCq2    C2 2178   1.519   3.527   9.648 -0.2963 -0.1759 -0.8480
  143TCq2    C3 2179   1.615   3.610   9.696 -0.3351  0.2743  0.5209
  143TCq2    C4 2180   1.603   3.744   9.669 -0.0126 -0.9012 -0.1280
  143TCq2    C5 2181   1.507   3.802   9.599 -0.4306  0.2507 -0.3011
  143TCq2    C6 2182   1.411   3.714   9.557 -0.3563  0.0077  0.2490
  143TCq2    C7 2183   1.409   3.579   9.583 -0.0385 -0.2101  0.6304
  143TCq2    C8 2184   1.295   3.762   9.482  0.4598 -0.1809 -0.4883
  143TCq2    O4 2185   1.203   3.687   9.465 -0.3727  0.1934 -0.6821
  143TCq2    C9 2186   1.710   3.829   9.725 -1.1412  0.2065 -0.0855
  143TCq2    O5 2187   1.777   3.787   9.820 -0.0896 -0.1091  0.1751
  143TCq2    O6 2188   1.705   3.952   9.705 -0.5970  0.2789 -0.3431
  143TCq2    H2 2189   1.701   3.582   9.756  0.3575  0.3956 -0.4015
  143TCq2    H3 2190   1.505   3.909   9.586 -0.7531  0.1681 -0.9316
  143TCq2    H4 2191   1.357   3.518   9.511  0.2182 -0.2910  0.5119
  144MPD2     C 2192   0.139   2.320   0.170  0.2415  0.7555 -0.1103
  144MPD2    C1 2193   0.099   2.194   0.203  0.4087  0.1692  0.3986
  144MPD2    C2 2194   0.157   2.129   0.302  0.6685  0.5199  0.1463
  144MPD2    C3 2195   0.256   2.187   0.368 -0.7737  0.6308 -0.0234
  144MPD2    C4 2196   0.296   2.314   0.340  0.1980 -0.1757 -0.1000
  144MPD2    C5 2197   0.237   2.385   0.238 -0.1832 -0.2323  0.2661
  144MPD2     H 2198   0.121   2.034   0.339 -1.1270  1.1232 -0.0936
  144MPD2    H1 2199   0.372   2.370   0.393  0.1538 -1.8605  1.7453
  144MPD2    H2 2200   0.101   2.381   0.089  0.1406 -0.0950 -0.7040
  144MPD2    H3 2201   0.268   2.488   0.227 -2.3465 -0.0280 -4.0419
  144MPD2     N 2202   0.317   2.119   0.478 -0.3466 -0.7319  0.2490
  144MPD2    H5 2203   0.379   2.181   0.529  0.6376 -1.2282 -0.3421
  144MPD2    N1 2204   4.705   2.136   0.151  0.0915 -0.1063  0.0757
  144MPD2    H7 2205   4.665   2.063   0.207  0.8196 -0.1229  0.5770
  145TCq2    C1 2206   0.321   1.981   0.515  0.4839 -0.5377  0.3627
  145TCq2    O2 2207   0.260   1.885   0.475 -0.1166  0.0792  0.0393
  145TCq2    C2 2208   0.392   1.957   0.634 -0.3044  0.0849 -1.0344
  145TCq2    C3 2209   0.442   1.836   0.666  0.0469 -0.1938  0.4858
  145TCq2    C4 2210   0.516   1.817   0.774  0.1938  0.2069  0.8616
  145TCq2    C5 2211   0.519   1.914   0.873  0.0570 -0.2005  0.1227
  145TCq2    C6 2212   0.453   2.033   0.852 -0.1360 -0.4499 -0.4332
  145TCq2    C7 2213   0.390   2.058   0.732  0.3727  0.5499  0.3674
  145TCq2    C8 2214   0.480   2.138   0.948 -0.0800 -0.1774  0.0608
  145TCq2    O4 2215   0.573   2.122   1.022  0.2244 -0.3478  0.6193
  145TCq2    C9 2216   0.579   1.687   0.796  0.2302 -0.0722  0.0275
  145TCq2    O5 2217   0.572   1.603   0.702  0.4308  0.0819 -1.3831
  145TCq2    O6 2218   0.610   1.661   0.916 -0.3559  0.0684 -0.3945
  145TCq2    H2 2219   0.436   1.750   0.601 -0.5764 -0.4060  0.8225
  145TCq2    H3 2220   0.571   1.897   0.967  0.6982  2.0517  0.1636
  145TCq2    H4 2221   0.344   2.153   0.707 -1.0259  0.1521  1.4636
  146TMC2    C1 2222   0.924   1.143  12.560  0.3671  1.1648 -0.4560
  146TMC2    C2 2223   0.836   1.192  12.466  0.3093  0.0225 -0.4255
  146TMC2    C3 2224   0.850   1.153  12.334 -0.1412  0.3043 -0.3884
  146TMC2    C4 2225   1.007   1.039  12.542 -0.6330  0.0275  0.2960
  146TMC2    C5 2226   1.019   1.002  12.408 -0.1028  0.4956  0.2699
  146TMC2    C6 2227   0.953   1.061  12.303  0.9622  0.1759 -0.0564
  146TMC2     C 2228   0.906   1.187  12.697 -0.0291 -0.2992  0.1604
  146TMC2     O 2229   0.858   1.299  12.714  0.4818  0.7707 -0.0675
  146TMC2     H 2230   0.759   1.262  12.498 -0.1259 -1.2483  1.2848
  146TMC2    H1 2231   1.085   1.015  12.614 -2.1075  1.6934  2.4738
  146TMC2    H2 2232   0.977   1.024  12.204  0.4051  0.0829 -0.1603
  146TMC2    C7 2233   1.130   0.907  12.379  0.6115  0.1185 -0.6222
  146TMC2    C8 2234   0.782   1.217  12.228 -0.1909  0.0980  0.7883
  146TMC2    O1 2235   1.155   0.881  12.260  0.5750 -0.1605 -0.2097
  146TMC2    O2 2236   0.721   1.321  12.250  0.5090  0.1950  0.7554
  146TMC2    O5 2237   0.765   1.129  12.120 -0.1813 -0.3366  0.1044
  146TMC2    H5 2238   0.767   1.031  12.127  3.2079 -0.2576  0.4899
  147MPD2     C 2239   1.544   0.631  12.538  0.3793 -0.2039 -0.2225
  147MPD2    C1 2240   1.453   0.638  12.642  0.1253  0.2414  0.2251
  147MPD2    C2 2241   1.330   0.700  12.624 -0.6877  0.4634  0.0423
  147MPD2    C3 2242   1.297   0.761  12.500 -0.0438  0.4535 -0.5608
  147MPD2    C4 2243   1.386   0.736  12.396 -0.0791 -0.5448 -0.4391
  147MPD2    C5 2244   1.506   0.672  12.413  0.1228 -0.8522 -0.1321
  147MPD2     H 2245   1.268   0.703  12.712 -1.1299  0.7105 -0.2786
  147MPD2    H1 2246   1.376   0.766  12.292  0.6952  1.8650  0.1887
  147MPD2    H2 2247   1.633   0.570  12.544  0.3574 -0.4019 -1.9598
  147MPD2    H3 2248   1.570   0.660  12.327  0.6979 -1.1282  0.3331
  147MPD2     N 2249   1.182   0.844  12.493 -0.0680 -0.2761  0.1058
  147MPD2    H5 2250   1.128   0.860  12.577 -2.5338  0.3348 -1.6111
  147MPD2    N1 2251   1.490   0.568  12.762  0.9893 -0.3379  0.7985
  147MPD2    H7 2252   1.587   0.541  12.774  0.1317 -3.1119  1.5083
  148MPD2     C 2253   1.027   3.881  10.571 -0.3534  0.0330  0.0606
  148MPD2    C1 2254   1.073   3.972  10.478  1.0413 -0.4648  0.1111
  148MPD2    C2 2255   0.994   4.008  10.375  0.3279  0.4027 -0.6834
  148MPD2    C3 2256   0.860   3.962  10.369 -0.4392 -0.4733  0.0379
  148MPD2    C4 2257   0.815   3.872  10.467  0.3850 -0.4289 -0.1247
  148MPD2    C5 2258   0.891   3.840  10.572  0.5414  0.0790  0.4669
  148MPD2     H 2259   1.039   4.079  10.306 -0.2004  1.4387  0.0276
  148MPD2    H1 2260   0.712   3.839  10.455  0.0818  1.3652 -2.3348
  148MPD2    H2 2261   1.086   3.842  10.653  0.0388  0.1310 -0.1785
  148MPD2    H3 2262   0.854   3.775  10.650 -0.3976 -0.6933 -0.6191
  148MPD2     N 2263   0.767   4.003  10.270  0.0788 -0.1940  0.3877
  148MPD2    H5 2264   0.677   3.958  10.258  0.4291 -0.1056 -2.5670
  148MPD2    N1 2265   1.206   4.016  10.481 -0.6359  0.4652 -0.8013
  148MPD2    H7 2266   1.228   4.081  10.406  0.8235  1.3664  0.4063
  149TCq2    C1 2267   1.312   3.973  10.562  0.1790 -0.2582  0.7011
  149TCq2    O2 2268   1.306   3.917  10.670  0.2034  0.1064  0.3288
  149TCq2    C2 2269   1.435   4.023  10.507  0.3175 -0.3482  0.6870
  149TCq2    C3 2270   1.544   4.035  10.595  0.2517 -0.4817 -0.3575
  149TCq2    C4 2271   1.663   4.088  10.555  0.3896  0.5343  0.4624
  149TCq2    C5 2272   1.663   4.161  10.439  0.2780 -0.0433 -0.2295
  149TCq2    C6 2273   1.559   4.149  10.355 -0.2461  0.0176 -0.3139
  149TCq2    C7 2274   1.444   4.074  10.382  0.3981  0.4629 -0.8646
  149TCq2    C8 2275   1.574   4.211  10.221 -0.4087  1.3937  0.5378
  149TCq2    O4 2276   1.658   4.293  10.213  0.6017  0.2804  0.5653
  149TCq2    C9 2277   1.766   4.127  10.646  0.5389 -0.5164  0.0200
  149TCq2    O5 2278   1.856   4.201  10.599 -0.3645 -0.0239  0.5247
  149TCq2    O6 2279   1.742   4.116  10.767 -0.4467 -0.0428  0.2489
  149TCq2    H2 2280   1.536   3.993  10.695 -2.0652 -1.0692 -0.7914
  149TCq2    H3 2281   1.743   4.232  10.422  0.3538 -0.2971 -0.9341
  149TCq2    H4 2282   1.363   4.073  10.309  1.1621 -1.3837 -1.6874
  150MPD2     C 2283   2.298   3.185  11.748  0.0448 -0.1541  0.1050
  150MPD2    C1 2284   2.377   3.231  11.640 -0.3644 -0.1048  0.1370
  150MPD2    C2 2285   2.482   3.317  11.667  0.1664  0.9787  0.0142
  150MPD2    C3 2286   2.505   3.357  11.792  0.3162 -0.1157 -0.5419
  150MPD2    C4 2287   2.422   3.319  11.894  0.2824 -0.2636  0.4895
  150MPD2    C5 2288   2.315   3.238  11.874  0.7019  0.6005 -0.4078
  150MPD2     H 2289   2.543   3.359  11.588  0.3278  1.4102  0.3721
  150MPD2    H1 2290   2.429   3.350  11.998 -2.0563 -0.3616  0.6844
  150MPD2    H2 2291   2.202   3.138  11.730 -0.7372  1.2665  0.6306
  150MPD2    H3 2292   2.253   3.210  11.958  0.4786 -0.3941 -0.9008
  150MPD2     N 2293   2.602   3.454  11.799 -0.1561 -0.4682 -0.5358
  150MPD2    H5 2294   2.657   3.474  11.716  1.9176 -0.2640  0.8963
  150MPD2    N1 2295   2.354   3.168  11.521  0.5171  0.0451  0.2041
  150MPD2    H7 2296   2.282   3.096  11.527  0.4253  0.2026  0.9862
  151TCq2    C1 2297   2.629   3.533  11.909  0.4998 -0.2523 -0.0055
  151TCq2    O2 2298   2.581   3.538  12.023  0.4790  0.2207  0.1988
  151TCq2    C2 2299   2.727   3.634  11.870  0.8415 -0.0477  0.0575
  151TCq2    C3 2300   2.800   3.629  11.754 -0.1527 -0.4069 -0.5680
  151TCq2    C4 2301   2.886   3.733  11.717  0.1373  0.1496  0.2188
  151TCq2    C5 2302   2.911   3.835  11.795 -0.1130 -0.6911 -0.6288
  151TCq2    C6 2303   2.835   3.842  11.913 -0.2176 -0.1225  0.3873
  151TCq2    C7 2304   2.738   3.750  11.943  0.0017 -0.2000 -0.0511
  151TCq2    C8 2305   2.878   3.917  12.028  0.5399 -0.4480 -0.4335
  151TCq2    O4 2306   2.819   3.904  12.135 -0.1905 -0.5292 -0.8273
  151TCq2    C9 2307   2.940   3.720  11.589 -0.7236  0.6914  0.4034
  151TCq2    O5 2308   3.008   3.814  11.549 -0.3792  0.2642 -0.3387
  151TCq2    O6 2309   2.921   3.617  11.521 -0.0113  0.8741  0.0599
  151TCq2    H2 2310   2.801   3.545  11.685  1.0539  0.0284 -1.0823
  151TCq2    H3 2311   2.981   3.912  11.765 -0.6587 -0.5451 -1.5335
  151TCq2    H4 2312   2.669   3.757  12.026 -0.4155  0.2224 -0.4379
  152MPD2     C 2313   2.813   3.178  12.891  0.0004 -0.5278 -0.1887
  152MPD2    C1 2314   2.821   3.310  12.845 -0.4464 -0.4883 -0.9803
  152MPD2    C2 2315   2.708   3.368  12.798 -0.4280 -0.1751 -0.2301
  152MPD2    C3 2316   2.587   3.295  12.792  0.5346 -0.1316 -0.5659
  152MPD2    C4 2317   2.586   3.167  12.839  0.2669  0.7592  0.2728
  152MPD2    C5 2318   2.700   3.104  12.882  0.1744 -0.0082 -0.2740
  152MPD2     H 2319   2.706   3.467  12.755  1.1649 -0.7673 -1.6335
  152MPD2    H1 2320   2.500   3.100  12.838 -0.0745  1.2579 -1.9238
  152MPD2    H2 2321   2.903   3.131  12.927 -0.1232 -0.2887  0.4271
  152MPD2    H3 2322   2.696   3.007  12.930 -0.5392 -0.1215 -0.5613
  152MPD2     N 2323   2.476   3.354  12.726  0.3859 -0.6899 -0.1203
  152MPD2    H5 2324   2.488   3.441  12.675 -2.8552  0.0034  0.3136
  152MPD2    N1 2325   2.948   3.366  12.856 -0.2342 -0.9386  0.5306
  152MPD2    H7 2326   3.026   3.311  12.889  0.4406 -1.1665 -1.4180
  153TCq2    C1 2327   2.988   3.496  12.820  0.0774  0.5902 -0.8661
  153TCq2    O2 2328   2.918   3.595  12.790 -0.2942  0.5589 -0.7268
  153TCq2    C2 2329   3.126   3.522  12.842 -0.6932 -0.5205  0.0322
  153TCq2    C3 2330   3.207   3.418  12.829  0.1598  0.1954 -0.2993
  153TCq2    C4 2331   3.339   3.431  12.857 -0.0151  0.3931  0.7763
  153TCq2    C5 2332   3.392   3.556  12.899  0.0920 -0.0516  0.4673
  153TCq2    C6 2333   3.305   3.658  12.905 -0.2124  0.1455 -0.5354
  153TCq2    C7 2334   3.171   3.643  12.886  0.4521 -0.3433  0.1152
  153TCq2    C8 2335   3.354   3.793  12.876 -0.6796 -0.1650 -0.4163
  153TCq2    O4 2336   3.269   3.866  12.824  0.4054  0.0852  0.4442
  153TCq2    C9 2337   3.426   3.318  12.840 -0.3767  0.3172 -0.3123
  153TCq2    O5 2338   3.382   3.221  12.770 -0.0483  0.0025  0.0329
  153TCq2    O6 2339   3.545   3.335  12.884 -0.1251  0.3401  0.3596
  153TCq2    H2 2340   3.173   3.320  12.799  2.6006 -1.3030  1.7947
  153TCq2    H3 2341   3.499   3.561  12.915  0.0545 -0.5556  0.8794
  153TCq2    H4 2342   3.107   3.728  12.908 -0.4247 -1.2987  1.3269
  154MPD2     C 2343   0.387   2.716   0.226  0.5749 -0.5342  0.0379
  154MPD2    C1 2344   0.343   2.745   0.353  0.8417  0.1614 -0.3357
  154MPD2    C2 2345   0.226   2.824   0.373 -0.0351  0.2709  0.7052
  154MPD2    C3 2346   0.159   2.877   0.262  0.3864 -0.0405 -0.2909
  154MPD2    C4 2347   0.208   2.848   0.132 -0.7701 -0.0890  0.2308
  154MPD2    C5 2348   0.320   2.763   0.117 -0.3809 -0.4662  0.9254
  154MPD2     H 2349   0.194   2.844   0.474 -0.3892 -0.5132  0.7513
  154MPD2    H1 2350   0.152   2.873   0.042 -0.3885  1.9884  0.5581
  154MPD2    H2 2351   0.469   2.647   0.210  1.4951  0.3131  1.0769
  154MPD2    H3 2352   0.353   2.731   0.019  0.4466  0.7933  0.7967
  154MPD2     N 2353   0.049   2.954   0.291  0.3030 -0.2062  0.3982
  154MPD2    H5 2354   0.035   2.981   0.388 -1.5781  2.5786 -0.6453
  154MPD2    N1 2355   0.414   2.675   0.460  0.2434 -0.0284 -0.1195
  154MPD2    H7 2356   0.497   2.621   0.438 -0.9220 -2.6193  1.9373
  155TCq2    C1 2357   0.406   2.707   0.595  0.2991 -0.1088  0.3504
  155TCq2    O2 2358   0.338   2.795   0.648 -0.3226  0.3186  0.0510
  155TCq2    C2 2359   0.501   2.638   0.675 -0.2704  1.1293  0.0544
  155TCq2    C3 2360   0.546   2.704   0.788  0.1822 -0.3526  0.1948
  155TCq2    C4 2361   0.623   2.628   0.874 -0.4463  0.2826 -0.5655
  155TCq2    C5 2362   0.664   2.499   0.843  0.5734  0.2949  0.3675
  155TCq2    C6 2363   0.599   2.433   0.738  0.8508 -0.4349 -0.0051
  155TCq2    C7 2364   0.516   2.503   0.653 -0.5796 -0.1473 -0.6487
  155TCq2    C8 2365   0.636   2.303   0.701  0.0530  0.3400 -0.0818
  155TCq2    O4 2366   0.556   2.249   0.623  0.8456  0.2109 -0.2196
  155TCq2    C9 2367   0.672   2.686   1.002  0.0072  0.1810  0.7203
  155TCq2    O5 2368   0.652   2.809   1.002  0.2141  0.1845  0.0531
  155TCq2    O6 2369   0.714   2.616   1.099 -0.4277 -0.0984  0.4995
  155TCq2    H2 2370   0.520   2.807   0.811  0.6763  0.1267 -1.3443
  155TCq2    H3 2371   0.719   2.448   0.922  0.4744  0.4649  0.5458
  155TCq2    H4 2372   0.441   2.457   0.591 -0.9179 -0.5380  0.0557
  156MPD2     C 2373   3.327   0.946  12.310  0.2308 -0.1032  0.1365
  156MPD2    C1 2374   3.287   1.040  12.216  0.1217 -0.0917 -0.4864
  156MPD2    C2 2375   3.181   1.122  12.258 -0.4892 -0.0935 -0.6188
  156MPD2    C3 2376   3.106   1.108  12.372  0.0737 -0.4007  0.1005
  156MPD2    C4 2377   3.142   1.002  12.454  0.7213  0.4459 -0.0847
  156MPD2    C5 2378   3.247   0.923  12.426 -0.8747  0.4235 -0.1378
  156MPD2     H 2379   3.147   1.208  12.202  0.8670  1.4983  0.9956
  156MPD2    H1 2380   3.086   0.977  12.543 -2.1386 -0.1742 -2.0505
  156MPD2    H2 2381   3.409   0.878  12.293  1.3096 -0.0471  4.9397
  156MPD2    H3 2382   3.279   0.844  12.492  1.3925  1.1814 -0.3057
  156MPD2     N 2383   2.996   1.191  12.404  0.4883  0.1439 -0.0452
  156MPD2    H5 2384   2.973   1.268  12.343 -1.3081  0.0123  0.4486
  156MPD2    N1 2385   3.360   1.043  12.096  1.0496  0.3095 -0.1447
  156MPD2    H7 2386   3.430   0.970  12.084 -1.1434 -1.9514  0.8952
  157TCq2    C1 2387   3.335   1.137  12.004 -0.0669 -0.2148 -0.0994
  157TCq2    O2 2388   3.243   1.219  11.998 -0.9260 -0.3096  1.0475
  157TCq2    C2 2389   3.430   1.120  11.898  0.3791  0.1186  0.0348
  157TCq2    C3 2390   3.532   1.030  11.921 -0.1272 -0.4870  0.1483
  157TCq2    C4 2391   3.598   0.975  11.815 -0.0798 -0.7028  0.0591
  157TCq2    C5 2392   3.554   1.002  11.686  0.1091  0.0168 -0.5779
  157TCq2    C6 2393   3.451   1.090  11.664  0.3538  0.1706  0.2719
  157TCq2    C7 2394   3.387   1.145  11.771  0.0620  0.4594  0.1229
  157TCq2    C8 2395   3.384   1.104  11.534 -0.0271  0.1478  0.4473
  157TCq2    O4 2396   3.367   1.009  11.463  0.3865 -0.4204 -0.6308
  157TCq2    C9 2397   3.721   0.898  11.839 -0.3766 -0.4587 -0.1695
  157TCq2    O5 2398   3.764   0.876  11.955  0.7322 -0.0142  0.1085
  157TCq2    O6 2399   3.756   0.834  11.731 -0.3351 -0.4855  0.3321
  157TCq2    H2 2400   3.581   1.014  12.017  1.7241  1.1191 -0.5234
  157TCq2    H3 2401   3.603   0.971  11.594  1.1846  1.2888 -0.4163
  157TCq2    H4 2402   3.302   1.212  11.763 -0.4099 -0.2451 -0.8273
  158TMC2    C1 2403   3.898   4.345  13.274 -0.4701 -0.5133 -0.2960
  158TMC2    C2 2404   3.967   4.347  13.154  0.0874 -0.1654  0.7023
  158TMC2    C3 2405   3.945   4.455  13.073 -0.4844 -0.3676 -0.5607
  158TMC2    C4 2406   3.810   4.444  13.315 -0.3832 -0.0591 -0.1834
  158TMC2    C5 2407   3.796   4.548  13.227  0.4089  0.8950  0.0337
  158TMC2    C6 2408   3.861   4.555  13.103 -0.2378 -0.3516 -0.7718
  158TMC2     C 2409   3.923   4.230  13.364  0.2023 -0.6199 -0.0603
  158TMC2     O 2410   4.008   4.148  13.333  0.1882  0.3359 -0.3657
  158TMC2     H 2411   4.030   4.261  13.136  0.1632  0.3914 -1.6837
  158TMC2    H1 2412   3.763   4.449  13.413 -0.1979  2.1046 -0.1880
  158TMC2    H2 2413   3.847   4.637  13.034  2.6220  0.1650 -0.7265
  158TMC2    C7 2414   3.685   4.637  13.234 -0.0215  0.0915  0.3426
  158TMC2    C8 2415   4.042   4.475  12.967  0.3142 -0.1906 -0.0177
  158TMC2    O1 2416   3.713   0.028  13.196  0.2038 -0.5604 -0.9703
  158TMC2    O2 2417   4.081   4.589  12.947  0.4622 -0.1473  0.4621
  158TMC2    O5 2418   4.028   4.366  12.882  0.0456 -0.4411 -0.3912
  158TMC2    H5 2419   3.989   4.285  12.919 -1.1066  0.5973  0.6404
  159MPD2     C 2420   3.820   4.027  13.829  0.0410  0.1487 -0.1092
  159MPD2    C1 2421   3.713   4.101  13.790  0.5328  0.3433 -0.2090
  159MPD2    C2 2422   3.711   4.163  13.665  0.3081  0.1189  0.8171
  159MPD2    C3 2423   3.816   4.147  13.578 -0.0980 -0.0761 -0.3405
  159MPD2    C4 2424   3.920   4.070  13.622 -0.2419  0.4537  0.2591
  159MPD2    C5 2425   3.920   4.007  13.741 -0.2519  0.0691  0.6002
  159MPD2     H 2426   3.625   4.220  13.630  0.1230  0.5472  1.9824
  159MPD2    H1 2427   4.011   4.062  13.563 -0.8910 -0.3840 -0.6149
  159MPD2    H2 2428   3.813   3.973  13.923  0.4685  1.5793  0.7496
  159MPD2    H3 2429   4.007   3.953  13.776 -0.1850 -0.5622 -0.5476
  159MPD2     N 2430   3.826   4.219  13.453  0.2111  0.0249  0.0199
  159MPD2    H5 2431   3.743   4.275  13.439  0.8767  1.2464  0.9997
  159MPD2    N1 2432   3.606   4.102  13.883  0.0464  0.1739  0.0200
  159MPD2    H7 2433   3.608   4.051  13.971  0.4610 -0.0555 -0.1208
  160TMC2    C1 2434   2.940   2.640   0.801 -0.9135 -0.1228 -0.3806
  160TMC2    C2 2435   2.964   2.512   0.792 -0.2329 -0.0568  0.5410
  160TMC2    C3 2436   3.018   2.461   0.682 -0.2011 -0.3407  0.2760
  160TMC2    C4 2437   2.971   2.719   0.696 -0.3624  1.0628 -0.1895
  160TMC2    C5 2438   3.023   2.667   0.582 -0.9173  0.1418  0.4474
  160TMC2    C6 2439   3.049   2.539   0.575 -0.1079  0.1114  0.2057
  160TMC2     C 2440   2.838   2.674   0.894  0.5503  0.0334  0.0907
  160TMC2     O 2441   2.761   2.585   0.923 -0.1700 -0.0847  0.2787
  160TMC2     H 2442   2.935   2.446   0.874 -2.5605  1.6333  1.1039
  160TMC2    H1 2443   2.958   2.827   0.699 -1.7335  0.9797 -3.6583
  160TMC2    H2 2444   3.077   2.485   0.486 -0.7268 -0.8540  0.5989
  160TMC2    C7 2445   3.059   2.756   0.480 -0.2499 -0.5630  0.1970
  160TMC2    C8 2446   3.048   2.321   0.686  0.4452 -0.6228 -0.1566
  160TMC2    O1 2447   3.004   2.865   0.481 -0.1467  0.3304 -0.7602
  160TMC2    O2 2448   2.998   2.233   0.753 -0.0168 -0.6155  0.0297
  160TMC2    O5 2449   3.172   2.318   0.639 -0.1219  0.5999 -0.0116
  160TMC2    H5 2450   3.217   2.401   0.616 -1.3096  1.2323 -0.0259
  161MPD2     C 2451   2.618   2.828   1.024  0.6179  0.0299 -0.3173
  161MPD2    C1 2452   2.719   2.889   0.956  0.7334  0.4207  0.6295
  161MPD2    C2 2453   2.731   3.028   0.954 -0.1721 -0.3917  0.1468
  161MPD2    C3 2454   2.633   3.103   1.026 -0.7140  0.2849 -1.2369
  161MPD2    C4 2455   2.540   3.041   1.110  0.1710  0.2318  0.8235
  161MPD2    C5 2456   2.525   2.909   1.092 -0.5382 -0.3110 -0.3943
  161MPD2     H 2457   2.802   3.077   0.888 -0.5791  0.3210  0.2366
  161MPD2    H1 2458   2.471   3.096   1.173  2.0039 -0.3078  3.2882
  161MPD2    H2 2459   2.609   2.721   1.041  1.1964  0.0107 -0.1230
  161MPD2    H3 2460   2.437   2.857   1.128 -0.3860 -0.6434 -0.4988
  161MPD2     N 2461   2.624   3.245   1.016  0.7786  0.4763  0.1940
  161MPD2    H5 2462   2.548   3.289   1.068  0.9870  1.2776 -0.1828
  161MPD2    N1 2463   2.826   2.815   0.897  0.2881  0.1350 -1.2074
  161MPD2    H7 2464   2.909   2.865   0.865  1.1500 -1.3491 -1.2662
  162TMC2    C1 2465   0.588   0.091   0.829 -0.0457  0.6694  0.4549
  162TMC2    C2 2466   0.520   0.175   0.749 -0.0938 -0.0917 -0.3317
  162TMC2    C3 2467   0.410   0.227   0.809  0.2141 -0.0893  0.1201
  162TMC2    C4 2468   0.543   0.041   0.946 -0.6715  0.3000 -0.1222
  162TMC2    C5 2469   0.419   0.087   0.986 -0.4514  0.3783 -0.5400
  162TMC2    C6 2470   0.350   0.182   0.925 -0.0584 -0.4823 -0.4457
  162TMC2     C 2471   0.706   0.038   0.774 -0.5805 -1.0918 -0.2782
  162TMC2     O 2472   0.735   0.055   0.656  0.3441  0.4561  0.8211
  162TMC2     H 2473   0.568   0.215   0.661 -0.6508  0.4722 -0.3832
  162TMC2    H1 2474   0.587   4.677   0.996 -1.4837  0.2610  0.5286
  162TMC2    H2 2475   0.258   0.219   0.968  1.7176  0.3350  2.6512
  162TMC2    C7 2476   0.361   0.049   1.108  0.0641  0.6394  0.0582
  162TMC2    C8 2477   0.334   0.324   0.732  0.0815  0.5533 -0.2925
  162TMC2    O1 2478   0.239   0.061   1.119  0.1715  0.8837  0.2667
  162TMC2    O2 2479   0.338   0.336   0.610 -0.0959 -0.2070 -0.1529
  162TMC2    O5 2480   0.316   0.427   0.819  0.3284  0.4883  0.1756
  162TMC2    H5 2481   0.322   0.414   0.916  0.9297 -0.4661  0.0202
  163MPD2     C 2482   1.084   4.400   0.752  0.0687  0.1622 -0.7120
  163MPD2    C1 2483   1.070   4.510   0.676  0.0542  0.1367 -0.0093
  163MPD2    C2 2484   0.969   4.608   0.712 -0.7087 -0.4791 -0.0545
  163MPD2    C3 2485   0.880   4.584   0.819  1.3592 -0.7228 -0.2077
  163MPD2    C4 2486   0.908   4.468   0.897 -0.6855 -0.4614 -0.5968
  163MPD2    C5 2487   1.010   4.383   0.867  0.2462 -0.0465  0.5109
  163MPD2     H 2488   0.966   4.706   0.665  1.5693  0.9542  2.7699
  163MPD2    H1 2489   0.846   4.447   0.983  1.3850 -1.1409  0.7352
  163MPD2    H2 2490   1.163   4.330   0.729 -0.4852  0.2974 -2.9539
  163MPD2    H3 2491   1.024   4.302   0.938 -0.3530 -1.4906 -1.0243
  163MPD2     N 2492   0.773   4.674   0.860  0.1068  0.1461 -0.2115
  163MPD2    H5 2493   0.725   4.656   0.948 -1.0664  2.5026 -0.3682
  163MPD2    N1 2494   1.167   4.532   0.570  0.4023  0.3079 -0.1281
  163MPD2    H7 2495   1.240   4.462   0.556 -0.5296 -0.6366 -0.2234
  164TCq2    C1 2496   1.111   3.823  10.976  0.2281  0.4428  0.5636
  164TCq2    O2 2497   0.994   3.804  11.007 -0.9395  0.4407  0.0740
  164TCq2    C2 2498   1.160   3.955  10.996  0.1670  0.1588  0.5573
  164TCq2    C3 2499   1.288   3.985  11.046 -0.1304 -0.4768 -0.1703
  164TCq2    C4 2500   1.325   4.111  11.057 -0.0977  0.6344 -0.4340
  164TCq2    C5 2501   1.234   4.212  11.022 -0.7866 -0.4896 -0.6442
  164TCq2    C6 2502   1.107   4.182  10.973 -0.2852 -0.0919  0.0514
  164TCq2    C7 2503   1.072   4.054  10.950  0.4730  0.2548  0.2540
  164TCq2    C8 2504   0.999   4.268  11.003  0.4122  0.0839  0.7533
  164TCq2    O4 2505   0.904   4.265  10.923  0.6432 -0.5972  0.5244
  164TCq2    C9 2506   1.455   4.152  11.104 -0.4697 -0.8730  0.2206
  164TCq2    O5 2507   1.482   4.276  11.111  0.3998  0.3717 -0.0227
  164TCq2    O6 2508   1.538   4.058  11.129 -0.0399 -0.1086  1.2930
  164TCq2    H2 2509   1.347   3.899  11.077 -0.5806 -0.7890 -0.1893
  164TCq2    H3 2510   1.270   4.314  11.028 -0.8833 -0.5022  0.0964
  164TCq2    H4 2511   0.970   4.027  10.925  1.0458 -0.1966 -1.5654
  165MPD2     C 2512   2.292   2.222   1.056  0.0145 -0.3458  0.0804
  165MPD2    C1 2513   2.393   2.143   1.092  0.2663 -0.3675  0.1107
  165MPD2    C2 2514   2.516   2.201   1.119 -0.1781 -0.4615 -0.4969
  165MPD2    C3 2515   2.537   2.337   1.118  0.2580  0.4119  0.2747
  165MPD2    C4 2516   2.430   2.415   1.103  0.0144 -0.3741  0.1834
  165MPD2    C5 2517   2.308   2.359   1.062  0.1633  1.0449  0.4952
  165MPD2     H 2518   2.597   2.134   1.144 -0.8919 -0.7748  0.9833
  165MPD2    H1 2519   2.427   2.523   1.107  0.0090 -0.3415 -0.6998
  165MPD2    H2 2520   2.196   2.176   1.037 -0.8136  1.0748  0.8147
  165MPD2    H3 2521   2.222   2.424   1.050  0.9657  1.8623 -0.8359
  165MPD2     N 2522   2.651   2.410   1.155 -0.1156 -0.0273 -0.2461
  165MPD2    H5 2523   2.646   2.511   1.141 -0.2191  0.2322  1.6788
  165MPD2    N1 2524   2.369   2.000   1.088 -0.1746  0.1376 -0.4485
  165MPD2    H7 2525   2.277   1.980   1.049 -0.5462  1.1380 -0.0876
  166TCq2    C1 2526   2.764   2.359   1.201 -0.5005  0.0609 -0.0985
  166TCq2    O2 2527   2.793   2.241   1.194  0.1905 -0.2392  0.6628
  166TCq2    C2 2528   2.867   2.459   1.226  0.7480  0.3226  0.1390
  166TCq2    C3 2529   2.831   2.586   1.251 -0.0269 -0.1247 -0.3232
  166TCq2    C4 2530   2.933   2.682   1.238  0.4627 -0.1463  0.3553
  166TCq2    C5 2531   3.049   2.649   1.172  0.2683 -0.0816  0.1499
  166TCq2    C6 2532   3.055   2.525   1.121 -0.2999 -0.2140 -0.1888
  166TCq2    C7 2533   2.979   2.422   1.163 -0.5745  0.4069  0.4926
  166TCq2    C8 2534   3.172   2.486   1.047  0.3270  0.1951  0.0427
  166TCq2    O4 2535   3.209   2.369   1.058  0.3172  0.6126  0.0277
  166TCq2    C9 2536   2.913   2.813   1.290  0.0072  0.0146 -0.6968
  166TCq2    O5 2537   2.828   2.826   1.380  0.3983 -0.1637 -0.5047
  166TCq2    O6 2538   3.019   2.883   1.290  0.1776 -0.4523  0.0670
  166TCq2    H2 2539   2.738   2.615   1.298  0.0132 -3.2089  1.6366
  166TCq2    H3 2540   3.118   2.730   1.153 -0.6657  1.0659  1.6593
  166TCq2    H4 2541   3.014   2.324   1.135 -0.6604  0.8800 -1.2779
  167TMC2    C1 2542   0.380   4.252  12.400  0.9197  0.0073 -0.4095
  167TMC2    C2 2543   0.247   4.258  12.426 -0.0677  0.4854  0.2082
  167TMC2    C3 2544   0.186   4.145  12.475  0.2439  0.7364 -0.5480
  167TMC2    C4 2545   0.456   4.137  12.400 -0.0522  0.7693  0.1877
  167TMC2    C5 2546   0.389   4.023  12.449  0.1193 -0.4520  0.0074
  167TMC2    C6 2547   0.254   4.026  12.481  0.4565  0.1088 -0.2903
  167TMC2     C 2548   0.453   4.380  12.398 -0.4434  0.5451 -0.2236
  167TMC2     O 2549   0.393   4.465  12.462 -0.3681 -0.1853  0.9255
  167TMC2     H 2550   0.196   4.353  12.412 -0.8535  0.0868  0.3369
  167TMC2    H1 2551   0.563   4.142  12.390 -0.0471  0.5129  0.0908
  167TMC2    H2 2552   0.212   3.927  12.486  0.9319 -0.0883 -0.1538
  167TMC2    C7 2553   0.458   3.896  12.483 -0.1513  0.1653 -0.0145
  167TMC2    C8 2554   0.050   4.149  12.441  0.8466 -0.2850  0.2768
  167TMC2    O1 2555   0.406   3.826  12.567  0.0607 -0.0262  0.3300
  167TMC2    O2 2556   0.013   4.213  12.339  0.0914 -0.6752  0.3624
  167TMC2    O5 2557   4.719   4.037  12.491  0.5367  0.0681  0.5454
  167TMC2    H5 2558   0.049   4.012  12.571  0.6512  1.9130  1.0505
  168MPD2     C 2559   0.650   4.615  12.403 -0.3311  0.1789 -0.1716
  168MPD2    C1 2560   0.663   4.497  12.329  0.1870  0.3381  0.6729
  168MPD2    C2 2561   0.770   4.491  12.240 -0.1638 -0.7949 -0.0251
  168MPD2    C3 2562   0.855   4.600  12.219  0.0832 -0.0441  0.3710
  168MPD2    C4 2563   0.838   4.712  12.296  0.0635 -0.8658 -0.0160
  168MPD2    C5 2564   0.739   4.715  12.393  0.3584  0.2119  0.5116
  168MPD2     H 2565   0.784   4.399  12.184  2.2208  0.4137 -1.3833
  168MPD2    H1 2566   0.892   0.082  12.273  1.5390 -2.2552 -2.1112
  168MPD2    H2 2567   0.576   4.620  12.482  0.4791 -0.1141  0.6091
  168MPD2    H3 2568   0.714   0.079  12.455 -0.5776  1.0011 -0.9428
  168MPD2     N 2569   0.949   4.609  12.112  0.5055  0.3810 -0.3161
  168MPD2    H5 2570   1.009   4.691  12.106  0.7973  0.2640  1.1627
  168MPD2    N1 2571   0.578   4.382  12.338  1.1481  0.0007  0.2693
  168MPD2    H7 2572   0.602   4.297  12.288 -1.0222 -0.2563 -0.3571
  169MPD1     C 2573   2.508   4.261   9.124  0.0765  0.0910  0.4816
  169MPD1    C1 2574   2.642   4.235   9.105  0.0023  0.4151 -0.2433
  169MPD1    C2 2575   2.696   4.110   9.134  0.0889 -0.3119  0.4933
  169MPD1    C3 2576   2.618   4.022   9.209  0.9404 -0.3630 -0.1403
  169MPD1    C4 2577   2.493   4.062   9.254 -0.0282 -0.2606  0.0744
  169MPD1    C5 2578   2.434   4.175   9.200 -0.1850  0.2090  0.4862
  169MPD1     H 2579   2.800   4.090   9.114 -0.1482  0.5912 -1.5989
  169MPD1    H1 2580   2.426   4.009   9.321 -0.3329 -2.4115 -1.9357
  169MPD1    H2 2581   2.458   4.348   9.082 -2.1252 -1.3303  0.2066
  169MPD1    H3 2582   2.328   4.184   9.220 -0.7653 -1.8523 -1.5531
  169MPD1     N 2583   2.688   3.907   9.259 -0.1461 -0.0103 -0.2641
  169MPD1    H5 2584   2.772   3.876   9.212  0.6194  0.9467  0.4847
  169MPD1    N1 2585   2.717   4.331   9.032  0.0211 -0.3597 -0.6360
  169MPD1    H6 2586   2.691   4.428   9.051 -1.2696 -0.6135 -1.0509
  169MPD1    H7 2587   2.818   4.321   9.039  0.1792  0.7537 -1.2661
  170MPD1     C 2588   1.012   2.086  12.730 -0.7521  0.0337 -0.1472
  170MPD1    C1 2589   1.054   2.207  12.769 -0.6105  0.1540 -0.6739
  170MPD1    C2 2590   1.113   2.224  12.892 -0.4601  0.6152 -0.3152
  170MPD1    C3 2591   1.130   2.110  12.975 -0.6040  0.5979 -0.3989
  170MPD1    C4 2592   1.098   1.986  12.927 -0.4967 -1.0041 -0.3400
  170MPD1    C5 2593   1.044   1.975  12.802 -0.3542  0.3194  0.1970
  170MPD1     H 2594   1.148   2.322  12.923 -0.3649  0.5281 -0.1450
  170MPD1    H1 2595   1.141   1.903  12.982 -0.1632 -1.0430 -0.6613
  170MPD1    H2 2596   0.971   2.062  12.632 -0.1846 -0.0901 -0.3592
  170MPD1    H3 2597   1.024   1.877  12.759 -0.9589  0.7132 -0.4236
  170MPD1     N 2598   1.200   2.128  13.096 -0.2900 -0.5746 -0.3942
  170MPD1    H5 2599   1.219   2.225  13.121 -1.1390 -0.7813  1.0650
  170MPD1    N1 2600   1.049   2.310  12.672  0.0671  0.0162 -0.5346
  170MPD1    H6 2601   1.020   2.400  12.709  0.3580  0.3637 -1.1646
  170MPD1    H7 2602   0.993   2.287  12.591  0.8700 -0.1963 -1.0226
  171MPD1     C 2603   0.074   2.909  15.348  0.5617 -0.1488 -0.5624
  171MPD1    C1 2604   0.135   2.833  15.251  0.4435 -0.1474  0.0837
  171MPD1    C2 2605   0.194   2.711  15.288  0.0773 -0.4664  0.2785
  171MPD1    C3 2606   0.206   2.680  15.418  0.4937 -0.0432 -0.1549
  171MPD1    C4 2607   0.152   2.762  15.511 -0.2844  0.1215  0.3615
  171MPD1    C5 2608   0.080   2.873  15.480 -0.6563 -0.4211  0.1843
  171MPD1     H 2609   0.223   2.644  15.208  0.6039 -0.8176  0.7630
  171MPD1    H1 2610   0.167   2.745  15.617 -0.3008  2.4809  0.7416
  171MPD1    H2 2611   0.019   2.997  15.318 -0.3816 -0.6548 -0.3343
  171MPD1    H3 2612   0.022   2.937  15.544  0.0287 -0.1335  0.5211
  171MPD1     N 2613   0.281   2.562  15.466 -0.5480  0.4034 -0.5345
  171MPD1    H5 2614   0.286   2.556  15.567 -0.6443 -0.9629 -0.6060
  171MPD1    N1 2615   0.116   2.859  15.111 -0.4104  0.1336  0.6895
  171MPD1    H6 2616   0.201   2.834  15.062 -1.3537 -1.4194 -0.1583
  171MPD1    H7 2617   0.079   2.949  15.082  1.0708  0.8428  1.0172
  172MPD1     C 2618   0.155   1.800  17.418 -0.3647  0.6458 -0.1772
  172MPD1    C1 2619   0.165   1.891  17.316  0.2879 -0.1648 -0.0620
  172MPD1    C2 2620   0.192   2.021  17.351 -0.8375  0.0337  0.7522
  172MPD1    C3 2621   0.211   2.068  17.481  0.9820  0.3987  0.0737
  172MPD1    C4 2622   0.203   1.968  17.576  0.1544 -0.7216  0.2902
  172MPD1    C5 2623   0.181   1.835  17.547 -0.1024  0.6526  0.7366
  172MPD1     H 2624   0.190   2.098  17.275  0.0078  0.9009  1.6093
  172MPD1    H1 2625   0.223   2.001  17.677 -2.0333  1.4361  0.0459
  172MPD1    H2 2626   0.128   1.696  17.400  2.0284 -0.1095  0.5853
  172MPD1    H3 2627   0.164   1.766  17.629 -0.3512 -0.1255  0.0276
  172MPD1     N 2628   0.225   2.201  17.518 -0.1965 -0.1868  0.2447
  172MPD1    H5 2629   0.240   2.212  17.618 -0.3916 -0.7248  0.3354
  172MPD1    N1 2630   0.122   1.848  17.190  0.6993 -1.0627  0.5958
  172MPD1    H6 2631   0.134   1.748  17.175  0.8548 -0.3799 -3.8503
  172MPD1    H7 2632   0.157   1.897  17.109  0.3394 -2.0585 -0.1696
  173MPD1     C 2633   0.524   2.049  13.632 -0.6015  0.0045 -0.2867
  173MPD1    C1 2634   0.661   2.017  13.628 -0.1461 -0.2928 -0.5831
  173MPD1    C2 2635   0.706   1.937  13.728  0.7291 -0.4876 -0.1177
  173MPD1    C3 2636   0.629   1.876  13.819  0.2490 -0.2296  0.4769
  173MPD1    C4 2637   0.491   1.886  13.804 -0.6687 -0.1241 -0.1705
  173MPD1    C5 2638   0.437   1.974  13.715 -0.0548  0.1158  0.2924
  173MPD1     H 2639   0.813   1.921  13.744  0.5901 -0.4554  0.8271
  173MPD1    H1 2640   0.423   1.837  13.872  0.3166  1.7453  2.1481
  173MPD1    H2 2641   0.480   2.122  13.565  0.5389 -1.0111 -2.1184
  173MPD1    H3 2642   0.330   1.989  13.703  0.3353  2.0799 -0.6187
  173MPD1     N 2643   0.683   1.799  13.930 -0.0475  0.1163  0.2882
  173MPD1    H5 2644   0.784   1.801  13.935  0.0625 -2.6038 -0.7475
  173MPD1    N1 2645   0.751   2.095  13.552  0.0949  0.4232  0.6123
  173MPD1    H6 2646   0.701   2.133  13.471  2.4451 -0.5537 -1.3009
  173MPD1    H7 2647   0.831   2.037  13.525  1.7236  2.5688  0.7734
  174MPD1     C 2648   1.523   1.642  14.447 -0.1654 -0.2508 -0.6791
  174MPD1    C1 2649   1.478   1.735  14.354  0.1293 -0.6816 -0.7066
  174MPD1    C2 2650   1.350   1.716  14.311 -0.5041  0.0051 -0.2207
  174MPD1    C3 2651   1.276   1.606  14.339  0.3233  0.4061 -0.2149
  174MPD1    C4 2652   1.321   1.510  14.430 -0.0359 -0.0450 -0.3150
  174MPD1    C5 2653   1.449   1.534  14.476 -0.1210 -0.0734  0.0677
  174MPD1     H 2654   1.299   1.784  14.244  0.0946 -0.2464 -0.9328
  174MPD1    H1 2655   1.278   1.411  14.444  2.2180 -0.6741  2.0349
  174MPD1    H2 2656   1.620   1.659  14.493  0.9702  0.0276 -3.1469
  174MPD1    H3 2657   1.489   1.454  14.538  2.0761 -0.2106 -1.5439
  174MPD1     N 2658   1.150   1.589  14.288 -0.2547 -0.3618 -0.2645
  174MPD1    H5 2659   1.096   1.507  14.315 -0.9457 -0.8691 -3.2008
  174MPD1    N1 2660   1.558   1.842  14.327 -0.6412  0.4157  0.0889
  174MPD1    H6 2661   1.556   1.839  14.225 -1.2444  0.6834  0.0891
  174MPD1    H7 2662   1.654   1.823  14.355 -1.3348 -1.2982  1.2783
  175MPD1     C 2663   3.897   2.620  15.499 -0.0986 -0.4351  0.3302
  175MPD1    C1 2664   4.018   2.636  15.565  0.1853 -0.6440 -0.1592
  175MPD1    C2 2665   4.011   2.681  15.694 -0.6818  0.6606 -0.6515
  175MPD1    C3 2666   3.886   2.690  15.757  0.6079  0.5317  0.2489
  175MPD1    C4 2667   3.769   2.668  15.687  0.5087 -0.9247 -0.3718
  175MPD1    C5 2668   3.772   2.634  15.550 -0.6628 -0.1132  0.4359
  175MPD1     H 2669   4.104   2.714  15.740 -0.7168 -1.4099  0.8942
  175MPD1    H1 2670   3.673   2.665  15.738  1.5986  0.7291  1.7802
  175MPD1    H2 2671   3.901   2.588  15.395  2.7761 -1.8322  0.8444
  175MPD1    H3 2672   3.678   2.609  15.503 -1.1840  0.3666  1.2190
  175MPD1     N 2673   3.869   2.727  15.894 -0.3050  0.0268 -0.3040
  175MPD1    H5 2674   3.775   2.735  15.930 -0.0342 -0.0179  0.4130
  175MPD1    N1 2675   4.141   2.638  15.499  0.1863 -0.0265  0.5696
  175MPD1    H6 2676   4.222   2.636  15.561  0.3632  1.0813  0.3773
  175MPD1    H7 2677   4.146   2.550  15.448  0.3541 -0.0050  0.5470
  176MPD1     C 2678   1.178   4.268  16.049  0.6113  0.2854 -0.2576
  176MPD1    C1 2679   1.223   4.234  16.175  0.6124  0.6826  0.0865
  176MPD1    C2 2680   1.152   4.293  16.278  0.4126  0.9523 -0.3124
  176MPD1    C3 2681   1.032   4.365  16.265 -0.1400 -0.2639  0.3332
  176MPD1    C4 2682   0.988   4.386  16.136  0.2438  1.1111 -0.1563
  176MPD1    C5 2683   1.059   4.335  16.029 -0.7377  0.4355 -0.2178
  176MPD1     H 2684   1.188   4.264  16.376 -2.0386  1.4534  0.7410
  176MPD1    H1 2685   0.886   4.420  16.125 -0.5023 -0.8970  0.5430
  176MPD1    H2 2686   1.227   4.230  15.960 -0.7831  0.3552 -1.0517
  176MPD1    H3 2687   1.030   4.339  15.925  1.4943 -0.5469 -0.8818
  176MPD1     N 2688   0.966   4.398  16.391  0.0687 -0.2182 -0.4753
  176MPD1    H5 2689   1.017   4.356  16.467 -0.8120  2.0567  1.3746
  176MPD1    N1 2690   1.352   4.186  16.194  0.2446 -0.1670 -0.4747
  176MPD1    H6 2691   1.371   4.160  16.291  1.7938 -1.4008 -1.1200
  176MPD1    H7 2692   1.389   4.114  16.133 -1.2522  0.0901 -1.7128
  177MPD1     C 2693   4.516   0.904  10.152  0.1412  0.2731  0.4759
  177MPD1    C1 2694   4.475   0.953  10.030 -0.5551  0.7762 -0.5369
  177MPD1    C2 2695   4.381   0.879   9.958 -0.1540 -0.2620 -0.1799
  177MPD1    C3 2696   4.345   0.751   9.993 -0.0483  0.4091 -0.0793
  177MPD1    C4 2697   4.394   0.696  10.111  0.0493 -0.6458 -0.1185
  177MPD1    C5 2698   4.483   0.776  10.189  0.9194 -1.3577 -0.4153
  177MPD1     H 2699   4.339   0.916   9.865  1.9157 -0.7286 -1.2964
  177MPD1    H1 2700   4.388   0.597  10.155 -1.2931  0.2131  1.5792
  177MPD1    H2 2701   4.581   0.964  10.215 -0.1231 -0.0589  1.0657
  177MPD1    H3 2702   4.515   0.734  10.283 -3.0060 -0.2128  1.4160
  177MPD1     N 2703   4.265   0.670   9.906 -0.1970 -0.4112 -0.4465
  177MPD1    H5 2704   4.239   0.707   9.815  3.3728  0.9877 -0.8708
  177MPD1    N1 2705   4.511   1.083   9.994 -0.4123 -0.4896  0.2187
  177MPD1    H6 2706   4.606   1.100  10.026 -1.2573  3.0100  0.8626
  177MPD1    H7 2707   4.521   1.100   9.894  1.4951  1.7353  0.7786
  178MPD1     C 2708   1.442   0.822  17.673  0.0879 -0.0682 -1.0120
  178MPD1    C1 2709   1.360   0.809  17.564  0.4573  0.5678  1.0366
  178MPD1    C2 2710   1.408   0.829  17.436  0.0596 -0.9172  0.5511
  178MPD1    C3 2711   1.544   0.860  17.421  0.1863  0.2393  0.0433
  178MPD1    C4 2712   1.625   0.878  17.533 -0.8119 -0.4149  0.8659
  178MPD1    C5 2713   1.574   0.857  17.663 -0.3294 -0.8323  0.0815
  178MPD1     H 2714   1.333   0.830  17.358 -2.3797  2.8186  2.9253
  178MPD1    H1 2715   1.726   0.917  17.528 -2.2268  2.9049 -1.2074
  178MPD1    H2 2716   1.405   0.816   0.087  0.2809  0.5785 -0.9006
  178MPD1    H3 2717   1.632   0.880   0.063  0.4090 -0.9443 -0.3789
  178MPD1     N 2718   1.607   0.881  17.301  0.1996  0.2089  0.2797
  178MPD1    H5 2719   1.708   0.874  17.305  0.1512  0.5218  1.7965
  178MPD1    N1 2720   1.221   0.776  17.584 -0.0090  0.2445  0.5197
  178MPD1    H6 2721   1.158   0.856  17.574 -3.0207 -2.2700 -0.3650
  178MPD1    H7 2722   1.200   0.764  17.683 -0.0962 -1.0977  0.3337
  179MPD1     C 2723   1.809   3.684  15.177 -0.7098  0.2039 -0.3361
  179MPD1    C1 2724   1.710   3.645  15.086  0.5239  0.6071 -0.3006
  179MPD1    C2 2725   1.595   3.578  15.133 -0.5986  0.1327  0.1682
  179MPD1    C3 2726   1.563   3.563  15.264  0.3842  0.5251  1.3388
  179MPD1    C4 2727   1.652   3.610  15.356 -0.5198 -0.1355 -0.1127
  179MPD1    C5 2728   1.774   3.671  15.312  0.3470 -0.4763  0.2698
  179MPD1     H 2729   1.530   3.535  15.057  1.9635 -3.1564 -0.1469
  179MPD1    H1 2730   1.624   3.610  15.461  2.5673  1.2325  0.7103
  179MPD1    H2 2731   1.898   3.739  15.148  0.3526 -1.2451  0.1882
  179MPD1    H3 2732   1.846   3.714  15.381 -0.3202  0.2263  0.5339
  179MPD1     N 2733   1.445   3.508  15.317 -0.3871 -0.2171 -0.4642
  179MPD1    H5 2734   1.446   3.484  15.415  1.8850  1.1817 -0.1218
  179MPD1    N1 2735   1.746   3.640  14.948  0.1901  0.2233  0.1445
  179MPD1    H6 2736   1.674   3.660  14.878  1.7386  1.3876 -1.0946
  179MPD1    H7 2737   1.810   3.715  14.924  1.1723 -0.6103  0.1590
  180MPD1     C 2738   0.922   0.746  15.186  0.7971 -0.1154  0.4989
  180MPD1    C1 2739   1.045   0.739  15.127  0.7850  0.5597  0.1423
  180MPD1    C2 2740   1.059   0.661  15.013 -0.5647  0.2812  0.0708
  180MPD1    C3 2741   0.950   0.590  14.965  0.6967  0.0777  0.2346
  180MPD1    C4 2742   0.833   0.588  15.035 -0.2923  0.0759 -0.2111
  180MPD1    C5 2743   0.824   0.663  15.144 -0.5653  0.5007  0.0898
  180MPD1     H 2744   1.146   0.674  14.950 -2.5739 -0.0405 -2.7926
  180MPD1    H1 2745   0.753   0.522  15.002  0.2837 -0.5784 -0.2945
  180MPD1    H2 2746   0.896   0.810  15.269 -1.7953  0.0698 -0.4396
  180MPD1    H3 2747   0.729   0.681  15.194 -0.9325 -0.8180 -0.1329
  180MPD1     N 2748   0.959   0.527  14.837 -0.2797  0.4680 -0.5446
  180MPD1    H5 2749   1.051   0.529  14.795  0.2844  2.6131  0.8179
  180MPD1    N1 2750   1.147   0.825  15.158 -0.6906 -0.0846 -0.0299
  180MPD1    H6 2751   1.146   0.853  15.256 -1.1927 -1.8560  0.4785
  180MPD1    H7 2752   1.232   0.773  15.136 -1.2815  0.4622 -3.5590
  181MPD1     C 2753   2.657   1.525   9.916 -0.4442 -0.1486 -1.1193
  181MPD1    C1 2754   2.666   1.646   9.984  0.2160  0.5792  0.0063
  181MPD1    C2 2755   2.763   1.735   9.947 -0.3282 -0.1691 -0.1676
  181MPD1    C3 2756   2.857   1.715   9.842 -0.1671 -0.3701  0.3683
  181MPD1    C4 2757   2.851   1.594   9.784  0.2524  0.0823  0.3238
  181MPD1    C5 2758   2.750   1.507   9.814 -0.2356 -0.8341  0.2030
  181MPD1     H 2759   2.751   1.833   9.992  1.5528  1.0106 -2.2161
  181MPD1    H1 2760   2.922   1.569   9.707  0.4611  2.5433 -0.3081
  181MPD1    H2 2761   2.579   1.452   9.935 -1.2991  0.4270 -2.3388
  181MPD1    H3 2762   2.752   1.415   9.757 -1.0509 -1.2452  0.8361
  181MPD1     N 2763   2.956   1.811   9.810  0.3201  0.7979  0.7130
  181MPD1    H5 2764   3.022   1.777   9.741  0.0298  0.5657  0.5503
  181MPD1    N1 2765   2.567   1.680  10.077 -0.1240  0.3149 -0.4562
  181MPD1    H6 2766   2.611   1.747  10.140  3.8089 -0.0042 -2.8360
  181MPD1    H7 2767   2.537   1.600  10.132 -1.0400  0.6824 -0.4229
  182MPD1     C 2768   0.347   1.074   1.592 -0.1071 -0.5765 -0.3121
  182MPD1    C1 2769   0.271   1.153   1.679 -0.3916 -0.3149  0.9404
  182MPD1    C2 2770   0.157   1.216   1.630  0.8627  0.1221  0.0931
  182MPD1    C3 2771   0.136   1.215   1.492  0.6894  0.0206  0.4087
  182MPD1    C4 2772   0.212   1.149   1.407  0.4673 -0.0228 -0.1171
  182MPD1    C5 2773   0.323   1.085   1.457 -0.6566 -0.0647 -0.0141
  182MPD1     H 2774   0.094   1.278   1.692  1.2421 -0.6774  1.2796
  182MPD1    H1 2775   0.195   1.150   1.300 -0.5639  0.1380  0.0458
  182MPD1    H2 2776   0.437   1.021   1.620 -0.1595 -1.3551 -1.6210
  182MPD1    H3 2777   0.392   1.028   1.395 -1.1810 -0.4276 -0.2579
  182MPD1     N 2778   0.023   1.282   1.435  0.2954  0.1988  0.2074
  182MPD1    H5 2779   0.007   1.267   1.336  0.0990  0.9411  0.1234
  182MPD1    N1 2780   0.294   1.140   1.814 -0.1391  0.4960  0.3515
  182MPD1    H6 2781   0.254   1.218   1.866 -0.3180 -0.1531  1.1908
  182MPD1    H7 2782   0.393   1.126   1.836 -0.0781  0.7115  0.2079
  183MPD1     C 2783   0.087   2.655   9.606 -0.4242  0.7710 -0.7264
  183MPD1    C1 2784   0.023   2.538   9.640 -0.2836  0.1214  0.3193
  183MPD1    C2 2785   4.621   2.516   9.586 -0.4574  0.1694  0.0199
  183MPD1    C3 2786   4.546   2.608   9.520 -0.4845 -0.3133  0.3847
  183MPD1    C4 2787   4.611   2.726   9.486  0.2384 -0.2919  0.3722
  183MPD1    C5 2788   0.013   2.746   9.528 -0.1952 -0.4593 -0.0928
  183MPD1     H 2789   4.586   2.413   9.593 -0.0315  0.0264  0.0426
  183MPD1    H1 2790   4.572   2.804   9.421 -1.6722 -0.5694  1.1916
  183MPD1    H2 2791   0.187   2.678   9.640 -0.3052 -2.5283  1.1791
  183MPD1    H3 2792   0.070   2.830   9.490 -1.8216  0.8108  0.2379
  183MPD1     N 2793   4.412   2.577   9.485  0.1330  0.2644  0.2253
  183MPD1    H5 2794   4.378   2.493   9.531 -0.8461  0.9838  0.7998
  183MPD1    N1 2795   0.088   2.430   9.701  0.2296  0.3236 -0.3101
  183MPD1    H6 2796   0.160   2.461   9.766 -0.2252 -2.9145  1.7737
  183MPD1    H7 2797   0.038   2.363   9.760 -1.5354 -0.1867 -2.3968
  184MPD1     C 2798   2.443   4.300   9.910 -1.0893 -0.3491 -0.0037
  184MPD1    C1 2799   2.571   4.267   9.871 -0.2362  0.5207  0.2469
  184MPD1    C2 2800   2.640   4.364   9.802 -0.1622  0.1379  0.0950
  184MPD1    C3 2801   2.593   4.495   9.783 -0.3398 -0.0282 -0.7799
  184MPD1    C4 2802   2.466   4.524   9.829 -0.6808  0.8556  0.5322
  184MPD1    C5 2803   2.394   4.427   9.896 -0.5355 -0.3917  0.2112
  184MPD1     H 2804   2.734   4.340   9.751  0.2498 -2.3505  1.9932
  184MPD1    H1 2805   2.419   4.621   9.819 -0.2441  0.9669 -0.4781
  184MPD1    H2 2806   2.382   4.219   9.949 -0.5132 -0.9135 -0.2702
  184MPD1    H3 2807   2.294   4.444   9.934 -2.0940 -1.9396 -3.1437
  184MPD1     N 2808   2.665   4.598   9.721  0.3792 -0.2803  0.4485
  184MPD1    H5 2809   2.615   4.684   9.701  0.4545 -0.1357  0.8867
  184MPD1    N1 2810   2.607   4.131   9.864 -0.8012 -0.0193  0.7822
  184MPD1    H6 2811   2.707   4.116   9.875 -0.0826  2.1701 -2.8174
  184MPD1    H7 2812   2.559   4.076   9.934  2.1825 -1.0847  2.0070
  185MPD1     C 2813   2.724   0.482   8.944  0.5012  0.1510  0.2458
  185MPD1    C1 2814   2.662   0.366   8.969  0.0768  0.1769 -0.3307
  185MPD1    C2 2815   2.704   0.299   9.076  0.2338  0.0780 -0.5782
  185MPD1    C3 2816   2.809   0.334   9.154 -0.5530 -0.0646 -0.2057
  185MPD1    C4 2817   2.862   0.464   9.139 -0.2225 -0.2387 -0.0769
  185MPD1    C5 2818   2.814   0.536   9.035 -0.3221  0.7271 -0.2451
  185MPD1     H 2819   2.646   0.211   9.104  1.0990 -0.2528  0.1689
  185MPD1    H1 2820   2.945   0.499   9.199  0.4671  1.5568 -2.0687
  185MPD1    H2 2821   2.685   0.537   8.859  1.9316 -0.1339 -0.6033
  185MPD1    H3 2822   2.865   0.622   8.994  1.6850  0.2147  1.1624
  185MPD1     N 2823   2.856   0.251   9.260 -0.3884  0.3095  0.1225
  185MPD1    H5 2824   2.938   0.277   9.312 -1.6813  0.9018  1.8665
  185MPD1    N1 2825   2.546   0.318   8.895 -0.3064 -0.5134 -0.3425
  185MPD1    H6 2826   2.532   0.218   8.907 -2.0249 -0.0176  1.6866
  185MPD1    H7 2827   2.550   0.333   8.794  1.7191 -1.8503 -0.4657
  186MPD1     C 2828   2.148   3.651  15.458  0.5753 -0.3073 -0.6099
  186MPD1    C1 2829   2.110   3.609  15.584  0.0680 -0.1821  0.1505
  186MPD1    C2 2830   2.033   3.685  15.664 -0.0912  0.2430 -0.3270
  186MPD1    C3 2831   1.997   3.815  15.618 -0.5524 -0.4213  0.1641
  186MPD1    C4 2832   2.050   3.857  15.500 -0.1933  0.7578  0.0241
  186MPD1    C5 2833   2.133   3.777  15.421 -0.4390  0.3051  0.5328
  186MPD1     H 2834   2.002   3.642  15.759 -1.7713 -0.9870 -1.4214
  186MPD1    H1 2835   2.035   3.961  15.473 -0.7572  0.1830 -1.9244
  186MPD1    H2 2836   2.208   3.585  15.396 -0.2088 -1.4365 -0.1645
  186MPD1    H3 2837   2.178   3.815  15.330  1.5219 -1.3054  0.8157
  186MPD1     N 2838   1.917   3.900  15.697  0.5811 -0.3851  0.0767
  186MPD1    H5 2839   1.902   3.999  15.678 -1.4220 -0.5815  0.6777
  186MPD1    N1 2840   2.127   3.479  15.629  0.2794 -0.1715 -0.1932
  186MPD1    H6 2841   2.149   3.476  15.728  2.2085 -2.4401 -0.6892
  186MPD1    H7 2842   2.200   3.430  15.577  1.9870  1.5476  0.5941
  187MPD1     C 2843   1.055   0.322   0.215 -0.1244  0.4044  0.0742
  187MPD1    C1 2844   0.933   0.313   0.151 -0.3325 -0.1986  0.5183
  187MPD1    C2 2845   0.914   0.372   0.031 -0.2126 -0.4407 -0.2210
  187MPD1    C3 2846   1.012   0.454  17.666 -0.6318  0.0361 -0.4438
  187MPD1    C4 2847   1.132   0.476   0.046 -0.0306 -0.2763  0.1794
  187MPD1    C5 2848   1.151   0.413   0.175  0.2946  0.4241 -0.1197
  187MPD1     H 2849   0.820   0.367  17.665 -0.7727 -0.0603  0.7162
  187MPD1    H1 2850   1.211   0.539   0.008 -0.7324  0.1935 -0.4908
  187MPD1    H2 2851   1.074   0.278   0.312  0.1899  1.0392  0.3005
  187MPD1    H3 2852   1.246   0.421   0.226 -0.0544 -1.7581  0.8810
  187MPD1     N 2853   1.001   0.515  17.539  0.5666 -0.2099  0.1215
  187MPD1    H5 2854   1.059   0.596  17.518  0.0766  0.0495 -0.2640
  187MPD1    N1 2855   0.851   0.215   0.202 -0.6903  0.9438  0.0752
  187MPD1    H6 2856   0.850   0.233   0.302 -0.1380 -1.8027  0.5785
  187MPD1    H7 2857   0.752   0.227   0.181 -1.0065 -1.6032  0.1026
  188MPD1     C 2858   0.639   1.779   9.998 -0.0183 -0.3440  0.3989
  188MPD1    C1 2859   0.551   1.779   9.896 -0.4158 -0.3596  0.1936
  188MPD1    C2 2860   0.507   1.660   9.849  0.2711  0.7927  0.2385
  188MPD1    C3 2861   0.546   1.536   9.897  0.5772  0.3153  0.1207
  188MPD1    C4 2862   0.631   1.542  10.007  1.1878 -0.1196  0.1352
  188MPD1    C5 2863   0.678   1.665  10.057 -0.5255  0.8445 -0.1396
  188MPD1     H 2864   0.442   1.672   9.762  0.0922  0.4874  0.3279
  188MPD1    H1 2865   0.677   1.455  10.053  1.1641  0.5359  1.3814
  188MPD1    H2 2866   0.661   1.875  10.043 -0.3555  0.0124 -0.1872
  188MPD1    H3 2867   0.749   1.662  10.140 -1.1951 -0.5557  0.3736
  188MPD1     N 2868   0.509   1.407   9.854 -0.1419  0.0069  0.3884
  188MPD1    H5 2869   0.557   1.328   9.896 -0.1158 -0.3346 -0.2749
  188MPD1    N1 2870   0.510   1.896   9.833 -0.1832 -0.5704 -0.2593
  188MPD1    H6 2871   0.426   1.889   9.776 -0.7475 -1.8207  0.7051
  188MPD1    H7 2872   0.511   1.979   9.892 -0.3283 -0.8835  0.1862
  189MPD1     C 2873   2.617   1.296   0.074 -0.7880  0.2224 -0.2212
  189MPD1    C1 2874   2.510   1.218   0.120 -0.6764  1.0535  0.0482
  189MPD1    C2 2875   2.390   1.280   0.142  0.0616 -0.2310  1.4480
  189MPD1    C3 2876   2.370   1.410   0.102  0.0438 -0.2543  0.7797
  189MPD1    C4 2877   2.477   1.476   0.058 -0.0953 -0.0209 -0.1787
  189MPD1    C5 2878   2.596   1.417   0.027 -0.3862 -0.3561  0.1907
  189MPD1     H 2879   2.305   1.234   0.192 -0.0083 -1.6826 -0.0134
  189MPD1    H1 2880   2.462   1.578   0.025 -1.3350  0.3672  1.5965
  189MPD1    H2 2881   2.715   1.251   0.058  0.3394  2.9984 -1.0913
  189MPD1    H3 2882   2.683   1.476   0.001 -0.6924  0.1496  0.3094
  189MPD1     N 2883   2.240   1.469   0.105  0.1247 -0.0144  0.0764
  189MPD1    H5 2884   2.167   1.408   0.141 -0.8109  0.3706 -1.1592
  189MPD1    N1 2885   2.544   1.093   0.180 -0.1875  0.0911 -0.4114
  189MPD1    H6 2886   2.472   1.022   0.174  0.9538 -0.8623 -2.8840
  189MPD1    H7 2887   2.625   1.058   0.129  1.0774  2.9725 -0.3354
  190MPD1     C 2888   1.507   4.354  15.927 -0.9578 -0.7689  0.6032
  190MPD1    C1 2889   1.453   4.477  15.960  0.3513 -0.0392 -0.0298
  190MPD1    C2 2890   1.470   4.582  15.874  0.4441 -0.1083  0.1508
  190MPD1    C3 2891   1.520   4.567  15.745 -0.7379 -0.0779 -0.7792
  190MPD1    C4 2892   1.560   4.442  15.716  0.2543 -0.2573 -0.2243
  190MPD1    C5 2893   1.566   4.343  15.807 -0.0643 -0.1235  0.0749
  190MPD1     H 2894   1.427   4.676  15.907  0.6524  0.6943 -1.8170
  190MPD1    H1 2895   1.606   4.423  15.619  0.0070 -2.3037  0.0635
  190MPD1    H2 2896   1.503   4.268  15.993  1.9989  0.2866  2.1378
  190MPD1    H3 2897   1.599   4.244  15.778  3.6896  0.3155  2.9085
  190MPD1     N 2898   1.517   4.673  15.661 -0.3097 -0.0786  0.1049
  190MPD1    H5 2899   1.486   0.039  15.701  0.9422  0.4466 -0.0736
  190MPD1    N1 2900   1.400   4.497  16.087 -0.5299 -0.4519  0.0515
  190MPD1    H6 2901   1.342   4.581  16.090  0.3820  0.2398 -1.3601
  190MPD1    H7 2902   1.342   4.417  16.114 -1.4378 -0.2525 -1.3212
  191MPD1     C 2903   0.033   2.536  12.819 -0.7617  0.1494  0.3638
  191MPD1    C1 2904   4.685   2.613  12.725 -0.3490  0.0680 -0.1579
  191MPD1    C2 2905   0.041   2.683  12.633  0.1215 -0.2088 -0.2143
  191MPD1    C3 2906   0.173   2.661  12.621 -0.4789 -1.1681 -0.0917
  191MPD1    C4 2907   0.244   2.577  12.703 -0.5108  0.1743  0.1438
  191MPD1    C5 2908   0.169   2.528  12.808  0.5189  0.2032  0.2293
  191MPD1     H 2909   4.702   2.751  12.574 -0.2772 -1.3266 -1.0764
  191MPD1    H1 2910   0.351   2.559  12.697 -0.5483  0.0003 -0.0110
  191MPD1    H2 2911   4.702   2.477  12.893 -0.3118 -1.0457 -0.2708
  191MPD1    H3 2912   0.231   2.471  12.876 -0.5466 -1.5102 -0.2332
  191MPD1     N 2913   0.229   2.733  12.513  0.2387  0.3919 -0.4662
  191MPD1    H5 2914   0.158   2.760  12.445 -1.8674 -0.7207  1.3088
  191MPD1    N1 2915   4.540   2.629  12.729 -0.4400  0.3450 -0.7206
  191MPD1    H6 2916   4.502   2.651  12.637 -0.4342 -2.8928 -1.5185
  191MPD1    H7 2917   4.486   2.555  12.774 -1.3365  0.7003 -1.2123
  192MPD1     C 2918   0.013   2.913  11.577  0.1951 -0.0476  0.3445
  192MPD1    C1 2919   4.701   2.831  11.679 -1.0419 -0.0951  0.0562
  192MPD1    C2 2920   0.046   2.839  11.799  0.1901 -0.8668 -0.5082
  192MPD1    C3 2921   0.149   2.927  11.815  0.1787 -0.0260  0.2104
  192MPD1    C4 2922   0.175   3.020  11.716 -0.0420 -0.1814 -0.0749
  192MPD1    C5 2923   0.103   3.015  11.598  0.2418 -0.3408  0.2137
  192MPD1     H 2924   0.013   2.770  11.876  1.1025  0.4987  1.1291
  192MPD1    H1 2925   0.252   3.097  11.720  0.4590 -0.6652 -0.3376
  192MPD1    H2 2926   4.672   2.904  11.489 -1.6450  3.9238  1.2561
  192MPD1    H3 2927   0.119   3.088  11.519  0.1052  0.6949  1.1399
  192MPD1     N 2928   0.224   2.940  11.937  1.0400 -0.0379 -0.1575
  192MPD1    H5 2929   0.273   3.028  11.952 -0.4719  0.6020  0.9853
  192MPD1    N1 2930   4.624   2.718  11.646  0.4795  0.2996  0.2996
  192MPD1    H6 2931   4.565   2.700  11.727 -0.9109  0.5448 -0.6487
  192MPD1    H7 2932   4.553   2.754  11.581  0.5664 -0.2353 -0.0929
  193MPD1     C 2933   0.211   2.307  16.027  0.0575  0.5866  0.0686
  193MPD1    C1 2934   0.154   2.398  16.112  0.3006 -0.0819 -0.4360
  193MPD1    C2 2935   0.231   2.436  16.214  0.2095  0.1791 -0.1859
  193MPD1    C3 2936   0.366   2.401  16.229  0.6112  0.2343  0.1948
  193MPD1    C4 2937   0.425   2.315  16.140  0.3093  0.1623 -0.3095
  193MPD1    C5 2938   0.344   2.273  16.034  0.3026 -0.2095  0.2873
  193MPD1     H 2939   0.190   2.496  16.295 -0.9956  0.9927 -1.4162
  193MPD1    H1 2940   0.530   2.290  16.149  0.5690  1.1333 -0.5973
  193MPD1    H2 2941   0.167   2.274  15.934  0.5261  2.0399 -0.6657
  193MPD1    H3 2942   0.393   2.215  15.957 -0.1088  0.4331 -0.4499
  193MPD1     N 2943   0.458   2.443  16.323  0.6542  0.3195 -0.0386
  193MPD1    H5 2944   0.551   2.402  16.316 -0.0544 -0.8853 -2.6045
  193MPD1    N1 2945   0.019   2.435  16.108  0.2939  0.2083 -0.4961
  193MPD1    H6 2946   0.005   2.531  16.140 -0.5945 -0.5014  1.2500
  193MPD1    H7 2947   4.693   2.409  16.022 -1.7256  0.2411  0.6046
  194MPD1     C 2948   2.960   0.158  16.204  0.7094  0.1315  0.2184
  194MPD1    C1 2949   3.035   0.193  16.312 -0.3837  0.5017 -0.7084
  194MPD1    C2 2950   3.104   0.105  16.395 -0.7735  0.3384 -0.1859
  194MPD1    C3 2951   3.094   4.694  16.374 -0.4165  0.5081  0.6492
  194MPD1    C4 2952   3.015   4.656  16.270 -0.0011 -0.3634  0.5290
  194MPD1    C5 2953   2.959   0.021  16.180  0.7412 -0.1154  0.1649
  194MPD1     H 2954   3.171   0.149  16.467  1.0575 -0.1177 -1.6058
  194MPD1    H1 2955   3.010   4.549  16.252  0.1338 -0.6020  1.8834
  194MPD1    H2 2956   2.915   0.232  16.138 -1.1293 -1.5814 -0.4536
  194MPD1    H3 2957   2.898   4.703  16.099 -1.0178 -1.1948  2.0090
  194MPD1     N 2958   3.161   4.593  16.443 -0.1873  0.2907 -0.2358
  194MPD1    H5 2959   3.157   4.502  16.398 -0.1649  0.3719 -0.4023
  194MPD1    N1 2960   3.067   0.331  16.328  0.1905  0.0349 -0.0003
  194MPD1    H6 2961   3.018   0.395  16.267 -0.9660  0.5700  1.4751
  194MPD1    H7 2962   3.086   0.366  16.422 -1.0876 -0.0009  0.2688
  195MPD1     C 2963   0.482   1.319  16.785 -0.6001 -1.0361 -0.4434
  195MPD1    C1 2964   0.484   1.343  16.921 -0.6484  0.6847  0.1079
  195MPD1    C2 2965   0.492   1.221  16.998  0.1505 -0.5005 -0.0459
  195MPD1    C3 2966   0.530   1.099  16.950 -0.8445  0.0791  0.0444
  195MPD1    C4 2967   0.545   1.090  16.816  0.6380 -0.0778 -0.0322
  195MPD1    C5 2968   0.513   1.195  16.735 -0.6473 -0.2247  0.7161
  195MPD1     H 2969   0.477   1.237  17.104 -1.5122 -0.9867 -0.2121
  195MPD1    H1 2970   0.568   0.993  16.772  0.2811  0.3044 -1.0595
  195MPD1    H2 2971   0.459   1.392  16.709 -0.5114  0.0002  0.5299
  195MPD1    H3 2972   0.516   1.176  16.628  1.1081  0.4718  0.6381
  195MPD1     N 2973   0.530   0.982  17.024 -0.3015  0.5369  0.3474
  195MPD1    H5 2974   0.555   0.903  16.964  0.0772 -0.0483  1.2630
  195MPD1    N1 2975   0.448   1.466  16.975 -0.1761  0.0007 -0.1958
  195MPD1    H6 2976   0.504   1.489  17.057 -0.3195  2.3495 -0.7676
  195MPD1    H7 2977   0.449   1.543  16.909 -2.4957 -0.0215 -0.2367
  196MPD1     C 2978   0.398   0.674   0.356  0.0730 -0.6685 -0.0967
  196MPD1    C1 2979   0.456   0.795   0.385  0.4930 -0.5290  0.3303
  196MPD1    C2 2980   0.465   0.842   0.513  0.6817 -1.0296 -0.2002
  196MPD1    C3 2981   0.388   0.783   0.608  0.3199 -0.1041  0.2706
  196MPD1    C4 2982   0.331   0.664   0.578  0.7506  0.1851 -0.2692
  196MPD1    C5 2983   0.328   0.609   0.457 -0.0259 -0.2065  0.4891
  196MPD1     H 2984   0.541   0.913   0.544  0.0550 -0.4307 -0.0223
  196MPD1    H1 2985   0.287   0.601   0.655  0.1876  1.2750  0.2963
  196MPD1    H2 2986   0.395   0.618   0.263 -0.8822  0.7035 -0.8775
  196MPD1    H3 2987   0.272   0.520   0.431  0.0690 -0.2782  0.5303
  196MPD1     N 2988   0.403   0.815   0.746 -0.3263 -0.5770 -0.1354
  196MPD1    H5 2989   0.353   0.750   0.806 -1.2053 -0.9661 -1.2945
  196MPD1    N1 2990   0.546   0.840   0.284 -0.4944  0.3185 -0.4388
  196MPD1    H6 2991   0.573   0.938   0.285  0.7355 -0.0176 -1.1687
  196MPD1    H7 2992   0.505   0.826   0.192 -0.9231  1.2941 -0.3958
  197MPD1     C 2993   4.113   3.053  16.807  1.4327 -0.2499 -0.6477
  197MPD1    C1 2994   4.135   3.080  16.676  0.4606 -0.6172 -0.1700
  197MPD1    C2 2995   4.031   3.109  16.593  0.2455  0.1371 -0.5669
  197MPD1    C3 2996   3.896   3.095  16.639 -0.4662 -0.1300  0.1370
  197MPD1    C4 2997   3.871   3.062  16.768  0.1294  0.0720  0.5512
  197MPD1    C5 2998   3.983   3.041  16.851 -0.3046 -0.6207 -0.7343
  197MPD1     H 2999   4.043   3.149  16.493  1.1731 -0.5216 -0.7168
  197MPD1    H1 3000   3.768   3.054  16.799 -0.0185  2.7276  0.7663
  197MPD1    H2 3001   4.189   3.040  16.882 -0.9198 -2.7255  1.2979
  197MPD1    H3 3002   3.962   3.020  16.955  0.9255 -0.7257 -0.5165
  197MPD1     N 3003   3.784   3.128  16.563 -0.6647  0.2653 -0.4004
  197MPD1    H5 3004   3.699   3.122  16.618  1.2734 -0.3034  2.5239
  197MPD1    N1 3005   4.266   3.102  16.627 -0.2605 -0.0744 -0.3459
  197MPD1    H6 3006   4.344   3.053  16.672  0.1281 -0.1305 -1.0827
  197MPD1    H7 3007   4.268   3.079  16.528 -0.3709  0.6679 -0.5249
  198MPD1     C 3008   1.306   1.328  15.864 -0.1738  0.0541 -0.1990
  198MPD1    C1 3009   1.393   1.388  15.769 -1.0218 -0.3748  0.3258
  198MPD1    C2 3010   1.471   1.495  15.820  0.8485  0.0085  0.2033
  198MPD1    C3 3011   1.474   1.526  15.957  0.0935 -0.1554 -0.6481
  198MPD1    C4 3012   1.393   1.462  16.046 -0.4335 -0.1042 -0.0093
  198MPD1    C5 3013   1.309   1.362  15.998 -0.0703  0.6932  0.1116
  198MPD1     H 3014   1.533   1.550  15.750 -0.8739 -0.8342 -1.9769
  198MPD1    H1 3015   1.399   1.480  16.152 -1.2329 -1.9529  0.3470
  198MPD1    H2 3016   1.243   1.243  15.845  0.7550  0.1005 -3.4671
  198MPD1    H3 3017   1.239   1.304  16.057  0.5716 -1.8513 -1.6243
  198MPD1     N 3018   1.561   1.628  15.997  0.4881 -0.2273 -0.0543
  198MPD1    H5 3019   1.605   1.678  15.921 -1.0966  0.1557 -0.7193
  198MPD1    N1 3020   1.377   1.357  15.628 -0.2231 -0.1382 -0.0552
  198MPD1    H6 3021   1.459   1.381  15.573 -1.1203  0.8921 -0.9637
  198MPD1    H7 3022   1.357   1.260  15.604  0.4034  0.4425 -2.9271
  199MPD1     C 3023   4.126   2.616   9.737 -0.1834 -0.7220 -0.1815
  199MPD1    C1 3024   4.075   2.737   9.701 -0.6439  0.8876 -0.8576
  199MPD1    C2 3025   3.942   2.747   9.669 -0.3424 -0.6591 -0.0845
  199MPD1    C3 3026   3.867   2.631   9.659  0.3661  0.7185  0.4386
  199MPD1    C4 3027   3.916   2.511   9.696 -0.3433 -0.3059 -0.2419
  199MPD1    C5 3028   4.049   2.504   9.729  0.1637  0.2959 -0.2922
  199MPD1     H 3029   3.898   2.841   9.636  1.6116  0.1105 -0.5178
  199MPD1    H1 3030   3.859   2.420   9.712 -0.7410 -0.3449 -1.9062
  199MPD1    H2 3031   4.227   2.605   9.776  0.0423 -0.4286 -0.6695
  199MPD1    H3 3032   4.095   2.414   9.768 -1.0419  0.0017  0.4834
  199MPD1     N 3033   3.731   2.628   9.619 -0.5505  0.8737  0.6938
  199MPD1    H5 3034   3.692   2.535   9.608 -0.0106  0.6492  0.6945
  199MPD1    N1 3035   4.154   2.853   9.717  0.0957 -0.1849 -0.1294
  199MPD1    H6 3036   4.109   2.936   9.680  0.6884 -0.3252 -1.1722
  199MPD1    H7 3037   4.250   2.846   9.684  0.5387 -3.8591  1.9569
  200MPD1     C 3038   1.915   2.793  14.955  0.4558  0.5366 -0.3341
  200MPD1    C1 3039   1.877   2.747  14.833 -0.4932 -0.2021 -0.4772
  200MPD1    C2 3040   1.973   2.713  14.742  0.2844 -0.3244  0.6229
  200MPD1    C3 3041   2.110   2.731  14.766  0.3935 -0.4431  0.6196
  200MPD1    C4 3042   2.147   2.790  14.885  0.9235  0.4592  0.6383
  200MPD1    C5 3043   2.053   2.815  14.980 -0.7670 -0.0752 -0.0376
  200MPD1     H 3044   1.943   2.689  14.641  0.0604 -1.0257  0.8520
  200MPD1    H1 3045   2.246   2.826  14.911  1.7235  0.2496 -2.2140
  200MPD1    H2 3046   1.840   2.828  15.025 -0.0182  0.9530 -1.0581
  200MPD1    H3 3047   2.085   2.858  15.074  0.7566 -1.0011 -0.1300
  200MPD1     N 3048   2.189   2.691  14.659 -0.3315  0.4002 -0.0493
  200MPD1    H5 3049   2.144   2.675  14.569  0.3230 -1.6658 -0.0279
  200MPD1    N1 3050   1.739   2.713  14.811 -0.7123 -0.0323  0.5994
  200MPD1    H6 3051   1.707   2.709  14.715 -0.9047  0.5547  0.6357
  200MPD1    H7 3052   1.671   2.759  14.872  0.9527 -0.5182  2.8348
  201MPD1     C 3053   4.617   1.856  12.650  0.1212 -0.0902 -0.0385
  201MPD1    C1 3054   4.663   1.775  12.546  0.0787 -0.1211  0.2731
  201MPD1    C2 3055   0.057   1.709  12.576 -0.0811 -0.1636  0.1923
  201MPD1    C3 3056   0.120   1.716  12.694  0.2691  0.2088 -0.5381
  201MPD1    C4 3057   0.066   1.785  12.796 -0.3777 -0.1638  0.4036
  201MPD1    C5 3058   4.677   1.858  12.771  0.2160  0.0359  0.1107
  201MPD1     H 3059   0.110   1.655  12.500 -0.4001  1.4066 -1.1461
  201MPD1    H1 3060   0.110   1.781  12.896 -0.8987  0.2335  0.6499
  201MPD1    H2 3061   4.525   1.912  12.645  0.0644 -0.5585 -4.4008
  201MPD1    H3 3062   4.637   1.912  12.856  0.6671  1.1862 -0.4142
  201MPD1     N 3063   0.246   1.644  12.700 -0.0106 -0.0776 -0.3247
  201MPD1    H5 3064   0.279   1.597  12.617 -0.6952  1.1804 -1.3104
  201MPD1    N1 3065   4.612   1.776  12.418  0.4610  0.5335  0.0697
  201MPD1    H6 3066   4.657   1.704  12.361  0.0952  1.4957 -1.4455
  201MPD1    H7 3067   4.511   1.768  12.413  0.7177 -2.3110 -0.2829
  202MPD1     C 3068   0.394   2.165   9.439  0.1339 -0.7073 -0.0491
  202MPD1    C1 3069   0.352   2.170   9.568 -0.5606  1.2699  0.3506
  202MPD1    C2 3070   0.293   2.057   9.615 -0.0835 -0.1739 -0.5299
  202MPD1    C3 3071   0.246   1.959   9.533 -0.6076  0.6105  0.0076
  202MPD1    C4 3072   0.264   1.968   9.398  0.3293  0.5972  0.1734
  202MPD1    C5 3073   0.340   2.071   9.355  0.1426  0.2069 -0.0180
  202MPD1     H 3074   0.257   2.053   9.717 -0.2916 -1.4540 -0.6577
  202MPD1    H1 3075   0.220   1.897   9.329 -0.3727  1.4031 -0.2168
  202MPD1    H2 3076   0.456   2.241   9.394  0.5206 -1.3439 -0.5927
  202MPD1    H3 3077   0.386   2.071   9.257  0.8137 -0.9766  0.2920
  202MPD1     N 3078   0.154   1.855   9.584  0.2341  0.0525  0.0512
  202MPD1    H5 3079   0.105   1.802   9.513  1.0523  0.1370 -0.5786
  202MPD1    N1 3080   0.430   2.242   9.657 -0.5420  0.0556  0.2251
  202MPD1    H6 3081   0.381   2.268   9.742 -0.9764  1.9129 -0.5791
  202MPD1    H7 3082   0.510   2.187   9.687  0.2439 -0.1204 -2.1693
  203MPD1     C 3083   3.509   2.731  12.382 -0.4681  0.2774  0.2837
  203MPD1    C1 3084   3.466   2.640  12.471 -0.4427 -0.0706  0.1420
  203MPD1    C2 3085   3.467   2.512  12.431  0.8931 -0.0474 -0.3737
  203MPD1    C3 3086   3.497   2.470  12.300 -0.0182 -0.4087  0.5802
  203MPD1    C4 3087   3.518   2.562  12.201  0.1249 -0.5606  0.3511
  203MPD1    C5 3088   3.527   2.693  12.246 -0.0802 -0.0507  0.0654
  203MPD1     H 3089   3.435   2.443  12.509  2.0629 -0.4393 -0.2392
  203MPD1    H1 3090   3.523   2.543  12.094 -0.8496  3.7450 -0.4675
  203MPD1    H2 3091   3.530   2.834  12.407 -2.3185  0.4041  1.2874
  203MPD1    H3 3092   3.540   2.781  12.184 -1.4400  0.5915  0.6791
  203MPD1     N 3093   3.485   2.334  12.266  0.5464  0.2361 -0.3135
  203MPD1    H5 3094   3.467   2.266  12.339 -3.9046 -1.6932 -3.2055
  203MPD1    N1 3095   3.450   2.683  12.602  0.1966 -0.2403 -0.3136
  203MPD1    H6 3096   3.409   2.621  12.673  1.2159  0.9499  1.3148
  203MPD1    H7 3097   3.408   2.776  12.606 -2.1686 -1.3964  1.7897
  204MPD1     C 3098   2.111   3.267  17.562 -0.1271  0.8645 -0.2744
  204MPD1    C1 3099   2.235   3.332  17.553 -0.6119 -0.6189  0.5216
  204MPD1    C2 3100   2.346   3.247  17.532  0.5835  0.3496 -0.1729
  204MPD1    C3 3101   2.325   3.107  17.513 -0.2016  0.5775 -0.4413
  204MPD1    C4 3102   2.198   3.054  17.505 -0.3025  0.2373  0.4617
  204MPD1    C5 3103   2.090   3.135  17.536 -0.1613  0.8660  0.0903
  204MPD1     H 3104   2.449   3.282  17.535 -0.1354  2.4800 -0.1485
  204MPD1    H1 3105   2.181   2.948  17.486  0.1811 -0.2492  2.7262
  204MPD1    H2 3106   2.017   3.314  17.588  0.0162  1.4224 -0.7668
  204MPD1    H3 3107   1.988   3.098  17.538  1.1003 -2.5537  1.9248
  204MPD1     N 3108   2.429   3.018  17.506  0.1285  0.2342 -0.1655
  204MPD1    H5 3109   2.520   3.062  17.511 -0.6314  1.9403 -1.2877
  204MPD1    N1 3110   2.248   3.469  17.584 -0.3008  0.4188 -0.2651
  204MPD1    H6 3111   2.327   3.523  17.549 -0.1641 -0.2918 -1.0462
  204MPD1    H7 3112   2.166   3.528  17.574 -1.0078 -0.9711 -2.6016
  205MPD1     C 3113   3.529   1.877  16.682  0.1578  0.0173  0.6335
  205MPD1    C1 3114   3.626   1.908  16.772 -0.3525  0.1049  0.0678
  205MPD1    C2 3115   3.596   1.926  16.906 -0.2677 -0.2056  0.0886
  205MPD1    C3 3116   3.467   1.922  16.952 -0.2043 -0.4071  0.0449
  205MPD1    C4 3117   3.363   1.908  16.857 -0.6315 -0.2103  0.3076
  205MPD1    C5 3118   3.401   1.876  16.727  0.1391 -0.3094 -0.0650
  205MPD1     H 3119   3.674   1.944  16.979 -0.3162  0.4082 -0.0094
  205MPD1    H1 3120   3.262   1.900  16.893 -0.4256 -0.3175  0.8594
  205MPD1    H2 3121   3.561   1.835  16.587 -0.7211  1.7448 -0.4315
  205MPD1    H3 3122   3.322   1.831  16.668 -1.0675 -0.6353  1.8274
  205MPD1     N 3123   3.433   1.935  17.094  0.3989  0.2683 -0.4559
  205MPD1    H5 3124   3.334   1.940  17.113  0.5841 -3.2864  1.4037
  205MPD1    N1 3125   3.757   1.885  16.729 -0.6453  0.2064  0.3318
  205MPD1    H6 3126   3.819   1.957  16.766 -0.6326 -1.0187  2.7440
  205MPD1    H7 3127   3.773   1.892  16.629 -0.6347  1.3939  0.4183
  206MPD1     C 3128   3.680   0.395  16.438  0.3302 -0.3197 -0.0429
  206MPD1    C1 3129   3.717   0.304  16.338  0.1647 -0.7663  0.2076
  206MPD1    C2 3130   3.615   0.248  16.265  0.4435  0.0758  0.2754
  206MPD1    C3 3131   3.479   0.277  16.293  0.1225 -0.6963 -1.1829
  206MPD1    C4 3132   3.448   0.370  16.386  0.3341  0.3808 -0.2338
  206MPD1    C5 3133   3.549   0.423  16.455  0.0812  0.4164  0.0333
  206MPD1     H 3134   3.630   0.177  16.185  1.4441 -1.6186  1.9560
  206MPD1    H1 3135   3.347   0.408  16.398 -0.1654 -0.1533 -2.7379
  206MPD1    H2 3136   3.755   0.441  16.502  0.6898  2.0948 -2.2115
  206MPD1    H3 3137   3.522   0.486  16.539 -1.2773  1.4832 -1.1981
  206MPD1     N 3138   3.369   0.233  16.213  0.3009  0.0398  0.4975
  206MPD1    H5 3139   3.276   0.269  16.231  0.2760  1.3442 -2.2502
  206MPD1    N1 3140   3.849   0.255  16.317 -0.2281 -0.4823  0.2667
  206MPD1    H6 3141   3.926   0.316  16.342 -1.9924  1.4740  0.9324
  206MPD1    H7 3142   3.856   0.227  16.219 -1.6084  0.4071 -0.0851
  207MPD1     C 3143   0.714   2.654   9.565  0.0253 -0.5158  0.1257
  207MPD1    C1 3144   0.756   2.539   9.625 -0.3540 -0.0917 -0.7668
  207MPD1    C2 3145   0.852   2.544   9.722  0.2011  0.4922 -0.0011
  207MPD1    C3 3146   0.887   2.670   9.776 -0.2559 -0.6123 -0.6066
  207MPD1    C4 3147   0.829   2.782   9.724 -0.0175  0.2930  0.1151
  207MPD1    C5 3148   0.757   2.775   9.613  0.3243 -0.8229 -0.3530
  207MPD1     H 3149   0.891   2.455   9.771 -0.4308 -0.5167 -1.3518
  207MPD1    H1 3150   0.860   2.883   9.750  0.4903  0.4177 -0.9744
  207MPD1    H2 3151   0.639   2.652   9.486  0.2314 -0.5103 -0.0692
  207MPD1    H3 3152   0.743   2.867   9.557 -2.1072 -0.2342  1.2068
  207MPD1     N 3153   0.992   2.686   9.872 -0.7411  0.1792  0.2480
  207MPD1    H5 3154   1.019   2.783   9.890  1.2564  0.0712 -2.0516
  207MPD1    N1 3155   0.703   2.415   9.582 -0.1243 -0.1875  0.0714
  207MPD1    H6 3156   0.707   2.349   9.660 -0.0632 -0.4621 -0.1631
  207MPD1    H7 3157   0.606   2.432   9.555  0.9401  0.2193 -3.5670
  208MPD1     C 3158   0.016   1.767   0.295 -0.1896  0.1908 -0.0326
  208MPD1    C1 3159   4.659   1.783   0.409 -0.1855  0.2700 -0.8251
  208MPD1    C2 3160   4.542   1.711   0.408  0.9335 -0.5378 -0.0754
  208MPD1    C3 3161   4.502   1.620   0.309 -0.0288 -0.0355 -0.3587
  208MPD1    C4 3162   4.585   1.605   0.204 -0.1803 -0.5008 -0.4054
  208MPD1    C5 3163   4.699   1.682   0.194  0.3513  0.3230 -0.1315
  208MPD1     H 3164   4.476   1.731   0.491  0.0164 -1.3356 -0.6134
  208MPD1    H1 3165   4.558   1.533   0.127 -1.2788  1.4195 -1.8143
  208MPD1    H2 3166   0.110   1.821   0.288 -1.5399  2.2451 -2.0571
  208MPD1    H3 3167   0.048   1.672   0.112  1.1796 -1.8059  0.8301
  208MPD1     N 3168   4.381   1.553   0.331 -0.4424  0.2520  0.1604
  208MPD1    H5 3169   4.335   1.563   0.421 -1.2479  0.9838 -0.3316
  208MPD1    N1 3170   4.684   1.896   0.488  0.1656  0.7186 -0.4224
  208MPD1    H6 3171   0.060   1.904   0.516 -0.1967  0.8417  0.8271
  208MPD1    H7 3172   4.623   1.905   0.570 -0.7947 -1.6615 -0.8831
  209MPD1     C 3173   1.246   1.854  11.604 -0.2058 -0.2665 -0.2345
  209MPD1    C1 3174   1.165   1.970  11.615  0.1273 -0.4402  0.0510
  209MPD1    C2 3175   1.177   2.067  11.515 -0.1738  0.6223 -0.0476
  209MPD1    C3 3176   1.247   2.044  11.393  0.1388 -0.1508  0.1700
  209MPD1    C4 3177   1.307   1.920  11.377 -0.2908 -0.7778 -0.0855
  209MPD1    C5 3178   1.310   1.831  11.484  0.0334  0.0278 -0.0970
  209MPD1     H 3179   1.119   2.159  11.517  0.1713  0.8720 -1.7358
  209MPD1    H1 3180   1.357   1.898  11.283  1.8925  2.3133  0.3319
  209MPD1    H2 3181   1.242   1.774  11.677  4.1528  0.9841  1.3737
  209MPD1    H3 3182   1.362   1.736  11.481  0.5141  0.2410  1.2229
  209MPD1     N 3183   1.265   2.149  11.299 -0.3245 -0.2173  0.4256
  209MPD1    H5 3184   1.223   2.239  11.318 -0.2200  0.1523 -1.0858
  209MPD1    N1 3185   1.106   2.014  11.739 -0.4788 -0.2200  0.3897
  209MPD1    H6 3186   1.066   1.934  11.787  1.6671 -1.2367  0.4906
  209MPD1    H7 3187   1.039   2.090  11.730  0.4104  0.6455  1.0525
  210MPD1     C 3188   1.555   3.091  11.343 -0.5664  0.3675  0.1245
  210MPD1    C1 3189   1.493   2.991  11.418  0.1977 -0.0993  0.4460
  210MPD1    C2 3190   1.474   2.868  11.360 -1.4118 -0.3704  0.2162
  210MPD1    C3 3191   1.518   2.837  11.228 -0.3726 -1.1408 -0.3082
  210MPD1    C4 3192   1.587   2.936  11.162  0.7286 -0.3650 -0.1047
  210MPD1    C5 3193   1.598   3.056  11.221 -0.4414 -0.5297  0.1426
  210MPD1     H 3194   1.436   2.797  11.432  0.9147 -1.9018 -0.0814
  210MPD1    H1 3195   1.609   2.933  11.056 -1.5918  0.8922 -0.6030
  210MPD1    H2 3196   1.548   3.191  11.383 -1.8927  0.8989 -1.4291
  210MPD1    H3 3197   1.650   3.130  11.161  2.2405 -0.8255  2.0819
  210MPD1     N 3198   1.502   2.709  11.166 -0.1184  0.3506 -0.6407
  210MPD1    H5 3199   1.549   2.694  11.078 -0.6426 -2.2062 -0.4903
  210MPD1    N1 3200   1.426   3.031  11.536 -0.4861 -0.1567  0.0526
  210MPD1    H6 3201   1.485   3.097  11.588  0.7275 -0.4745 -0.9117
  210MPD1    H7 3202   1.410   2.954  11.600 -1.2354 -0.3498 -0.3668
  211MPD1     C 3203   4.349   2.464  16.235  0.2850 -0.4226 -1.1701
  211MPD1    C1 3204   4.256   2.464  16.132 -0.5290 -0.3398 -0.4484
  211MPD1    C2 3205   4.126   2.437  16.163 -0.1172 -0.1679  0.0812
  211MPD1    C3 3206   4.083   2.413  16.295  0.4202 -1.0338  0.7361
  211MPD1    C4 3207   4.180   2.415  16.396 -0.5728  0.1361  0.6407
  211MPD1    C5 3208   4.310   2.441  16.367 -0.6380 -0.1436  0.3867
  211MPD1     H 3209   4.056   2.432  16.080  0.5313  3.0397 -0.6494
  211MPD1    H1 3210   4.147   2.398  16.498 -0.4265 -0.6260  0.5645
  211MPD1    H2 3211   4.452   2.492  16.212  0.2203  0.5240 -0.3229
  211MPD1    H3 3212   4.377   2.450  16.452 -2.2542 -2.1558  1.8663
  211MPD1     N 3213   3.941   2.380  16.315 -0.2643 -0.1506 -0.2089
  211MPD1    H5 3214   3.877   2.391  16.237  1.4305  1.8767 -1.3193
  211MPD1    N1 3215   4.288   2.496  15.998 -0.1433 -0.0890  0.6989
  211MPD1    H6 3216   4.365   2.564  16.001 -0.8903  0.7000  1.9410
  211MPD1    H7 3217   4.214   2.556  15.963  1.3871 -0.3734 -3.0412
  212MPD1     C 3218   3.073   0.075  16.775 -0.0170 -0.6422  0.0739
  212MPD1    C1 3219   2.954   0.118  16.733 -0.2088  0.2351  0.1632
  212MPD1    C2 3220   2.839   0.044  16.759 -0.9896  0.6388 -0.0097
  212MPD1    C3 3221   2.836   4.646  16.831  0.0097 -0.6582 -0.2700
  212MPD1    C4 3222   2.962   4.600  16.868  0.8917  0.0844  1.1001
  212MPD1    C5 3223   3.070   4.672  16.838  0.1078 -0.5121 -0.1576
  212MPD1     H 3224   2.748   0.090  16.723 -1.3375  0.4611  0.6320
  212MPD1    H1 3225   2.973   4.511  16.929  0.0933 -1.3456 -0.8535
  212MPD1    H2 3226   3.168   0.122  16.751 -0.8732  1.3922  0.7336
  212MPD1    H3 3227   3.163   4.624  16.866 -0.2207 -2.1802 -1.9291
  212MPD1     N 3228   2.723   4.568  16.860  0.6145  0.2555  0.2327
  212MPD1    H5 3229   2.743   4.480  16.907  1.9448  1.1103  1.2811
  212MPD1    N1 3230   2.929   0.236  16.667  0.0611  0.1134  0.5395
  212MPD1    H6 3231   2.849   0.239  16.604  1.3699  0.5502 -1.1349
  212MPD1    H7 3232   3.004   0.285  16.618  0.0109 -1.6239 -1.3086
  213MPD1     C 3233   0.534   0.503  15.532 -0.4345 -0.6529 -0.1310
  213MPD1    C1 3234   0.443   0.427  15.456  0.1814 -0.1841 -0.0036
  213MPD1    C2 3235   0.438   0.468  15.324 -0.5634 -0.0392  0.1295
  213MPD1    C3 3236   0.460   0.601  15.285  0.1758  0.4938 -0.0089
  213MPD1    C4 3237   0.512   0.691  15.377  0.6812 -0.2904  0.3746
  213MPD1    C5 3238   0.558   0.636  15.495 -0.0038 -0.7379  0.0403
  213MPD1     H 3239   0.408   0.391  15.254  0.1971 -0.3041  0.0978
  213MPD1    H1 3240   0.531   0.797  15.364 -2.0082  0.2375  0.5969
  213MPD1    H2 3241   0.583   0.477  15.624  1.2244 -2.4821 -1.5272
  213MPD1    H3 3242   0.620   0.697  15.560 -0.4466 -2.2021  1.8137
  213MPD1     N 3243   0.418   0.637  15.153  0.6083 -0.5475  0.0352
  213MPD1    H5 3244   0.378   0.566  15.093 -0.8909  0.0944  0.2688
  213MPD1    N1 3245   0.435   0.288  15.482 -0.3724  0.6725 -0.0865
  213MPD1    H6 3246   0.438   0.280  15.583  0.8235 -0.3524 -0.2007
  213MPD1    H7 3247   0.344   0.261  15.445 -0.0833 -0.4233  0.0162
  214MPD1     C 3248   4.335   0.729  14.595 -0.0477  0.4929 -0.4434
  214MPD1    C1 3249   4.383   0.677  14.719 -0.2989 -0.1288 -0.3875
  214MPD1    C2 3250   4.521   0.681  14.743 -0.1113 -0.5817  1.2366
  214MPD1    C3 3251   4.612   0.723  14.648 -0.1642 -0.0213 -0.3124
  214MPD1    C4 3252   4.560   0.761  14.526  0.2767 -0.2404  0.3350
  214MPD1    C5 3253   4.429   0.768  14.506  0.2211 -0.6010 -0.3525
  214MPD1     H 3254   4.547   0.652  14.844 -0.7292 -2.6417  0.8049
  214MPD1    H1 3255   4.625   0.802  14.450  1.8351  2.3096  3.0302
  214MPD1    H2 3256   4.232   0.743  14.566 -0.2400  1.6161  0.7870
  214MPD1    H3 3257   4.396   0.811  14.412  1.2285 -1.3263 -1.0407
  214MPD1     N 3258   0.030   0.724  14.672  0.9805 -0.1796  0.1481
  214MPD1    H5 3259   0.079   0.776  14.600  1.7164 -0.2902  0.5713
  214MPD1    N1 3260   4.299   0.655  14.823 -0.1406 -0.2569  0.1286
  214MPD1    H6 3261   4.220   0.605  14.782 -0.2152  0.1333 -0.2044
  214MPD1    H7 3262   4.337   0.593  14.894 -1.2585  0.7040  1.5861
  215MPD1     C 3263   0.840   1.494  10.645  0.4167  0.2066 -0.0713
  215MPD1    C1 3264   0.922   1.504  10.757 -0.1325 -0.5718 -0.8556
  215MPD1    C2 3265   0.979   1.631  10.783  0.2498 -0.4834 -0.0681
  215MPD1    C3 3266   0.966   1.743  10.698  0.6858  0.1812  0.2445
  215MPD1    C4 3267   0.880   1.724  10.589 -0.0075 -0.2269 -0.2063
  215MPD1    C5 3268   0.820   1.602  10.557  0.6134 -0.1660  0.7204
  215MPD1     H 3269   1.039   1.650  10.871 -1.5696  2.0332  0.6511
  215MPD1    H1 3270   0.855   1.799  10.515  0.7813 -0.4593 -0.7131
  215MPD1    H2 3271   0.784   1.405  10.621  1.3418 -0.6272  0.8454
  215MPD1    H3 3272   0.747   1.597  10.477  0.7808 -2.6414  0.7531
  215MPD1     N 3273   1.032   1.866  10.724 -0.1920  0.1281  0.1814
  215MPD1    H5 3274   1.088   1.863  10.809 -0.4776  0.9818  0.4000
  215MPD1    N1 3275   0.919   1.405  10.855  0.2026  0.2539  0.2082
  215MPD1    H6 3276   1.002   1.397  10.914 -0.2526  1.3509  0.9928
  215MPD1    H7 3277   0.905   1.306  10.833  1.6490  0.1365 -0.1973
  216MPD1     C 3278   2.816   4.426  16.445 -0.0993 -0.6220 -0.3066
  216MPD1    C1 3279   2.745   4.313  16.401 -0.9590  0.3249 -0.3189
  216MPD1    C2 3280   2.743   4.203  16.478  0.3228 -0.2335 -0.3425
  216MPD1    C3 3281   2.810   4.200  16.599 -0.1867  0.2053  0.0486
  216MPD1    C4 3282   2.885   4.310  16.641 -0.5515  0.1120  0.0863
  216MPD1    C5 3283   2.887   4.424  16.565 -0.7219  0.5638 -0.0166
  216MPD1     H 3284   2.689   4.115  16.445 -1.1952 -0.0466  1.6823
  216MPD1    H1 3285   2.940   4.330  16.732 -0.0690 -0.0713 -0.1637
  216MPD1    H2 3286   2.826   4.516  16.385 -0.8191  0.7009  1.5582
  216MPD1    H3 3287   2.933   4.515  16.600 -0.4175  0.3277  0.2011
  216MPD1     N 3288   2.800   4.079  16.671 -0.5834 -0.0476  0.5678
  216MPD1    H5 3289   2.748   4.002  16.631  0.2341  0.2299 -0.9930
  216MPD1    N1 3290   2.689   4.311  16.272 -0.1566  0.0609  0.1098
  216MPD1    H6 3291   2.637   4.226  16.250  0.1636 -0.5269  1.6167
  216MPD1    H7 3292   2.641   4.394  16.237  0.5016  0.6025  0.4882
  217MPD1     C 3293   3.725   2.509   8.625  0.0400 -0.1518 -0.4199
  217MPD1    C1 3294   3.777   2.388   8.591  0.4067  0.1247 -0.7549
  217MPD1    C2 3295   3.735   2.269   8.654 -0.2732  0.1079 -0.7938
  217MPD1    C3 3296   3.638   2.275   8.755  0.5504 -0.4631 -0.0914
  217MPD1    C4 3297   3.579   2.390   8.782 -0.1527  0.8984 -0.1124
  217MPD1    C5 3298   3.627   2.504   8.721  0.7866 -0.7964  0.1015
  217MPD1     H 3299   3.785   2.176   8.628  0.8316 -0.1143  2.1653
  217MPD1    H1 3300   3.510   2.398   8.866 -0.9196  0.1674 -0.6800
  217MPD1    H2 3301   3.750   2.600   8.573  0.5227 -0.6424 -1.0479
  217MPD1    H3 3302   3.580   2.601   8.737  2.4235 -0.0398  0.3503
  217MPD1     N 3303   3.605   2.159   8.835  0.2228 -0.1009  0.0787
  217MPD1    H5 3304   3.529   2.187   8.897  0.3493  1.7626 -0.5976
  217MPD1    N1 3305   3.883   2.382   8.503  0.2766 -0.1995 -0.1498
  217MPD1    H6 3306   3.917   2.287   8.514  0.2607 -0.0653  1.0050
  217MPD1    H7 3307   3.951   2.450   8.536 -0.6112  0.9928 -0.7667
  218MPD1     C 3308   4.333   2.256  12.824  0.1987 -0.3335  0.4662
  218MPD1    C1 3309   4.395   2.277  12.701  0.0451 -0.0011 -0.3348
  218MPD1    C2 3310   4.529   2.265  12.699 -0.6865 -0.0511 -0.0508
  218MPD1    C3 3311   4.601   2.206  12.803 -0.4195 -0.4195  0.0578
  218MPD1    C4 3312   4.532   2.166  12.915  0.1644  0.0910  0.2512
  218MPD1    C5 3313   4.401   2.197  12.927 -0.1716 -0.7129  0.2480
  218MPD1     H 3314   4.575   2.302  12.608 -1.5965 -0.4234 -0.6563
  218MPD1    H1 3315   4.575   2.112  12.999 -1.5230 -0.5960  0.6572
  218MPD1    H2 3316   4.226   2.271  12.833  0.4427 -0.4167  3.3171
  218MPD1    H3 3317   4.337   2.153  13.003 -0.2532  0.0289  0.6042
  218MPD1     N 3318   0.022   2.189  12.798 -0.3410  1.0541 -0.1817
  218MPD1    H5 3319   0.068   2.205  12.709 -0.5374 -0.8432 -0.6282
  218MPD1    N1 3320   4.324   2.335  12.592  0.3030  0.4318 -0.3658
  218MPD1    H6 3321   4.368   2.312  12.503  0.3049  0.3923 -0.3549
  218MPD1    H7 3322   4.227   2.304  12.597 -0.3835  2.7687  0.7092
  219MPD1     C 3323   0.445   2.538  12.160  0.1833 -0.0765  0.8392
  219MPD1    C1 3324   0.543   2.533  12.258  0.3675  0.3969 -0.5923
  219MPD1    C2 3325   0.520   2.467  12.378  0.4012  0.2467  0.3445
  219MPD1    C3 3326   0.393   2.418  12.406 -0.0009 -0.6606  0.5851
  219MPD1    C4 3327   0.291   2.445  12.321 -0.1631  0.0384 -0.0839
  219MPD1    C5 3328   0.319   2.502  12.198 -0.5030  0.2052 -0.6107
  219MPD1     H 3329   0.605   2.452  12.443  1.5515  1.8289 -0.7969
  219MPD1    H1 3330   0.188   2.426  12.350  0.5145 -0.9249  1.6022
  219MPD1    H2 3331   0.458   2.577  12.060 -0.8027  1.5680  1.3450
  219MPD1    H3 3332   0.234   2.517  12.132 -0.0132  0.0820 -1.2698
  219MPD1     N 3333   0.360   2.343  12.519  0.3013 -0.1088 -0.1861
  219MPD1    H5 3334   0.261   2.329  12.536  0.4036 -0.6586 -0.0716
  219MPD1    N1 3335   0.676   2.571  12.219 -0.5875  0.7380 -0.2691
  219MPD1    H6 3336   0.733   2.602  12.297 -1.4310  0.5920  0.3966
  219MPD1    H7 3337   0.693   2.634  12.140 -0.6942  0.5108 -0.4709
  220MPD1     C 3338   0.350   3.060   9.230  0.3237  0.6344 -0.1255
  220MPD1    C1 3339   0.404   3.148   9.323  0.6887 -0.1017  0.3147
  220MPD1    C2 3340   0.439   3.098   9.443  0.3989 -0.1778  0.6497
  220MPD1    C3 3341   0.410   2.964   9.471  0.0036  0.2773  0.1988
  220MPD1    C4 3342   0.358   2.883   9.376 -0.0424  0.0920 -0.3343
  220MPD1    C5 3343   0.334   2.925   9.251  0.2805 -0.0708  0.4721
  220MPD1     H 3344   0.487   3.160   9.518  1.0333  0.9119 -0.6702
  220MPD1    H1 3345   0.323   2.782   9.391 -0.9515  0.2165 -1.6236
  220MPD1    H2 3346   0.309   3.093   9.135  0.3644  1.5371  0.1731
  220MPD1    H3 3347   0.283   2.868   9.174  0.5258 -0.9826  0.9902
  220MPD1     N 3348   0.434   2.900   9.596  0.1996 -0.3336 -0.2319
  220MPD1    H5 3349   0.422   2.800   9.599 -0.9772 -0.2203 -1.4138
  220MPD1    N1 3350   0.441   3.280   9.286  0.1557 -0.3105  0.4680
  220MPD1    H6 3351   0.452   3.348   9.361  0.3447 -0.0045  0.1591
  220MPD1    H7 3352   0.386   3.329   9.216 -0.3154  0.4683  1.3806
  221MPD1     C 3353   2.650   1.577  16.507  0.1422  0.2612 -0.9359
  221MPD1    C1 3354   2.772   1.573  16.575  0.0276  0.1943  0.2833
  221MPD1    C2 3355   2.872   1.500  16.516 -0.0630  0.0355  0.1834
  221MPD1    C3 3356   2.853   1.430  16.397  0.1283  0.0762  0.1172
  221MPD1    C4 3357   2.730   1.428  16.333  0.3946 -0.5183 -0.0992
  221MPD1    C5 3358   2.629   1.507  16.384 -0.4149  0.4238  0.6606
  221MPD1     H 3359   2.962   1.482  16.574 -0.7228 -0.4256  1.0702
  221MPD1    H1 3360   2.720   1.378  16.238 -0.5796  1.1347 -0.8647
  221MPD1    H2 3361   2.573   1.641  16.547  1.7714  1.9032 -0.3847
  221MPD1    H3 3362   2.534   1.521  16.335 -0.9736  1.8059  2.1460
  221MPD1     N 3363   2.952   1.343  16.333 -0.5927 -0.3349  0.6503
  221MPD1    H5 3364   2.915   1.276  16.266  1.6327  0.4823 -1.4010
  221MPD1    N1 3365   2.793   1.647  16.690  0.1721  0.0504  0.0920
  221MPD1    H6 3366   2.877   1.624  16.743  1.3704  1.9269 -0.9987
  221MPD1    H7 3367   2.708   1.660  16.744  0.5330  1.5311  0.2886
  222MPD1     C 3368   2.111   0.042  16.451 -0.6608  0.4886 -0.4969
  222MPD1    C1 3369   2.227   0.078  16.507  0.1488  0.2418 -0.6156
  222MPD1    C2 3370   2.266   0.207  16.521 -0.1816 -0.2782  0.4002
  222MPD1    C3 3371   2.181   0.312  16.477 -0.9066 -0.8207  0.2442
  222MPD1    C4 3372   2.066   0.278  16.419  0.2977 -0.4140  1.0261
  222MPD1    C5 3373   2.026   0.145  16.416  0.4963  0.8317 -0.2528
  222MPD1     H 3374   2.355   0.238  16.576  1.0114  0.7362 -2.1209
  222MPD1    H1 3375   1.997   0.359  16.395 -1.1047 -0.7753  3.7611
  222MPD1    H2 3376   2.081   4.659  16.457  0.3825  0.2179  0.0495
  222MPD1    H3 3377   1.926   0.122  16.379  1.3357 -2.8005 -0.3263
  222MPD1     N 3378   2.206   0.445  16.507  0.6558 -0.2027 -0.2555
  222MPD1    H5 3379   2.121   0.499  16.500 -0.4958 -1.8832  0.7830
  222MPD1    N1 3380   2.299   4.699  16.579  0.0410 -0.7481 -0.2666
  222MPD1    H6 3381   2.395   0.009  16.569 -0.2705  0.5335  0.7600
  222MPD1    H7 3382   2.299   4.605  16.540 -1.4851 -0.1289 -1.7537
  223MPD1     C 3383   1.726   1.298  16.652 -0.2298  0.1011  0.0574
  223MPD1    C1 3384   1.846   1.324  16.704 -0.1431  0.0935 -0.3631
  223MPD1    C2 3385   1.950   1.245  16.675 -0.0169  0.1375  0.1101
  223MPD1    C3 3386   1.937   1.127  16.607  0.1061 -0.4167 -0.6972
  223MPD1    C4 3387   1.811   1.098  16.558  0.8200  0.3522 -0.0574
  223MPD1    C5 3388   1.712   1.184  16.583  0.0407 -0.3359 -0.0993
  223MPD1     H 3389   2.053   1.276  16.690  0.7231 -1.4558 -1.6857
  223MPD1    H1 3390   1.776   1.009  16.508 -0.7873  0.2345  1.2915
  223MPD1    H2 3391   1.644   1.366  16.672 -0.0855  0.4994 -0.7020
  223MPD1    H3 3392   1.611   1.154  16.557  0.1400  0.1958 -1.0986
  223MPD1     N 3393   2.052   1.047  16.572 -0.3960 -0.9445 -0.2096
  223MPD1    H5 3394   2.138   1.087  16.606 -0.4963 -0.0683 -1.0091
  223MPD1    N1 3395   1.882   1.446  16.767  0.3001 -0.1805  0.2319
  223MPD1    H6 3396   1.943   1.429  16.847  1.3755  1.4325 -0.2496
  223MPD1    H7 3397   1.806   1.498  16.811 -2.1391 -2.2175 -1.6440
  224MPD1     C 3398   4.000   2.814   8.896 -0.7404  1.1595 -0.3569
  224MPD1    C1 3399   4.125   2.765   8.920  0.1409  0.4129  0.1552
  224MPD1    C2 3400   4.129   2.627   8.954  1.0281 -0.5248  0.4470
  224MPD1    C3 3401   4.012   2.554   8.981  0.1916  0.4727  0.3933
  224MPD1    C4 3402   3.890   2.618   8.964 -0.1623 -0.6648 -0.0995
  224MPD1    C5 3403   3.889   2.747   8.928  0.9563  0.7700  0.0093
  224MPD1     H 3404   4.223   2.579   8.976  0.8769 -1.2175 -0.3932
  224MPD1    H1 3405   3.796   2.566   8.975 -0.5561  0.0755  0.0167
  224MPD1    H2 3406   3.988   2.914   8.856  2.4597  1.3753 -0.7601
  224MPD1    H3 3407   3.791   2.792   8.916  0.4819  0.1118  1.4824
  224MPD1     N 3408   4.004   2.420   9.011 -0.1084  0.4434  0.0579
  224MPD1    H5 3409   3.910   2.384   9.028 -0.7791  0.5096 -3.6000
  224MPD1    N1 3410   4.242   2.835   8.890 -0.5397 -0.4961  0.3424
  224MPD1    H6 3411   4.226   2.935   8.906 -0.4376 -0.3986 -0.1618
  224MPD1    H7 3412   4.323   2.805   8.943 -0.0327  0.4463  0.1190
  225MPD1     C 3413   0.088   3.704  12.446  0.8049  0.1017  0.4311
  225MPD1    C1 3414   0.180   3.625  12.381 -0.2214 -0.4002  0.0126
  225MPD1    C2 3415   0.150   3.557  12.266 -0.3980 -0.0836 -0.8214
  225MPD1    C3 3416   0.027   3.591  12.203  0.2082  1.5325 -0.1237
  225MPD1    C4 3417   4.660   3.682  12.269  0.4433  0.1452  0.4494
  225MPD1    C5 3418   4.687   3.729  12.396 -0.0350 -0.2326 -0.2959
  225MPD1     H 3419   0.222   3.491  12.219 -0.8003 -0.5773 -0.7465
  225MPD1    H1 3420   4.564   3.697  12.221  0.1567 -0.1024  0.9553
  225MPD1    H2 3421   0.108   3.747  12.544  0.0276 -0.3835  0.8066
  225MPD1    H3 3422   4.615   3.797  12.440  0.4660  2.2629 -3.3903
  225MPD1     N 3423   4.703   3.553  12.076 -0.2109 -0.3169  0.6391
  225MPD1    H5 3424   4.617   3.593  12.039  0.2839 -0.0355 -0.2242
  225MPD1    N1 3425   0.299   3.596  12.452 -0.6384 -0.1210  0.1679
  225MPD1    H6 3426   0.338   3.669  12.511  2.0343 -1.8829  0.5857
  225MPD1    H7 3427   0.371   3.554  12.393 -0.5635  0.9355 -0.4917
  226MPD1     C 3428   2.643   3.625   9.041 -0.1068 -0.0085  0.1830
  226MPD1    C1 3429   2.775   3.653   9.024  0.2271 -0.5530  0.0859
  226MPD1    C2 3430   2.871   3.561   9.056 -0.0850  0.6845  0.2273
  226MPD1    C3 3431   2.833   3.436   9.097 -0.2102  0.0638 -1.0816
  226MPD1    C4 3432   2.693   3.410   9.116  0.6280 -0.6530 -0.2485
  226MPD1    C5 3433   2.602   3.503   9.093 -0.3937 -0.1940  0.2097
  226MPD1     H 3434   2.977   3.585   9.050 -0.9267  3.9159 -1.7141
  226MPD1    H1 3435   2.644   3.317   9.140 -1.6590 -0.5120 -4.3769
  226MPD1    H2 3436   2.565   3.696   9.017  0.1073 -0.1359 -0.9050
  226MPD1    H3 3437   2.495   3.489   9.098  0.0176 -2.7289  1.9937
  226MPD1     N 3438   2.933   3.339   9.124  0.2211 -0.7899 -0.1069
  226MPD1    H5 3439   3.030   3.369   9.114 -0.8720  1.6319 -3.4600
  226MPD1    N1 3440   2.814   3.787   9.000 -0.0542  0.1318  0.0538
  226MPD1    H6 3441   2.903   3.784   8.952 -0.4903 -0.0765 -0.7439
  226MPD1    H7 3442   2.743   3.832   8.942  1.0602 -1.6797 -2.6852
  227MPD1     C 3443   2.785   2.395   9.265  0.1973  0.1285  0.7220
  227MPD1    C1 3444   2.728   2.517   9.293  0.7689 -0.3464  0.4027
  227MPD1    C2 3445   2.794   2.641   9.271  0.4509 -0.0449 -0.3426
  227MPD1    C3 3446   2.923   2.636   9.218 -0.4407 -0.1444  0.2349
  227MPD1    C4 3447   2.974   2.513   9.186 -0.3035 -0.5168 -0.0481
  227MPD1    C5 3448   2.911   2.399   9.210  0.2891  0.4102  0.8658
  227MPD1     H 3449   2.734   2.728   9.296  1.5832  1.7561 -3.8101
  227MPD1    H1 3450   3.076   2.501   9.153 -0.6495  0.7175 -1.5618
  227MPD1    H2 3451   2.732   2.303   9.283 -0.8261  0.4656 -0.6163
  227MPD1    H3 3452   2.967   2.307   9.198 -1.8059 -0.7328 -0.2162
  227MPD1     N 3453   2.982   2.758   9.178  0.0737  0.1549 -0.1892
  227MPD1    H5 3454   2.930   2.845   9.187 -0.7048 -0.2794 -0.5847
  227MPD1    N1 3455   2.606   2.518   9.368 -0.0236 -0.7907 -0.9947
  227MPD1    H6 3456   2.550   2.435   9.352 -0.4511  0.0033 -3.6063
  227MPD1    H7 3457   2.553   2.604   9.356  0.5103 -0.2866  0.2100
  228MPD1     C 3458   2.307   0.310  12.880  0.1535  0.2797 -0.1613
  228MPD1    C1 3459   2.231   0.386  12.792 -0.9133 -0.2436 -0.3991
  228MPD1    C2 3460   2.088   0.378  12.792  0.0940  0.8586 -0.1024
  228MPD1    C3 3461   2.017   0.313  12.892 -0.1149  0.6330 -0.2882
  228MPD1    C4 3462   2.090   0.254  12.990 -0.0706  0.7148  0.6148
  228MPD1    C5 3463   2.233   0.248  12.985 -0.0722 -0.3301  0.2641
  228MPD1     H 3464   2.040   0.427  12.708 -1.3288  0.1991  0.3177
  228MPD1    H1 3465   2.038   0.197  13.066 -1.5081 -3.1835 -3.2924
  228MPD1    H2 3466   2.415   0.316  12.883  0.2203 -1.7338  1.5107
  228MPD1    H3 3467   2.292   0.202  13.063 -0.4677  1.4837  1.6584
  228MPD1     N 3468   1.869   0.308  12.889  0.1979 -0.1054  0.5340
  228MPD1    H5 3469   1.825   0.347  12.807 -0.4491  0.2658  1.0509
  228MPD1    N1 3470   2.287   0.442  12.671 -0.3398  0.6208  0.1375
  228MPD1    H6 3471   2.380   0.480  12.686 -0.2927  1.0163 -1.1968
  228MPD1    H7 3472   2.224   0.515  12.638 -1.9208 -0.3171  1.0507
  229MPD1     C 3473   1.364   3.939  14.899 -0.0232  0.1520  0.3562
  229MPD1    C1 3474   1.466   3.926  14.807 -0.1103  0.4800  0.4479
  229MPD1    C2 3475   1.493   3.794  14.759  0.2739 -0.5019 -0.3396
  229MPD1    C3 3476   1.423   3.683  14.810  0.1944 -0.6252 -1.0123
  229MPD1    C4 3477   1.323   3.704  14.900 -1.0052  0.1859 -0.3742
  229MPD1    C5 3478   1.304   3.830  14.960 -0.4573  0.3526 -0.1577
  229MPD1     H 3479   1.558   3.790  14.673  0.1808 -0.8074 -0.3948
  229MPD1    H1 3480   1.258   3.628  14.941 -0.5456  0.2135  0.4047
  229MPD1    H2 3481   1.321   4.030  14.940 -3.4640 -2.2024  1.9760
  229MPD1    H3 3482   1.227   3.845  15.035  1.1562 -1.5519  1.8521
  229MPD1     N 3483   1.454   3.551  14.776  0.8622 -0.2215  0.2835
  229MPD1    H5 3484   1.387   3.479  14.799  2.2443 -1.3652  0.7281
  229MPD1    N1 3485   1.508   4.042  14.740 -0.2530  0.0694 -0.1199
  229MPD1    H6 3486   1.517   4.120  14.805 -0.6909 -1.1063  1.3499
  229MPD1    H7 3487   1.598   4.033  14.693 -0.4753  1.1296 -0.7653
  230MPD1     C 3488   1.484   2.619  15.154  0.3130 -0.2557 -0.6202
  230MPD1    C1 3489   1.405   2.616  15.042 -0.2140  0.4204 -0.1241
  230MPD1    C2 3490   1.421   2.716  14.954 -0.9673 -0.6263  0.2408
  230MPD1    C3 3491   1.495   2.833  14.985  0.0006  0.9278  0.1914
  230MPD1    C4 3492   1.562   2.843  15.109  0.1999 -0.0106  0.8593
  230MPD1    C5 3493   1.556   2.730  15.190 -0.8857 -0.4071  0.2670
  230MPD1     H 3494   1.376   2.705  14.856 -1.0710  3.0023 -0.1204
  230MPD1    H1 3495   1.627   2.928  15.125  0.8202 -0.5595  1.2141
  230MPD1    H2 3496   1.495   2.533  15.219  0.5466  0.3689  0.1740
  230MPD1    H3 3497   1.623   2.721  15.274  0.6583 -0.1983 -0.9407
  230MPD1     N 3498   1.497   2.938  14.884  0.1335 -0.0903  0.6935
  230MPD1    H5 3499   1.454   2.929  14.793  1.5819  0.1581 -0.0231
  230MPD1    N1 3500   1.347   2.493  14.998  0.0726  0.2387  0.0096
  230MPD1    H6 3501   1.270   2.511  14.934  0.8994  0.8234 -0.8003
  230MPD1    H7 3502   1.308   2.442  15.077  0.8821 -0.4098 -0.0207
  231MPD1     C 3503   4.230   1.055  15.394  0.8266  0.1465 -1.1877
  231MPD1    C1 3504   4.167   1.108  15.279 -0.3445 -1.2463 -0.1021
  231MPD1    C2 3505   4.232   1.086  15.160 -0.1014 -0.7649 -0.1740
  231MPD1    C3 3506   4.354   1.019  15.155 -0.5238 -0.0681  0.0033
  231MPD1    C4 3507   4.421   0.986  15.269 -0.4541  0.4239  0.2019
  231MPD1    C5 3508   4.350   0.991  15.385 -0.8546 -0.1616 -0.7257
  231MPD1     H 3509   4.174   1.106  15.071  0.3296  0.6746 -0.1310
  231MPD1    H1 3510   4.521   0.946  15.274 -0.8528 -0.8437 -2.0627
  231MPD1    H2 3511   4.174   1.052  15.486 -0.4132  0.4983 -1.9275
  231MPD1    H3 3512   4.383   0.948  15.479  0.6245  0.2520 -1.0675
  231MPD1     N 3513   4.413   1.003  15.025  0.1433 -0.0811 -0.0147
  231MPD1    H5 3514   4.375   1.060  14.950 -0.1654 -0.3867 -0.0924
  231MPD1    N1 3515   4.039   1.164  15.287 -0.5613 -0.4946 -0.1173
  231MPD1    H6 3516   4.009   1.221  15.208  2.1786  0.2218 -0.6319
  231MPD1    H7 3517   4.019   1.216  15.372 -0.1487  0.5399 -0.6606
  232MPD1     C 3518   2.076   4.614  17.623 -0.0178  1.4730  0.5985
  232MPD1    C1 3519   1.976   4.632   0.034 -0.1828  0.5383  0.5340
  232MPD1    C2 3520   1.898   4.525   0.065 -0.2951  0.6873 -0.1914
  232MPD1    C3 3521   1.917   4.398   0.013  0.4236  0.0839 -0.3420
  232MPD1    C4 3522   2.023   4.378  17.608 -0.6005 -0.2399  0.9427
  232MPD1    C5 3523   2.097   4.491  17.572  0.4005 -1.5528  0.5202
  232MPD1     H 3524   1.812   4.544   0.128  0.4901  1.2844  0.7121
  232MPD1    H1 3525   2.065   4.281  17.582 -0.7131  0.2053 -0.9176
  232MPD1    H2 3526   2.130   4.700  17.584  1.4819  0.8282  1.2835
  232MPD1    H3 3527   2.188   4.477  17.515  0.7290 -2.5751  1.2916
  232MPD1     N 3528   1.833   4.292   0.063 -0.5595  0.1955  0.5804
  232MPD1    H5 3529   1.768   4.317   0.137 -0.6485 -0.7835  0.8419
  232MPD1    N1 3530   1.936   0.041   0.071 -0.2575  0.0386 -0.4402
  232MPD1    H6 3531   1.897   0.033   0.165 -0.2362  0.5780 -0.3828
  232MPD1    H7 3532   2.010   0.111   0.079 -1.1752  1.0504 -0.6909
  233MPD1     C 3533   3.168   2.189   1.856 -0.5673 -0.3410 -0.2807
  233MPD1    C1 3534   3.125   2.084   1.935  0.0678 -0.7321 -0.1674
  233MPD1    C2 3535   3.205   1.975   1.958  0.1680  0.2348  0.2005
  233MPD1    C3 3536   3.323   1.956   1.883 -0.0737  0.8810  0.1905
  233MPD1    C4 3537   3.364   2.053   1.792 -0.0433 -0.4608 -0.1348
  233MPD1    C5 3538   3.275   2.163   1.774 -0.1636  0.0782 -0.3668
  233MPD1     H 3539   3.181   1.903   2.035  1.5764 -0.8481 -0.3819
  233MPD1    H1 3540   3.454   2.047   1.732 -0.6250 -1.0953 -0.9418
  233MPD1    H2 3541   3.112   2.279   1.835 -0.7597 -0.3696  0.0967
  233MPD1    H3 3542   3.305   2.233   1.697  1.2917  1.1023  1.1199
  233MPD1     N 3543   3.408   1.842   1.897  0.4760  0.3627  0.4066
  233MPD1    H5 3544   3.486   1.851   1.833  0.3024 -1.1988 -0.0318
  233MPD1    N1 3545   3.012   2.098   2.022 -0.1103  0.2452 -0.8015
  233MPD1    H6 3546   2.973   2.005   2.035  0.6433 -0.3847 -2.9187
  233MPD1    H7 3547   2.941   2.161   1.985 -0.9387 -0.6400 -0.7280
  234MPD1     C 3548   4.259   0.402   9.466 -0.2052  0.0964 -0.3599
  234MPD1    C1 3549   4.335   0.518   9.467  0.8347  0.1518  0.3105
  234MPD1    C2 3550   4.311   0.625   9.386  0.2652 -0.0880  0.9604
  234MPD1    C3 3551   4.212   0.621   9.286 -0.5065 -0.1521  0.1149
  234MPD1    C4 3552   4.150   0.499   9.271 -0.0554  0.4171  0.5029
  234MPD1    C5 3553   4.171   0.392   9.356 -0.2114  0.4683 -0.4564
  234MPD1     H 3554   4.373   0.713   9.395 -1.1171  1.1792 -2.0218
  234MPD1    H1 3555   4.068   0.499   9.200  0.9500  1.0651 -0.6717
  234MPD1    H2 3556   4.273   0.319   9.534  1.4589 -0.4938 -1.4370
  234MPD1    H3 3557   4.110   0.303   9.345 -1.9074  1.4975  0.7037
  234MPD1     N 3558   4.197   0.737   9.207  0.2759 -0.2885 -0.3799
  234MPD1    H5 3559   4.270   0.804   9.227  1.0360 -0.7391 -1.6311
  234MPD1    N1 3560   4.423   0.549   9.569  0.1384 -0.2296  0.4753
  234MPD1    H6 3561   4.496   0.619   9.557  0.5163 -0.8184 -0.6305
  234MPD1    H7 3562   4.468   0.469   9.613 -4.0500 -1.5404  2.4287
  235MPD1     C 3563   3.755   3.953   9.383  0.3951 -0.5709 -0.3123
  235MPD1    C1 3564   3.876   3.950   9.438 -0.2308  0.1081  0.1344
  235MPD1    C2 3565   3.968   4.046   9.409 -0.0502  0.0470  0.3756
  235MPD1    C3 3566   3.950   4.133   9.306 -0.0276  0.6697  0.2546
  235MPD1    C4 3567   3.829   4.134   9.237 -0.6467  0.3000  0.0200
  235MPD1    C5 3568   3.727   4.049   9.288  0.2407 -0.7058 -0.4341
  235MPD1     H 3569   4.052   4.056   9.477  0.9097  2.9357 -1.2118
  235MPD1    H1 3570   3.803   4.204   9.158  0.2275 -3.2107 -3.4053
  235MPD1    H2 3571   3.675   3.887   9.416 -1.0532  1.2698 -0.1251
  235MPD1    H3 3572   3.635   4.033   9.232 -1.1593  0.8041  1.4452
  235MPD1     N 3573   4.058   4.221   9.283 -0.2832 -0.4196  0.0411
  235MPD1    H5 3574   4.136   4.209   9.347 -0.9519 -0.4270  0.8509
  235MPD1    N1 3575   3.879   3.867   9.553  0.8619  0.2268 -0.4194
  235MPD1    H6 3576   3.830   3.781   9.528  1.9056 -0.0013 -1.6940
  235MPD1    H7 3577   3.975   3.839   9.570  0.7259 -0.3680 -0.6055
  236MPD1     C 3578   0.556   0.196   9.862  0.2350  0.1144  0.2781
  236MPD1    C1 3579   0.463   0.107   9.821 -0.7662  0.0562 -0.1813
  236MPD1    C2 3580   0.481   4.694   9.845 -0.5089 -0.8669  0.7408
  236MPD1    C3 3581   0.598   4.640   9.897  0.0320  0.4857  0.2425
  236MPD1    C4 3582   0.686   0.008   9.941  0.1033  0.8804 -0.0049
  236MPD1    C5 3583   0.664   0.145   9.926  0.3277  0.2379 -0.5924
  236MPD1     H 3584   0.401   4.630   9.808  0.4457 -1.2554 -0.6612
  236MPD1    H1 3585   0.781   4.700   9.984 -0.4094  0.3701  0.7644
  236MPD1    H2 3586   0.555   0.301   9.832 -0.7028  0.1700  0.5244
  236MPD1    H3 3587   0.739   0.220   9.949 -0.4192  0.2873  1.6658
  236MPD1     N 3588   0.618   4.499   9.922 -0.8176  0.4582  0.1478
  236MPD1    H5 3589   0.701   4.470   9.972 -0.3137  0.0455 -0.9271
  236MPD1    N1 3590   0.364   0.158   9.735  0.3511  0.4424  0.0409
  236MPD1    H6 3591   0.356   0.259   9.744  2.5901  0.6759 -0.8092
  236MPD1    H7 3592   0.279   0.113   9.769  2.0592 -1.8232  1.4059
  237MPD1     C 3593   0.246   1.581  15.036  0.0701  0.2013  0.0444
  237MPD1    C1 3594   0.182   1.629  14.925 -0.2624 -0.2364 -0.1571
  237MPD1    C2 3595   0.078   1.722  14.941  0.0826 -0.0530  0.0866
  237MPD1    C3 3596   0.050   1.764  15.069 -0.6927  0.0773 -0.5633
  237MPD1    C4 3597   0.115   1.709  15.178 -0.3774 -0.0122 -0.3367
  237MPD1    C5 3598   0.212   1.623  15.155  0.1965 -0.5235  0.3111
  237MPD1     H 3599   0.021   1.753  14.854  1.7159  4.7796  0.7548
  237MPD1    H1 3600   0.080   1.721  15.279  1.9092  1.8814  0.2268
  237MPD1    H2 3601   0.328   1.510  15.028  0.9070  1.4193 -2.1845
  237MPD1    H3 3602   0.267   1.602  15.247  1.0027 -0.3326 -0.1281
  237MPD1     N 3603   4.656   1.839  15.107  0.3527  0.1812 -0.0476
  237MPD1    H5 3604   4.621   1.837  15.203  0.0056 -0.0215 -0.1746
  237MPD1    N1 3605   0.202   1.564  14.800 -0.2167  0.2454  0.1913
  237MPD1    H6 3606   0.298   1.532  14.792  0.0033  0.5775  1.4835
  237MPD1    H7 3607   0.177   1.615  14.716  0.8473 -1.0106 -0.8778
  238MPD1     C 3608   2.253   1.327  14.644  0.0274 -0.5951  0.1434
  238MPD1    C1 3609   2.279   1.208  14.716 -0.8599 -0.3829 -0.8254
  238MPD1    C2 3610   2.172   1.116  14.729  0.3159  0.3427 -0.0195
  238MPD1    C3 3611   2.042   1.153  14.689  0.1992  0.5398 -0.2456
  238MPD1    C4 3612   2.016   1.281  14.633  0.0493  0.0811 -0.2390
  238MPD1    C5 3613   2.121   1.370  14.621 -0.6295 -0.0986 -0.1196
  238MPD1     H 3614   2.191   1.020  14.776  0.3636  1.6133  2.5441
  238MPD1    H1 3615   1.914   1.314  14.617  0.1600  0.0332 -1.0240
  238MPD1    H2 3616   2.334   1.391  14.610  1.3759 -1.8694  1.0074
  238MPD1    H3 3617   2.099   1.468  14.581  1.6262  1.0570  1.4658
  238MPD1     N 3618   1.936   1.065  14.695  1.1588  0.3077  0.6247
  238MPD1    H5 3619   1.855   1.097  14.644 -0.2843 -1.9699  1.4816
  238MPD1    N1 3620   2.417   1.180  14.751  0.4354  0.5261 -0.1708
  238MPD1    H6 3621   2.479   1.260  14.752  2.1225 -0.7884  1.1269
  238MPD1    H7 3622   2.432   1.141  14.844  1.2885  0.3692 -0.3797
  239MPD1     C 3623   1.709   1.742  14.788 -0.5869 -0.0504 -0.2596
  239MPD1    C1 3624   1.794   1.710  14.687  0.0825  0.3556  0.3736
  239MPD1    C2 3625   1.818   1.808  14.589 -0.2656  0.0858  0.6298
  239MPD1    C3 3626   1.742   1.925  14.585 -0.1009  0.2718  0.1442
  239MPD1    C4 3627   1.647   1.947  14.681 -0.4294 -0.0165 -0.5351
  239MPD1    C5 3628   1.631   1.855  14.778  0.1597  0.2929 -0.0752
  239MPD1     H 3629   1.891   1.788  14.511 -1.5075 -0.3157 -0.4409
  239MPD1    H1 3630   1.597   2.043  14.692 -2.4559 -1.2052  0.7792
  239MPD1    H2 3631   1.693   1.669  14.866  0.6749  0.0718  0.0982
  239MPD1    H3 3632   1.555   1.877  14.852 -0.8778 -2.3336 -0.3347
  239MPD1     N 3633   1.764   2.034  14.494  0.3998 -0.1412  0.5300
  239MPD1    H5 3634   1.700   2.112  14.501  1.9965  1.2052 -0.1233
  239MPD1    N1 3635   1.862   1.589  14.693 -0.5015  0.0788 -0.1868
  239MPD1    H6 3636   1.873   1.556  14.597  1.9124 -0.3812  0.2604
  239MPD1    H7 3637   1.792   1.532  14.740 -0.5637  0.3015 -0.0113
  240MPD1     C 3638   1.751   1.404  13.751 -0.0645  1.0427  0.1994
  240MPD1    C1 3639   1.622   1.452  13.769  0.1860 -0.1673  1.1032
  240MPD1    C2 3640   1.559   1.438  13.888 -0.0496  0.2822  0.2033
  240MPD1    C3 3641   1.624   1.379  13.991 -0.2092 -0.1999 -0.2068
  240MPD1    C4 3642   1.760   1.359  13.978  0.0373  0.3308  0.4041
  240MPD1    C5 3643   1.831   1.384  13.861 -0.2015 -0.4389  0.1594
  240MPD1     H 3644   1.453   1.462  13.899  0.0855  1.1099 -0.2965
  240MPD1    H1 3645   1.821   1.320  14.058 -0.1044 -0.5680  0.0693
  240MPD1    H2 3646   1.803   1.401  13.656 -1.4316  1.4625 -0.5582
  240MPD1    H3 3647   1.932   1.344  13.858  0.1955  0.6861 -2.1405
  240MPD1     N 3648   1.553   1.334  14.109  0.4078  0.3426  0.0789
  240MPD1    H5 3649   1.455   1.362  14.109  0.5105  0.7252  2.1323
  240MPD1    N1 3650   1.553   1.481  13.648 -0.0866 -0.2118  0.2739
  240MPD1    H6 3651   1.616   1.528  13.584 -1.1002 -0.3816 -0.8501
  240MPD1    H7 3652   1.468   1.536  13.651 -0.2225 -0.4235  0.3405
  241MPD1     C 3653   1.569   1.013  15.164 -0.2252  0.5354 -0.1372
  241MPD1    C1 3654   1.671   1.036  15.075 -0.4797 -0.2976  0.0882
  241MPD1    C2 3655   1.639   1.079  14.948  0.1505  0.3695 -0.5837
  241MPD1    C3 3656   1.511   1.085  14.901  0.2671  0.6348 -0.7111
  241MPD1    C4 3657   1.413   1.059  14.989 -0.2841  0.5238  0.1894
  241MPD1    C5 3658   1.438   1.023  15.122  0.4981 -0.3208  0.0111
  241MPD1     H 3659   1.715   1.128  14.888  1.8332 -1.9246 -0.3445
  241MPD1    H1 3660   1.310   1.074  14.958  0.8295  1.6058 -3.0137
  241MPD1    H2 3661   1.587   0.981  15.266  1.0002 -1.6088 -1.0207
  241MPD1    H3 3662   1.353   1.022  15.190  0.1173  0.0999 -0.4554
  241MPD1     N 3663   1.471   1.113  14.770  0.1425 -0.5025 -0.5364
  241MPD1    H5 3664   1.373   1.115  14.744 -0.1183 -0.4280  0.4466
  241MPD1    N1 3665   1.799   1.060  15.128 -0.0806 -0.1679 -0.1858
  241MPD1    H6 3666   1.881   1.056  15.068 -0.6029 -2.4058 -0.7591
  241MPD1    H7 3667   1.822   1.009  15.213 -0.1726  3.3742  1.9190
  242MPD1     C 3668   1.108   4.693  15.767 -0.3214 -0.7540 -0.6262
  242MPD1    C1 3669   1.133   0.070  15.673  0.4300  0.0205  0.0827
  242MPD1    C2 3670   1.155   0.031  15.539  0.6449 -0.0743  0.7453
  242MPD1    C3 3671   1.139   4.620  15.499  0.5470  0.2323  0.2562
  242MPD1    C4 3672   1.087   4.539  15.590 -0.1867 -0.1104 -0.0896
  242MPD1    C5 3673   1.083   4.567  15.728 -0.4345  0.1497 -0.1120
  242MPD1     H 3674   1.175   0.102  15.460 -0.3012  1.7029  2.0897
  242MPD1    H1 3675   1.055   4.439  15.564 -2.4133  0.5842 -0.0121
  242MPD1    H2 3676   1.114   0.009  15.869  4.1789 -0.9503 -0.8419
  242MPD1    H3 3677   1.077   4.481  15.793  0.4906 -0.6197 -1.0432
  242MPD1     N 3678   1.155   4.571  15.363 -0.1679  0.8846  0.2727
  242MPD1    H5 3679   1.121   4.481  15.331  0.2714  0.4552  1.0420
  242MPD1    N1 3680   1.161   0.199  15.720 -0.7416  0.4628 -0.1448
  242MPD1    H6 3681   1.247   0.185  15.772 -0.9991 -0.8770 -0.0942
  242MPD1    H7 3682   1.110   0.213  15.807 -0.2607 -0.4331  0.2735
  243MPD1     C 3683   1.776   2.905  17.565  0.3546 -0.1792  0.4813
  243MPD1    C1 3684   1.881   2.850  17.646 -0.4336 -0.3398  0.8026
  243MPD1    C2 3685   1.988   2.798  17.573  0.2529 -0.1166 -0.3460
  243MPD1    C3 3686   1.990   2.791  17.436  0.3339  0.8169  0.4989
  243MPD1    C4 3687   1.884   2.844  17.362  0.1659 -0.5858  0.7363
  243MPD1    C5 3688   1.787   2.915  17.429 -0.0339 -0.2162 -0.0230
  243MPD1     H 3689   2.067   2.749  17.630  0.9971  0.2468 -1.0716
  243MPD1    H1 3690   1.869   2.836  17.255 -1.3452 -1.3047  0.9994
  243MPD1    H2 3691   1.690   2.954  17.610  0.1643 -1.1508  1.1712
  243MPD1    H3 3692   1.713   2.970  17.371 -1.4963 -0.4522  1.5970
  243MPD1     N 3693   2.100   2.724  17.378 -0.4516 -0.2778  0.1664
  243MPD1    H5 3694   2.179   2.708  17.440  0.0655  0.1449 -0.3804
  243MPD1    N1 3695   1.904   2.885   0.093  0.1930 -0.0695 -0.3836
  243MPD1    H6 3696   1.957   2.811   0.138 -0.8433 -0.4538  0.1833
  243MPD1    H7 3697   1.815   2.900   0.140  1.1539  0.4424  1.2748
  244MPD1     C 3698   2.456   1.967  17.565  0.1311  0.3729 -0.2969
  244MPD1    C1 3699   2.332   2.014  17.544  0.6886 -0.6849 -0.5872
  244MPD1    C2 3700   2.314   2.138  17.488 -0.7830  0.4030  0.5423
  244MPD1    C3 3701   2.423   2.211  17.440  0.1030  0.2926 -0.2320
  244MPD1    C4 3702   2.550   2.151  17.459  0.2626  0.3907  0.1199
  244MPD1    C5 3703   2.568   2.034  17.517  0.2353 -0.4517 -0.1250
  244MPD1     H 3704   2.216   2.183  17.479 -0.5782  0.3445 -1.9088
  244MPD1    H1 3705   2.641   2.205  17.437 -1.0379  2.7647  0.5750
  244MPD1    H2 3706   2.460   1.871  17.614 -0.7438  1.8064  2.5625
  244MPD1    H3 3707   2.669   1.996  17.528  0.2404 -0.0883  1.0768
  244MPD1     N 3708   2.401   2.342  17.389  0.4044  0.9149  0.1507
  244MPD1    H5 3709   2.304   2.373  17.391  0.1709  0.4972 -3.8658
  244MPD1    N1 3710   2.224   1.955  17.611 -0.2161 -0.4896  0.0059
  244MPD1    H6 3711   2.224   1.853  17.603  0.9374 -0.4646 -0.2388
  244MPD1    H7 3712   2.139   1.997  17.574  1.5925  2.4748 -0.7220
  245MPD1     C 3713   0.365   4.195  12.794  1.2660 -0.0716  0.2924
  245MPD1    C1 3714   0.332   4.324  12.818 -0.7716 -0.2709 -0.6081
  245MPD1    C2 3715   0.284   4.347  12.948 -0.1092  0.1511  0.3449
  245MPD1    C3 3716   0.284   4.251  13.050 -0.0117  1.2125  0.2713
  245MPD1    C4 3717   0.321   4.123  13.017  1.2034  0.3104 -0.1493
  245MPD1    C5 3718   0.363   4.093  12.887  0.3354  0.4362 -1.0942
  245MPD1     H 3719   0.258   4.450  12.968  1.3293  1.5051 -4.7882
  245MPD1    H1 3720   0.311   4.038  13.084 -0.2617  1.4308  1.0383
  245MPD1    H2 3721   0.400   4.167  12.696 -0.2960 -2.1075  0.3132
  245MPD1    H3 3722   0.387   3.994  12.852  1.4401  0.2620  0.1511
  245MPD1     N 3723   0.239   4.285  13.180  0.2426  0.3332  0.3866
  245MPD1    H5 3724   0.199   4.378  13.192  0.1644  0.4917 -1.0993
  245MPD1    N1 3725   0.311   4.410  12.715 -0.6292 -0.6294 -0.3010
  245MPD1    H6 3726   0.370   4.403  12.632 -0.7900 -0.3188 -0.4395
  245MPD1    H7 3727   0.320   4.506  12.745  0.1601 -0.3649 -1.3957
  246MPD1     C 3728   3.376   0.853   8.463 -0.4695  0.0258  0.1642
  246MPD1    C1 3729   3.450   0.932   8.371  0.1186  0.4891 -0.4402
  246MPD1    C2 3730   3.587   0.938   8.385  0.0917 -0.1805  0.5707
  246MPD1    C3 3731   3.654   0.854   8.473 -1.0701  0.2483  0.2338
  246MPD1    C4 3732   3.583   0.756   8.543 -0.4546  0.2351 -0.0933
  246MPD1    C5 3733   3.448   0.769   8.536  0.1826 -0.7375 -0.3290
  246MPD1     H 3734   3.648   1.016   8.342  0.0595  0.8872  2.4377
  246MPD1    H1 3735   3.617   0.693   8.625  0.8855 -0.3406 -1.1000
  246MPD1    H2 3736   3.268   0.849   8.466 -0.4643 -0.3716 -0.1419
  246MPD1    H3 3737   3.389   0.702   8.598  0.3424 -1.0123 -0.4759
  246MPD1     N 3738   3.789   0.873   8.486 -0.0732 -0.4763  0.0147
  246MPD1    H5 3739   3.825   0.958   8.444  0.6062 -0.9277 -0.3267
  246MPD1    N1 3740   3.380   1.009   8.279  0.8858 -0.4265  0.4031
  246MPD1    H6 3741   3.285   0.977   8.259 -0.2755  4.2518 -1.6591
  246MPD1    H7 3742   3.425   1.027   8.189  0.1364  1.9049  0.4854
  247MPD1     C 3743   3.604   0.614  15.432 -0.2991  0.2920 -0.1557
  247MPD1    C1 3744   3.616   0.510  15.519 -0.1661 -0.7693  0.0683
  247MPD1    C2 3745   3.610   0.388  15.465  0.2622  0.5816 -0.4057
  247MPD1    C3 3746   3.570   0.366  15.332 -0.4454  0.6006 -0.5380
  247MPD1    C4 3747   3.546   0.470  15.247  0.2981  0.2588  0.1243
  247MPD1    C5 3748   3.577   0.599  15.295 -0.4930  0.1896 -0.0739
  247MPD1     H 3749   3.626   0.302  15.528 -0.7948  1.4001  0.9786
  247MPD1    H1 3750   3.519   0.454  15.144 -0.1535 -2.5494  0.6536
  247MPD1    H2 3751   3.635   0.711  15.470 -1.9560 -0.0740  2.1036
  247MPD1    H3 3752   3.582   0.681  15.226  0.6844  0.6354  0.5375
  247MPD1     N 3753   3.548   0.241  15.271  0.6541  0.0368 -0.0913
  247MPD1    H5 3754   3.521   0.244  15.173  2.1281 -0.2516 -0.5160
  247MPD1    N1 3755   3.666   0.533  15.646  0.1233  0.0171  0.1979
  247MPD1    H6 3756   3.642   0.626  15.680  0.7509  1.6136 -3.7316
  247MPD1    H7 3757   3.627   0.466  15.712 -1.4281  0.7555  0.0360
  248MPD1     C 3758   0.944   1.909   0.690  0.6009 -0.2858  0.1681
  248MPD1    C1 3759   1.012   2.009   0.745 -0.5040 -0.0879 -1.0305
  248MPD1    C2 3760   0.949   2.133   0.760  0.0732  0.2008 -0.1540
  248MPD1    C3 3761   0.827   2.153   0.707  0.0161  0.5185 -0.1201
  248MPD1    C4 3762   0.767   2.052   0.632  0.1236 -1.1676  0.0848
  248MPD1    C5 3763   0.828   1.930   0.629 -0.6176 -0.5885  0.1697
  248MPD1     H 3764   0.992   2.212   0.820  2.7999 -0.6970 -0.8723
  248MPD1    H1 3765   0.671   2.054   0.581 -0.0722  1.4863  0.5452
  248MPD1    H2 3766   0.983   1.809   0.699  1.0243 -0.3591 -2.5326
  248MPD1    H3 3767   0.779   1.850   0.574  0.4507 -1.8160  0.9831
  248MPD1     N 3768   0.766   2.268   0.738  0.1127 -0.3831 -0.9449
  248MPD1    H5 3769   0.822   2.345   0.773 -0.1880 -1.5635  2.1277
  248MPD1    N1 3770   1.136   1.988   0.814  0.1086  0.3661 -0.0054
  248MPD1    H6 3771   1.187   1.908   0.777 -0.6512  0.7392 -1.8658
  248MPD1    H7 3772   1.206   2.062   0.808  0.1619  0.3743  0.8120
  249MPD1     C 3773   1.102   2.549   9.542  0.6889 -0.5182 -0.2964
  249MPD1    C1 3774   1.110   2.666   9.468  0.1178  0.2717  0.2314
  249MPD1    C2 3775   1.224   2.750   9.472  0.4582 -0.2554  1.1244
  249MPD1    C3 3776   1.317   2.723   9.569 -0.9532 -0.1810 -0.2796
  249MPD1    C4 3777   1.300   2.613   9.650  0.8392  0.0390 -0.5285
  249MPD1    C5 3778   1.195   2.525   9.638  0.3514 -0.3858  0.2689
  249MPD1     H 3779   1.228   2.839   9.411 -2.0503 -1.6990 -1.1395
  249MPD1    H1 3780   1.369   2.594   9.731 -0.2677  0.9092  0.6243
  249MPD1    H2 3781   1.022   2.475   9.541 -0.0122  0.2112  1.2798
  249MPD1    H3 3782   1.193   2.435   9.697  0.0120  0.1540  1.0844
  249MPD1     N 3783   1.432   2.796   9.572 -0.1436  0.1680 -0.4964
  249MPD1    H5 3784   1.430   2.876   9.509  2.7132 -0.0985 -0.9356
  249MPD1    N1 3785   1.029   2.689   9.363  0.2110 -0.0861 -0.3899
  249MPD1    H6 3786   0.935   2.651   9.371 -0.3228  0.7140 -2.7792
  249MPD1    H7 3787   1.025   2.788   9.338  0.5214  0.3501  1.2407
  250MPD2     C 3788   2.918   2.171  12.929 -0.5263 -0.1763  0.1319
  250MPD2    C1 3789   2.845   2.279  12.979 -0.3659  0.1118 -0.1767
  250MPD2    C2 3790   2.712   2.256  13.015  0.3643 -0.6286  0.1303
  250MPD2    C3 3791   2.657   2.133  13.008  0.1672 -0.3192  0.2998
  250MPD2    C4 3792   2.725   2.030  12.954  0.2937  0.0986  0.1773
  250MPD2    C5 3793   2.855   2.049  12.918 -0.5304 -0.5146 -0.0961
  250MPD2     H 3794   2.651   2.338  13.051 -1.3037 -1.5716 -0.5656
  250MPD2    H1 3795   2.686   1.929  12.944 -1.8012  0.8581  0.6359
  250MPD2    H2 3796   3.021   2.182  12.896  0.0839 -3.2420  0.9819
  250MPD2    H3 3797   2.914   1.962  12.891 -1.2260 -0.3614 -2.0741
  250MPD2     N 3798   2.530   2.105  13.052  0.2414  0.3112  0.2128
  250MPD2    H5 3799   2.490   2.012  13.040  2.5759 -0.5388 -1.0488
  250MPD2    N1 3800   2.914   2.408  12.984 -0.3639 -0.3251 -0.3116
  250MPD2    H7 3801   3.009   2.412  12.948 -0.2822 -0.0203 -0.0727
  251TMC3    C1 3802   2.957   2.640  13.019  0.8798  0.4350  0.5512
  251TMC3    C2 3803   2.923   2.748  13.100  0.0416 -0.4929 -0.0626
  251TMC3    C3 3804   3.011   2.855  13.109  0.2282  0.0698  0.2535
  251TMC3    C4 3805   3.072   2.641  12.957 -0.7161  0.2872 -0.2773
  251TMC3    C5 3806   3.168   2.739  12.971 -0.1209 -0.1263 -1.3960
  251TMC3    C6 3807   3.138   2.843  13.057 -0.0609 -0.3563  0.7934
  251TMC3     C 3808   2.866   2.527  13.031 -0.6382 -0.6421  0.1799
  251TMC3     O 3809   2.757   2.547  13.083 -0.6602 -0.0283  0.7189
  251TMC3     H 3810   2.828   2.748  13.151 -0.4216  2.1570 -0.9418
  251TMC3    H1 3811   3.101   2.562  12.889 -0.3360 -1.0158  1.4015
  251TMC3    H2 3812   3.218   2.911  13.083 -0.2869 -0.0079  0.5734
  251TMC3    C7 3813   3.302   2.713  12.922  0.2152 -0.7911  0.3729
  251TMC3    C8 3814   2.969   2.972  13.181  0.3804 -0.5534  0.5957
  251TMC3    O1 3815   3.339   2.596  12.907  0.1223  0.6743  0.1864
  251TMC3    O2 3816   2.869   2.967  13.251  0.5396 -0.6803  0.2946
  252TMC3    C1 3817   2.746   3.725   9.391  0.1526 -0.1957  0.4935
  252TMC3    C2 3818   2.876   3.752   9.354 -0.0381 -0.4507 -0.8227
  252TMC3    C3 3819   2.974   3.660   9.357  0.6677 -0.0225 -0.4323
  252TMC3    C4 3820   2.710   3.606   9.422  0.5576  0.2763  0.4275
  252TMC3    C5 3821   2.801   3.511   9.421 -1.0150 -0.2466  0.6217
  252TMC3    C6 3822   2.934   3.533   9.390  0.3353 -0.0011  0.5593
  252TMC3     C 3823   2.638   3.818   9.351  0.6277 -0.5148  0.7158
  252TMC3     O 3824   2.530   3.809   9.405  0.4799  0.2765  0.4655
  252TMC3     H 3825   2.920   3.849   9.334  1.0121 -0.3725  1.7805
  252TMC3    H1 3826   2.608   3.577   9.446 -0.7208  1.7815 -3.3160
  252TMC3    H2 3827   3.001   3.451   9.365 -0.2209 -1.6374  4.4209
  252TMC3    C7 3828   2.764   3.373   9.440 -0.3328 -0.4441 -0.3347
  252TMC3    C8 3829   3.109   3.690   9.325  0.4105 -0.8370  0.2116
  252TMC3    O1 3830   2.642   3.351   9.435 -0.0975 -0.3377  0.0152
  252TMC3    O2 3831   3.132   3.789   9.257  0.4948  0.2701 -0.0580
  253MPD2     C 3832   4.236   2.415  15.146  0.3243 -0.1674  0.3933
  253MPD2    C1 3833   4.100   2.409  15.165 -0.0348 -0.2773 -0.0601
  253MPD2    C2 3834   4.049   2.358  15.281 -0.6982 -0.2710  0.3883
  253MPD2    C3 3835   4.136   2.324  15.389  0.1503  0.6758  0.0604
  253MPD2    C4 3836   4.266   2.340  15.363  0.0519 -0.2583 -0.4648
  253MPD2    C5 3837   4.325   2.372  15.245  0.0622 -0.4720  0.1001
  253MPD2     H 3838   3.943   2.340  15.290 -0.7748 -0.5511 -1.0961
  253MPD2    H1 3839   4.340   2.309  15.436  0.1738 -1.1167 -0.9536
  253MPD2    H2 3840   4.271   2.450  15.050  0.1027 -1.6773 -0.2183
  253MPD2    H3 3841   4.433   2.375  15.233 -0.0104  1.4871  0.0114
  253MPD2     N 3842   4.089   2.293  15.523 -0.2718 -0.1217  0.0266
  253MPD2    H5 3843   4.157   2.271  15.595  0.0409  0.8170  0.0151
  253MPD2    N1 3844   4.004   2.436  15.067  0.3825  0.3214 -0.0692
  253MPD2    H7 3845   3.907   2.407  15.078 -0.3991  3.0176  0.0914
  254TMC3    C1 3846   3.949   2.261  15.699 -0.5917 -0.1516  0.0865
  254TMC3    C2 3847   3.838   2.319  15.762  0.1670 -0.6124 -1.0687
  254TMC3    C3 3848   3.827   2.308  15.899 -0.2787 -0.1059 -0.5888
  254TMC3    C4 3849   4.049   2.197  15.767 -0.3620  0.0738  0.7525
  254TMC3    C5 3850   4.031   2.187  15.902 -0.1948  0.3532 -0.1962
  254TMC3    C6 3851   3.919   2.239  15.970 -0.8873  0.2503 -0.3091
  254TMC3     C 3852   3.957   2.283  15.558 -0.2021  0.2609  0.5798
  254TMC3     O 3853   3.851   2.299  15.500  0.2964 -0.4704 -0.2185
  254TMC3     H 3854   3.763   2.373  15.706  1.5313  1.6201 -0.7536
  254TMC3    H1 3855   4.141   2.165  15.720  0.0543  1.4593  0.6224
  254TMC3    H2 3856   3.899   2.225  16.076  1.6472  0.4345  0.1817
  254TMC3    C7 3857   4.133   2.123  15.981  0.7370  0.1757 -0.5145
  254TMC3    C8 3858   3.733   2.391  15.981 -0.0383  0.2932 -0.3596
  254TMC3    O1 3859   4.092   2.054  16.075  0.4264  0.3444 -0.4400
  254TMC3    O2 3860   3.765   2.421  16.097 -0.0312  0.0964 -0.6238
  255MPD2     C 3861   2.048   0.532   9.780 -0.9193  0.2507  0.1949
  255MPD2    C1 3862   2.089   0.656   9.733 -0.0867  0.1240  0.5232
  255MPD2    C2 3863   2.206   0.659   9.660 -1.1195 -0.1410 -0.2018
  255MPD2    C3 3864   2.286   0.547   9.651  0.6557  0.0830  0.1895
  255MPD2    C4 3865   2.246   0.431   9.719 -0.4388 -0.7921 -0.8988
  255MPD2    C5 3866   2.122   0.425   9.767 -0.4824 -0.6871 -0.4689
  255MPD2     H 3867   2.222   0.757   9.617  0.8645 -0.1868  0.4142
  255MPD2    H1 3868   2.306   0.341   9.722 -1.3839 -1.4071 -0.3731
  255MPD2    H2 3869   1.957   0.523   9.838 -1.4963  1.0444 -0.6037
  255MPD2    H3 3870   2.086   0.337   9.819  0.6338  0.2594  1.9402
  255MPD2     N 3871   2.413   0.564   9.584 -0.3556  0.3051  0.1093
  255MPD2    H5 3872   2.427   0.648   9.528 -1.2742  2.1593  2.6447
  255MPD2    N1 3873   2.004   0.772   9.756  0.7590  0.5932 -0.1986
  255MPD2    H7 3874   1.910   0.752   9.789  0.9176 -1.2571 -0.9146
  256TMC3    C1 3875   1.949   0.996   9.791 -0.0478 -0.1096 -0.6445
  256TMC3    C2 3876   1.995   1.126   9.786 -0.4756  0.1605  0.4375
  256TMC3    C3 3877   1.919   1.225   9.724 -0.1786 -0.2818  0.8113
  256TMC3    C4 3878   1.823   0.974   9.741 -0.6019 -0.1040  0.0204
  256TMC3    C5 3879   1.744   1.075   9.695  0.2740 -0.0982  0.0393
  256TMC3    C6 3880   1.791   1.204   9.679  0.0866 -0.8838 -0.1461
  256TMC3     C 3881   2.049   0.901   9.749  0.1910 -0.1466  0.1322
  256TMC3     O 3882   2.159   0.945   9.732 -0.4513  0.0345 -0.7158
  256TMC3     H 3883   2.091   1.147   9.833  1.5480 -1.7017 -2.8912
  256TMC3    H1 3884   1.784   0.873   9.745 -1.1044  0.0766 -0.4264
  256TMC3    H2 3885   1.738   1.289   9.637  0.0720 -0.7047  0.2363
  256TMC3    C7 3886   1.646   1.024   9.598 -0.8904  0.2522 -0.2967
  256TMC3    C8 3887   1.986   1.352   9.704  0.0460  0.1199 -0.7957
  256TMC3    O1 3888   1.639   0.904   9.568  0.4021 -0.4658 -0.6527
  256TMC3    O2 3889   2.101   1.338   9.663  0.1487 -0.4594  0.1125
  257MPD2     C 3890   1.547   2.869  13.239  0.1419 -0.2379  0.1418
  257MPD2    C1 3891   1.519   2.789  13.134  0.5900 -0.1799  0.6036
  257MPD2    C2 3892   1.495   2.655  13.154 -0.4218  0.5782  0.2191
  257MPD2    C3 3893   1.502   2.594  13.277  0.2764 -0.0665  0.2486
  257MPD2    C4 3894   1.542   2.674  13.382  0.2639  0.2148  0.9863
  257MPD2    C5 3895   1.557   2.807  13.359  0.5775 -0.3947 -0.0237
  257MPD2     H 3896   1.461   2.595  13.070 -0.6251  0.9392  0.0455
  257MPD2    H1 3897   1.555   2.636  13.482 -1.7532 -2.1620  0.3467
  257MPD2    H2 3898   1.569   2.976  13.232  0.1899 -0.2741 -0.2745
  257MPD2    H3 3899   1.579   2.872  13.443 -2.3140 -0.3341  0.6605
  257MPD2     N 3900   1.465   2.457  13.293 -0.1439 -0.1769 -0.4330
  257MPD2    H5 3901   1.393   2.428  13.227 -1.2720  1.0213  0.2616
  257MPD2    N1 3902   1.516   2.853  13.008 -0.1723 -0.4194 -0.0858
  257MPD2    H7 3903   1.525   2.954  13.006 -2.3174 -0.2332  0.1579
  258TMC3    C1 3904   1.461   2.238  13.379 -0.0735 -0.5434 -0.0615
  258TMC3    C2 3905   1.378   2.203  13.280 -0.6257  0.3655  0.2755
  258TMC3    C3 3906   1.318   2.083  13.286 -0.8902  0.2159 -0.5157
  258TMC3    C4 3907   1.490   2.155  13.481  0.7924  0.1331  0.6253
  258TMC3    C5 3908   1.435   2.029  13.485 -0.2762 -0.1910 -0.5079
  258TMC3    C6 3909   1.350   1.986  13.384  0.1211  0.0284 -1.3603
  258TMC3     C 3910   1.506   2.376  13.392  0.0478 -0.0901 -0.2836
  258TMC3     O 3911   1.595   2.403  13.473  0.6383  0.0885  0.1506
  258TMC3     H 3912   1.371   2.254  13.184 -1.0456 -1.5267 -0.7081
  258TMC3    H1 3913   1.549   2.194  13.563 -0.3000  2.1045  0.4891
  258TMC3    H2 3914   1.304   1.889  13.401  0.3428 -0.1865 -1.9668
  258TMC3    C7 3915   1.426   1.954  13.606  0.9322  0.0526  0.1849
  258TMC3    C8 3916   1.238   2.035  13.179  0.0948 -0.0347  0.0251
  258TMC3    O1 3917   1.315   1.922  13.639  0.4467  0.1671  0.1542
  258TMC3    O2 3918   1.236   1.912  13.185  0.0621  0.0940  0.6110
  259MPD2     C 3919   0.906   3.204   1.563  0.5651  0.2908  0.1675
  259MPD2    C1 3920   0.905   3.337   1.523 -0.4806  0.1178 -0.6764
  259MPD2    C2 3921   0.953   3.367   1.398  0.4486  0.4901 -0.6006
  259MPD2    C3 3922   1.011   3.270   1.315 -0.1633 -0.4795 -0.0071
  259MPD2    C4 3923   1.014   3.133   1.358  0.5859 -0.6748 -0.0529
  259MPD2    C5 3924   0.952   3.106   1.477  0.4731  0.1640  0.0480
  259MPD2     H 3925   0.940   3.468   1.361  4.4705  1.7911  1.4856
  259MPD2    H1 3926   1.038   3.045   1.300 -3.1151 -1.3227 -0.6184
  259MPD2    H2 3927   0.863   3.169   1.656 -0.6074 -3.5732 -1.8234
  259MPD2    H3 3928   0.933   3.001   1.497  0.7542 -0.2473 -1.8131
  259MPD2     N 3929   1.056   3.316   1.188 -0.1140 -0.1703 -0.4996
  259MPD2    H5 3930   1.049   3.416   1.170  1.3686  0.0980  0.3998
  259MPD2    N1 3931   0.841   3.438   1.599  0.1521 -0.5004  0.1033
  259MPD2    H7 3932   0.813   3.417   1.694  0.9974  0.8112  0.6426
  260TMC3    C1 3933   1.131   3.295   0.953 -0.5987 -0.5543  0.0343
  260TMC3    C2 3934   1.180   3.422   0.956 -0.1168 -0.4706  0.1261
  260TMC3    C3 3935   1.199   3.472   0.836  0.1465 -0.4117  0.2824
  260TMC3    C4 3936   1.112   3.212   0.849 -0.7474  0.6453  0.3871
  260TMC3    C5 3937   1.141   3.273   0.731  0.1514 -0.9651 -0.8033
  260TMC3    C6 3938   1.177   3.405   0.717 -0.2934 -0.8589  0.3165
  260TMC3     C 3939   1.087   3.233   1.082 -0.4501  0.0563  0.4282
  260TMC3     O 3940   1.092   3.109   1.083  0.4599  0.0269  0.2013
  260TMC3     H 3941   1.213   3.475   1.045  0.7662 -0.5294 -0.1666
  260TMC3    H1 3942   1.084   3.108   0.857  2.0694 -0.1574 -0.2217
  260TMC3    H2 3943   1.197   3.447   0.619 -0.1673 -2.3974 -0.3347
  260TMC3    C7 3944   1.098   3.205   0.609 -0.0853  0.6728 -0.0198
  260TMC3    C8 3945   1.224   3.615   0.832 -0.3681 -0.0307 -0.5175
  260TMC3    O1 3946   1.118   3.083   0.600  0.2633 -0.0963  0.4692
  260TMC3    O2 3947   1.194   3.687   0.924 -0.4348 -0.3435 -0.7200
  261MPD2     C 3948   1.841   2.186  12.699  0.0836 -0.1172 -0.1584
  261MPD2    C1 3949   1.970   2.232  12.727 -0.1936  0.4987  0.2120
  261MPD2    C2 3950   2.028   2.320  12.633 -0.4804 -0.3408  0.3598
  261MPD2    C3 3951   1.964   2.345  12.513  0.7477  0.3316  0.0928
  261MPD2    C4 3952   1.838   2.287  12.487  0.2870  0.3951 -0.0010
  261MPD2    C5 3953   1.775   2.225  12.587  0.3378  1.1027  0.6294
  261MPD2     H 3954   2.129   2.356  12.651  0.1929 -0.8133 -2.3726
  261MPD2    H1 3955   1.780   2.317  12.401 -1.3962 -1.8151  0.3418
  261MPD2    H2 3956   1.773   2.132  12.763  3.1821  0.1425  3.3441
  261MPD2    H3 3957   1.671   2.198  12.576  0.8772 -0.3040 -0.9249
  261MPD2     N 3958   2.042   2.409  12.410  0.3565  0.0029  0.7002
  261MPD2    H5 3959   2.136   2.440  12.430  0.5110  1.1800 -1.8431
  261MPD2    N1 3960   2.050   2.190  12.838 -0.1967 -0.5985  0.0223
  261MPD2    H7 3961   2.143   2.229  12.849  0.0419 -1.0573 -0.3996
  262TMC3    C1 3962   2.078   2.518  12.207 -0.1297 -0.2429 -0.1579
  262TMC3    C2 3963   2.028   2.608  12.116  0.3798  0.7123 -0.6181
  262TMC3    C3 3964   2.109   2.662  12.026 -0.9325  0.2785 -0.0374
  262TMC3    C4 3965   2.200   2.460  12.185 -0.4294  0.3675  0.7536
  262TMC3    C5 3966   2.278   2.513  12.086 -0.3418 -0.6452 -0.2949
  262TMC3    C6 3967   2.239   2.622  12.012 -0.4247 -0.0524  0.1663
  262TMC3     C 3968   1.982   2.457  12.293  0.2717  0.1481  0.2587
  262TMC3     O 3969   1.866   2.454  12.255  0.0842 -0.6530  0.5382
  262TMC3     H 3970   1.930   2.650  12.136  0.2888  0.7260 -1.0891
  262TMC3    H1 3971   2.235   2.382  12.252  1.9834  1.1699  0.4375
  262TMC3    H2 3972   2.307   2.658  11.935  2.6905 -2.6951  1.6417
  262TMC3    C7 3973   2.398   2.449  12.060 -0.1355 -0.1799 -0.6802
  262TMC3    C8 3974   2.058   2.749  11.919 -0.0462  0.2119  0.0895
  262TMC3    O1 3975   2.448   2.377  12.143  0.1059 -0.2535  0.3369
  262TMC3    O2 3976   2.144   2.831  11.888 -0.2370 -0.5354 -0.1907
  263MPD2     C 3977   3.202   1.278  10.774 -0.1068 -0.0943 -0.5117
  263MPD2    C1 3978   3.295   1.370  10.826  0.5671  0.4159 -0.6583
  263MPD2    C2 3979   3.344   1.467  10.739 -0.5198 -0.1683 -0.9658
  263MPD2    C3 3980   3.312   1.473  10.606 -0.8711  0.3266  0.1285
  263MPD2    C4 3981   3.233   1.366  10.559 -0.0142  0.5253  0.2509
  263MPD2    C5 3982   3.175   1.277  10.640  0.7300  0.1448  0.4218
  263MPD2     H 3983   3.418   1.539  10.773 -0.6323 -0.4319 -0.1682
  263MPD2    H1 3984   3.194   1.363  10.458 -0.1189  3.1079  0.1986
  263MPD2    H2 3985   3.167   1.194  10.833 -0.9619  1.6214  1.4214
  263MPD2    H3 3986   3.112   1.205  10.589  1.1036 -0.1034  0.3166
  263MPD2     N 3987   3.365   1.574  10.531 -0.1689 -0.3825 -0.2586
  263MPD2    H5 3988   3.404   1.652  10.584  1.0057 -1.4027  0.3948
  263MPD2    N1 3989   3.326   1.361  10.961  0.4521  0.1001  0.8268
  263MPD2    H7 3990   3.299   1.274  11.005  1.5625 -0.6877 -0.0510
  264TMC3    C1 3991   3.425   1.697  10.349 -0.1220  0.3777 -0.0278
  264TMC3    C2 3992   3.406   1.817  10.417  0.0395 -0.1887  0.1605
  264TMC3    C3 3993   3.495   1.914  10.393  0.1234 -0.1694 -0.1343
  264TMC3    C4 3994   3.526   1.688  10.255 -0.0532 -0.2567 -0.2971
  264TMC3    C5 3995   3.603   1.795  10.225 -0.2288  0.4119  0.2181
  264TMC3    C6 3996   3.588   1.907  10.297  0.4519 -0.4040  0.5907
  264TMC3     C 3997   3.348   1.588  10.394 -0.1124 -0.1282  0.2030
  264TMC3     O 3998   3.335   1.500  10.308 -0.4655  0.4487  0.0750
  264TMC3     H 3999   3.321   1.824  10.483  0.1564  0.9326  0.2053
  264TMC3    H1 4000   3.544   1.593  10.207 -2.0871 -1.3787  1.1378
  264TMC3    H2 4001   3.659   1.987  10.276  0.0849 -0.4450 -0.7993
  264TMC3    C7 4002   3.710   1.790  10.126  0.1420 -0.8724  0.0600
  264TMC3    C8 4003   3.469   2.048  10.443 -0.2739 -0.5308 -1.0094
  264TMC3    O1 4004   3.801   1.714  10.144  0.0635  0.1237  0.4169
  264TMC3    O2 4005   3.507   2.144  10.376 -0.0818 -0.4598  0.6582
  265MPD2     C 4006   0.496   1.721  15.363 -0.3129  0.0492  0.1726
  265MPD2    C1 4007   0.510   1.833  15.285 -0.0571  0.0268  0.2347
  265MPD2    C2 4008   0.587   1.827  15.167 -0.3449  0.7989  0.2429
  265MPD2    C3 4009   0.635   1.707  15.121  0.0946  0.2288 -1.0626
  265MPD2    C4 4010   0.616   1.594  15.199  0.6509 -0.1658  0.2284
  265MPD2    C5 4011   0.547   1.603  15.319  0.2235 -0.3112 -0.0476
  265MPD2     H 4012   0.596   1.916  15.105  0.2040  0.3212 -0.3680
  265MPD2    H1 4013   0.657   1.497  15.172  1.4821 -0.0562  1.1179
  265MPD2    H2 4014   0.449   1.728  15.461  3.0037  0.4627  1.7231
  265MPD2    H3 4015   0.545   1.513  15.379  0.5804 -0.2682  0.0306
  265MPD2     N 4016   0.713   1.694  15.004 -0.3467 -0.1930  0.4742
  265MPD2    H5 4017   0.738   1.596  14.992 -0.7359 -0.0328 -1.6047
  265MPD2    N1 4018   0.469   1.965  15.324 -0.1440  0.2194 -0.5166
  265MPD2    H7 4019   0.492   2.040  15.259  0.4828 -0.9533 -1.6443
  266TMC3    C1 4020   0.426   2.134  15.489  0.4619  0.5556 -0.2123
  266TMC3    C2 4021   0.485   2.162  15.612 -1.0898 -0.0729  0.4073
  266TMC3    C3 4022   0.476   2.288  15.660  0.5062  0.0188 -0.0018
  266TMC3    C4 4023   0.367   2.227  15.410 -0.4778  0.5500 -0.0956
  266TMC3    C5 4024   0.355   2.349  15.470  0.5789 -0.2196 -0.4906
  266TMC3    C6 4025   0.412   2.386  15.594  0.0597 -0.0285 -0.3515
  266TMC3     C 4026   0.442   1.992  15.455 -0.9262 -0.6520  0.2459
  266TMC3     O 4027   0.470   1.926  15.553 -0.5309  0.2700  0.0979
  266TMC3     H 4028   0.549   2.089  15.661  1.5986  1.7526 -0.4212
  266TMC3    H1 4029   0.324   2.210  15.312  3.8342 -1.0666 -1.7146
  266TMC3    H2 4030   0.416   2.484  15.641  0.1741 -0.9521  1.5943
  266TMC3    C7 4031   0.310   2.455  15.386  0.1063  0.4983  0.5606
  266TMC3    C8 4032   0.560   2.318  15.775 -0.1550 -0.4080 -0.2570
  266TMC3    O1 4033   0.280   2.436  15.269 -0.1255 -0.7442  0.7760
  266TMC3    O2 4034   0.628   2.222  15.810 -0.3146 -0.0517  0.1629
  267MPD2     C 4035   3.259   3.277  17.193  0.1934  0.2815  0.0173
  267MPD2    C1 4036   3.299   3.409  17.186 -0.2538 -0.3621  0.1029
  267MPD2    C2 4037   3.199   3.509  17.156  0.6331 -0.3152 -0.5536
  267MPD2    C3 4038   3.068   3.467  17.113 -0.2645  0.1915  0.8362
  267MPD2    C4 4039   3.043   3.335  17.107  1.2548  0.6731  0.1672
  267MPD2    C5 4040   3.141   3.246  17.149 -0.7792 -0.0399  0.5918
  267MPD2     H 4041   3.220   3.615  17.158 -1.7238  0.1326 -0.3923
  267MPD2    H1 4042   2.953   3.295  17.062  2.0642 -1.2207  0.2384
  267MPD2    H2 4043   3.324   3.195  17.220 -3.3457 -2.1175  1.3432
  267MPD2    H3 4044   3.120   3.140  17.136  0.4074 -0.0665 -1.2080
  267MPD2     N 4045   2.972   3.557  17.075 -0.2785 -0.2290 -0.3941
  267MPD2    H5 4046   2.884   3.521  17.040  0.2622  0.1826 -2.2224
  267MPD2    N1 4047   3.424   3.448  17.238 -0.4720  0.0822  0.1191
  267MPD2    H7 4048   3.485   3.371  17.265 -0.3644 -0.5648 -1.9658
  268TMC3    C1 4049   3.617   3.593  17.257 -0.5252 -0.1209  0.2898
  268TMC3    C2 4050   3.681   3.706  17.200 -0.3172  0.7334  0.2382
  268TMC3    C3 4051   3.805   3.734  17.259  0.1235 -0.3258  0.4369
  268TMC3    C4 4052   3.670   3.527  17.368 -0.5354  0.0889 -0.0688
  268TMC3    C5 4053   3.792   3.561  17.417  0.4417 -0.4126 -0.0196
  268TMC3    C6 4054   3.861   3.668  17.363 -0.6506 -0.2042 -0.0637
  268TMC3     C 4055   3.476   3.577  17.225 -0.2607 -0.6078 -0.0605
  268TMC3     O 4056   3.429   3.672  17.168 -0.0807  0.3490 -0.3364
  268TMC3     H 4057   3.649   3.751  17.107 -2.3668 -1.9167 -0.3418
  268TMC3    H1 4058   3.618   3.439  17.405  0.7815 -0.4315  0.5138
  268TMC3    H2 4059   3.957   3.699  17.401 -1.5107 -0.3608  2.2198
  268TMC3    C7 4060   3.854   3.466  17.499  0.9048  0.3581 -0.1808
  268TMC3    C8 4061   3.872   3.855  17.222 -0.5855 -0.5647 -0.2944
  268TMC3    O1 4062   3.782   3.376  17.542  0.5105  0.8121  0.0831
  268TMC3    O2 4063   3.989   3.874  17.259 -0.0411  0.3424 -0.2928
  269MPD2     C 4064   3.316   2.434  15.526  0.4782 -0.0811 -0.0927
  269MPD2    C1 4065   3.209   2.494  15.588  0.1592  0.2761 -0.7464
  269MPD2    C2 4066   3.181   2.626  15.563 -0.6008  0.6178  1.1535
  269MPD2    C3 4067   3.270   2.695  15.481 -0.0076 -0.0366  0.4141
  269MPD2    C4 4068   3.372   2.636  15.406 -0.0211  0.0563  0.7876
  269MPD2    C5 4069   3.392   2.505  15.443 -0.1454 -0.5082  0.2832
  269MPD2     H 4070   3.093   2.677  15.599 -0.5119  1.7727 -0.2739
  269MPD2    H1 4071   3.442   2.678  15.336  1.5850 -2.3184  0.9803
  269MPD2    H2 4072   3.341   2.330  15.546 -1.8819 -1.2334 -3.0929
  269MPD2    H3 4073   3.471   2.451  15.391 -1.8125 -1.2879 -1.4677
  269MPD2     N 4074   3.238   2.829  15.461  0.1919 -0.2266  0.0328
  269MPD2    H5 4075   3.173   2.866  15.530  0.1863 -0.8727  0.3818
  269MPD2    N1 4076   3.121   2.408  15.657  0.2970 -0.2039 -0.1538
  269MPD2    H7 4077   3.144   2.309  15.653  0.1031 -0.2167 -0.9651
  270TMC3    C1 4078   2.950   2.342  15.800  0.5545 -0.2758 -0.4096
  270TMC3    C2 4079   2.817   2.302  15.780  0.1647  0.3682 -0.0376
  270TMC3    C3 4080   2.774   2.176  15.820  0.4047 -0.5865  0.1444
  270TMC3    C4 4081   3.039   2.255  15.859  0.3167  0.2882  1.2786
  270TMC3    C5 4082   2.989   2.137  15.911  0.0180  0.5106 -0.3067
  270TMC3    C6 4083   2.863   2.097  15.888  0.4713  0.0039 -0.7965
  270TMC3     C 4084   3.001   2.445  15.715 -0.1871  0.1732  0.0369
  270TMC3     O 4085   2.938   2.546  15.691  0.6233 -0.1801 -0.3197
  270TMC3     H 4086   2.758   2.375  15.726  0.4873  1.5243  1.1697
  270TMC3    H1 4087   3.145   2.277  15.871  0.2070  1.4767  0.0277
  270TMC3    H2 4088   2.835   1.994  15.907 -0.7173  0.3349 -0.8166
  270TMC3    C7 4089   3.082   2.037  15.953  0.2270  0.1262 -0.1697
  270TMC3    C8 4090   2.681   2.104  15.742 -0.0735 -0.0111  0.0754
  270TMC3    O1 4091   3.179   2.029  15.881 -0.1729 -0.0881  0.0063
  270TMC3    O2 4092   2.715   1.991  15.709 -0.1080 -0.5451  0.4389
  271MPD2     C 4093   2.249   2.430  13.843  0.2998 -0.7641  0.3258
  271MPD2    C1 4094   2.149   2.380  13.928 -0.1576  0.4710 -0.1417
  271MPD2    C2 4095   2.022   2.416  13.900 -0.0289  0.4887 -0.7165
  271MPD2    C3 4096   1.993   2.494  13.788  0.2342  0.6604  0.4459
  271MPD2    C4 4097   2.092   2.545  13.707  0.0171  0.1010  0.2159
  271MPD2    C5 4098   2.223   2.517  13.739 -0.2806 -0.0086  0.5992
  271MPD2     H 4099   1.946   2.380  13.968 -0.7039 -0.8368 -2.1794
  271MPD2    H1 4100   2.073   2.624  13.635 -2.0396  0.1649  0.8302
  271MPD2    H2 4101   2.353   2.408  13.862  0.6421  0.4638 -0.1345
  271MPD2    H3 4102   2.301   2.556  13.675 -0.1539  0.1538  0.8487
  271MPD2     N 4103   1.868   2.538  13.763  0.3291  0.3219  0.4965
  271MPD2    H5 4104   1.850   2.595  13.681 -1.4842 -0.5560  0.2878
  271MPD2    N1 4105   2.174   2.297  14.039 -0.0181  0.3343  0.2669
  271MPD2    H7 4106   2.092   2.273  14.093  0.0184 -0.1433  0.1126
  272TMC3    C1 4107   2.301   2.175  14.194  0.0297 -0.1506  0.2411
  272TMC3    C2 4108   2.395   2.079  14.214  0.2467 -0.0024  0.3679
  272TMC3    C3 4109   2.425   2.041  14.344  0.3445 -0.4574 -0.3545
  272TMC3    C4 4110   2.242   2.233  14.306  0.0959  0.0378 -0.8913
  272TMC3    C5 4111   2.279   2.194  14.433  0.5930  0.3508 -0.5214
  272TMC3    C6 4112   2.366   2.084  14.457  0.9708  0.1263 -0.0314
  272TMC3     C 4113   2.290   2.228  14.063 -0.5087 -0.0356 -0.1325
  272TMC3     O 4114   2.386   2.206  13.987 -0.2547 -0.3984 -0.3134
  272TMC3     H 4115   2.446   2.047  14.124  0.3814 -0.0863  0.4743
  272TMC3    H1 4116   2.178   2.318  14.287  1.1174  0.7491 -1.1849
  272TMC3    H2 4117   2.382   2.043  14.555 -1.8871 -1.8455 -0.3917
  272TMC3    C7 4118   2.226   2.266  14.540 -0.3125 -0.3798 -0.3749
  272TMC3    C8 4119   2.558   1.976  14.337  0.1345 -0.2364 -0.5265
  272TMC3    O1 4120   2.119   2.326  14.519  0.2990  0.0510  0.7310
  272TMC3    O2 4121   2.632   2.007  14.243  0.2469  0.0368 -0.0049
  273MPD2     C 4122   3.814   0.021  11.364  0.1456  0.0067  0.2055
  273MPD2    C1 4123   3.943   0.062  11.363 -0.5209 -0.5974  0.5502
  273MPD2    C2 4124   3.980   0.170  11.292 -0.3920 -0.4187  0.2144
  273MPD2    C3 4125   3.878   0.234  11.215  0.0914  0.2334 -0.1249
  273MPD2    C4 4126   3.751   0.182  11.209  1.1914  0.3408  0.2279
  273MPD2    C5 4127   3.725   0.074  11.285  0.2974 -0.5946  0.3451
  273MPD2     H 4128   4.084   0.199  11.283 -1.6463  4.1673  0.5958
  273MPD2    H1 4129   3.673   0.220  11.144  1.5699 -0.7044 -0.8429
  273MPD2    H2 4130   3.775   4.668  11.434  0.5321  0.7424  1.1918
  273MPD2    H3 4131   3.628   0.026  11.283  0.2054 -0.4435  1.0880
  273MPD2     N 4132   3.901   0.347  11.127 -0.4938  0.3733 -0.3249
  273MPD2    H5 4133   3.827   0.374  11.063  1.1823  0.4771 -2.2128
  273MPD2    N1 4134   4.029   0.003  11.458  0.1354  0.7037  0.2316
  273MPD2    H7 4135   3.987   4.651  11.514  1.7646 -1.5014 -1.4356
  274TMC3    C1 4136   4.016   0.524  11.016  0.1211 -0.1974 -0.1212
  274TMC3    C2 4137   3.917   0.518  10.920 -0.1208 -0.3430  0.4726
  274TMC3    C3 4138   3.892   0.635  10.846  0.0574  0.5242  0.4723
  274TMC3    C4 4139   4.086   0.637  11.048  0.2567 -0.1024  0.1852
  274TMC3    C5 4140   4.047   0.750  10.980 -0.2487 -0.3591  0.1444
  274TMC3    C6 4141   3.965   0.747  10.869  0.7692 -0.0038 -1.0425
  274TMC3     C 4142   4.018   0.419  11.118  0.7128 -0.7150  0.3508
  274TMC3     O 4143   4.117   0.416  11.189 -0.1703  0.5768  0.2556
  274TMC3     H 4144   3.873   0.421  10.903 -1.1485  0.3739 -0.9940
  274TMC3    H1 4145   4.150   0.639  11.136 -0.0633  0.8347  0.4008
  274TMC3    H2 4146   3.915   0.840  10.844 -1.1680 -1.0375 -1.0171
  274TMC3    C7 4147   4.047   0.874  11.047  0.5551  0.3745 -0.6827
  274TMC3    C8 4148   3.784   0.626  10.756 -0.4222 -0.5891 -0.5485
  274TMC3    O1 4149   3.993   0.969  10.992  0.3238 -0.3583 -0.6109
  274TMC3    O2 4150   3.703   0.538  10.779  0.6203  0.4203  0.2058
  275MPD2     C 4151   3.928   2.819  14.516  0.9206  0.5574 -0.7213
  275MPD2    C1 4152   3.839   2.915  14.487  0.3012 -0.4355  0.2635
  275MPD2    C2 4153   3.704   2.891  14.481 -0.5765 -0.0069 -0.3761
  275MPD2    C3 4154   3.656   2.766  14.513  0.0803 -0.5528 -0.0803
  275MPD2    C4 4155   3.748   2.670  14.542 -0.4671 -0.0417  0.2993
  275MPD2    C5 4156   3.879   2.696  14.545 -0.4486 -0.4510 -0.1112
  275MPD2     H 4157   3.639   2.976  14.465  1.7963  1.9961  0.7881
  275MPD2    H1 4158   3.721   2.568  14.568  0.1457 -0.7287 -1.7497
  275MPD2    H2 4159   4.036   2.824  14.519  0.9105 -0.2516  0.6347
  275MPD2    H3 4160   3.946   2.615  14.571  0.4291 -1.1774 -4.5580
  275MPD2     N 4161   3.519   2.727  14.514 -0.5303 -0.4928 -0.2008
  275MPD2    H5 4162   3.499   2.631  14.536  1.7791 -1.0470 -0.4865
  275MPD2    N1 4163   3.877   3.051  14.455 -0.1438  0.8095 -0.7103
  275MPD2    H7 4164   3.805   3.114  14.424 -0.5068  0.7990  0.1211
  276TMC3    C1 4165   4.000   3.247  14.475 -0.4887 -0.5652  0.0913
  276TMC3    C2 4166   3.882   3.307  14.436 -0.3187  0.3197 -0.6543
  276TMC3    C3 4167   3.846   3.432  14.485 -0.2617 -0.0552  0.5010
  276TMC3    C4 4168   4.091   3.307  14.563 -0.6314  0.3914 -0.5242
  276TMC3    C5 4169   4.048   3.423  14.615  0.2299  0.0533  0.3677
  276TMC3    C6 4170   3.928   3.486  14.576  0.6684  0.1989  0.8057
  276TMC3     C 4171   4.003   3.102  14.464 -0.1993 -0.8695 -0.0838
  276TMC3     O 4172   4.108   3.043  14.488 -0.4657  0.5720  0.2258
  276TMC3     H 4173   3.808   3.264  14.369  0.9125 -1.2582 -0.9979
  276TMC3    H1 4174   4.186   3.261  14.588  0.1331  2.9183  1.2797
  276TMC3    H2 4175   3.898   3.572  14.635 -0.3556  1.1904 -1.1686
  276TMC3    C7 4176   4.114   3.476  14.735  0.1146 -0.2771 -0.2199
  276TMC3    C8 4177   3.714   3.414  14.534  0.4286  0.3127  0.4934
  276TMC3    O1 4178   4.087   3.594  14.760 -0.2217 -0.4772 -0.0320
  276TMC3    O2 4179   3.646   3.514  14.557  0.0207 -0.2361  0.6172
  277MPD2     C 4180   0.492   2.524  12.946 -0.1295 -0.3659  0.0020
  277MPD2    C1 4181   0.401   2.592  13.027  0.6805  0.8976 -0.0174
  277MPD2    C2 4182   0.336   2.519  13.126 -0.5121  0.2650 -0.5684
  277MPD2    C3 4183   0.352   2.382  13.135  0.2889 -0.2510  0.0022
  277MPD2    C4 4184   0.444   2.321  13.055 -0.6772 -0.0097  0.7529
  277MPD2    C5 4185   0.518   2.391  12.967  0.0555 -0.2719 -0.0467
  277MPD2     H 4186   0.245   2.553  13.174  0.8857  0.9620  1.5604
  277MPD2    H1 4187   0.475   2.217  13.057 -1.1776 -0.1277  2.3112
  277MPD2    H2 4188   0.558   2.585  12.885 -1.1564 -2.8917 -3.6441
  277MPD2    H3 4189   0.590   2.338  12.905 -1.0191 -1.9730  0.1489
  277MPD2     N 4190   0.274   2.319  13.234  0.1017  0.6513 -0.3462
  277MPD2    H5 4191   0.206   2.376  13.283 -0.1821  2.6095 -3.0551
  277MPD2    N1 4192   0.367   2.724  12.989 -0.3029 -0.3255 -0.4660
  277MPD2    H7 4193   0.402   2.766  12.904  1.2988  2.0760  1.3549
  278TMC3    C1 4194   0.176   2.130  13.335 -0.1855  0.3143 -0.4671
  278TMC3    C2 4195   0.210   2.030  13.425 -0.2353  0.3905  0.5371
  278TMC3    C3 4196   0.103   1.965  13.477 -0.8879 -0.2989 -0.1941
  278TMC3    C4 4197   0.044   2.176  13.305 -0.7485 -0.8886  0.5840
  278TMC3    C5 4198   4.671   2.095  13.366 -0.2895 -0.1377  0.4983
  278TMC3    C6 4199   4.693   1.996  13.453 -0.0145 -0.0573  0.3043
  278TMC3     C 4200   0.285   2.184  13.259 -0.4130 -0.7768  0.5404
  278TMC3     O 4201   0.369   2.099  13.219  0.2079 -0.0143  0.2160
  278TMC3     H 4202   0.310   1.992  13.447 -0.6904 -0.2727  1.4859
  278TMC3    H1 4203   0.027   2.266  13.246  3.2244 -1.7734 -1.8848
  278TMC3    H2 4204   4.614   1.926  13.477  1.3335 -1.5637  0.3535
  278TMC3    C7 4205   4.535   2.159  13.355  0.5529  0.4938 -0.0248
  278TMC3    C8 4206   0.131   1.830  13.513  0.1767  0.4384 -0.4420
  278TMC3    O1 4207   4.510   2.232  13.259 -0.2414 -0.5843  0.0858
  278TMC3    O2 4208   0.116   1.784  13.623  0.2320  0.6436 -0.3597
  279MPD2     C 4209   0.634   2.126  17.580  0.5319  0.6907 -0.0468
  279MPD2    C1 4210   0.642   2.249  17.538  0.3039 -0.3450 -0.3212
  279MPD2    C2 4211   0.612   2.284  17.408  0.3237 -0.0760  0.0791
  279MPD2    C3 4212   0.569   2.183  17.320  0.2722 -0.3772  0.8731
  279MPD2    C4 4213   0.556   2.057  17.370 -0.4845 -0.7180 -0.0031
  279MPD2    C5 4214   0.586   2.031  17.501  0.1169  0.5912  0.4319
  279MPD2     H 4215   0.609   2.385  17.369 -1.2452 -0.3246 -0.4281
  279MPD2    H1 4216   0.506   1.974  17.321  0.2658 -0.8251 -0.5851
  279MPD2    H2 4217   0.654   2.093  17.682 -1.1423  1.9445  0.6787
  279MPD2    H3 4218   0.567   1.932  17.539  1.1068 -0.1372 -0.9331
  279MPD2     N 4219   0.525   2.204  17.187  0.1366  0.2960 -0.0662
  279MPD2    H5 4220   0.490   2.125  17.133  0.2349  0.4502 -0.3588
  279MPD2    N1 4221   0.673   2.344  17.631 -0.1023  0.2110  0.2066
  279MPD2    H7 4222   0.722   2.317   0.027  0.8298 -0.8093 -0.6577
  280TMC3    C1 4223   0.502   2.502  17.585  0.3243  0.5076 -0.0887
  280TMC3    C2 4224   0.397   2.415  17.597 -0.0563 -1.0051 -0.1245
  280TMC3    C3 4225   0.294   2.433  17.513  0.5528  0.4241 -0.2386
  280TMC3    C4 4226   0.490   2.617  17.517 -0.5369  0.8076 -0.0712
  280TMC3    C5 4227   0.379   2.644  17.446 -0.8330 -0.0094 -0.2161
  280TMC3    C6 4228   0.280   2.549  17.436  0.3103  0.3184 -0.1420
  280TMC3     C 4229   0.631   2.474  17.630  0.4471  0.3832  0.3495
  280TMC3     O 4230   0.673   2.566   0.012 -0.4232  0.2259 -0.0900
  280TMC3     H 4231   0.418   2.319  17.642  1.8105 -0.2605  0.5538
  280TMC3    H1 4232   0.572   2.687  17.505  0.9512 -0.8118  0.6686
  280TMC3    H2 4233   0.202   2.559  17.361 -0.6187  2.1550  1.0563
  280TMC3    C7 4234   0.345   2.784  17.436  0.1688 -0.1040  0.3137
  280TMC3    C8 4235   0.239   2.313  17.438  0.8268 -0.5238 -0.3092
  280TMC3    O1 4236   0.433   2.858  17.461  0.3021 -0.3606 -0.6468
  280TMC3    O2 4237   0.208   2.328  17.323 -0.0430 -0.0184  0.7027
  281TMC3    C1 4238   3.577   2.468  13.174  0.4316  0.2477 -0.4290
  281TMC3    C2 4239   3.679   2.534  13.103 -0.2886  0.5447  0.2327
  281TMC3    C3 4240   3.707   2.490  12.976  0.0724  0.3498 -0.2503
  281TMC3    C4 4241   3.528   2.347  13.127  0.6868  0.2553  0.4875
  281TMC3    C5 4242   3.576   2.298  13.014 -0.7623 -0.2699 -0.5472
  281TMC3    C6 4243   3.673   2.364  12.945  0.0627  0.2671 -0.3884
  281TMC3     C 4244   3.482   2.544  13.256  0.2014  0.7681 -1.2146
  281TMC3     O 4245   3.380   2.486  13.277 -0.0588 -0.3786 -0.0476
  281TMC3     H 4246   3.722   2.629  13.132 -0.8391  0.5937  0.8920
  281TMC3    H1 4247   3.448   2.293  13.177  0.3257 -1.2385 -1.7086
  281TMC3    H2 4248   3.705   2.327  12.848 -1.3924  0.7596 -1.0508
  281TMC3    C7 4249   3.493   2.212  12.932  0.7079 -0.2204 -0.0299
  281TMC3    C8 4250   3.819   2.540  12.906 -0.2460  0.1947 -0.4385
  281TMC3    O1 4251   3.504   2.210  12.814  0.3084 -0.4939  0.6254
  281TMC3    O2 4252   3.904   2.459  12.872 -0.8606 -1.1518 -0.3924
  282MPD2     C 4253   0.830   4.001  15.173 -0.2710 -0.1234 -0.0257
  282MPD2    C1 4254   0.706   3.994  15.230  0.0777  0.5454 -0.4813
  282MPD2    C2 4255   0.595   3.969  15.151  0.6949 -0.1590 -0.2898
  282MPD2    C3 4256   0.604   3.968  15.011  0.1098 -0.3897  0.4972
  282MPD2    C4 4257   0.725   4.002  14.955  0.3202 -0.3020  0.2652
  282MPD2    C5 4258   0.839   4.010  15.034  0.0846  0.3167  0.2304
  282MPD2     H 4259   0.497   3.953  15.195  1.4209 -0.5027  1.1824
  282MPD2    H1 4260   0.747   4.010  14.849 -1.2464 -2.8413 -0.2345
  282MPD2    H2 4261   0.922   4.018  15.229 -0.3146 -0.3936  0.1279
  282MPD2    H3 4262   0.930   4.046  14.987 -0.3432 -0.7609 -1.3855
  282MPD2     N 4263   0.487   3.947  14.934 -0.2272 -0.6673  0.5806
  282MPD2    H5 4264   0.395   3.938  14.976 -0.3046  0.9037  0.7775
  282MPD2    N1 4265   0.692   4.004  15.370 -0.5825  0.6293  0.0973
  282MPD2    H7 4266   0.598   3.987  15.406 -0.1942 -1.4204  0.1244
  283TMC3    C1 4267   0.755   4.049  15.589 -0.0449 -0.1998 -0.0187
  283TMC3    C2 4268   0.778   4.162  15.667  0.3511  0.2177 -0.2266
  283TMC3    C3 4269   0.714   4.167  15.784  0.2672  0.2250  0.9257
  283TMC3    C4 4270   0.682   3.938  15.642 -0.2455 -0.4812  0.6998
  283TMC3    C5 4271   0.634   3.950  15.770 -0.1019  0.0569 -0.5292
  283TMC3    C6 4272   0.641   4.067  15.837  0.4463 -0.4183 -0.4533
  283TMC3     C 4273   0.786   4.058  15.454 -0.0904 -0.0559  0.4370
  283TMC3     O 4274   0.880   4.133  15.429 -0.4263 -0.1786  0.1986
  283TMC3     H 4275   0.840   4.245  15.636  0.2669  0.9438  1.5457
  283TMC3    H1 4276   0.667   3.849  15.583 -0.0853 -1.3011  1.9000
  283TMC3    H2 4277   0.603   4.075  15.938  1.0322 -1.6749 -0.1378
  283TMC3    C7 4278   0.526   3.865  15.809  0.1998 -0.1542 -0.6757
  283TMC3    C8 4279   0.710   4.299  15.861  0.5669 -0.1308 -0.0005
  283TMC3    O1 4280   0.451   3.921  15.891  0.2876  0.0580  0.4318
  283TMC3    O2 4281   0.673   4.299  15.978  0.1585 -0.2022 -0.0864
  284MPD2     C 4282   2.794   3.166  11.413  0.5345  0.4994 -0.1272
  284MPD2    C1 4283   2.900   3.252  11.418 -0.0929 -0.7003  0.0607
  284MPD2    C2 4284   2.966   3.270  11.536  0.7404  0.1450 -0.4182
  284MPD2    C3 4285   2.917   3.214  11.652 -0.6522 -0.2541 -0.2871
  284MPD2    C4 4286   2.802   3.133  11.652 -0.3793 -0.5375  0.1359
  284MPD2    C5 4287   2.749   3.107  11.526  0.4913 -0.1715  0.2532
  284MPD2     H 4288   3.050   3.339  11.540  1.8598 -1.2987  1.3958
  284MPD2    H1 4289   2.759   3.083  11.738  1.1375  0.4714  1.4700
  284MPD2    H2 4290   2.733   3.141  11.327  1.9375  1.2715 -1.3408
  284MPD2    H3 4291   2.655   3.052  11.526 -0.4824  1.5179  0.1228
  284MPD2     N 4292   2.979   3.230  11.771 -0.2495 -0.2900 -0.3635
  284MPD2    H5 4293   2.931   3.190  11.850 -0.7978  1.6224  0.2712
  284MPD2    N1 4294   2.949   3.301  11.297 -0.6775  0.4356 -0.1609
  284MPD2    H7 4295   3.022   3.372  11.298  0.4394 -0.7018  2.7470
  285TMC3    C1 4296   3.001   3.325  11.077 -0.1822  0.9812 -0.1040
  285TMC3    C2 4297   3.116   3.264  11.045 -0.4790  0.0968 -0.3021
  285TMC3    C3 4298   3.227   3.343  11.023 -0.3295  0.7409 -0.0315
  285TMC3    C4 4299   3.002   3.464  11.089  0.1788 -1.0255  0.2854
  285TMC3    C5 4300   3.111   3.547  11.058 -0.2579  0.0503 -0.0746
  285TMC3    C6 4301   3.223   3.480  11.033  1.2452 -0.3661 -0.5797
  285TMC3     C 4302   2.921   3.254  11.172  0.3778  0.2177 -0.0634
  285TMC3     O 4303   2.894   3.142  11.145  0.2332  0.5132  0.4110
  285TMC3     H 4304   3.116   3.156  11.047  1.7733  0.0841 -0.1852
  285TMC3    H1 4305   2.904   3.507  11.111  0.8878  0.3853  0.7023
  285TMC3    H2 4306   3.309   3.543  11.015  0.4332  1.0988  0.5712
  285TMC3    C7 4307   3.105   3.690  11.056 -0.0095 -1.2765  0.2740
  285TMC3    C8 4308   3.353   3.267  11.002  0.4821 -0.6222 -0.2626
  285TMC3    O1 4309   3.207   3.753  11.072 -0.0858 -0.0776 -0.0645
  285TMC3    O2 4310   3.339   3.159  10.946  0.0995 -0.0478 -0.0889
  286MPD2     C 4311   4.129   2.127   1.382 -0.2780  0.3265  0.0746
  286MPD2    C1 4312   4.150   2.043   1.271  0.5769  0.1624  0.0075
  286MPD2    C2 4313   4.263   1.965   1.275 -0.0957 -0.1298  0.2644
  286MPD2    C3 4314   4.347   1.964   1.383 -0.0680 -0.3041  0.5282
  286MPD2    C4 4315   4.308   2.034   1.496  1.0047 -1.0047 -0.8192
  286MPD2    C5 4316   4.203   2.121   1.496  0.1177  0.6967 -0.0930
  286MPD2     H 4317   4.292   1.916   1.183 -0.2410  2.0267 -0.9291
  286MPD2    H1 4318   4.367   2.020   1.586  1.3107 -0.4523 -0.9388
  286MPD2    H2 4319   4.064   2.213   1.374 -0.9442  0.0114  1.9850
  286MPD2    H3 4320   4.190   2.189   1.580 -2.4858  0.8008 -0.5658
  286MPD2     N 4321   4.465   1.889   1.388  0.0921  0.1522 -0.6390
  286MPD2    H5 4322   4.528   1.924   1.460 -0.2590  0.8883 -0.6824
  286MPD2    N1 4323   4.073   2.053   1.149  0.1708 -0.0123  0.1192
  286MPD2    H7 4324   4.112   2.003   1.070  0.4611  0.4712 -0.0431
  287TMC3    C1 4325   4.649   1.750   1.298 -0.3660 -0.4917 -0.2649
  287TMC3    C2 4326   4.701   1.689   1.185  1.1571 -0.7667 -0.4019
  287TMC3    C3 4327   0.092   1.608   1.190 -0.0584  0.7982 -0.3684
  287TMC3    C4 4328   4.710   1.736   1.420 -0.3378 -0.2231 -0.4561
  287TMC3    C5 4329   0.104   1.658   1.421  0.2682 -0.4866  0.2098
  287TMC3    C6 4330   0.149   1.591   1.307 -0.0456 -0.2305  0.0860
  287TMC3     C 4331   4.512   1.802   1.288  0.5592 -0.0243 -0.1076
  287TMC3     O 4332   4.455   1.758   1.189 -0.6394  0.2284  0.5138
  287TMC3     H 4333   4.649   1.709   1.092 -0.8616 -0.6917  0.7510
  287TMC3    H1 4334   4.669   1.777   1.511 -0.7026 -1.6779  0.0275
  287TMC3    H2 4335   0.231   1.521   1.315  0.8392  0.8572  0.4816
  287TMC3    C7 4336   0.179   1.677   1.547 -0.4244  0.3814 -0.3702
  287TMC3    C8 4337   0.083   1.499   1.097  0.2173 -0.4687  0.6546
  287TMC3    O1 4338   0.148   1.761   1.633 -0.3991 -0.2637  0.1591
  287TMC3    O2 4339   0.083   1.381   1.131  0.1445 -0.2905  0.0669
  288TMC3    C1 4340   0.943   1.625  14.195 -0.3455  0.2563  0.0157
  288TMC3    C2 4341   0.896   1.570  14.317  0.1229  0.2292  0.8446
  288TMC3    C3 4342   0.757   1.552  14.321 -0.4483  0.3395  0.3529
  288TMC3    C4 4343   0.861   1.680  14.100 -0.0316  0.7563  0.0737
  288TMC3    C5 4344   0.723   1.658  14.116 -0.1358  0.3986 -0.6111
  288TMC3    C6 4345   0.670   1.591  14.224  0.1121  0.7389 -0.0137
  288TMC3     C 4346   1.083   1.666  14.199  0.3818 -0.2915 -0.4456
  288TMC3     O 4347   1.129   1.745  14.119 -0.0241 -0.4924  0.1483
  288TMC3     H 4348   0.946   1.560  14.412 -0.4107 -2.5841  0.8333
  288TMC3    H1 4349   0.897   1.726  14.009 -2.3596  0.5651 -0.9488
  288TMC3    H2 4350   0.563   1.593  14.239  0.2083  1.2357  0.5966
  288TMC3    C7 4351   0.618   1.721  14.023  0.3515 -0.3054 -0.1660
  288TMC3    C8 4352   0.703   1.552  14.455 -1.1488 -0.5751  0.6410
  288TMC3    O1 4353   0.504   1.716  14.061  0.2520 -0.0498 -0.7926
  288TMC3    O2 4354   0.757   1.623  14.535 -0.1417  0.1976  0.5851
  289MPD2     C 4355   1.153   0.672  14.360  0.2599 -0.3022 -0.8025
  289MPD2    C1 4356   1.114   0.803  14.337 -0.1617 -0.3081 -0.6340
  289MPD2    C2 4357   0.998   0.836  14.261 -0.3651  0.3967 -0.0669
  289MPD2    C3 4358   0.916   0.729  14.217  0.2063  0.5790 -0.1625
  289MPD2    C4 4359   0.951   0.601  14.252  0.0393  0.0025  1.3720
  289MPD2    C5 4360   1.069   0.574  14.319 -0.3169 -0.2522  0.2328
  289MPD2     H 4361   0.969   0.940  14.256  0.0912  0.5465  0.3796
  289MPD2    H1 4362   0.888   0.516  14.226 -2.5183  1.0908  3.9173
  289MPD2    H2 4363   1.249   0.648  14.404 -0.5155 -0.9051  0.5405
  289MPD2    H3 4364   1.085   0.476  14.361 -1.1668 -0.1292  0.8539
  289MPD2     N 4365   0.786   0.748  14.163 -0.3894  0.3638 -0.3822
  289MPD2    H5 4366   0.728   0.665  14.151  1.4606 -0.7759 -1.3420
  289MPD2    N1 4367   1.206   0.906  14.382  0.7570 -0.4549 -1.1659
  289MPD2    H7 4368   1.282   0.873  14.441  0.3312  1.6843  0.5900
  290TMC3    C1 4369   0.583   0.874  14.118  0.1479 -0.1131 -1.0199
  290TMC3    C2 4370   0.539   0.979  14.038 -0.4577  0.3052 -0.2578
  290TMC3    C3 4371   0.407   0.993  14.030 -0.5532 -0.3531  0.5037
  290TMC3    C4 4372   0.496   0.777  14.177 -0.3595 -1.0743 -0.1481
  290TMC3    C5 4373   0.362   0.803  14.168 -0.3300  0.5168 -0.8250
  290TMC3    C6 4374   0.320   0.917  14.103 -0.1577  0.1198 -0.1859
  290TMC3     C 4375   0.734   0.870  14.129 -0.7348  0.6148  1.1295
  290TMC3     O 4376   0.780   0.984  14.107  1.0901 -0.1662  0.4400
  290TMC3     H 4377   0.602   1.056  13.996  0.2984 -0.9151 -1.3778
  290TMC3    H1 4378   0.541   0.713  14.253 -1.6915  2.2402  3.4234
  290TMC3    H2 4379   0.219   0.956  14.111  0.1356  0.6381  1.1262
  290TMC3    C7 4380   0.262   0.739  14.243 -0.1254 -0.3982 -1.1074
  290TMC3    C8 4381   0.370   1.117  13.977 -0.7368  0.0581 -1.0680
  290TMC3    O1 4382   0.145   0.775  14.228  0.1183 -0.0361 -0.4349
  290TMC3    O2 4383   0.447   1.211  14.001  0.3695  0.0706 -0.8381
  291MPD2     C 4384   0.132   0.870   0.178  0.0803 -0.2928  0.2453
  291MPD2    C1 4385   0.132   0.745   0.120  0.0587  0.3167  0.6827
  291MPD2    C2 4386   0.227   0.712   0.024 -0.5670 -0.0993 -0.2461
  291MPD2    C3 4387   0.322   0.801  17.661  0.2728  0.4954 -0.5506
  291MPD2    C4 4388   0.319   0.928   0.031 -0.4991  0.2127 -0.0430
  291MPD2    C5 4389   0.232   0.955   0.134  0.1334 -1.0214  0.7747
  291MPD2     H 4390   0.221   0.611  17.671  1.1913  0.4988 -1.9515
  291MPD2    H1 4391   0.390   1.005   0.005 -1.7056  1.2590 -0.2073
  291MPD2    H2 4392   0.061   0.909   0.250  0.1635 -0.3118  0.3368
  291MPD2    H3 4393   0.226   1.055   0.175 -0.3241 -1.2668  1.3118
  291MPD2     N 4394   0.416   0.770  17.557  0.8003  0.1332  0.3669
  291MPD2    H5 4395   0.473   0.850  17.533  0.4438  0.3779  0.3252
  291MPD2    N1 4396   0.039   0.650   0.157  0.5420  0.1125  0.1076
  291MPD2    H7 4397   0.059   0.553   0.132  4.2203  1.1340 -0.8663
  292TMC3    C1 4398   4.572   0.546   0.263 -1.3799  0.1995  0.1864
  292TMC3    C2 4399   4.508   0.541   0.379 -0.3858 -0.2277  0.6930
  292TMC3    C3 4400   4.452   0.422   0.407 -0.8457  0.0807 -0.0873
  292TMC3    C4 4401   4.578   0.445   0.171 -0.1704  0.4615 -0.1382
  292TMC3    C5 4402   4.512   0.327   0.203  0.6485  0.2916  0.0011
  292TMC3    C6 4403   4.454   0.314   0.322  0.1559  0.3605  0.3928
  292TMC3     C 4404   4.670   0.657   0.263  0.7462  0.3781  0.6471
  292TMC3     O 4405   4.638   0.756   0.333 -0.3321  0.3291 -0.1606
  292TMC3     H 4406   4.509   0.623   0.449 -2.1167 -0.3889  0.8999
  292TMC3    H1 4407   4.621   0.451   0.072  1.7830  0.6200  0.7117
  292TMC3    H2 4408   4.396   0.223   0.336 -3.3985  2.7738  1.3890
  292TMC3    C7 4409   4.510   0.224   0.107  0.0860  0.5899 -0.0771
  292TMC3    C8 4410   4.403   0.401   0.546  0.0983 -0.4271  0.1567
  292TMC3    O1 4411   4.603   0.205   0.029  0.9712 -0.0007  0.0438
  292TMC3    O2 4412   4.382   0.496   0.620  0.0361  0.4142  0.5593
  293MPD2     C 4413   1.733   2.685  12.403  0.1597  0.5644  0.5039
  293MPD2    C1 4414   1.631   2.622  12.482  0.5075 -0.3685  0.4006
  293MPD2    C2 4415   1.654   2.597  12.616  0.2203  0.1642  0.4062
  293MPD2    C3 4416   1.772   2.631  12.674 -0.2141  0.0011 -0.2020
  293MPD2    C4 4417   1.867   2.695  12.598  0.4063  0.7351 -0.5141
  293MPD2    C5 4418   1.850   2.722  12.466  0.5099  0.4005  0.4582
  293MPD2     H 4419   1.575   2.541  12.665  0.0800 -2.4382 -2.8220
  293MPD2    H1 4420   1.963   2.729  12.636 -0.2766 -0.3000  2.1102
  293MPD2    H2 4421   1.714   2.698  12.297 -2.1482  0.9246  0.9546
  293MPD2    H3 4422   1.918   2.791  12.417  0.0006 -0.9450 -2.1206
  293MPD2     N 4423   1.780   2.603  12.808 -0.1934 -0.1507  0.4896
  293MPD2    H5 4424   1.692   2.575  12.850  0.5098 -2.5209  0.3963
  293MPD2    N1 4425   1.508   2.594  12.410  0.8816  0.3827  0.2727
  293MPD2    H7 4426   1.497   2.629  12.316 -1.3286  1.6735  1.0315
  294TMC3    C1 4427   1.294   2.512  12.354  0.4004 -0.4684  0.3767
  294TMC3    C2 4428   1.175   2.454  12.386  0.1820 -0.1163  0.2531
  294TMC3    C3 4429   1.074   2.436  12.293  0.5923  0.1893  0.1996
  294TMC3    C4 4430   1.322   2.545  12.225  0.3078  0.4289 -0.4557
  294TMC3    C5 4431   1.216   2.533  12.138  0.0046 -0.5963 -0.4525
  294TMC3    C6 4432   1.095   2.475  12.167 -0.0330  0.0956 -0.3958
  294TMC3     C 4433   1.397   2.530  12.460  0.5727  0.0019  0.0008
  294TMC3     O 4434   1.388   2.452  12.558 -0.3161  0.2061  0.3647
  294TMC3     H 4435   1.160   2.428  12.490  2.9872 -0.8052  0.4773
  294TMC3    H1 4436   1.414   2.595  12.198 -0.3613  1.8597 -0.1064
  294TMC3    H2 4437   1.024   2.453  12.089  2.3743 -0.4123 -2.4342
  294TMC3    C7 4438   1.244   2.542  11.998  0.0546  0.1351 -0.6027
  294TMC3    C8 4439   0.982   2.324  12.321  0.0696 -0.5486  0.3660
  294TMC3    O1 4440   1.153   2.587  11.930  0.1675  0.5111 -0.0113
  294TMC3    O2 4441   0.912   2.336  12.420  0.1424  0.5820  0.0676
  295MPD2     C 4442   2.055   0.815   0.107  0.8992 -0.1282  1.0615
  295MPD2    C1 4443   2.032   0.949   0.071  0.1616  0.8598 -0.3000
  295MPD2    C2 4444   1.918   1.006   0.130 -0.2186  0.2225  0.5645
  295MPD2    C3 4445   1.840   0.952   0.229 -0.3885  0.4790 -0.6632
  295MPD2    C4 4446   1.859   0.817   0.249 -0.1787  0.3785 -0.2983
  295MPD2    C5 4447   1.970   0.762   0.195 -0.5151 -0.0043 -0.0267
  295MPD2     H 4448   1.895   1.103   0.087 -1.0138  0.5882  1.8039
  295MPD2    H1 4449   1.802   0.764   0.324 -1.1439  0.4843 -0.9526
  295MPD2    H2 4450   2.143   0.757   0.083  1.0022  0.7757 -0.8041
  295MPD2    H3 4451   1.992   0.656   0.206 -0.7316 -0.0711 -0.2374
  295MPD2     N 4452   1.732   1.020   0.284  0.4667 -0.1267 -1.0182
  295MPD2    H5 4453   1.669   0.966   0.342  0.9516  3.2302  2.5884
  295MPD2    N1 4454   2.111   1.026  17.668 -0.4081  0.4671  0.4598
  295MPD2    H7 4455   2.076   1.117  17.639  0.7932  0.9606  0.5491
  296TMC3    C1 4456   1.607   1.192   0.351 -0.8089 -0.4774  0.1795
  296TMC3    C2 4457   1.626   1.280   0.453 -0.1327  0.4249 -0.2042
  296TMC3    C3 4458   1.525   1.311   0.541  0.3293 -0.5780 -0.1220
  296TMC3    C4 4459   1.492   1.130   0.335  0.0063 -0.0367  0.5247
  296TMC3    C5 4460   1.394   1.158   0.427 -0.4324  0.1894 -0.3898
  296TMC3    C6 4461   1.404   1.258   0.520 -0.4225 -0.3721 -0.3336
  296TMC3     C 4462   1.725   1.154   0.280  0.8390  0.4289  0.3467
  296TMC3     O 4463   1.814   1.236   0.256  0.1433  0.0454 -0.2805
  296TMC3     H 4464   1.727   1.316   0.469 -0.6647  1.1413  1.5244
  296TMC3    H1 4465   1.482   1.048   0.266  0.8593 -0.1543  0.5433
  296TMC3    H2 4466   1.328   1.278   0.594 -0.0060  2.4172 -0.6614
  296TMC3    C7 4467   1.307   1.044   0.457  0.1227  0.5028 -0.1845
  296TMC3    C8 4468   1.543   1.425   0.629  0.4221 -0.0900 -0.1316
  296TMC3    O1 4469   1.294   0.962   0.367 -0.4477  0.1469 -0.0023
  296TMC3    O2 4470   1.444   1.493   0.648 -0.0892 -0.2973 -0.4408
  297MPD2     C 4471   4.396   2.799  16.553 -0.1847 -0.3412  0.4755
  297MPD2    C1 4472   4.359   2.849  16.427  0.0803  0.0819  0.3183
  297MPD2    C2 4473   4.458   2.924  16.361 -0.0351  0.7131 -0.2550
  297MPD2    C3 4474   4.582   2.947  16.421  0.0774 -0.0122  0.4869
  297MPD2    C4 4475   4.611   2.890  16.547  0.1920  0.3588  0.4723
  297MPD2    C5 4476   4.519   2.817  16.619 -0.3499 -0.3042 -0.4502
  297MPD2     H 4477   4.435   2.951  16.258  0.3186 -2.7219 -1.2491
  297MPD2    H1 4478   4.713   2.903  16.581  0.3480 -0.7828  0.4459
  297MPD2    H2 4479   4.331   2.732  16.608  1.0731 -1.0919  1.0438
  297MPD2    H3 4480   4.543   2.770  16.714  0.3881 -0.6511 -0.8139
  297MPD2     N 4481   4.679   3.031  16.364  0.0914  0.0764  0.1919
  297MPD2    H5 4482   0.034   3.058  16.426 -0.3921  1.8109  0.0290
  297MPD2    N1 4483   4.231   2.832  16.364 -0.3458  0.2905  0.5137
  297MPD2    H7 4484   4.215   2.862  16.269 -0.0189 -3.5870 -0.7772
  298TMC3    C1 4485   4.010   2.795  16.335 -0.7398 -0.3971  0.0942
  298TMC3    C2 4486   4.033   2.783  16.199  0.0386  0.0663  0.7549
  298TMC3    C3 4487   3.925   2.763  16.117 -0.1416 -0.7449  0.0035
  298TMC3    C4 4488   3.881   2.789  16.383 -0.1716  0.6922  0.0476
  298TMC3    C5 4489   3.778   2.755  16.306 -0.4782  1.0761  0.1570
  298TMC3    C6 4490   3.804   2.732  16.172 -1.1811  0.9674 -0.7335
  298TMC3     C 4491   4.114   2.801  16.427  0.2780  0.2034  0.4691
  298TMC3     O 4492   4.101   2.761  16.542 -0.0489 -0.4101 -0.1016
  298TMC3     H 4493   4.132   2.805  16.160 -0.0899 -0.2395  0.2566
  298TMC3    H1 4494   3.865   2.805  16.489 -2.4493 -2.5377  0.2145
  298TMC3    H2 4495   3.730   2.688  16.105 -1.1330 -2.3038  1.3818
  298TMC3    C7 4496   3.648   2.802  16.344 -0.2046  0.7010 -0.2441
  298TMC3    C8 4497   3.970   2.729  15.983 -0.1340  0.7126 -0.6216
  298TMC3    O1 4498   3.627   2.815  16.464  0.5059 -0.1476  0.0249
  298TMC3    O2 4499   4.088   2.708  15.970 -0.6727  0.4117  0.2535
  299MPD2     C 4500   0.372   2.761  10.326 -0.2315 -0.5175  0.0110
  299MPD2    C1 4501   0.359   2.874  10.247  0.4415 -0.0626 -0.5328
  299MPD2    C2 4502   0.299   2.870  10.127 -0.3552 -0.1382  0.2660
  299MPD2    C3 4503   0.240   2.751  10.091 -0.6856  0.3341 -0.2590
  299MPD2    C4 4504   0.258   2.635  10.163 -0.3145 -0.7430  0.7304
  299MPD2    C5 4505   0.326   2.635  10.286  0.5945  0.2728  0.8186
  299MPD2     H 4506   0.281   2.958  10.067 -0.1637 -1.6256 -1.9690
  299MPD2    H1 4507   0.206   2.547  10.130 -0.4361 -0.4533  0.1540
  299MPD2    H2 4508   0.411   2.770  10.427  0.0638 -1.2053 -0.0375
  299MPD2    H3 4509   0.320   2.543  10.343 -0.9152  1.3519  2.4039
  299MPD2     N 4510   0.156   2.739   9.976 -0.4908 -0.3971 -0.2397
  299MPD2    H5 4511   0.108   2.650   9.969 -0.1092 -0.7486  1.6501
  299MPD2    N1 4512   0.395   2.994  10.317 -0.3186 -0.0914 -0.0511
  299MPD2    H7 4513   0.423   2.984  10.414  0.3348 -0.1728 -0.2454
  300TMC3    C1 4514   4.692   2.830   9.872  0.8509 -0.1320  0.1885
  300TMC3    C2 4515   4.615   2.941   9.853  0.7795 -0.9313 -0.6589
  300TMC3    C3 4516   4.480   2.934   9.873  0.8116  0.9574 -0.1112
  300TMC3    C4 4517   4.639   2.706   9.893  0.7310 -0.0588 -0.6876
  300TMC3    C5 4518   4.504   2.707   9.928 -0.2001  0.1807 -0.0258
  300TMC3    C6 4519   4.420   2.815   9.907  0.7934  0.5451  0.4017
  300TMC3     C 4520   0.107   2.852   9.911  0.1254  0.1615  0.3223
  300TMC3     O 4521   0.146   2.969   9.904  0.1843 -0.0311  0.0692
  300TMC3     H 4522   4.662   3.038   9.846 -1.8258  0.4554  1.1170
  300TMC3    H1 4523   4.685   2.608   9.899  1.7014  0.2969 -2.2227
  300TMC3    H2 4524   4.315   2.797   9.929  0.3554 -0.0217 -2.1704
  300TMC3    C7 4525   4.443   2.588   9.985  0.3909  0.2937  0.0155
  300TMC3    C8 4526   4.412   3.058   9.924  0.2674 -0.2994  0.1743
  300TMC3    O1 4527   4.457   2.479   9.924 -0.4385 -0.0307  0.3280
  300TMC3    O2 4528   4.478   3.163   9.929  0.5320 -0.0724 -0.3388
  301MPD2     C 4529   1.873   3.573   1.156  0.2132 -0.4138 -0.9268
  301MPD2    C1 4530   1.910   3.616   1.029 -0.0952  0.4776 -0.7676
  301MPD2    C2 4531   2.043   3.594   0.996  0.4384 -0.1646  0.2073
  301MPD2    C3 4532   2.137   3.544   1.085  0.0609  0.9828  0.4491
  301MPD2    C4 4533   2.094   3.524   1.214  0.0495 -0.4676 -0.0345
  301MPD2    C5 4534   1.963   3.535   1.248  0.3510 -0.4049 -0.4070
  301MPD2     H 4535   2.069   3.620   0.894 -0.0378 -1.3503 -0.2143
  301MPD2    H1 4536   2.162   3.483   1.288 -1.6153 -1.5131  0.9127
  301MPD2    H2 4537   1.774   3.586   1.197  0.4018  1.3476 -1.0190
  301MPD2    H3 4538   1.924   3.514   1.347  0.7689 -0.8737 -0.3415
  301MPD2     N 4539   2.277   3.552   1.059  0.1256 -0.4094 -0.4038
  301MPD2    H5 4540   2.337   3.493   1.116 -0.2323  2.0016  2.4710
  301MPD2    N1 4541   1.831   3.695   0.944  0.2674 -0.0805  0.0211
  301MPD2    H7 4542   1.878   3.737   0.864 -1.7049 -0.8533 -1.5410
  302TMC3    C1 4543   2.468   3.613   0.926 -0.2431 -0.1152 -0.3444
  302TMC3    C2 4544   2.519   3.491   0.956  0.7132  0.2935 -0.7728
  302TMC3    C3 4545   2.647   3.466   0.921 -0.7202  0.4332  0.2187
  302TMC3    C4 4546   2.545   3.715   0.877 -0.2418 -0.7094  0.6011
  302TMC3    C5 4547   2.677   3.688   0.842 -0.2490  0.1757 -0.5154
  302TMC3    C6 4548   2.727   3.563   0.865  0.6526  0.4937 -0.1622
  302TMC3     C 4549   2.330   3.643   0.963 -0.0829 -0.1693  0.1946
  302TMC3     O 4550   2.284   3.745   0.916  0.3912 -0.1563  0.1531
  302TMC3     H 4551   2.453   3.409   0.979 -1.1967  2.0823  0.0881
  302TMC3    H1 4552   2.502   3.810   0.847  0.9851 -0.2595  0.2835
  302TMC3    H2 4553   2.833   3.548   0.844  0.8945 -0.4768  1.7123
  302TMC3    C7 4554   2.772   3.780   0.782  0.7865 -0.2670 -0.5103
  302TMC3    C8 4555   2.701   3.328   0.935  0.5888 -0.8383 -0.0951
  302TMC3    O1 4556   2.895   3.772   0.808  0.1307  0.1786  0.1150
  302TMC3    O2 4557   2.794   3.300   0.865  0.1290  0.8379 -0.3555
  303MPD2     C 4558   2.427   2.513  10.153 -0.2356  0.7205  0.2411
  303MPD2    C1 4559   2.320   2.454  10.098 -0.2672  0.0225  0.4753
  303MPD2    C2 4560   2.329   2.385   9.981 -0.2465 -0.4345  0.0859
  303MPD2    C3 4561   2.455   2.364   9.913  0.8883 -0.2731 -0.6647
  303MPD2    C4 4562   2.557   2.439   9.965  0.4918 -0.4711 -0.8841
  303MPD2    C5 4563   2.543   2.520  10.076 -0.3243 -0.2439  0.3828
  303MPD2     H 4564   2.240   2.333   9.947 -0.4989  0.3012 -0.3809
  303MPD2    H1 4565   2.657   2.440   9.924  0.3890  0.3033 -1.1236
  303MPD2    H2 4566   2.417   2.573  10.243  0.1264 -0.2786  0.9460
  303MPD2    H3 4567   2.622   2.585  10.111  0.3899 -0.5137 -0.7240
  303MPD2     N 4568   2.490   2.266   9.813 -0.4541  0.1164 -0.2795
  303MPD2    H5 4569   2.584   2.257   9.776 -0.9389  1.9083 -1.9546
  303MPD2    N1 4570   2.188   2.446  10.157  0.0086  1.3587  0.0558
  303MPD2    H7 4571   2.110   2.399  10.111 -0.5848  2.0095  0.4037
  304TMC3    C1 4572   2.014   2.481  10.303  0.7228 -0.4091  0.0828
  304TMC3    C2 4573   1.932   2.466  10.190  0.0778 -0.2011  0.1153
  304TMC3    C3 4574   1.813   2.410  10.217 -0.5509 -0.4934 -0.7878
  304TMC3    C4 4575   1.987   2.433  10.430  0.1578 -0.1365  0.0290
  304TMC3    C5 4576   1.866   2.376  10.450  0.1339 -0.4813 -0.0354
  304TMC3    C6 4577   1.775   2.368  10.343  0.2845  0.0703  0.4049
  304TMC3     C 4578   2.156   2.490  10.283  0.5027 -0.1954 -0.0036
  304TMC3     O 4579   2.232   2.515  10.375 -0.3426  0.4553 -1.1115
  304TMC3     H 4580   1.958   2.521  10.100  0.3155 -0.7977 -0.1762
  304TMC3    H1 4581   2.056   2.453  10.510 -0.2275 -0.2037  0.3799
  304TMC3    H2 4582   1.677   2.325  10.362  0.8468 -1.7585 -0.8338
  304TMC3    C7 4583   1.864   2.245  10.502 -0.2458 -0.5521  0.2965
  304TMC3    C8 4584   1.747   2.335  10.106  0.1984  0.4872 -0.1812
  304TMC3    O1 4585   1.810   2.168  10.428  0.1085 -0.2717  0.0565
  304TMC3    O2 4586   1.770   2.383   9.995  0.5906  0.4987 -0.3719
  305MPD2     C 4587   0.527   4.227  13.842  0.1935  0.1007  0.2320
  305MPD2    C1 4588   0.500   4.102  13.880 -0.7153 -1.0502  0.0836
  305MPD2    C2 4589   0.463   4.010  13.775 -0.1789  0.4568 -0.2307
  305MPD2    C3 4590   0.477   4.036  13.637  0.4294  0.0926 -0.0786
  305MPD2    C4 4591   0.518   4.162  13.602  0.3265  0.0945  0.5321
  305MPD2    C5 4592   0.544   4.252  13.705 -0.7069  0.1960  0.0001
  305MPD2     H 4593   0.423   3.912  13.799  1.9038 -0.7457 -1.6929
  305MPD2    H1 4594   0.519   4.194  13.499  0.5959 -0.5821  0.3227
  305MPD2    H2 4595   0.574   4.299  13.908 -2.4384 -0.3201  2.5053
  305MPD2    H3 4596   0.587   4.348  13.682  0.2492 -0.2908 -0.2257
  305MPD2     N 4597   0.430   3.963  13.529 -0.6151  0.0390  0.0312
  305MPD2    H5 4598   0.451   3.991  13.433  0.7042  0.1734  0.3573
  305MPD2    N1 4599   0.500   4.077  14.019 -0.7414  0.7454 -0.2189
  305MPD2    H7 4600   0.520   4.160  14.074 -0.2797  0.4376  0.0744
  306TMC3    C1 4601   0.546   3.948  14.210  0.2334  0.1622 -0.4528
  306TMC3    C2 4602   0.648   3.861  14.236  0.5203 -0.5077  0.1252
  306TMC3    C3 4603   0.691   3.867  14.364 -0.4139 -1.0317 -0.5974
  306TMC3    C4 4604   0.507   4.049  14.295 -0.0520  0.2181 -0.5300
  306TMC3    C5 4605   0.573   4.062  14.407 -0.7059 -0.5788  0.0375
  306TMC3    C6 4606   0.662   3.976  14.447  0.2107  0.4582 -0.2192
  306TMC3     C 4607   0.491   3.951  14.074 -0.0622 -0.6320  0.0443
  306TMC3     O 4608   0.490   3.844  14.012 -0.1248  0.2983 -0.4716
  306TMC3     H 4609   0.684   3.778  14.176  1.2616  0.5928 -0.9319
  306TMC3    H1 4610   0.418   4.109  14.281 -0.3893 -0.3689 -0.9062
  306TMC3    H2 4611   0.703   3.977  14.548  0.8250 -0.7025 -0.4506
  306TMC3    C7 4612   0.532   4.148  14.517  0.5383 -0.0167 -0.1947
  306TMC3    C8 4613   0.788   3.762  14.413 -0.2709  0.3687  0.0802
  306TMC3    O1 4614   0.412   4.172  14.534  0.1467 -0.3067 -0.0263
  306TMC3    O2 4615   0.843   3.698  14.326  0.4859  0.2037 -0.6887
  307MPD2     C 4616   3.037   1.621   0.159 -0.3178  0.3250 -0.2554
  307MPD2    C1 4617   3.029   1.713   0.268 -0.8027  0.7360 -0.1481
  307MPD2    C2 4618   2.928   1.685   0.354 -0.8793  0.7480 -0.0854
  307MPD2    C3 4619   2.856   1.565   0.348 -0.2556  0.0529  0.7918
  307MPD2    C4 4620   2.862   1.481   0.241 -0.4101  0.2689 -0.0181
  307MPD2    C5 4621   2.958   1.514   0.154 -0.0425 -0.3066  0.0848
  307MPD2     H 4622   2.920   1.749   0.441  0.5897  0.5329  0.2115
  307MPD2    H1 4623   2.791   1.399   0.228  2.7160 -2.3979 -0.1099
  307MPD2    H2 4624   3.103   1.642   0.075 -0.5738  2.0217 -0.0363
  307MPD2    H3 4625   2.969   1.459   0.061  1.1425 -0.5323  0.3523
  307MPD2     N 4626   2.756   1.556   0.450  0.5869 -0.6793 -0.3871
  307MPD2    H5 4627   2.744   1.636   0.510 -1.2151 -0.6615 -0.7540
  307MPD2    N1 4628   3.092   1.841   0.279 -0.1074  0.4097  0.3964
  307MPD2    H7 4629   3.063   1.904   0.353 -1.0058  1.1437 -0.5891
  308TMC3    C1 4630   2.342   1.579   0.551  0.0349 -0.4486  0.4348
  308TMC3    C2 4631   2.377   1.682   0.633 -0.3981 -0.1164  0.1391
  308TMC3    C3 4632   2.505   1.689   0.678  0.4880 -0.9160  0.2829
  308TMC3    C4 4633   2.428   1.484   0.514  0.6098 -0.0331  0.2460
  308TMC3    C5 4634   2.561   1.497   0.554  0.0581  0.4994  0.2895
  308TMC3    C6 4635   2.603   1.597   0.644 -0.1478  0.1327 -0.2518
  308TMC3     C 4636   2.207   1.557   0.515 -0.2603 -0.5049 -0.9471
  308TMC3     O 4637   2.172   1.441   0.519  0.7407 -0.2649 -0.2903
  308TMC3     H 4638   2.307   1.764   0.646  1.0691  1.3096 -1.0632
  308TMC3    H1 4639   2.403   1.405   0.443  0.0694  2.5201 -2.4256
  308TMC3    H2 4640   2.697   1.585   0.698 -2.0039  1.8053  3.3676
  308TMC3    C7 4641   2.662   1.455   0.458 -1.1468  0.9086 -0.0001
  308TMC3    C8 4642   2.556   1.800   0.747 -0.2200  0.1835 -0.6605
  308TMC3    O1 4643   2.646   1.359   0.385 -0.4319 -0.4378  0.1556
  308TMC3    O2 4644   2.674   1.794   0.778 -0.5527 -0.5309 -0.8373
  309MPD2     C 4645   2.265   2.296  17.066  0.1532  0.4135 -0.3505
  309MPD2    C1 4646   2.240   2.386  16.968  0.1894  0.1088  0.5764
  309MPD2    C2 4647   2.112   2.442  16.969  0.4385 -0.5635  0.8803
  309MPD2    C3 4648   2.018   2.423  17.076  0.2873  0.3450  0.6824
  309MPD2    C4 4649   2.042   2.328  17.169 -0.2429 -0.4412  0.2982
  309MPD2    C5 4650   2.166   2.264  17.159  0.7369 -0.1455  0.1708
  309MPD2     H 4651   2.093   2.513  16.890 -2.1967 -1.9109  0.3235
  309MPD2    H1 4652   1.976   2.305  17.252 -1.0215  1.8440  0.3072
  309MPD2    H2 4653   2.364   2.253  17.077 -0.8723 -1.2256  2.3436
  309MPD2    H3 4654   2.187   2.187  17.233  0.1439  0.2864  0.7952
  309MPD2     N 4655   1.903   2.496  17.084 -0.0265 -0.2963  0.3871
  309MPD2    H5 4656   1.862   2.494  17.177  0.3588  2.7507  0.6223
  309MPD2    N1 4657   2.326   2.415  16.861 -0.1531  0.2932 -0.4555
  309MPD2    H7 4658   2.285   2.464  16.782  2.8097  2.1285 -0.8246
  310TMC3    C1 4659   2.530   2.437  16.737 -0.3113 -0.0432  0.2632
  310TMC3    C2 4660   2.471   2.493  16.628  0.2854  0.1716  0.0449
  310TMC3    C3 4661   2.551   2.547  16.524 -0.0757 -0.3540 -0.1347
  310TMC3    C4 4662   2.664   2.425  16.746 -0.4922  0.0520  0.1912
  310TMC3    C5 4663   2.740   2.490  16.649  0.8835  0.0145  0.1490
  310TMC3    C6 4664   2.689   2.539  16.537  0.2548  0.2201 -0.3233
  310TMC3     C 4665   2.456   2.384  16.850 -0.0241 -0.2196 -0.4708
  310TMC3     O 4666   2.522   2.318  16.925  0.3424 -0.1116  0.5998
  310TMC3     H 4667   2.363   2.489  16.619  0.0583  0.2985  2.5757
  310TMC3    H1 4668   2.706   2.365  16.826 -1.4593  0.5512  1.0609
  310TMC3    H2 4669   2.746   2.601  16.469  0.2198  0.9762  0.3404
  310TMC3    C7 4670   2.880   2.453  16.637  0.4771 -0.4037 -0.4208
  310TMC3    C8 4671   2.481   2.606  16.412 -0.2642  0.7111  0.7885
  310TMC3    O1 4672   2.935   2.472  16.529  0.6270 -0.1072 -0.4911
  310TMC3    O2 4673   2.361   2.593  16.415 -0.3147  0.1904  0.2859
  311MPD2     C 4674   4.499   3.942  11.988 -0.2609 -0.5049 -0.0793
  311MPD2    C1 4675   4.553   4.016  12.093 -0.5121 -0.0051  0.1816
  311MPD2    C2 4676   4.514   4.002  12.223 -1.1809  0.6099  0.4917
  311MPD2    C3 4677   4.416   3.910  12.254 -0.3386 -0.4361  0.3530
  311MPD2    C4 4678   4.363   3.838  12.151 -0.2554  0.7068 -0.2441
  311MPD2    C5 4679   4.395   3.857  12.018 -0.0969 -0.1414 -0.0176
  311MPD2     H 4680   4.567   4.054  12.302  0.9796 -0.7121 -0.0556
  311MPD2    H1 4681   4.281   3.770  12.168  0.3010 -0.0275 -0.5353
  311MPD2    H2 4682   4.532   3.952  11.885 -0.6350 -1.4563 -0.2848
  311MPD2    H3 4683   4.335   3.797  11.950  1.4098 -0.3561 -1.1627
  311MPD2     N 4684   4.378   3.900  12.386  0.1356 -0.0728  0.5681
  311MPD2    H5 4685   4.415   3.974  12.444 -1.1381  0.6452  0.4819
  311MPD2    N1 4686   4.668   4.099  12.071  0.3198 -1.0373 -0.4351
  311MPD2    H7 4687   4.719   4.125  12.155  0.1207 -1.0092 -0.3223
  312TMC3    C1 4688   4.283   3.823  12.586 -0.0839  0.1061 -0.7742
  312TMC3    C2 4689   4.160   3.876  12.626  0.2885 -0.0154  0.5586
  312TMC3    C3 4690   4.144   3.916  12.757  0.0122 -0.4205  0.2414
  312TMC3    C4 4691   4.392   3.824  12.676 -0.1112  0.1559  0.2657
  312TMC3    C5 4692   4.375   3.883  12.801 -0.2045 -0.2455  0.9331
  312TMC3    C6 4693   4.247   3.913  12.853 -0.1680 -0.3872  0.0368
  312TMC3     C 4694   4.309   3.798  12.447  0.2493 -0.9746  0.1877
  312TMC3     O 4695   4.242   3.703  12.397 -0.1338  0.4025  0.7958
  312TMC3     H 4696   4.081   3.887  12.553  0.3185  0.1567  0.5530
  312TMC3    H1 4697   4.488   3.796  12.634 -1.3838  1.0681 -3.2209
  312TMC3    H2 4698   4.216   3.929  12.956 -0.2785 -2.8746  0.3869
  312TMC3    C7 4699   4.489   3.888  12.895 -0.1881  0.7541  0.0639
  312TMC3    C8 4700   4.007   3.906  12.810 -0.3888  0.1528 -0.4756
  312TMC3    O1 4701   4.601   3.864  12.855  0.3124  0.1331 -0.5921
  312TMC3    O2 4702   3.985   3.849  12.915 -0.0628  0.4443  0.3180
  313MPD2     C 4703   3.859   3.493  10.637 -0.0157 -0.0492 -0.2019
  313MPD2    C1 4704   3.731   3.445  10.619  0.0627  0.2642  0.2189
  313MPD2    C2 4705   3.710   3.343  10.529 -0.1554  1.5611  0.3214
  313MPD2    C3 4706   3.816   3.292  10.452  0.1392 -0.3229  1.1058
  313MPD2    C4 4707   3.946   3.332  10.483 -0.7654  0.1570  0.6741
  313MPD2    C5 4708   3.963   3.430  10.576 -0.0133 -0.6256  0.1155
  313MPD2     H 4709   3.608   3.306  10.530  0.2266  0.5439  1.8839
  313MPD2    H1 4710   4.023   3.303  10.413  0.1583  0.5536  1.5108
  313MPD2    H2 4711   3.886   3.569  10.710 -0.9404  1.0863 -1.0381
  313MPD2    H3 4712   4.060   3.473  10.599  0.1479 -0.8795 -0.0841
  313MPD2     N 4713   3.791   3.186  10.356  0.2439  1.0999  0.8999
  313MPD2    H5 4714   3.693   3.164  10.341  0.1953 -0.0558  2.8798
  313MPD2    N1 4715   3.619   3.498  10.686 -0.5328  0.1856 -0.4604
  313MPD2    H7 4716   3.533   3.450  10.665 -1.9700  1.5746  2.2201
  314TMC3    C1 4717   3.483   3.646  10.809  0.6476  1.1173  0.3124
  314TMC3    C2 4718   3.473   3.767  10.872 -0.5717  0.4129  0.3787
  314TMC3    C3 4719   3.375   3.856  10.849 -0.6556  0.0499 -0.8097
  314TMC3    C4 4720   3.384   3.612  10.722  0.5222  0.1551  0.0610
  314TMC3    C5 4721   3.277   3.697  10.704 -0.1486  0.6822 -0.1574
  314TMC3    C6 4722   3.270   3.823  10.768  0.3696  0.2416 -0.5470
  314TMC3     C 4723   3.614   3.603  10.778  0.0197 -1.2145  0.6932
  314TMC3     O 4724   3.702   3.672  10.828  0.0316  0.5441  0.0853
  314TMC3     H 4725   3.559   3.795  10.931  1.5146 -0.3351 -2.3225
  314TMC3    H1 4726   3.381   3.515  10.674 -0.8599 -1.2722  3.0047
  314TMC3    H2 4727   3.196   3.888  10.726  1.2290  0.0561 -2.3295
  314TMC3    C7 4728   3.232   3.677  10.574  0.2758  0.7164  0.6343
  314TMC3    C8 4729   3.405   3.990  10.864  0.3336 -0.3829 -0.0595
  314TMC3    O1 4730   3.110   3.648  10.550  0.3111  0.3789  0.0243
  314TMC3    O2 4731   3.506   4.013  10.931 -0.3535  0.2190  0.1631
  315MPD2     C 4732   3.962   2.462  17.604 -0.1513  0.4197  0.0821
  315MPD2    C1 4733   4.093   2.479  17.600 -0.1125 -0.9914  0.0113
  315MPD2    C2 4734   4.143   2.601  17.550 -0.0652 -0.5022  0.3213
  315MPD2    C3 4735   4.056   2.695  17.491  0.0517 -0.3557  0.0671
  315MPD2    C4 4736   3.920   2.663  17.485  0.3566 -0.3791  0.4454
  315MPD2    C5 4737   3.874   2.547  17.540 -0.2017 -0.1182  0.1722
  315MPD2     H 4738   4.249   2.615  17.562 -0.1879  0.1815  0.6007
  315MPD2    H1 4739   3.852   2.731  17.435  0.7950 -1.4719 -1.6314
  315MPD2    H2 4740   3.915   2.372  17.645 -1.1102  0.7011 -0.3960
  315MPD2    H3 4741   3.770   2.518  17.538 -0.0464 -0.7555  1.5355
  315MPD2     N 4742   4.106   2.821  17.443 -0.3575  0.1955 -0.1084
  315MPD2    H5 4743   4.207   2.828  17.431 -0.2639 -1.7742 -0.4769
  315MPD2    N1 4744   4.182   2.384  17.650 -0.4960  0.3000  0.4361
  315MPD2    H7 4745   4.280   2.410  17.641 -0.0662 -1.0615  1.1476
  316TMC3    C1 4746   4.110   3.019  17.302  0.6177 -0.2458  0.0343
  316TMC3    C2 4747   4.248   3.027  17.318 -0.3067  0.4040  0.2948
  316TMC3    C3 4748   4.314   3.132  17.259  0.1693 -0.1416  0.2471
  316TMC3    C4 4749   4.035   3.118  17.253  0.0517 -0.6120 -0.1835
  316TMC3    C5 4750   4.100   3.221  17.191 -0.5479  0.0103 -0.2976
  316TMC3    C6 4751   4.239   3.228  17.190  0.2224 -0.5546  0.0930
  316TMC3     C 4752   4.035   2.931  17.397 -0.0328  0.0429  0.0186
  316TMC3     O 4753   3.921   2.964  17.428  0.5137  0.2026 -0.0784
  316TMC3     H 4754   4.301   2.967  17.391 -1.1545 -0.0833  0.5009
  316TMC3    H1 4755   3.929   3.123  17.273  0.3676  1.8910  0.8889
  316TMC3    H2 4756   4.290   3.316  17.153 -0.0127 -1.0868 -1.4851
  316TMC3    C7 4757   4.034   3.343  17.157 -0.3693  0.3183 -0.8219
  316TMC3    C8 4758   4.458   3.161  17.283  0.5696 -0.1822 -0.1467
  316TMC3    O1 4759   4.085   3.451  17.175  1.0495 -0.0837 -0.1610
  316TMC3    O2 4760   4.495   3.278  17.259  0.1604  0.0286  0.1515
  317MPD2     C 4761   0.886   1.220  12.995  0.0052  0.2463 -0.8060
  317MPD2    C1 4762   0.956   1.115  12.932  0.3510  0.4494 -0.2583
  317MPD2    C2 4763   1.018   1.019  13.007 -0.5937  0.5334  0.1805
  317MPD2    C3 4764   1.017   1.026  13.146 -0.6597  0.1662 -0.1132
  317MPD2    C4 4765   0.951   1.131  13.206 -0.5066  0.1837 -0.2170
  317MPD2    C5 4766   0.887   1.224  13.135  0.5495 -0.8113  0.0057
  317MPD2     H 4767   1.065   0.930  12.967  0.0361  1.4533 -1.1234
  317MPD2    H1 4768   0.949   1.149  13.313  0.4119  0.5869 -0.2657
  317MPD2    H2 4769   0.824   1.296  12.948  1.1834  1.8888  0.3290
  317MPD2    H3 4770   0.818   1.292  13.183 -0.6586 -1.9140 -0.1783
  317MPD2     N 4771   1.086   0.926  13.219  0.0345  1.2772 -0.5042
  317MPD2    H5 4772   1.113   0.839  13.174  3.1199  1.4399  1.0537
  317MPD2    N1 4773   0.941   1.097  12.793 -0.1781 -0.3739 -0.0044
  317MPD2    H7 4774   0.973   1.009  12.756  1.4596  0.5572 -0.8145
  318TMC3    C1 4775   1.135   0.788  13.399 -0.2835  0.4106  0.2737
  318TMC3    C2 4776   1.052   0.683  13.362  0.5010 -0.3034 -0.2447
  318TMC3    C3 4777   1.085   0.562  13.414 -0.8274  0.4357 -0.5875
  318TMC3    C4 4778   1.222   0.771  13.508 -0.1565  0.0403  0.5973
  318TMC3    C5 4779   1.254   0.649  13.554 -0.5645 -0.1978  0.3547
  318TMC3    C6 4780   1.187   0.539  13.501 -0.0202 -0.1362  0.4636
  318TMC3     C 4781   1.109   0.925  13.361 -0.6274  0.0419 -0.0079
  318TMC3     O 4782   1.086   1.007  13.449  0.2915 -0.1597  0.4266
  318TMC3     H 4783   0.982   0.697  13.281  1.0656  1.9304 -0.3509
  318TMC3    H1 4784   1.282   0.856  13.536 -3.5413  2.5471  0.2353
  318TMC3    H2 4785   1.211   0.446  13.550  0.4561 -0.4541 -0.3848
  318TMC3    C7 4786   1.354   0.643  13.658 -0.0723  0.0999  0.2600
  318TMC3    C8 4787   1.029   0.439  13.361  0.0334 -0.1711 -0.0968
  318TMC3    O1 4788   1.385   0.747  13.711 -0.1820 -0.1437  0.4794
  318TMC3    O2 4789   1.072   0.329  13.393 -0.1309  0.1198  0.4473
  319MPD2     C 4790   1.661   2.375  16.099 -0.3525 -0.7949  0.3076
  319MPD2    C1 4791   1.582   2.286  16.167 -0.3456 -0.2527 -0.0250
  319MPD2    C2 4792   1.543   2.171  16.093  0.0593 -0.2816 -0.6554
  319MPD2    C3 4793   1.582   2.153  15.961 -0.2063  0.3252 -0.0451
  319MPD2    C4 4794   1.662   2.240  15.897 -0.1996  0.1502  0.0664
  319MPD2    C5 4795   1.707   2.351  15.971 -0.0174 -0.3336 -0.0439
  319MPD2     H 4796   1.483   2.096  16.144  2.6307 -1.1741  1.0381
  319MPD2    H1 4797   1.696   2.224  15.795 -0.0787  0.1536  0.1057
  319MPD2    H2 4798   1.686   2.470  16.144  0.6480  0.6858 -3.4283
  319MPD2    H3 4799   1.774   2.421  15.924 -1.1408  0.3151 -0.6764
  319MPD2     N 4800   1.518   2.059  15.873  0.2514 -0.2085  0.2698
  319MPD2    H5 4801   1.549   2.050  15.776  3.1691  4.1385  0.7863
  319MPD2    N1 4802   1.515   2.309  16.288  0.1517  0.3032 -0.2287
  319MPD2    H7 4803   1.457   2.232  16.317 -0.6211  1.0404  0.1861
  320TMC3    C1 4804   1.352   1.891  15.823  0.7760 -0.0400 -0.0401
  320TMC3    C2 4805   1.327   1.962  15.706 -0.2397  0.3637 -0.1960
  320TMC3    C3 4806   1.211   1.944  15.642 -0.3046 -0.1122  0.4712
  320TMC3    C4 4807   1.271   1.798  15.868 -0.1526 -0.5367  0.2766
  320TMC3    C5 4808   1.142   1.802  15.810  0.2962 -1.0231 -0.1352
  320TMC3    C6 4809   1.105   1.869  15.695  0.1451  0.7547 -0.5043
  320TMC3     C 4810   1.430   1.957  15.921  0.3360 -0.8748  0.5573
  320TMC3     O 4811   1.414   1.913  16.034  0.3325 -0.2219 -0.2723
  320TMC3     H 4812   1.406   2.018  15.657  0.4525  1.9459  2.7520
  320TMC3    H1 4813   1.284   1.755  15.967 -1.7843 -1.1582  0.2233
  320TMC3    H2 4814   1.015   1.847  15.638  1.5729 -2.7418 -1.3909
  320TMC3    C7 4815   1.033   1.718  15.861 -0.2372  0.6517  1.0167
  320TMC3    C8 4816   1.173   2.055  15.565  0.2006 -0.5090 -0.2202
  320TMC3    O1 4817   0.930   1.697  15.797  0.0655 -0.1547 -0.3314
  320TMC3    O2 4818   1.255   2.145  15.549 -0.3793  0.4605 -0.3509
  321TMC3    C1 4819   1.444   2.411  16.474  0.2646 -0.2463 -0.0703
  321TMC3    C2 4820   1.331   2.338  16.461  0.4435 -0.6294 -0.4179
  321TMC3    C3 4821   1.246   2.344  16.567  0.2814 -0.9498 -0.3458
  321TMC3    C4 4822   1.467   2.492  16.579 -0.7865 -0.2414  0.6372
  321TMC3    C5 4823   1.379   2.503  16.682  0.2034 -0.3831  0.6236
  321TMC3    C6 4824   1.266   2.430  16.676  0.5053 -0.3060  0.4578
  321TMC3     C 4825   1.527   2.425  16.353  0.0519  0.3136 -0.9215
  321TMC3     O 4826   1.596   2.527  16.335 -0.1785 -0.3731 -0.1923
  321TMC3     H 4827   1.320   2.252  16.395 -0.0058 -2.2621  1.7791
  321TMC3    H1 4828   1.544   2.569  16.576  0.4410 -1.3991  2.4486
  321TMC3    H2 4829   1.190   2.430  16.754 -0.3332 -0.0362 -0.3569
  321TMC3    C7 4830   1.431   2.512  16.818  0.9629  0.2434  0.6507
  321TMC3    C8 4831   1.227   2.205  16.623  0.4133 -0.5326  0.3496
  321TMC3    O1 4832   1.537   2.462  16.841 -0.4950 -0.1219 -0.2745
  321TMC3    O2 4833   1.195   2.115  16.547 -0.0425  0.0786 -0.6975
  322MPD2     C 4834   0.901   3.450  13.190  0.2835 -0.7398  0.0962
  322MPD2    C1 4835   0.778   3.427  13.241 -0.0018  0.1205  0.1109
  322MPD2    C2 4836   0.719   3.304  13.216  0.1262 -0.1248  0.1004
  322MPD2    C3 4837   0.782   3.211  13.131  1.0685  0.2152  0.0689
  322MPD2    C4 4838   0.910   3.235  13.082 -0.0663  0.7171 -0.5565
  322MPD2    C5 4839   0.967   3.355  13.117 -0.0330 -0.0227 -0.0136
  322MPD2     H 4840   0.623   3.284  13.263 -0.1896  3.0908  0.8662
  322MPD2    H1 4841   0.973   3.165  13.029  0.3984  0.9790 -0.3437
  322MPD2    H2 4842   0.944   3.547  13.212 -1.6632  0.1245  0.0948
  322MPD2    H3 4843   1.059   3.392  13.073 -1.1100 -0.7293 -2.9102
  322MPD2     N 4844   0.710   3.092  13.123  0.4458 -0.8372  0.8285
  322MPD2    H5 4845   0.637   3.076  13.192 -0.3220 -1.7541 -0.1998
  322MPD2    N1 4846   0.721   3.524  13.329 -0.1687  0.1840 -0.1114
  322MPD2    H7 4847   0.774   3.609  13.345 -1.6744  0.8347  1.3608
  323TMC3    C1 4848   0.603   3.605  13.518 -0.2329  1.0639 -0.2373
  323TMC3    C2 4849   0.710   3.684  13.542 -0.4359  0.0035  0.2966
  323TMC3    C3 4850   0.720   3.744  13.664 -0.1496  0.2206  0.0411
  323TMC3    C4 4851   0.509   3.571  13.614  0.7541 -1.1005 -0.5835
  323TMC3    C5 4852   0.533   3.620  13.738  0.2052 -0.6685  0.0516
  323TMC3    C6 4853   0.634   3.706  13.765 -0.0314  1.0971 -0.9189
  323TMC3     C 4854   0.606   3.508  13.409 -0.1950  0.3640  0.2821
  323TMC3     O 4855   0.515   3.424  13.404 -0.2796 -0.3213 -0.1547
  323TMC3     H 4856   0.787   3.705  13.468 -0.7966 -0.3597 -0.1842
  323TMC3    H1 4857   0.418   3.514  13.597 -0.0579 -0.0180  0.1166
  323TMC3    H2 4858   0.657   3.732  13.867 -0.3314 -0.8503 -0.3632
  323TMC3    C7 4859   0.493   3.521  13.836 -0.0217  0.1816  0.3189
  323TMC3    C8 4860   0.836   3.818  13.698 -0.1083  0.1822  0.3251
  323TMC3    O1 4861   0.439   3.419  13.804 -0.4194  0.1930  0.0753
  323TMC3    O2 4862   0.942   3.806  13.638 -0.0053  0.1955  0.8521
  324MPD2     C 4863   2.503   4.493  13.767  0.1319 -0.8119  0.2364
  324MPD2    C1 4864   2.494   4.554  13.891 -0.0206  0.3466 -0.1752
  324MPD2    C2 4865   2.377   4.550  13.966 -0.0646 -0.9851 -0.6412
  324MPD2    C3 4866   2.266   4.481  13.919  0.3884  0.0679  0.2542
  324MPD2    C4 4867   2.279   4.414  13.798 -0.7960  0.5643  0.0077
  324MPD2    C5 4868   2.396   4.418  13.726 -0.5180 -0.2726  0.0007
  324MPD2     H 4869   2.380   4.599  14.063  1.6805  0.5814 -1.5082
  324MPD2    H1 4870   2.203   4.348  13.758 -1.4632  2.4194 -1.8158
  324MPD2    H2 4871   2.586   4.495  13.697  0.1389 -0.3799  0.2568
  324MPD2    H3 4872   2.396   4.351  13.641 -1.4676  0.5479 -0.6473
  324MPD2     N 4873   2.150   4.473  13.998  0.3341  0.0336 -0.1188
  324MPD2    H5 4874   2.071   4.417  13.966 -0.6777  1.6606 -0.4654
  324MPD2    N1 4875   2.610   4.617  13.951  0.0151 -0.3939  0.0275
  324MPD2    H7 4876   2.617   4.629  14.052  1.1232  2.5215 -0.4035
  325TMC3    C1 4877   1.990   4.534  14.156 -0.1461  0.2749 -0.1672
  325TMC3    C2 4878   1.894   4.450  14.095  1.0921 -0.7980  0.0369
  325TMC3    C3 4879   1.767   4.492  14.092  0.6065 -0.5248  0.2781
  325TMC3    C4 4880   1.952   4.643  14.231 -0.0589 -0.4600  0.5527
  325TMC3    C5 4881   1.823   4.676  14.219 -0.6349 -0.2893 -0.4537
  325TMC3    C6 4882   1.721   4.601  14.161 -0.1811  0.3616  0.0244
  325TMC3     C 4883   2.124   4.549  14.105  0.2381 -0.0041 -0.4019
  325TMC3     O 4884   2.201   4.627  14.158 -0.0275  0.0048 -0.3571
  325TMC3     H 4885   1.920   4.362  14.037 -1.5175 -1.3415 -0.3242
  325TMC3    H1 4886   2.029   4.709  14.269 -0.6885 -1.3981  3.4879
  325TMC3    H2 4887   1.622   4.642  14.146  0.3971  1.5863 -0.3665
  325TMC3    C7 4888   1.786   0.084  14.278  0.8480 -0.3667  0.2496
  325TMC3    C8 4889   1.676   4.422  14.000 -0.3542 -0.6687 -0.3668
  325TMC3    O1 4890   1.876   0.164  14.277  0.4928  0.1734  0.2674
  325TMC3    O2 4891   1.730   4.356  13.915 -0.1748 -0.3931  0.3499
  326MPD2     C 4892   3.408   0.822  10.905  0.1240  0.2443  0.1201
  326MPD2    C1 4893   3.359   0.876  10.787  0.4383 -0.5702  0.0138
  326MPD2    C2 4894   3.431   0.976  10.724 -0.8212  0.2563  0.0147
  326MPD2    C3 4895   3.561   1.003  10.770 -0.0602 -0.6996 -0.2358
  326MPD2    C4 4896   3.612   0.942  10.881  1.1786 -0.3806 -0.4555
  326MPD2    C5 4897   3.531   0.853  10.950  0.2611 -0.1474  0.5941
  326MPD2     H 4898   3.389   1.021  10.635 -0.4507  1.3421  0.3884
  326MPD2    H1 4899   3.712   0.957  10.920  0.5882 -1.8062  1.5837
  326MPD2    H2 4900   3.354   0.749  10.963 -0.5510 -1.4942 -2.7163
  326MPD2    H3 4901   3.569   0.800  11.037 -1.2815  1.9091  2.5223
  326MPD2     N 4902   3.653   1.087  10.700  0.0402  0.5754 -0.2599
  326MPD2    H5 4903   3.740   1.101  10.750 -0.6078  0.2037  0.9754
  326MPD2    N1 4904   3.246   0.829  10.717 -0.4655  0.5261 -0.3782
  326MPD2    H7 4905   3.231   0.885  10.634  1.8136 -0.1847 -1.2693
  327TMC3    C1 4906   3.109   0.684  10.622 -0.4026  0.6184 -0.1536
  327TMC3    C2 4907   3.046   0.790  10.573 -0.3730 -0.1113 -0.2338
  327TMC3    C3 4908   3.021   0.795  10.435  0.1688 -0.3937  0.8860
  327TMC3    C4 4909   3.165   0.592  10.536  0.2574 -0.7212 -0.0689
  327TMC3    C5 4910   3.155   0.607  10.404  0.0510 -0.0258  0.1702
  327TMC3    C6 4911   3.074   0.704  10.354 -0.0634  0.3089 -0.1253
  327TMC3     C 4912   3.184   0.710  10.740 -0.0247 -0.8263  0.3421
  327TMC3     O 4913   3.217   0.619  10.820  0.0693  0.3099 -0.0237
  327TMC3     H 4914   3.025   0.872  10.640  3.2763 -0.0265  0.7855
  327TMC3    H1 4915   3.226   0.515  10.583  0.4791 -1.1957 -1.1410
  327TMC3    H2 4916   3.067   0.711  10.246 -0.6227 -0.9519 -0.1685
  327TMC3    C7 4917   3.290   0.608  10.337 -0.3771  0.3165 -0.1170
  327TMC3    C8 4918   2.978   0.917  10.383  0.3914  0.3875  0.4539
  327TMC3    O1 4919   3.287   0.666  10.229 -0.2305  0.1094 -0.2526
  327TMC3    O2 4920   2.973   1.016  10.453 -0.0608  0.3504 -0.1297
  328MPD2     C 4921   0.945   0.093  17.111  0.2409 -0.1909 -1.0716
  328MPD2    C1 4922   0.973   0.065  16.984 -0.8512  0.0672  0.0421
  328MPD2    C2 4923   1.035   0.165  16.908  0.4334  0.3649  0.3458
  328MPD2    C3 4924   1.074   0.285  16.960  0.0098 -0.3737 -0.8564
  328MPD2    C4 4925   1.057   0.306  17.087 -0.1921 -0.5485 -0.6449
  328MPD2    C5 4926   0.989   0.210  17.165 -0.4927 -0.1878  0.1716
  328MPD2     H 4927   1.054   0.136  16.806 -1.9999  0.3594 -0.1046
  328MPD2    H1 4928   1.070   0.403  17.134  0.7431 -0.8281 -0.3316
  328MPD2    H2 4929   0.883   0.030  17.173  0.8207  0.8024  0.5316
  328MPD2    H3 4930   0.970   0.238  17.268 -2.5931 -1.1576  0.0386
  328MPD2     N 4931   1.110   0.391  16.876  0.2450  0.0779  0.1778
  328MPD2    H5 4932   1.142   0.471  16.930 -0.6441  0.2582  0.4508
  328MPD2    N1 4933   0.937   4.656  16.938 -0.3131  0.1896 -0.1558
  328MPD2    H7 4934   0.883   4.596  17.000  1.2070 -0.4972  0.5112
  329TMC3    C1 4935   0.856   4.523  16.773 -0.3388 -0.2338  0.2844
  329TMC3    C2 4936   0.736   4.574  16.796 -0.2745 -0.2139 -0.8196
  329TMC3    C3 4937   0.654   4.593  16.689 -0.0744  0.0254  0.4771
  329TMC3    C4 4938   0.885   4.470  16.649 -0.3661  0.4829 -0.3049
  329TMC3    C5 4939   0.803   4.475  16.548  0.1399 -0.2520 -0.7057
  329TMC3    C6 4940   0.686   4.545  16.563  0.3802 -0.4984 -0.8637
  329TMC3     C 4941   0.960   4.610  16.819 -0.1154  0.7083  0.5162
  329TMC3     O 4942   1.041   4.636  16.734  0.1113 -0.2077  0.5476
  329TMC3     H 4943   0.711   4.615  16.893  0.0076 -0.4433 -0.6523
  329TMC3    H1 4944   0.987   4.434  16.638 -0.2191  0.2416  1.8354
  329TMC3    H2 4945   0.626   4.556  16.473 -0.4815  0.5686 -0.1693
  329TMC3    C7 4946   0.844   4.457  16.414  0.1903 -0.5973  0.4514
  329TMC3    C8 4947   0.526   4.659  16.704 -0.2983  0.6090  0.0579
  329TMC3    O1 4948   0.781   4.515  16.323 -0.1388  0.0017  0.6409
  329TMC3    O2 4949   0.452   4.671  16.607 -0.3963 -0.1668 -0.1261
  330TMC3    C1 4950   3.989   0.525   9.653 -0.6299  0.9218  0.3971
  330TMC3    C2 4951   3.973   0.392   9.638 -0.3200 -0.6761  0.5197
  330TMC3    C3 4952   4.036   0.308   9.733  0.3157 -0.3777  0.4922
  330TMC3    C4 4953   4.072   0.576   9.751  1.2823 -0.4712  0.0862
  330TMC3    C5 4954   4.133   0.497   9.840  0.8411  0.0581  0.4612
  330TMC3    C6 4955   4.104   0.366   9.838 -0.3993 -0.3549  0.1571
  330TMC3     C 4956   3.923   0.609   9.562 -0.2209  0.2904  0.4930
  330TMC3     O 4957   3.824   0.558   9.510  0.1870  0.1525 -0.7403
  330TMC3     H 4958   3.922   0.345   9.554  2.4904 -0.5788 -1.2303
  330TMC3    H1 4959   4.071   0.680   9.780  2.0817 -0.3556 -0.2927
  330TMC3    H2 4960   4.133   0.303   9.921  1.7823  0.1179 -0.2434
  330TMC3    C7 4961   4.211   0.554   9.949 -0.8795  0.9378 -0.5507
  330TMC3    C8 4962   4.012   0.159   9.734  0.0940  0.2827 -0.0780
  330TMC3    O1 4963   4.225   0.489  10.050  0.1852 -1.0130 -0.5694
  330TMC3    O2 4964   4.041   0.109   9.841  0.0641  0.5606 -0.6394
  331MPD2     C 4965   1.961   4.015  12.926 -0.0867 -0.0127 -0.0393
  331MPD2    C1 4966   1.968   4.003  12.790  0.0470  0.1335 -0.3952
  331MPD2    C2 4967   2.001   3.885  12.730 -0.0743  0.5003  0.7712
  331MPD2    C3 4968   2.015   3.772  12.807  0.1342  0.2202  0.1669
  331MPD2    C4 4969   2.011   3.785  12.944  0.1555 -1.2032 -0.1810
  331MPD2    C5 4970   1.985   3.908  12.999  0.6898 -0.3793 -1.0074
  331MPD2     H 4971   2.010   3.883  12.622 -1.3992 -2.6774  0.7203
  331MPD2    H1 4972   2.025   3.700  13.009  0.7185 -0.8779  0.1243
  331MPD2    H2 4973   1.936   4.108  12.974  1.2626  0.3795 -0.0726
  331MPD2    H3 4974   1.949   3.909  13.101 -0.5016 -1.5917 -1.4159
  331MPD2     N 4975   2.034   3.643  12.756  0.2007  0.4502  0.1548
  331MPD2    H5 4976   2.047   3.566  12.822  0.6410 -0.6856 -1.2553
  331MPD2    N1 4977   1.973   4.115  12.708 -0.7401 -0.0150 -0.3895
  331MPD2    H7 4978   1.992   4.103  12.609  0.5882  2.3579 -0.3948
  332TMC3    C1 4979   2.042   3.460  12.620 -0.6224  0.4968 -0.1610
  332TMC3    C2 4980   2.048   3.430  12.487 -0.4656  0.2493 -0.3140
  332TMC3    C3 4981   2.172   3.406  12.440  0.4007  0.2120  0.1299
  332TMC3    C4 4982   2.130   3.412  12.708  0.5073  0.2319  0.4683
  332TMC3    C5 4983   2.255   3.391  12.660 -0.1276 -0.8661 -0.4833
  332TMC3    C6 4984   2.282   3.395  12.526 -0.2602 -0.0776 -0.8141
  332TMC3     C 4985   2.022   3.605  12.624  0.3812  0.4796 -0.0012
  332TMC3     O 4986   2.006   3.676  12.523  0.6188  0.4610  0.1603
  332TMC3     H 4987   1.979   3.489  12.429  0.8357  1.0779 -1.0095
  332TMC3    H1 4988   2.111   3.409  12.814  0.0216 -0.6667  0.3629
  332TMC3    H2 4989   2.380   3.372  12.484  0.1358  0.4901 -0.2059
  332TMC3    C7 4990   2.341   3.314  12.745 -0.6914 -0.5282  0.3122
  332TMC3    C8 4991   2.196   3.408  12.299  0.2474 -0.2776 -0.7771
  332TMC3    O1 4992   2.298   3.246  12.838  0.5851  0.1965  0.1971
  332TMC3    O2 4993   2.308   3.443  12.263  0.3990  0.7846  0.2699
  333MPD2     C 4994   2.491   3.783  10.825  0.4264 -0.2664  0.3471
  333MPD2    C1 4995   2.356   3.785  10.790 -0.3351 -0.6539  0.0376
  333MPD2    C2 4996   2.255   3.735  10.871 -0.1846 -0.1421  0.1520
  333MPD2    C3 4997   2.289   3.665  10.985  0.2067 -0.9876  0.3195
  333MPD2    C4 4998   2.423   3.667  11.029 -1.2596 -0.5451 -0.0854
  333MPD2    C5 4999   2.524   3.724  10.951 -0.4162 -0.4246 -0.0741
  333MPD2     H 5000   2.152   3.743  10.838 -0.3513  1.5513  1.0533
  333MPD2    H1 5001   2.460   3.618  11.118  0.9446  2.0921  0.4156
  333MPD2    H2 5002   2.574   3.826  10.771  0.3933  1.1698  1.4545
  333MPD2    H3 5003   2.628   3.715  10.980  0.1555  0.2048 -1.9286
  333MPD2     N 5004   2.189   3.602  11.049  0.2115 -0.0049  0.5946
  333MPD2    H5 5005   2.093   3.622  11.022  0.1996 -2.4711 -1.2146
  333MPD2    N1 5006   2.331   3.858  10.676  0.6880  0.2302 -0.2405
  333MPD2    H7 5007   2.419   3.872  10.627  0.8751  1.4553  0.4198
  334TMC3    C1 5008   2.225   3.949  10.491 -0.7874 -0.5951 -0.4574
  334TMC3    C2 5009   2.323   3.902  10.413  0.2681  0.8269 -0.2517
  334TMC3    C3 5010   2.363   3.975  10.310 -0.0585 -0.4481 -0.0763
  334TMC3    C4 5011   2.161   4.064  10.452 -0.8138  0.3679  0.4410
  334TMC3    C5 5012   2.202   4.131  10.346  0.3429  0.9291 -0.3429
  334TMC3    C6 5013   2.308   4.093  10.274 -0.8481  0.2097 -0.1393
  334TMC3     C 5014   2.214   3.904  10.629  0.4985  0.1424  0.4868
  334TMC3     O 5015   2.101   3.918  10.678  0.6422  0.4074  0.5143
  334TMC3     H 5016   2.368   3.812  10.452 -1.3131  0.2647  0.2512
  334TMC3    H1 5017   2.064   4.093  10.491 -2.0246 -3.4804  0.3129
  334TMC3    H2 5018   2.347   4.154  10.193  3.5479 -0.2705  1.6463
  334TMC3    C7 5019   2.122   4.246  10.303  0.3500  0.0371  0.2214
  334TMC3    C8 5020   2.498   3.944  10.264 -0.8960  0.5787  0.2093
  334TMC3    O1 5021   2.069   4.310  10.390 -0.7528 -0.0764  0.5577
  334TMC3    O2 5022   2.534   3.830  10.290 -0.3666 -0.7478 -0.1837
  335TMC3    C1 5023   1.639   0.882  17.073 -0.0537 -0.5165  0.2218
  335TMC3    C2 5024   1.611   0.789  16.979  0.0552 -0.4729  0.1490
  335TMC3    C3 5025   1.702   0.774  16.874  0.5924  0.8925  0.2494
  335TMC3    C4 5026   1.742   0.972  17.060 -0.4724  0.0728  0.3487
  335TMC3    C5 5027   1.811   0.974  16.935  0.9077  0.0144 -0.0123
  335TMC3    C6 5028   1.795   0.874  16.847  0.2639  0.0495 -0.9045
  335TMC3     C 5029   1.544   0.891  17.178 -0.8330 -0.2303  0.5235
  335TMC3     O 5030   1.432   0.851  17.143 -0.1690  0.4872 -0.0546
  335TMC3     H 5031   1.529   0.720  16.992  0.7831 -1.1305  1.2734
  335TMC3    H1 5032   1.772   1.036  17.142  1.8575  1.6528 -1.7545
  335TMC3    H2 5033   1.869   0.865  16.769 -0.6659 -1.9536 -1.5628
  335TMC3    C7 5034   1.935   1.045  16.927  0.0903 -0.1681 -0.4633
  335TMC3    C8 5035   1.667   0.674  16.775 -0.0330  0.1833 -0.1232
  335TMC3    O1 5036   2.020   0.978  16.870 -0.2755  0.1751  0.7159
  335TMC3    O2 5037   1.695   0.706  16.662 -0.3691 -0.5452  0.2405
  336MPD2     C 5038   1.330   3.198  15.895  0.1831  0.3845 -0.2656
  336MPD2    C1 5039   1.346   3.137  15.773  0.2019  0.7996 -0.3381
  336MPD2    C2 5040   1.429   3.026  15.759  0.3883  0.0543  0.3097
  336MPD2    C3 5041   1.471   2.950  15.869 -0.3035  0.6273 -1.3365
  336MPD2    C4 5042   1.453   3.008  15.993 -0.4738  0.4437 -0.8428
  336MPD2    C5 5043   1.382   3.127  16.002 -0.3769 -0.0848 -0.4254
  336MPD2     H 5044   1.426   2.964  15.670 -0.3470 -0.9005  1.0071
  336MPD2    H1 5045   1.471   2.954  16.086 -0.7545  0.1272 -0.9733
  336MPD2    H2 5046   1.271   3.286  15.917 -0.2244  0.2577 -0.8569
  336MPD2    H3 5047   1.366   3.158  16.105 -2.6620 -0.4322 -0.6818
  336MPD2     N 5048   1.517   2.814  15.864 -0.0561  0.3316  0.3188
  336MPD2    H5 5049   1.524   2.768  15.954 -1.2755  1.0177  0.7648
  336MPD2    N1 5050   1.285   3.191  15.656 -0.0621  1.0391 -0.1154
  336MPD2    H7 5051   1.319   3.153  15.568 -0.6688  0.1229  0.0392
  337TMC3    C1 5052   1.145   3.323  15.521  0.3206  0.1530 -0.0429
  337TMC3    C2 5053   1.015   3.367  15.492 -0.5324 -0.0006  0.2496
  337TMC3    C3 5054   0.984   3.412  15.365  0.0980  0.0488 -0.4609
  337TMC3    C4 5055   1.247   3.341  15.429  0.1059  0.4704  0.3157
  337TMC3    C5 5056   1.217   3.415  15.316  0.0966  0.7835 -0.4494
  337TMC3    C6 5057   1.084   3.443  15.276  0.6182 -0.0459 -0.6175
  337TMC3     C 5058   1.183   3.288  15.654 -0.3502 -0.3234  0.3193
  337TMC3     O 5059   1.107   3.306  15.745 -0.7419  0.6022 -0.3798
  337TMC3     H 5060   0.935   3.357  15.564  1.1656 -0.4891  2.0741
  337TMC3    H1 5061   1.349   3.322  15.458  0.3884 -1.1728 -1.7599
  337TMC3    H2 5062   1.077   3.515  15.195 -1.0837  0.3356 -0.1210
  337TMC3    C7 5063   1.326   3.474  15.241  0.4205 -0.5107  0.3762
  337TMC3    C8 5064   0.856   3.470  15.343 -0.1259 -0.1988  0.4773
  337TMC3    O1 5065   1.311   3.482  15.120 -0.3327  0.2182 -0.1836
  337TMC3    O2 5066   0.783   3.481  15.446 -0.0317  0.0446  0.2009
  338MPD2     C 5067   2.039   2.556   0.693  0.8669 -0.2495  0.4747
  338MPD2    C1 5068   1.941   2.618   0.609 -0.0858  0.0260 -0.0892
  338MPD2    C2 5069   1.942   2.756   0.599  0.4265  0.0888 -0.1222
  338MPD2    C3 5070   2.015   2.833   0.684 -0.2451  0.8730  0.0371
  338MPD2    C4 5071   2.113   2.779   0.766  0.2850  0.1847  0.2486
  338MPD2    C5 5072   2.123   2.639   0.768 -0.8822 -0.1088 -0.2065
  338MPD2     H 5073   1.865   2.802   0.538 -1.3622 -0.9238  1.3583
  338MPD2    H1 5074   2.176   2.836   0.833  0.0709 -0.0194  0.6234
  338MPD2    H2 5075   2.060   2.450   0.695 -0.2293 -0.4574  0.9365
  338MPD2    H3 5076   2.200   2.590   0.825 -0.4717 -0.3500 -0.9670
  338MPD2     N 5077   1.987   2.971   0.694 -0.0848 -0.0978 -0.1742
  338MPD2    H5 5078   1.926   3.005   0.619 -1.1236  1.6919  1.4748
  338MPD2    N1 5079   1.848   2.544   0.529  0.0105 -0.1412  0.7379
  338MPD2    H7 5080   1.792   2.599   0.465 -0.8351 -0.0006  1.5961
  339TMC3    C1 5081   1.933   3.164   0.801  0.5402  0.3863  0.4174
  339TMC3    C2 5082   1.884   3.204   0.920 -0.9178 -0.5024  0.6041
  339TMC3    C3 5083   1.784   3.298   0.925 -0.3289  0.5207  0.0013
  339TMC3    C4 5084   1.891   3.217   0.684  0.2717  0.0579  0.4904
  339TMC3    C5 5085   1.794   3.317   0.694  0.0479 -0.0453 -0.7164
  339TMC3    C6 5086   1.740   3.361   0.809  0.3436  0.3376  0.5652
  339TMC3     C 5087   2.016   3.050   0.803 -0.0163  0.9442 -0.2261
  339TMC3     O 5088   2.076   3.021   0.903  0.0164 -0.3159 -0.2493
  339TMC3     H 5089   1.902   3.144   1.009  3.5409 -2.2342 -1.4643
  339TMC3    H1 5090   1.948   3.201   0.593  1.9172  1.3228  1.2892
  339TMC3    H2 5091   1.669   3.443   0.803 -1.0661 -0.6126  4.4174
  339TMC3    C7 5092   1.764   3.392   0.572 -0.2868  0.1128 -0.0043
  339TMC3    C8 5093   1.663   3.260   1.000 -0.2450  1.1506  0.3079
  339TMC3    O1 5094   1.681   3.477   0.588 -0.2121  0.4459 -0.5659
  339TMC3    O2 5095   1.558   3.312   0.957  0.2412  0.0225  0.4496
  340MPD2     C 5096   1.279   1.112   9.257 -0.0644 -0.2633 -0.7669
  340MPD2    C1 5097   1.368   1.005   9.262 -0.8809  0.3060 -0.3026
  340MPD2    C2 5098   1.458   1.011   9.366 -0.1382 -0.4517 -0.8819
  340MPD2    C3 5099   1.455   1.104   9.463 -0.0825  0.0079 -0.2682
  340MPD2    C4 5100   1.368   1.210   9.449  0.2898  0.2569 -0.4191
  340MPD2    C5 5101   1.282   1.217   9.346 -0.2607  0.4849  0.2076
  340MPD2     H 5102   1.535   0.935   9.372 -0.5595 -0.7977  0.3151
  340MPD2    H1 5103   1.361   1.289   9.523  1.5587  0.1309 -0.1688
  340MPD2    H2 5104   1.189   1.122   9.197 -1.0237 -1.1783  0.5374
  340MPD2    H3 5105   1.196   1.282   9.358 -0.6880 -0.0589  0.0638
  340MPD2     N 5106   1.554   1.121   9.571 -0.4121 -0.0645  0.7587
  340MPD2    H5 5107   1.540   1.202   9.630 -3.4917  0.0460 -0.0763
  340MPD2    N1 5108   1.363   0.893   9.167  0.2327 -0.3488 -0.2588
  340MPD2    H7 5109   1.302   0.901   9.086 -3.0649  0.3514  2.2791
  341TMC3    C1 5110   1.438   0.699   9.044  0.2557 -0.0379 -0.3607
  341TMC3    C2 5111   1.322   0.692   8.972 -0.2586 -0.2330 -0.2901
  341TMC3    C3 5112   1.313   0.595   8.871 -0.4074 -0.3455 -0.1441
  341TMC3    C4 5113   1.555   0.630   9.004  0.3883 -0.5568 -0.2631
  341TMC3    C5 5114   1.543   0.553   8.890  0.1566  0.4417  0.0392
  341TMC3    C6 5115   1.429   0.535   8.824 -0.1735  0.5202  0.1676
  341TMC3     C 5116   1.452   0.785   9.166  0.1143  0.0854 -0.2355
  341TMC3     O 5117   1.538   0.759   9.248  0.0516 -0.0440  0.4467
  341TMC3     H 5118   1.238   0.707   9.038  1.4285 -0.0222  1.8139
  341TMC3    H1 5119   1.644   0.633   9.066 -0.1407  1.2102  0.3985
  341TMC3    H2 5120   1.430   0.473   8.735  1.6348 -0.3361  0.7836
  341TMC3    C7 5121   1.665   0.525   8.820  1.1214  0.2364 -0.2595
  341TMC3    C8 5122   1.181   0.550   8.819 -0.4460  0.1240 -0.5210
  341TMC3    O1 5123   1.759   0.597   8.859  0.3862  0.2304 -0.3892
  341TMC3    O2 5124   1.173   0.436   8.778 -0.0124 -0.0282  0.0996
  342MPD2     C 5125   4.281   3.678  16.970  0.6188 -0.0319 -0.2622
  342MPD2    C1 5126   4.419   3.675  17.001 -0.5672  0.3261 -0.2419
  342MPD2    C2 5127   4.485   3.794  17.032 -0.1805  0.3735  0.0081
  342MPD2    C3 5128   4.429   3.913  17.053  0.7545 -0.1480  0.3195
  342MPD2    C4 5129   4.290   3.919  17.033  0.4287  0.1488 -0.0153
  342MPD2    C5 5130   4.226   3.802  16.988 -0.0443  1.0375  0.0310
  342MPD2     H 5131   4.588   3.785  17.062 -0.4081 -2.5520 -0.0452
  342MPD2    H1 5132   4.243   4.015  17.050 -2.6510 -1.4767  0.6149
  342MPD2    H2 5133   4.228   3.592  16.931  0.0128  0.7137 -1.0761
  342MPD2    H3 5134   4.128   3.807  16.942 -0.0281 -0.5367 -0.1655
  342MPD2     N 5135   4.501   4.026  17.098  0.0612 -0.1729 -0.4889
  342MPD2    H5 5136   4.452   4.114  17.113 -2.0682 -1.0941 -2.2115
  342MPD2    N1 5137   4.505   3.560  16.998  0.0745  0.2133 -1.2976
  342MPD2    H7 5138   4.606   3.570  17.002  0.1450 -0.1486 -2.1697
  343TMC3    C1 5139   4.566   3.336  16.941 -0.1605 -0.6125 -0.4424
  343TMC3    C2 5140   4.691   3.373  16.962 -0.3365  0.5794 -0.2666
  343TMC3    C3 5141   0.058   3.267  16.974 -0.4204  0.0991  0.1607
  343TMC3    C4 5142   4.524   3.204  16.925 -0.6414 -0.4736  0.1834
  343TMC3    C5 5143   4.615   3.105  16.939  0.6399 -0.5006  0.0031
  343TMC3    C6 5144   0.023   3.132  16.964 -0.0275  0.6287  0.6280
  343TMC3     C 5145   4.459   3.429  16.966  0.2869  0.5648  0.0521
  343TMC3     O 5146   4.344   3.400  16.926 -1.1147 -0.6333  0.1867
  343TMC3     H 5147   4.721   3.474  16.988  0.9337  0.2894 -0.5830
  343TMC3    H1 5148   4.420   3.184  16.902 -1.3833  1.5894  1.6536
  343TMC3    H2 5149   0.091   3.056  17.001 -2.7803 -1.5691  1.2082
  343TMC3    C7 5150   4.562   2.969  16.945  0.0459  0.2206 -0.0829
  343TMC3    C8 5151   0.203   3.297  16.974  0.2571 -0.7834 -0.7328
  343TMC3    O1 5152   4.446   2.953  16.977  0.1761 -0.1098 -0.7971
  343TMC3    O2 5153   0.247   3.390  17.036 -0.0164 -0.0711  0.8527
  344MPD2     C 5154   0.930   3.569  10.358  0.5754  0.0374 -0.0115
  344MPD2    C1 5155   0.814   3.569  10.283 -0.7325 -0.0388 -0.2675
  344MPD2    C2 5156   0.812   3.618  10.153  0.0067 -0.5588  0.3858
  344MPD2    C3 5157   0.930   3.673  10.104 -0.5765 -0.0194  0.2057
  344MPD2    C4 5158   1.046   3.685  10.179 -0.4128  0.0492 -0.0184
  344MPD2    C5 5159   1.039   3.635  10.304  0.6691 -0.0099 -0.6371
  344MPD2     H 5160   0.726   3.608  10.087  0.1332  0.5305  0.0537
  344MPD2    H1 5161   1.137   3.735  10.150 -0.2968  0.0116  0.2818
  344MPD2    H2 5162   0.944   3.532  10.459 -1.6029  1.4031  0.7829
  344MPD2    H3 5163   1.132   3.639  10.360  1.2376 -1.5928 -1.4511
  344MPD2     N 5164   0.947   3.729   9.972 -0.2526  0.2398  0.4539
  344MPD2    H5 5165   1.032   3.783   9.959  1.6674 -2.8910  0.1540
  344MPD2    N1 5166   0.694   3.511  10.323  0.1048 -0.1004  0.2950
  344MPD2    H7 5167   0.626   3.501  10.248 -2.2530 -1.1167  2.5499
  345TMC3    C1 5168   0.890   3.835   9.771  0.1199  0.6995  0.2145
  345TMC3    C2 5169   1.027   3.846   9.752  0.4944  0.0104  0.5306
  345TMC3    C3 5170   1.064   3.970   9.697 -0.6229  0.4880 -0.2235
  345TMC3    C4 5171   0.795   3.938   9.742  0.2041  0.1391  0.0324
  345TMC3    C5 5172   0.843   4.058   9.703 -1.0652 -0.3677 -0.0379
  345TMC3    C6 5173   0.975   4.070   9.680 -0.3257 -0.1400 -1.1103
  345TMC3     C 5174   0.845   3.765   9.882 -0.0302 -0.2174 -0.0897
  345TMC3     O 5175   0.722   3.752   9.903 -0.3623  0.2879  0.4963
  345TMC3     H 5176   1.097   3.765   9.772  0.4537  0.6707  3.3820
  345TMC3    H1 5177   0.689   3.931   9.762  0.3914 -0.2358  0.8948
  345TMC3    H2 5178   1.013   4.162   9.636  0.1624 -0.2304 -0.8785
  345TMC3    C7 5179   0.758   4.165   9.652 -0.1958 -0.2796 -0.3196
  345TMC3    C8 5180   1.191   4.011   9.752  0.4741 -0.0189 -0.0236
  345TMC3    O1 5181   0.787   4.284   9.669 -0.1350 -0.2197 -0.2898
  345TMC3    O2 5182   1.257   3.925   9.801 -0.3299  0.6002 -0.2846
  346MPD2     C 5183   0.398   0.006  14.033  0.5843 -0.7412  0.0213
  346MPD2    C1 5184   0.529   0.008  13.996 -0.4930  0.0359  0.2527
  346MPD2    C2 5185   0.625   0.059  14.082 -0.1237  0.5788 -0.7888
  346MPD2    C3 5186   0.584   0.098  14.209  0.8783  0.1653 -0.1630
  346MPD2    C4 5187   0.452   0.096  14.246 -0.3500  0.8728  0.2153
  346MPD2    C5 5188   0.357   0.056  14.158 -0.2393  0.8605 -0.2182
  346MPD2     H 5189   0.729   0.053  14.052 -0.0055 -3.3088  0.3539
  346MPD2    H1 5190   0.409   0.112  14.344 -0.7061  1.9460 -0.1138
  346MPD2    H2 5191   0.317   4.698  13.967 -0.1189  0.0373  0.5209
  346MPD2    H3 5192   0.254   0.058  14.189 -0.4386  0.1988 -0.8298
  346MPD2     N 5193   0.687   0.144  14.294  0.6972  0.5031  0.1873
  346MPD2    H5 5194   0.780   0.145  14.255  0.4788  0.1744 -0.3406
  346MPD2    N1 5195   0.580   4.673  13.877  0.1502  0.4734  1.0136
  346MPD2    H7 5196   0.665   4.719  13.845 -0.0347  0.3146  0.2888
  347TMC3    C1 5197   0.799   0.260  14.475 -0.1803  1.1165 -0.4131
  347TMC3    C2 5198   0.921   0.198  14.459  0.3899 -0.3401  0.0177
  347TMC3    C3 5199   1.028   0.243  14.532 -0.2276 -0.0520  0.6964
  347TMC3    C4 5200   0.783   0.363  14.562  0.3749 -0.2842 -0.2652
  347TMC3    C5 5201   0.889   0.407  14.642  0.1434  0.5196 -0.3153
  347TMC3    C6 5202   1.009   0.340  14.635  0.2701 -0.0385 -0.3824
  347TMC3     C 5203   0.675   0.217  14.409  0.1971 -0.3025 -0.3780
  347TMC3     O 5204   0.575   0.268  14.453  0.4760  0.7772  0.3851
  347TMC3     H 5205   0.944   0.112  14.396  0.8851 -1.0238  1.1301
  347TMC3    H1 5206   0.690   0.417  14.575  0.8834  0.1202  1.6175
  347TMC3    H2 5207   1.093   0.364  14.700  0.8105  2.5324 -2.0108
  347TMC3    C7 5208   0.853   0.479  14.764 -0.3334  0.2205 -0.5936
  347TMC3    C8 5209   1.155   0.226  14.469 -0.0107  0.1705  0.3205
  347TMC3    O1 5210   0.737   0.480  14.795  0.2271  0.3727 -0.4711
  347TMC3    O2 5211   1.165   0.126  14.399 -0.2063  0.0522 -0.4055
  348MPD2     C 5212   4.479   4.399  11.630  0.2546  0.4580 -0.2801
  348MPD2    C1 5213   4.366   4.364  11.559  0.4895  0.2150  0.6684
  348MPD2    C2 5214   4.337   4.434  11.441  0.5901  0.7081  0.3331
  348MPD2    C3 5215   4.417   4.538  11.404 -0.4376  0.5764  0.5744
  348MPD2    C4 5216   4.537   4.568  11.470  0.5624  0.6040 -0.0621
  348MPD2    C5 5217   4.566   4.493  11.583 -0.4705  0.3782  0.3429
  348MPD2     H 5218   4.255   4.404  11.378 -0.4372  3.7242  0.2250
  348MPD2    H1 5219   4.614   4.639  11.443  1.5194 -0.2522  0.4188
  348MPD2    H2 5220   4.506   4.348  11.721  1.8885  0.3940 -0.8069
  348MPD2    H3 5221   4.653   4.519  11.643  0.9098 -0.4573 -1.3064
  348MPD2     N 5222   4.371   4.608  11.286  0.5091 -0.9986 -0.3643
  348MPD2    H5 5223   4.287   4.583  11.235  0.6251  0.2371 -1.1536
  348MPD2    N1 5224   4.266   4.268  11.596 -0.4486 -0.0175  0.6002
  348MPD2    H7 5225   4.178   4.279  11.546 -0.9105  0.5703  1.5464
  349TMC3    C1 5226   4.149   4.111  11.735 -0.2560  0.2517 -0.4705
  349TMC3    C2 5227   4.139   4.043  11.857 -0.5094 -0.4239  0.9123
  349TMC3    C3 5228   4.009   4.025  11.914 -0.1809  0.5851 -0.0055
  349TMC3    C4 5229   4.037   4.146  11.666 -0.3108  0.0322 -0.0603
  349TMC3    C5 5230   3.915   4.128  11.722  0.3889 -0.1878 -1.0448
  349TMC3    C6 5231   3.896   4.062  11.844 -0.1123 -0.3809 -0.5828
  349TMC3     C 5232   4.270   4.184  11.699 -0.7707  0.4714 -0.5775
  349TMC3     O 5233   4.367   4.153  11.772 -0.2936 -0.4026 -0.1348
  349TMC3     H 5234   4.229   4.005  11.903  1.7958  0.7515 -2.5960
  349TMC3    H1 5235   4.038   4.191  11.567  3.4431  0.9656  0.4181
  349TMC3    H2 5236   3.797   4.038  11.882 -0.0337  1.3225  0.7013
  349TMC3    C7 5237   3.806   4.200  11.671 -0.2322 -0.7840  0.1205
  349TMC3    C8 5238   4.005   3.957  12.042  0.2173 -0.4050  0.1008
  349TMC3    O1 5239   3.796   4.228  11.552 -0.2090  0.7036 -0.2612
  349TMC3    O2 5240   4.093   3.876  12.065 -0.1661  0.0531  0.0327
  350MPD2     C 5241   3.161   2.658   9.818  0.5447  0.4007  0.0685
  350MPD2    C1 5242   3.273   2.579   9.836 -0.8396  0.0378  0.4301
  350MPD2    C2 5243   3.389   2.638   9.867 -0.0740  0.0659 -0.2249
  350MPD2    C3 5244   3.401   2.769   9.896  0.0423 -0.0815 -0.0681
  350MPD2    C4 5245   3.295   2.853   9.887 -0.0058 -0.2196  0.5265
  350MPD2    C5 5246   3.177   2.795   9.843 -0.1910  0.3131 -0.8198
  350MPD2     H 5247   3.477   2.576   9.884  1.1459  1.6077 -0.8687
  350MPD2    H1 5248   3.305   2.960   9.886 -0.0024 -0.2267 -0.6997
  350MPD2    H2 5249   3.064   2.615   9.795  1.4330 -2.3683  1.5749
  350MPD2    H3 5250   3.090   2.859   9.833  0.2828  1.0090 -0.5104
  350MPD2     N 5251   3.530   2.805   9.943  0.5465  0.0875 -0.0264
  350MPD2    H5 5252   3.592   2.730   9.971  1.5766  1.3930  1.2375
  350MPD2    N1 5253   3.275   2.439   9.814  0.1379 -0.3265  0.7423
  350MPD2    H7 5254   3.368   2.398   9.816  0.8127  1.1001 -1.1756
  351TMC3    C1 5255   3.182   2.219   9.799 -0.4111 -0.7116  0.4041
  351TMC3    C2 5256   3.279   2.168   9.716  0.1791  0.2992  0.3166
  351TMC3    C3 5257   3.268   2.033   9.688  0.0142 -0.1485 -0.0025
  351TMC3    C4 5258   3.080   2.142   9.836 -0.2486  0.1309 -0.4016
  351TMC3    C5 5259   3.075   2.010   9.801 -0.0268 -0.3421  0.6308
  351TMC3    C6 5260   3.168   1.955   9.727 -0.1538  0.2987  0.0302
  351TMC3     C 5261   3.156   2.359   9.794  0.3098  0.4025 -0.2069
  351TMC3     O 5262   3.039   2.390   9.790 -0.7397 -0.6287  0.0286
  351TMC3     H 5263   3.356   2.231   9.675 -0.6548  1.0803 -0.0427
  351TMC3    H1 5264   3.011   2.179   9.911 -0.1357 -0.1960 -0.1367
  351TMC3    H2 5265   3.159   1.850   9.704  2.4158  0.5296 -2.0521
  351TMC3    C7 5266   2.963   1.938   9.852 -0.0937 -1.2785  0.1300
  351TMC3    C8 5267   3.361   2.003   9.589 -0.8289  0.5099 -0.0107
  351TMC3    O1 5268   2.886   1.993   9.928  1.0149  0.7088  0.5180
  351TMC3    O2 5269   3.451   2.082   9.572  0.0046  0.1397  0.2507
  352MPD2     C 5270   1.243   4.509   1.143 -0.1196 -0.0414 -0.6803
  352MPD2    C1 5271   1.303   4.525   1.019 -0.0495  0.1970 -0.0205
  352MPD2    C2 5272   1.374   4.417   0.964  0.3354 -0.1832  0.2478
  352MPD2    C3 5273   1.368   4.291   1.022  0.4005  0.7914 -0.4884
  352MPD2    C4 5274   1.295   4.281   1.135  0.0218 -0.2977  0.0769
  352MPD2    C5 5275   1.236   4.384   1.199 -0.4126  0.1335 -0.0364
  352MPD2     H 5276   1.425   4.433   0.870 -0.4230 -1.4507 -0.3646
  352MPD2    H1 5277   1.270   4.186   1.180 -0.6993 -0.1714 -0.0642
  352MPD2    H2 5278   1.206   4.596   1.196 -0.0377 -0.5873  0.2814
  352MPD2    H3 5279   1.188   4.369   1.295 -0.4885 -0.3308 -0.1481
  352MPD2     N 5280   1.432   4.175   0.967 -0.1377 -0.6446  0.1602
  352MPD2    H5 5281   1.388   4.086   0.990  0.0469 -0.7081  0.2659
  352MPD2    N1 5282   1.289   4.659   0.960  0.5934  0.1110 -0.8660
  352MPD2    H7 5283   1.217   4.721   0.995  2.2961  1.6117  0.0181
  353TMC3    C1 5284   1.571   4.041   0.812 -0.2754  0.2070  0.6507
  353TMC3    C2 5285   1.578   3.931   0.903  0.2100 -0.5474  0.3249
  353TMC3    C3 5286   1.633   3.806   0.864 -0.2815  0.8232 -0.5295
  353TMC3    C4 5287   1.598   4.021   0.680  0.3231 -0.0114  0.2517
  353TMC3    C5 5288   1.636   3.893   0.650 -0.4216 -0.2424  0.1547
  353TMC3    C6 5289   1.668   3.787   0.735 -0.0102 -0.8755 -0.5087
  353TMC3     C 5290   1.511   4.172   0.856 -0.4866  0.2232  0.3517
  353TMC3     O 5291   1.555   4.270   0.792  0.0971  0.4839  0.8345
  353TMC3     H 5292   1.563   3.945   1.009 -3.1379 -1.8066  0.0239
  353TMC3    H1 5293   1.577   4.099   0.607 -0.6167 -1.3389 -0.8790
  353TMC3    H2 5294   1.707   3.692   0.702 -2.2487 -2.2420  0.7609
  353TMC3    C7 5295   1.687   3.878   0.514  0.1151  0.0516  0.3441
  353TMC3    C8 5296   1.694   3.716   0.964 -1.4242 -0.4132  0.4817
  353TMC3    O1 5297   1.641   3.779   0.449 -0.0624 -0.4508  0.2872
  353TMC3    O2 5298   1.634   3.715   1.072 -0.2270  0.5426  0.1944
  354TMC3    C1 5299   3.067   1.165  12.953 -0.0228  0.2533 -0.8629
  354TMC3    C2 5300   3.046   1.294  12.909 -0.2049  0.7107 -0.6388
  354TMC3    C3 5301   3.101   1.343  12.795  0.0347 -0.5208 -0.5468
  354TMC3    C4 5302   3.160   1.091  12.884 -0.4049  0.2341 -0.2308
  354TMC3    C5 5303   3.217   1.146  12.772  0.6380  0.3245 -0.0445
  354TMC3    C6 5304   3.184   1.267  12.719  0.0986  0.4793  0.7175
  354TMC3     C 5305   3.056   1.140  13.096  0.1450  0.6394  0.1150
  354TMC3     O 5306   2.954   1.180  13.153  0.1498 -0.6499 -0.0312
  354TMC3     H 5307   2.972   1.357  12.957  1.6532 -0.2627  3.4583
  354TMC3    H1 5308   3.204   1.002  12.926 -2.0507  0.4858  2.0395
  354TMC3    H2 5309   3.208   1.306  12.621 -3.3263  1.4600  0.2860
  354TMC3    C7 5310   3.331   1.072  12.723 -0.5723  0.5303  0.1597
  354TMC3    C8 5311   3.048   1.467  12.741 -0.3055  0.3377 -0.4473
  354TMC3    O1 5312   3.325   0.953  12.751  0.4503  0.3735 -0.1902
  354TMC3    O2 5313   2.942   1.499  12.791 -0.4850  0.6248 -0.2025
  355MPD2     C 5314   3.438   2.052  11.650 -0.5438 -0.6092  0.4236
  355MPD2    C1 5315   3.484   2.058  11.523 -0.2563 -0.2584 -0.9636
  355MPD2    C2 5316   3.592   2.135  11.498  0.1651  0.3612  0.0978
  355MPD2    C3 5317   3.638   2.226  11.591 -0.1391  0.0796  0.2799
  355MPD2    C4 5318   3.568   2.241  11.705 -0.0419 -0.3116 -0.5146
  355MPD2    C5 5319   3.475   2.149  11.738  1.1178  0.4370  0.1200
  355MPD2     H 5320   3.636   2.133  11.399  0.7889  0.2319  0.3748
  355MPD2    H1 5321   3.584   2.323  11.773 -1.5012 -1.4690  1.2198
  355MPD2    H2 5322   3.355   1.988  11.678 -1.4412  0.1883 -0.4590
  355MPD2    H3 5323   3.431   2.152  11.837 -1.7862  0.9843 -1.2041
  355MPD2     N 5324   3.753   2.310  11.571 -0.3803  0.2792  0.0689
  355MPD2    H5 5325   3.783   2.373  11.645  1.0463 -1.5698  1.0736
  355MPD2    N1 5326   3.439   1.967  11.428  0.0791  0.0345  0.1305
  355MPD2    H7 5327   3.376   1.899  11.469  0.1686  1.3761  2.4762
  356TMC3    C1 5328   3.922   2.423  11.465  0.2650 -0.3486  0.0229
  356TMC3    C2 5329   3.958   2.480  11.344 -0.2519  0.7295 -0.2313
  356TMC3    C3 5330   4.061   2.568  11.350 -0.4941 -0.1300 -0.2657
  356TMC3    C4 5331   3.972   2.452  11.592  0.3945 -0.0087  0.1121
  356TMC3    C5 5332   4.076   2.544  11.588  0.2878 -0.0547  0.1417
  356TMC3    C6 5333   4.124   2.602  11.471  0.1058  0.1595  0.9050
  356TMC3     C 5334   3.823   2.319  11.450  0.0132  0.5688 -0.0088
  356TMC3     O 5335   3.803   2.266  11.337 -0.0157  0.1819  0.0199
  356TMC3     H 5336   3.909   2.458  11.250 -0.6915 -2.0189  0.6524
  356TMC3    H1 5337   3.947   2.400  11.684 -0.6580  0.1582 -0.0776
  356TMC3    H2 5338   4.213   2.663  11.469 -1.1795  1.9245 -1.9830
  356TMC3    C7 5339   4.156   2.568  11.703 -0.0059 -0.9054  0.1904
  356TMC3    C8 5340   4.104   2.597  11.217 -0.0351  0.0521 -0.0717
  356TMC3    O1 5341   4.138   2.491  11.793 -0.3440  0.0885  0.0821
  356TMC3    O2 5342   4.066   2.535  11.121  0.5800 -0.0239 -0.0561
  357MPD2     C 5343   3.926   1.676   1.260  0.2813 -0.4021 -0.4529
  357MPD2    C1 5344   3.987   1.617   1.365 -0.0805 -0.1811  0.0305
  357MPD2    C2 5345   3.921   1.593   1.489  0.4400 -0.3463 -0.2770
  357MPD2    C3 5346   3.786   1.631   1.500 -0.0185 -0.7866  0.8739
  357MPD2    C4 5347   3.728   1.687   1.390  0.1267  0.4540 -0.0854
  357MPD2    C5 5348   3.797   1.717   1.277  0.4751  0.2292 -0.2673
  357MPD2     H 5349   3.978   1.546   1.568  1.1476  1.0710  0.0458
  357MPD2    H1 5350   3.626   1.720   1.405  0.1719  1.5488 -2.1718
  357MPD2    H2 5351   3.962   1.693   1.160  1.1111 -0.2457 -0.1248
  357MPD2    H3 5352   3.749   1.779   1.202 -1.5072 -0.3761  0.4904
  357MPD2     N 5353   3.716   1.620   1.619  0.4222 -0.1126  0.0322
  357MPD2    H5 5354   3.621   1.654   1.624 -0.2255 -2.0229  0.6635
  357MPD2    N1 5355   4.116   1.566   1.334 -0.0600  0.7357  0.2580
  357MPD2    H7 5356   4.156   1.571   1.241  0.1990  0.7330  0.3707
  358TMC3    C1 5357   4.306   1.423   1.381 -0.0130 -0.2046  0.3238
  358TMC3    C2 5358   4.280   1.336   1.277  0.0490  0.0169 -0.0655
  358TMC3    C3 5359   4.387   1.269   1.233  0.2863  0.0528  0.4151
  358TMC3    C4 5360   4.429   1.449   1.439  0.4094 -0.0867 -0.2691
  358TMC3    C5 5361   4.533   1.373   1.387 -1.0346 -0.0081 -0.0219
  358TMC3    C6 5362   4.520   1.300   1.272  0.0154  0.3700  0.1150
  358TMC3     C 5363   4.194   1.502   1.426  0.3022 -0.0037 -0.0135
  358TMC3     O 5364   4.190   1.498   1.550  0.0198  0.2226 -0.1918
  358TMC3     H 5365   4.177   1.331   1.242  0.7791  1.3120 -2.4243
  358TMC3    H1 5366   4.439   1.498   1.535 -1.0806 -0.1631 -0.0618
  358TMC3    H2 5367   4.608   1.243   1.244 -0.6491 -0.8989  0.5722
  358TMC3    C7 5368   4.642   1.352   1.492  0.1200 -0.1019  0.2352
  358TMC3    C8 5369   4.370   1.183   1.127  0.2658  0.6787 -0.1841
  358TMC3    O1 5370   4.630   1.382   1.610  0.5148 -0.6261  0.5863
  358TMC3    O2 5371   4.472   1.169   1.058 -0.2998 -0.3878 -0.4649
  359MPD2     C 5372   3.811   4.605  12.050 -0.0897 -0.4462  0.1862
  359MPD2    C1 5373   3.937   4.669  12.061 -0.1973  0.1633  0.1200
  359MPD2    C2 5374   3.956   0.046  12.156  0.5043  0.2911  0.1337
  359MPD2    C3 5375   3.859   0.067  12.252 -0.3679  0.7375  0.7871
  359MPD2    C4 5376   3.739   4.720  12.244  0.2340 -0.2453  0.2228
  359MPD2    C5 5377   3.717   4.632  12.145  0.3762 -0.3138  1.3256
  359MPD2     H 5378   4.051   0.098  12.167 -0.0586  1.3236  0.1434
  359MPD2    H1 5379   3.667   0.020  12.322  0.1890  1.9703 -0.4267
  359MPD2    H2 5380   3.786   4.529  11.978  0.5654 -2.2842  1.9083
  359MPD2    H3 5381   3.622   4.583  12.126  2.0323 -2.7796 -0.5012
  359MPD2     N 5382   3.873   0.151  12.365  0.5385 -0.1503 -0.3149
  359MPD2    H5 5383   3.818   0.123  12.445  1.2426  0.7011  0.4659
  359MPD2    N1 5384   4.049   4.636  11.979 -0.3933 -0.0571  0.6093
  359MPD2    H7 5385   4.129   4.696  11.995 -0.2500  0.1910 -1.0363
  360TMC3    C1 5386   4.160   4.563  11.792  0.4127 -0.3647  0.6309
  360TMC3    C2 5387   4.266   4.627  11.854 -0.2202  0.2490 -1.1619
  360TMC3    C3 5388   4.353   4.704  11.787  0.1811 -0.0169  0.5282
  360TMC3    C4 5389   4.132   4.601  11.658 -0.0160  0.2976  0.4107
  360TMC3    C5 5390   4.211   4.700  11.602 -0.4401  0.6373 -0.8453
  360TMC3    C6 5391   4.329   0.027  11.662  0.1260 -0.5333 -0.1850
  360TMC3     C 5392   4.052   4.539  11.878  0.2017 -0.5896  0.8014
  360TMC3     O 5393   3.967   4.454  11.851  0.6562 -0.2078 -0.1173
  360TMC3     H 5394   4.301   4.579  11.945 -1.5052  0.3933 -0.6037
  360TMC3    H1 5395   4.035   4.563  11.627  0.3920  0.4316 -1.0047
  360TMC3    H2 5396   4.386   0.099  11.605  0.4002 -0.7915 -0.2393
  360TMC3    C7 5397   4.158   0.047  11.481  0.6864 -0.0239  0.2647
  360TMC3    C8 5398   4.479   0.015  11.858  1.0818 -0.0111 -0.9496
  360TMC3    O1 5399   4.230   0.124  11.422  0.4136  0.1731 -0.1917
  360TMC3    O2 5400   4.496   4.684  11.968  0.6273  0.0057 -0.2084
  361MPD2     C 5401   0.769   4.101  16.300  0.1497 -0.3749 -0.6409
  361MPD2    C1 5402   0.724   4.121  16.432  0.1934  0.0153 -0.0461
  361MPD2    C2 5403   0.811   4.077  16.537 -0.4075  0.2759 -0.7141
  361MPD2    C3 5404   0.933   4.022  16.501 -0.0899  0.1659  0.0774
  361MPD2    C4 5405   0.977   4.025  16.370  0.2518  0.0859  0.0749
  361MPD2    C5 5406   0.890   4.055  16.271 -0.3488 -0.3956  0.3848
  361MPD2     H 5407   0.783   4.077  16.641 -1.9594 -0.1396 -1.1407
  361MPD2    H1 5408   1.077   3.996  16.342 -0.2985  0.3371 -2.1029
  361MPD2    H2 5409   0.699   4.117  16.219  1.1733  1.8094 -1.0841
  361MPD2    H3 5410   0.918   4.045  16.167 -2.7966  1.4535 -0.4701
  361MPD2     N 5411   1.021   3.960  16.596  0.3220  0.3513  0.4253
  361MPD2    H5 5412   1.096   3.904  16.557  0.1307 -0.4489  1.2166
  361MPD2    N1 5413   0.598   4.180  16.452  0.3160 -0.1461  1.1803
  361MPD2    H7 5414   0.542   4.202  16.370  1.4358 -0.3205  0.3611
  362TMC3    C1 5415   0.399   4.263  16.545 -0.3919  0.2741 -0.5964
  362TMC3    C2 5416   0.294   4.230  16.623  0.2306  0.4234 -0.0652
  362TMC3    C3 5417   0.202   4.327  16.638 -0.3384  0.0989 -0.3505
  362TMC3    C4 5418   0.402   4.372  16.464 -0.7017 -0.0646  0.4196
  362TMC3    C5 5419   0.300   4.461  16.480 -0.1057 -0.1857 -0.2071
  362TMC3    C6 5420   0.194   4.439  16.566  0.3291  0.1678 -0.1276
  362TMC3     C 5421   0.525   4.191  16.567 -0.4687 -0.3001  0.1242
  362TMC3     O 5422   0.542   4.154  16.685  0.3468 -0.0589 -0.0318
  362TMC3     H 5423   0.296   4.143  16.689 -1.3868 -0.9442 -1.8375
  362TMC3    H1 5424   0.492   4.400  16.410 -2.0576 -0.4284 -1.9895
  362TMC3    H2 5425   0.121   4.520  16.571 -1.2628 -1.3647  1.2914
  362TMC3    C7 5426   0.260   4.533  16.364  0.0428 -0.3375  0.9627
  362TMC3    C8 5427   0.076   4.290  16.707  0.2758  0.6692 -1.1875
  362TMC3    O1 5428   0.168   4.611  16.362  0.2317  0.0096 -0.4127
  362TMC3    O2 5429   0.035   4.173  16.693 -0.1828  0.0080  0.1761
  363TMC3    C1 5430   4.211   2.573   9.368 -0.1919 -0.6515 -0.0510
  363TMC3    C2 5431   4.185   2.448   9.420  0.2641  0.6059  0.4297
  363TMC3    C3 5432   4.054   2.405   9.413 -0.1361  0.1964 -0.1237
  363TMC3    C4 5433   4.110   2.654   9.323  0.5434 -0.2667  0.5477
  363TMC3    C5 5434   3.976   2.612   9.320  0.2695 -0.0427 -0.0418
  363TMC3    C6 5435   3.951   2.485   9.367 -0.2217 -0.3675  0.3931
  363TMC3     C 5436   4.336   2.643   9.391  0.3700  0.0372 -0.4060
  363TMC3     O 5437   4.368   2.731   9.315 -0.5651 -0.3534 -0.5754
  363TMC3     H 5438   4.268   2.392   9.462  1.1191 -0.3926 -2.5258
  363TMC3    H1 5439   4.145   2.743   9.273  1.7840 -0.0670  1.7668
  363TMC3    H2 5440   3.849   2.448   9.371 -0.6371  0.7642  0.3726
  363TMC3    C7 5441   3.871   2.702   9.317  0.3832 -0.5320 -0.1481
  363TMC3    C8 5442   4.013   2.273   9.447  0.1004  0.0581 -0.0245
  363TMC3    O1 5443   3.757   2.654   9.308  0.1648 -0.1486 -0.3008
  363TMC3    O2 5444   3.890   2.258   9.466  0.5811  0.2001 -0.7050
  364MPD2     C 5445   2.768   1.191   9.997 -0.1864  0.0149 -0.2737
  364MPD2    C1 5446   2.840   1.231  10.106  0.1505 -0.0588  0.0899
  364MPD2    C2 5447   2.895   1.135  10.188 -0.1944  1.1868  0.2872
  364MPD2    C3 5448   2.882   0.997  10.160  0.1207  0.3263 -0.2328
  364MPD2    C4 5449   2.804   0.958  10.052  0.5181 -0.2328  0.9006
  364MPD2    C5 5450   2.756   1.058   9.972 -1.1033 -0.3469 -0.2392
  364MPD2     H 5451   2.966   1.163  10.265  0.5890 -0.6275  0.2156
  364MPD2    H1 5452   2.773   0.855  10.044 -2.0801  0.4538  2.4030
  364MPD2    H2 5453   2.716   1.255   9.927 -0.6436  0.2223  0.2602
  364MPD2    H3 5454   2.698   1.029   9.885 -0.0080 -1.6349 -0.5508
  364MPD2     N 5455   2.918   0.895  10.256 -0.1629  0.3047 -0.4391
  364MPD2    H5 5456   2.904   0.801  10.221 -1.6132  0.5096 -0.4363
  364MPD2    N1 5457   2.861   1.366  10.133 -0.2455  0.3352  0.5567
  364MPD2    H7 5458   2.848   1.427  10.052 -1.3568 -0.5376  0.0686
  365TMC3    C1 5459   2.952   1.555  10.233  0.3217  0.2929 -0.3314
  365TMC3    C2 5460   3.039   1.587  10.134  0.7574  0.5800 -0.2278
  365TMC3    C3 5461   3.118   1.697  10.158 -0.0790 -0.1273  0.3708
  365TMC3    C4 5462   2.943   1.623  10.351 -0.3699  0.1380  0.3149
  365TMC3    C5 5463   3.025   1.739  10.358 -0.5121  0.9544  0.7028
  365TMC3    C6 5464   3.106   1.786  10.260 -0.1471  0.3429 -0.2016
  365TMC3     C 5465   2.902   1.420  10.253  0.0914 -0.5036  0.0756
  365TMC3     O 5466   2.915   1.379  10.372 -0.4020 -0.1806 -0.2391
  365TMC3     H 5467   3.051   1.523  10.047 -1.6877  0.6534 -0.6115
  365TMC3    H1 5468   2.871   1.599  10.428  0.7355 -0.5085  1.1440
  365TMC3    H2 5469   3.153   1.883  10.270 -0.4072  0.6570 -2.0235
  365TMC3    C7 5470   3.012   1.821  10.476  0.4660 -0.2374  0.1130
  365TMC3    C8 5471   3.214   1.741  10.054 -0.6214  0.1854  0.6053
  365TMC3    O1 5472   2.979   1.763  10.579 -0.4071  0.0631 -0.5728
  365TMC3    O2 5473   3.253   1.855  10.060 -0.0775  0.3810 -0.2976
  366MPD2     C 5474   0.655   2.726  15.287 -0.3306  0.0801  0.2177
  366MPD2    C1 5475   0.790   2.706  15.275  0.1779  0.5101 -0.7172
  366MPD2    C2 5476   0.836   2.589  15.211 -0.1817  0.3889  0.0620
  366MPD2    C3 5477   0.745   2.497  15.154 -0.9487 -0.3916 -0.5346
  366MPD2    C4 5478   0.609   2.519  15.172 -0.0700  0.3743 -0.1372
  366MPD2    C5 5479   0.568   2.631  15.243  0.0356 -0.3885  0.3690
  366MPD2     H 5480   0.942   2.572  15.199  0.0194  2.0835 -0.4886
  366MPD2    H1 5481   0.533   2.447  15.145 -0.0126  0.4580 -0.5232
  366MPD2    H2 5482   0.610   2.809  15.340  0.7533  0.5608  0.3766
  366MPD2    H3 5483   0.463   2.651  15.263  0.4332  2.3488 -0.2401
  366MPD2     N 5484   0.794   2.384  15.078 -0.8814  0.4078  0.8789
  366MPD2    H5 5485   0.894   2.370  15.066 -0.9207 -1.4478  2.7000
  366MPD2    N1 5486   0.889   2.800  15.316 -0.7460 -0.8648 -0.3325
  366MPD2    H7 5487   0.986   2.777  15.298 -0.7099 -0.0212 -1.2301
  367TMC3    C1 5488   0.988   3.013  15.316  0.4623  0.8623  0.4465
  367TMC3    C2 5489   1.115   2.967  15.332  0.5285  0.5030 -0.0370
  367TMC3    C3 5490   1.218   3.019  15.254  0.8237 -0.4233  0.5102
  367TMC3    C4 5491   0.958   3.110  15.217 -0.5412  0.6913 -0.8971
  367TMC3    C5 5492   1.055   3.150  15.133  0.2845  0.3772  1.0570
  367TMC3    C6 5493   1.185   3.097  15.143 -0.3308  0.9024  0.0585
  367TMC3     C 5494   0.874   2.927  15.344  0.4335 -0.0309 -0.1602
  367TMC3     O 5495   0.763   2.979  15.342 -0.1429  0.3504  0.4358
  367TMC3     H 5496   1.131   2.888  15.404 -1.2636  0.1335 -0.0404
  367TMC3    H1 5497   0.856   3.145  15.207 -0.7749 -0.0157 -0.9566
  367TMC3    H2 5498   1.265   3.146  15.088 -0.7602  0.6225 -0.8255
  367TMC3    C7 5499   1.010   3.178  15.002 -0.7649 -0.5942  0.4480
  367TMC3    C8 5500   1.338   3.037  15.331  0.9165 -0.0307 -0.0368
  367TMC3    O1 5501   0.918   3.259  15.005  0.2414  0.3328  0.3430
  367TMC3    O2 5502   1.324   3.008  15.447  0.1191 -0.5413 -0.2110
  368MPD2     C 5503   2.393   4.559  13.005 -0.2783  0.1567 -0.0885
  368MPD2    C1 5504   2.410   4.629  12.884 -0.5306  0.1830  0.6509
  368MPD2    C2 5505   2.544   4.663  12.842 -0.3193  0.3159 -0.9581
  368MPD2    C3 5506   2.650   4.616  12.917 -0.5629  0.3212  0.2818
  368MPD2    C4 5507   2.623   4.543  13.030 -0.0484 -0.2346  0.0603
  368MPD2    C5 5508   2.501   4.513  13.074  0.6831  0.5948  0.2771
  368MPD2     H 5509   2.563   0.003  12.755 -1.1401  0.2707 -1.1646
  368MPD2    H1 5510   2.701   4.519  13.102 -0.2371 -0.2105  0.2749
  368MPD2    H2 5511   2.293   4.544  13.044 -0.2165 -0.4120 -0.1459
  368MPD2    H3 5512   2.477   4.452  13.160  0.4823 -1.8014 -1.4693
  368MPD2     N 5513   2.781   4.648  12.887 -0.1950  0.3575  0.5204
  368MPD2    H5 5514   2.847   4.617  12.958 -1.5058 -1.1921  1.0410
  368MPD2    N1 5515   2.288   4.668  12.818  0.0175 -0.4863 -0.1356
  368MPD2    H7 5516   2.202   4.650  12.869 -0.1819 -0.0502 -0.3158
  369TMC3    C1 5517   2.139   0.058  12.675  0.7455 -0.2547  0.0683
  369TMC3    C2 5518   2.127   0.152  12.583 -0.1382  0.0179  0.6604
  369TMC3    C3 5519   2.001   0.195  12.552 -0.1682  0.5008  0.1290
  369TMC3    C4 5520   2.035   4.717  12.732  0.3517 -0.0113  0.9786
  369TMC3    C5 5521   1.911   0.035  12.689  0.4857  0.6249  0.1233
  369TMC3    C6 5522   1.891   0.138  12.608 -0.6101 -0.9074  0.3903
  369TMC3     C 5523   2.281   0.020  12.701 -0.1728  0.1494 -0.2979
  369TMC3     O 5524   2.370   0.049  12.618 -0.0443 -0.0578 -0.1964
  369TMC3     H 5525   2.216   0.212  12.565  0.7979 -1.5193  0.1847
  369TMC3    H1 5526   2.048   4.630  12.796  0.6734  1.1469  2.4786
  369TMC3    H2 5527   1.800   0.168  12.557  0.8706  2.2364 -0.4038
  369TMC3    C7 5528   1.803   4.675  12.742  0.0734  1.1078  0.5203
  369TMC3    C8 5529   1.979   0.261  12.420 -0.2054 -0.0498 -0.4826
  369TMC3    O1 5530   1.835   4.590  12.825  0.0469 -0.5152 -0.0037
  369TMC3    O2 5531   1.864   0.293  12.381 -0.0558  0.5696  0.0244
  370TMC3    C1 5532   1.845   0.278  15.878 -0.2293 -0.2621  0.2104
  370TMC3    C2 5533   1.807   0.216  15.996  0.2652 -0.1811  0.0310
  370TMC3    C3 5534   1.781   0.080  15.993  0.5291 -0.0928 -0.5889
  370TMC3    C4 5535   1.850   0.205  15.761  0.4905 -0.1421 -0.2402
  370TMC3    C5 5536   1.820   0.073  15.761 -0.3689 -0.2187 -0.0665
  370TMC3    C6 5537   1.786   0.006  15.877 -0.0845 -0.4610 -0.1526
  370TMC3     C 5538   1.909   0.406  15.889 -0.8141  0.3696  0.3784
  370TMC3     O 5539   1.994   0.427  15.974 -0.3922 -0.3664  0.2159
  370TMC3     H 5540   1.812   0.268  16.091 -0.1640  1.5828 -0.9000
  370TMC3    H1 5541   1.889   0.252  15.672  1.1063 -0.0846  0.0593
  370TMC3    H2 5542   1.776   4.619  15.880  1.8253 -0.5570  2.8760
  370TMC3    C7 5543   1.868   4.720  15.646  0.8957 -0.4280  0.2419
  370TMC3    C8 5544   1.745   0.000  16.103  0.3095 -0.0369  0.7317
  370TMC3    O1 5545   1.859   0.047  15.536  0.1244  0.1065  0.4761
  370TMC3    O2 5546   1.752   4.597  16.095  0.1679  0.6087 -0.1146
  371TMC3    C1 5547   3.217   3.044  15.382  0.9700 -0.4450  0.1432
  371TMC3    C2 5548   3.092   3.055  15.441  0.2187 -0.7680 -0.6002
  371TMC3    C3 5549   3.029   3.170  15.431  0.9000 -0.2979  0.0532
  371TMC3    C4 5550   3.271   3.144  15.316 -0.1186  0.0959 -0.1442
  371TMC3    C5 5551   3.207   3.261  15.311 -0.0036 -0.0709 -0.3866
  371TMC3    C6 5552   3.086   3.278  15.369 -0.1789  0.3571  0.1229
  371TMC3     C 5553   3.280   2.917  15.367  0.3359 -0.2728  0.1074
  371TMC3     O 5554   3.359   2.897  15.277 -0.3513 -0.6395 -0.4005
  371TMC3     H 5555   3.037   2.974  15.488 -0.4580 -0.7757 -1.4064
  371TMC3    H1 5556   3.371   3.130  15.279 -0.0551  0.0259  0.0513
  371TMC3    H2 5557   3.028   3.367  15.349  1.6647  1.5883  0.1781
  371TMC3    C7 5558   3.239   3.371  15.217  0.6331  0.4782  0.0215
  371TMC3    C8 5559   2.890   3.175  15.473 -0.4311  0.4501 -0.4024
  371TMC3    O1 5560   3.162   3.464  15.206  0.7384 -0.2919  0.4106
  371TMC3    O2 5561   2.827   3.071  15.486 -0.5821  0.4156  0.1301
  372MPD2     C 5562   3.418   0.034  13.244  0.0029  0.4829 -0.4203
  372MPD2    C1 5563   3.442   4.625  13.282 -0.3131 -0.6383 -0.6614
  372MPD2    C2 5564   3.338   4.536  13.293  1.1165 -0.2966 -0.6259
  372MPD2    C3 5565   3.210   4.573  13.254  0.3933 -0.6055  0.5344
  372MPD2    C4 5566   3.184   4.702  13.213 -0.7874  0.0061  1.5073
  372MPD2    C5 5567   3.293   0.069  13.203 -0.8575  0.0646 -0.4269
  372MPD2     H 5568   3.355   4.435  13.328  1.5684  1.2816  3.7022
  372MPD2    H1 5569   3.091   0.016  13.170  1.4176 -1.2163 -4.3628
  372MPD2    H2 5570   3.500   0.105  13.241 -0.3188  0.8942  0.5325
  372MPD2    H3 5571   3.278   0.167  13.158  1.5066  0.1131 -1.1032
  372MPD2     N 5572   3.106   4.478  13.261 -0.1346 -0.0740  0.1102
  372MPD2    H5 5573   3.131   4.390  13.306 -1.6451  0.6793  2.4117
  372MPD2    N1 5574   3.576   4.574  13.287  0.3199  0.0716 -0.8920
  372MPD2    H7 5575   3.581   4.479  13.320 -0.0380 -0.0685 -1.2464
  373TMC3    C1 5576   2.903   4.389  13.252  0.4002 -0.8906 -0.3648
  373TMC3    C2 5577   2.803   4.415  13.331 -0.2383  0.3510  0.1172
  373TMC3    C3 5578   2.750   4.306  13.403  0.3336  0.5785  0.1874
  373TMC3    C4 5579   2.952   4.267  13.221  0.8423 -0.6801  0.4268
  373TMC3    C5 5580   2.890   4.163  13.282 -0.1323  0.2775  0.4956
  373TMC3    C6 5581   2.784   4.178  13.369 -0.5574  0.4085 -0.2000
  373TMC3     C 5582   2.981   4.506  13.225 -0.3848  0.3994  0.2584
  373TMC3     O 5583   2.930   4.594  13.160  1.1213 -0.4437 -0.4265
  373TMC3     H 5584   2.795   4.517  13.365  1.6383 -0.2565  2.3813
  373TMC3    H1 5585   3.043   4.255  13.164  1.8380 -0.5304  1.9751
  373TMC3    H2 5586   2.730   4.095  13.413  0.5937 -0.4896 -0.5271
  373TMC3    C7 5587   2.979   4.051  13.301 -0.1572  0.1543  0.2759
  373TMC3    C8 5588   2.739   4.316  13.547  0.4579  0.2547 -0.0702
  373TMC3    O1 5589   3.050   4.022  13.209  0.5992 -0.5154 -0.3682
  373TMC3    O2 5590   2.822   4.393  13.595 -0.2147  0.8565  0.0853
  374TMC3    C1 5591   2.849   4.717   9.627  0.1555  0.0998  0.2165
  374TMC3    C2 5592   2.985   0.028   9.654  0.0308 -0.4051 -1.1373
  374TMC3    C3 5593   3.053   0.070   9.545  0.5611 -0.0898 -0.5671
  374TMC3    C4 5594   2.792   0.027   9.508 -0.2183  0.2193 -0.0767
  374TMC3    C5 5595   2.871   0.070   9.406 -0.4410  0.0932 -0.0424
  374TMC3    C6 5596   3.005   0.084   9.423  0.2261 -0.2345  0.7036
  374TMC3     C 5597   2.805   4.605   9.714  0.1933  0.3191  0.2735
  374TMC3     O 5598   2.895   4.525   9.752 -0.2218 -0.0198 -0.1221
  374TMC3     H 5599   3.020   0.004   9.754  0.2714  2.2810 -0.5805
  374TMC3    H1 5600   2.691   4.719   9.484 -0.0303 -0.2338 -0.3013
  374TMC3    H2 5601   3.071   0.097   9.337 -2.6115  0.3797 -1.3866
  374TMC3    C7 5602   2.799   0.136   9.302 -0.7535  0.3095  0.2125
  374TMC3    C8 5603   3.198   0.062   9.558  0.5441 -0.1088 -0.3754
  374TMC3    O1 5604   2.692   0.085   9.285  0.2845 -0.1679 -0.0473
  374TMC3    O2 5605   3.265   0.034   9.457 -0.2308 -0.3778  0.2198
  375MPD2     C 5606   3.303   1.224  16.881  1.1370  0.4176 -0.3948
  375MPD2    C1 5607   3.215   1.178  16.782  0.9422  1.0298 -0.0254
  375MPD2    C2 5608   3.262   1.109  16.676  0.8215  0.2082 -0.7560
  375MPD2    C3 5609   3.402   1.076  16.671 -0.3259 -0.2705  0.6704
  375MPD2    C4 5610   3.479   1.119  16.776  0.4912  0.0944  0.0637
  375MPD2    C5 5611   3.432   1.199  16.878 -1.0918 -0.1205 -0.3430
  375MPD2     H 5612   3.197   1.072  16.598 -0.2747  0.9795 -0.2085
  375MPD2    H1 5613   3.586   1.101  16.774  0.8830  2.5998 -0.8077
  375MPD2    H2 5614   3.266   1.277  16.968 -0.6936 -0.4860 -0.6248
  375MPD2    H3 5615   3.495   1.232  16.960  1.6965 -1.2722 -2.0020
  375MPD2     N 5616   3.463   0.999  16.564  0.3191  0.5833  0.2721
  375MPD2    H5 5617   3.563   1.019  16.559  0.2747  0.9814  0.9056
  375MPD2    N1 5618   3.073   1.189  16.794  0.0510 -0.3454 -0.1021
  375MPD2    H7 5619   3.024   1.127  16.731 -3.8114  1.2602  1.3239
  376TMC3    C1 5620   3.485   0.847  16.375  0.0064 -0.5190  0.7663
  376TMC3    C2 5621   3.619   0.839  16.401 -0.5396  0.1427  0.6954
  376TMC3    C3 5622   3.696   0.770  16.312  0.3561 -0.4700 -0.5432
  376TMC3    C4 5623   3.432   0.787  16.262 -0.2273  0.1752  0.5441
  376TMC3    C5 5624   3.506   0.714  16.179  0.5129 -0.6148  0.3326
  376TMC3    C6 5625   3.639   0.712  16.201  0.7382  0.4192  0.0369
  376TMC3     C 5626   3.404   0.906  16.478 -0.1087 -0.3364  1.3187
  376TMC3     O 5627   3.283   0.880  16.481  0.1584 -0.1072  0.4407
  376TMC3     H 5628   3.663   0.877  16.493 -0.9967 -0.7415  1.2769
  376TMC3    H1 5629   3.329   0.814  16.239 -0.7438 -0.6404  1.8995
  376TMC3    H2 5630   3.697   0.661  16.126 -2.9102  0.4500 -2.7938
  376TMC3    C7 5631   3.462   0.685  16.049 -0.1729  0.0365  0.1336
  376TMC3    C8 5632   3.842   0.785  16.320 -1.1220 -0.4761  0.8364
  376TMC3    O1 5633   3.423   0.775  15.978  0.2055 -0.0767  0.1557
  376TMC3    O2 5634   3.913   0.768  16.220 -0.4663  0.1727 -0.4061
  377MPD2     C 5635   1.248   0.290  12.442  0.4796 -0.9360 -0.2053
  377MPD2    C1 5636   1.228   0.156  12.420  0.2687  0.5620 -0.1041
  377MPD2    C2 5637   1.130   0.084  12.488  0.2494 -0.1023 -0.2500
  377MPD2    C3 5638   1.050   0.141  12.581 -0.3968  0.9625 -0.0876
  377MPD2    C4 5639   1.064   0.279  12.599  0.4254 -0.0451  0.1688
  377MPD2    C5 5640   1.160   0.347  12.533  1.0071  0.3832  0.5540
  377MPD2     H 5641   1.128   4.699  12.472 -3.3574  0.1247 -1.2981
  377MPD2    H1 5642   1.012   0.348  12.664 -1.2630 -1.7367  0.6121
  377MPD2    H2 5643   1.318   0.353  12.389 -0.7512 -0.1156 -0.8507
  377MPD2    H3 5644   1.183   0.452  12.548  0.3785  0.9709 -2.4746
  377MPD2     N 5645   0.953   0.078  12.654  0.1377 -0.0168  0.2332
  377MPD2    H5 5646   0.894   0.146  12.701  2.8333  0.9175  2.2595
  377MPD2    N1 5647   1.319   0.092  12.327 -0.2442 -0.9004 -0.3191
  377MPD2    H7 5648   1.398   0.151  12.302 -0.7702  1.3301  3.1776
  378TMC3    C1 5649   1.517   4.573  11.995 -0.0939 -0.2417  0.4938
  378TMC3    C2 5650   1.408   4.602  12.073 -0.0755 -0.2498 -0.0746
  378TMC3    C3 5651   1.433   4.656  12.196  0.5300 -0.3130 -0.6471
  378TMC3    C4 5652   1.642   4.609  12.032  0.4985 -0.4632 -0.2349
  378TMC3    C5 5653   1.657   4.672  12.146  0.5775 -0.2416  0.1251
  378TMC3    C6 5654   1.553   4.703  12.234  1.0554  0.4089 -0.1884
  378TMC3     C 5655   1.494   4.535  11.863 -0.1547  0.5910  0.2547
  378TMC3     O 5656   1.410   4.604  11.802  0.2266  0.1995  0.2571
  378TMC3     H 5657   1.306   4.586  12.040 -0.1038  1.2987 -0.7253
  378TMC3    H1 5658   1.720   4.573  11.966 -0.6366 -0.1084 -1.7732
  378TMC3    H2 5659   1.568   0.036  12.326 -2.1456 -1.4332  1.3954
  378TMC3    C7 5660   1.785   4.665  12.208 -0.4043  1.0305  0.1403
  378TMC3    C8 5661   1.319   4.684  12.275 -0.8783 -0.1899  0.9080
  378TMC3    O1 5662   1.780   4.672  12.328 -0.3998  0.0427  0.2208
  378TMC3    O2 5663   1.231   4.595  12.290  0.1777  0.0655 -0.1454
  379MPD2     C 5664   2.446   2.910  15.987 -0.2848  0.0144 -0.0033
  379MPD2    C1 5665   2.347   2.868  16.074 -0.3245 -0.7120 -0.1839
  379MPD2    C2 5666   2.381   2.787  16.184 -0.1095 -0.3029  0.0407
  379MPD2    C3 5667   2.513   2.755  16.214 -0.1209 -0.5131 -0.2477
  379MPD2    C4 5668   2.610   2.802  16.123 -0.2956  0.0345  0.4904
  379MPD2    C5 5669   2.583   2.876  16.011 -0.8310 -0.0970 -1.0070
  379MPD2     H 5670   2.302   2.770  16.256  0.5148  1.3214  1.0959
  379MPD2    H1 5671   2.715   2.794  16.150 -0.6518  0.1809  1.9060
  379MPD2    H2 5672   2.416   2.976  15.906 -2.1581 -0.4176  0.3271
  379MPD2    H3 5673   2.669   2.916  15.960 -0.8909  2.5794  0.9594
  379MPD2     N 5674   2.561   2.662  16.312 -0.6446  0.0401 -0.4411
  379MPD2    H5 5675   2.662   2.653  16.316 -0.6981  0.0012  0.6734
  379MPD2    N1 5676   2.219   2.900  16.024  0.0013  0.0525  0.5107
  379MPD2    H7 5677   2.222   2.947  15.935 -0.6257  0.1514  0.5428
  380TMC3    C1 5678   2.025   2.825  15.946 -0.1550 -0.6619 -0.2751
  380TMC3    C2 5679   2.070   2.722  15.862  0.2435 -0.5606  0.2316
  380TMC3    C3 5680   2.044   2.733  15.728  0.0020 -0.0574  0.0969
  380TMC3    C4 5681   1.946   2.929  15.904 -0.3854  0.1367  0.5915
  380TMC3    C5 5682   1.913   2.928  15.773 -0.2530  0.1342 -0.5882
  380TMC3    C6 5683   1.948   2.825  15.688  0.3781 -0.2952  0.2622
  380TMC3     C 5684   2.105   2.845  16.063 -0.1900 -0.2049 -0.0966
  380TMC3     O 5685   2.090   2.761  16.154  0.2678 -0.3165 -0.5233
  380TMC3     H 5686   2.122   2.634  15.899  1.6013  1.2944  2.7524
  380TMC3    H1 5687   1.928   3.019  15.962 -2.4657  0.0702  0.0428
  380TMC3    H2 5688   1.917   2.838  15.584  0.6378  1.8174  0.4311
  380TMC3    C7 5689   1.858   3.042  15.718 -0.1482 -0.4691 -0.4995
  380TMC3    C8 5690   2.157   2.719  15.638 -0.7000 -0.0445 -0.9748
  380TMC3    O1 5691   1.908   3.153  15.746  0.2197  0.6327 -0.1187
  380TMC3    O2 5692   2.132   2.724  15.517  0.1813 -0.8600  0.0317
  381TMC3    C1 5693   1.829   3.972  15.898  0.0325 -0.1707  0.3218
  381TMC3    C2 5694   1.892   4.091  15.891  0.4153 -0.2805  0.2528
  381TMC3    C3 5695   1.892   4.186  15.987  0.3833  0.6191  0.3153
  381TMC3    C4 5696   1.755   3.950  16.009 -0.5687 -0.8396 -0.2091
  381TMC3    C5 5697   1.750   4.040  16.113 -0.0466 -0.3617 -0.1804
  381TMC3    C6 5698   1.823   4.160  16.101  0.4746 -0.1229 -0.2930
  381TMC3     C 5699   1.854   3.863  15.809  0.0421  0.1800 -0.3663
  381TMC3     O 5700   1.827   3.751  15.847 -0.6216 -0.1059 -0.1909
  381TMC3     H 5701   1.961   4.102  15.809 -0.4414  0.4352 -0.3761
  381TMC3    H1 5702   1.704   3.856  16.027 -0.4977 -0.9415 -0.5347
  381TMC3    H2 5703   1.829   4.230  16.184  3.0440  1.2815 -1.6430
  381TMC3    C7 5704   1.714   3.992  16.241 -0.0622 -0.6709 -0.2605
  381TMC3    C8 5705   2.014   4.260  15.991 -0.2797 -0.2952  0.2049
  381TMC3    O1 5706   1.690   3.874  16.264  0.6506  0.4576 -0.6407
  381TMC3    O2 5707   2.119   4.214  15.941 -0.2260 -0.3345 -0.4643
  382MPD2     C 5708   1.235   1.393  17.386 -0.5405  0.4568 -0.4613
  382MPD2    C1 5709   1.116   1.354  17.448  0.1749 -0.1168 -0.3781
  382MPD2    C2 5710   1.059   1.234  17.412 -0.3110  0.0229  0.0514
  382MPD2    C3 5711   1.115   1.154  17.313  0.3615 -0.4488 -0.3093
  382MPD2    C4 5712   1.230   1.201  17.251 -1.1468  0.4049 -0.2462
  382MPD2    C5 5713   1.287   1.317  17.288 -0.1169  0.1136  0.4842
  382MPD2     H 5714   0.968   1.198  17.458 -0.2982 -1.2947 -0.9403
  382MPD2    H1 5715   1.258   1.173  17.150 -2.1195  1.2113 -0.7460
  382MPD2    H2 5716   1.291   1.482  17.411  1.3304 -0.2246 -2.2767
  382MPD2    H3 5717   1.381   1.342  17.240 -1.7412  1.1383 -2.1778
  382MPD2     N 5718   1.054   1.035  17.276  0.3119 -0.5046  0.2249
  382MPD2    H5 5719   1.079   0.994  17.186 -0.6575  0.3758 -0.4553
  382MPD2    N1 5720   1.058   1.432  17.548 -0.4404  0.0147  0.5720
  382MPD2    H7 5721   0.965   1.408  17.579 -0.2720  0.0151  1.0838
  383TMC3    C1 5722   0.939   0.821  17.316 -0.5154  0.3024  0.1372
  383TMC3    C2 5723   0.900   0.803  17.184 -0.8575 -0.1565 -0.4889
  383TMC3    C3 5724   0.865   0.677  17.140 -0.3995 -0.1941  1.0121
  383TMC3    C4 5725   0.927   0.723  17.406  0.2081  0.1553 -0.1891
  383TMC3    C5 5726   0.881   0.603  17.362  0.3716  0.2097  0.4197
  383TMC3    C6 5727   0.860   0.572  17.229  0.0639 -0.7472  1.0316
  383TMC3     C 5728   0.984   0.949  17.366  0.4572  0.4380  0.0665
  383TMC3     O 5729   0.986   0.956  17.488  0.0852 -0.1331  0.2502
  383TMC3     H 5730   0.904   0.889  17.117  2.7041  0.8019  0.9596
  383TMC3    H1 5731   0.934   0.733  17.514  0.6815 -0.5466 -0.1556
  383TMC3    H2 5732   0.818   0.476  17.201  1.0398 -0.7289 -0.4598
  383TMC3    C7 5733   0.896   0.496  17.455 -0.3478 -0.1194 -0.2151
  383TMC3    C8 5734   0.791   0.678  17.015  0.4338 -0.2879 -0.3686
  383TMC3    O1 5735   0.827   0.395  17.432  0.0300 -0.1218 -0.0313
  383TMC3    O2 5736   0.744   0.782  16.966  0.1669 -0.2973 -0.5819
  384MPD2     C 5737   2.588   2.938  11.884 -0.3157  0.4561  0.0612
  384MPD2    C1 5738   2.671   2.994  11.982  0.1799  0.4532  0.9914
  384MPD2    C2 5739   2.804   2.967  11.997 -0.1558  0.0178 -0.2566
  384MPD2    C3 5740   2.845   2.850  11.929 -0.3926 -0.0967 -0.2245
  384MPD2    C4 5741   2.769   2.796  11.833  0.0053  0.5930  0.1656
  384MPD2    C5 5742   2.643   2.842  11.803  0.0057  0.6267  0.0440
  384MPD2     H 5743   2.873   3.012  12.067 -0.0628 -0.4764 -0.0270
  384MPD2    H1 5744   2.813   2.712  11.781 -0.9645 -0.5635  1.2247
  384MPD2    H2 5745   2.484   2.963  11.872 -0.9585 -2.8844 -1.2736
  384MPD2    H3 5746   2.587   2.793  11.724 -2.6614  2.0457  1.0534
  384MPD2     N 5747   2.965   2.789  11.967 -0.3653 -0.6558 -0.2939
  384MPD2    H5 5748   2.994   2.718  11.900 -1.7876  0.0092 -1.6106
  384MPD2    N1 5749   2.603   3.083  12.071 -0.3409  0.4843 -0.5380
  384MPD2    H7 5750   2.506   3.061  12.088 -0.0527 -3.3087 -3.7613
  385TMC3    C1 5751   3.109   2.683  12.142  0.5285 -0.1646 -0.4533
  385TMC3    C2 5752   3.091   2.561  12.101 -0.2558  0.0488 -0.6633
  385TMC3    C3 5753   3.123   2.460  12.189  0.3838  0.7843  0.0498
  385TMC3    C4 5754   3.146   2.714  12.272  0.3224 -0.0794  0.1456
  385TMC3    C5 5755   3.154   2.617  12.360 -0.3794 -0.1256  0.7098
  385TMC3    C6 5756   3.145   2.486  12.318 -0.0102  0.8175  0.1943
  385TMC3     C 5757   3.031   2.794  12.089  0.3961 -0.2273 -0.0206
  385TMC3     O 5758   3.014   2.881  12.170  0.3976  0.4613  0.1466
  385TMC3     H 5759   3.065   2.533  11.999 -1.5102 -0.3435 -0.2479
  385TMC3    H1 5760   3.174   2.812  12.312 -0.0451 -0.0507  0.3274
  385TMC3    H2 5761   3.160   2.399  12.382 -0.2003 -1.3861 -2.7502
  385TMC3    C7 5762   3.116   2.653  12.498 -0.5081 -0.3363 -0.3840
  385TMC3    C8 5763   3.096   2.318  12.152 -0.7402  0.0932  0.0807
  385TMC3    O1 5764   3.138   2.764  12.539 -0.0479 -0.3195 -0.4796
  385TMC3    O2 5765   3.032   2.264  12.238 -0.1595 -0.3569  0.1047
  386TMC3    C1 5766   2.348   4.434  11.226 -0.4421  0.0486  0.4160
  386TMC3    C2 5767   2.388   4.485  11.106  0.2764  0.8835 -0.2414
  386TMC3    C3 5768   2.294   4.493  11.003  0.0158 -0.3784 -0.0825
  386TMC3    C4 5769   2.213   4.403  11.242 -0.3395  0.0264  0.6297
  386TMC3    C5 5770   2.126   4.421  11.137 -0.4427 -0.7997  0.6040
  386TMC3    C6 5771   2.162   4.445  11.010  0.0256 -0.6132 -0.2748
  386TMC3     C 5772   2.410   4.493  11.342  0.2604 -0.1177  0.0486
  386TMC3     O 5773   2.335   4.546  11.423 -0.4483  0.2356 -0.2060
  386TMC3     H 5774   2.483   4.535  11.095  0.5543  0.5995  0.8692
  386TMC3    H1 5775   2.179   4.363  11.337 -1.0440 -2.4117 -0.6681
  386TMC3    H2 5776   2.091   4.466  10.932 -2.8570 -0.9671  2.2452
  386TMC3    C7 5777   1.993   4.462  11.182 -0.7797  0.0699  0.4330
  386TMC3    C8 5778   2.313   4.589  10.891  0.2385  0.0318  0.5988
  386TMC3    O1 5779   1.969   4.451  11.304  0.1416 -0.0263 -0.0815
  386TMC3    O2 5780   2.216   4.618  10.824 -0.4508 -0.6279 -0.6571
  387MPD2     C 5781   4.720   0.833   9.414 -0.1257 -0.3767  0.4000
  387MPD2    C1 5782   0.103   0.813   9.503  0.2278 -0.7487  0.4441
  387MPD2    C2 5783   0.127   0.681   9.539 -0.4196  0.4595 -0.3675
  387MPD2    C3 5784   0.066   0.572   9.469  0.0462  0.0333 -0.2019
  387MPD2    C4 5785   4.681   0.600   9.386 -0.0845 -0.1698 -0.2912
  387MPD2    C5 5786   4.651   0.731   9.355 -0.7820  0.1620 -0.1053
  387MPD2     H 5787   0.211   0.669   9.607  0.8217  0.6457 -1.8629
  387MPD2    H1 5788   4.633   0.517   9.335  1.8308 -2.1660  1.1774
  387MPD2    H2 5789   4.689   0.928   9.371  0.7128  0.2876  1.2503
  387MPD2    H3 5790   4.577   0.758   9.282 -0.3800  3.0560  0.5547
  387MPD2     N 5791   0.143   0.457   9.485 -0.8830 -0.7327 -0.3839
  387MPD2    H5 5792   0.236   0.461   9.526  0.1297 -1.8813 -2.5619
  387MPD2    N1 5793   0.180   0.918   9.552 -1.2994  1.2337 -0.9705
  387MPD2    H7 5794   0.249   0.889   9.620 -0.8406  1.2629 -1.4329
  388TMC3    C1 5795   0.313   1.099   9.555 -0.2120  0.4911  0.1818
  388TMC3    C2 5796   0.315   1.218   9.622 -0.4296 -0.2614  0.3376
  388TMC3    C3 5797   0.423   1.243   9.708  0.4758 -0.6074  0.0843
  388TMC3    C4 5798   0.414   1.013   9.549  0.3442  0.1068 -0.0658
  388TMC3    C5 5799   0.524   1.046   9.631  0.2920  0.5747 -0.2205
  388TMC3    C6 5800   0.532   1.160   9.710 -0.2237 -0.3006 -0.1148
  388TMC3     C 5801   0.183   1.051   9.520 -0.1013  0.4000 -0.2000
  388TMC3     O 5802   0.108   1.117   9.449  0.6676  0.3082 -0.0859
  388TMC3     H 5803   0.225   1.274   9.647 -0.5639  0.4368 -1.7451
  388TMC3    H1 5804   0.408   0.917   9.499 -0.5684 -0.5628  1.3377
  388TMC3    H2 5805   0.622   1.186   9.765 -0.9003  2.1701 -0.1844
  388TMC3    C7 5806   0.624   0.940   9.655  0.2293  0.8571  0.5867
  388TMC3    C8 5807   0.421   1.385   9.750 -0.1921 -0.2306  0.0759
  388TMC3    O1 5808   0.667   0.941   9.770 -0.5952 -0.4580  0.8279
  388TMC3    O2 5809   0.366   1.468   9.678  0.3753 -0.2441 -0.3632
  389MPD2     C 5810   4.498   3.692  10.991  0.0049  0.3227  0.3519
  389MPD2    C1 5811   4.427   3.609  10.905  0.5821 -0.3119 -0.4738
  389MPD2    C2 5812   4.372   3.494  10.958  0.1015 -0.6323  0.5251
  389MPD2    C3 5813   4.380   3.463  11.089 -0.5630  0.1211 -0.5239
  389MPD2    C4 5814   4.445   3.550  11.172 -1.0974 -0.1698 -0.2988
  389MPD2    C5 5815   4.503   3.668  11.125  0.4797  0.6831  0.5360
  389MPD2     H 5816   4.318   3.437  10.883  1.7771  0.2394 -1.3418
  389MPD2    H1 5817   4.458   3.529  11.278  1.1998 -0.1719 -0.5866
  389MPD2    H2 5818   4.542   3.781  10.948  1.1499 -0.6876 -0.5674
  389MPD2    H3 5819   4.557   3.739  11.186  0.0982  0.9227  0.5955
  389MPD2     N 5820   4.316   3.352  11.157  0.8700  0.0405 -0.1098
  389MPD2    H5 5821   4.317   3.344  11.258  0.2224  0.7534 -0.0487
  389MPD2    N1 5822   4.421   3.649  10.772 -0.1614 -0.3129  0.4619
  389MPD2    H7 5823   4.467   3.735  10.747  0.3056  0.3300  3.5509
  390TMC3    C1 5824   4.120   3.241  11.190 -0.1266  0.6240  0.1386
  390TMC3    C2 5825   4.037   3.129  11.170  0.2798 -0.3148 -0.1660
  390TMC3    C3 5826   3.927   3.116  11.246 -0.4334  0.4991  0.2704
  390TMC3    C4 5827   4.078   3.337  11.272 -0.0927 -0.2732 -0.5888
  390TMC3    C5 5828   3.967   3.323  11.351  0.0386  0.3976  0.1101
  390TMC3    C6 5829   3.890   3.211  11.343 -0.6211 -0.2291 -0.7181
  390TMC3     C 5830   4.231   3.267  11.100  0.0990  0.2613 -0.6669
  390TMC3     O 5831   4.206   3.243  10.982 -0.1255 -0.2411 -0.0108
  390TMC3     H 5832   4.065   3.062  11.089  0.1472 -0.4649 -0.0873
  390TMC3    H1 5833   4.130   3.432  11.281 -0.7025 -0.1850  1.8638
  390TMC3    H2 5834   3.797   3.214  11.399 -0.5218  0.5150 -0.5946
  390TMC3    C7 5835   3.924   3.440  11.428 -0.1316  0.1935  0.2946
  390TMC3    C8 5836   3.852   2.992  11.229 -0.0810 -0.1391  0.8667
  390TMC3    O1 5837   3.956   3.551  11.386  0.2395 -0.3857 -0.5246
  390TMC3    O2 5838   3.902   2.900  11.164  0.0539 -0.2159 -0.9352
  391MPD2     C 5839   3.774   4.655  10.971 -0.2301 -0.1999  0.6333
  391MPD2    C1 5840   3.873   0.002  10.906 -0.5285  0.0893  0.7712
  391MPD2    C2 5841   3.836   0.096  10.810  1.2127  0.6641 -0.2036
  391MPD2    C3 5842   3.705   0.109  10.767  0.0864  0.8832 -0.1886
  391MPD2    C4 5843   3.611   0.033  10.830 -1.2121  0.3375 -0.1523
  391MPD2    C5 5844   3.641   4.680  10.943 -0.1516  0.0038 -0.1066
  391MPD2     H 5845   3.902   0.167  10.761 -2.0381  2.8070 -1.4993
  391MPD2    H1 5846   3.506   0.042  10.804 -1.3011  4.5747  1.5375
  391MPD2    H2 5847   3.798   4.578  11.043 -1.5454 -0.0196  1.2652
  391MPD2    H3 5848   3.566   4.631  11.004 -0.3765 -1.6119 -1.6865
  391MPD2     N 5849   3.674   0.186  10.652 -0.2764 -0.2391  0.5558
  391MPD2    H5 5850   3.754   0.235  10.615 -0.1721 -1.4050 -0.7928
  391MPD2    N1 5851   4.003   4.719  10.948 -0.2206 -0.3475 -0.0061
  391MPD2    H7 5852   4.027   4.683  11.040  0.2211  1.1257  0.4480
  392TMC3    C1 5853   3.593   0.268  10.450  0.2896  0.2299 -0.2240
  392TMC3    C2 5854   3.522   0.234  10.343  0.0884 -0.1576 -1.0253
  392TMC3    C3 5855   3.549   0.303  10.227  0.2552  0.2814  0.2400
  392TMC3    C4 5856   3.695   0.357  10.442  0.2749  0.3543 -0.4267
  392TMC3    C5 5857   3.730   0.414  10.324 -0.6538  0.1220  0.3093
  392TMC3    C6 5858   3.660   0.378  10.214 -0.3265  0.8112  0.6860
  392TMC3     C 5859   3.562   0.187  10.571  0.0593 -0.1890  0.0185
  392TMC3     O 5860   3.477   0.095  10.565 -0.1396 -0.4500 -0.3244
  392TMC3     H 5861   3.431   0.176  10.352 -0.6880  1.1948 -0.2560
  392TMC3    H1 5862   3.751   0.378  10.532  0.1983 -2.3176  0.2459
  392TMC3    H2 5863   3.684   0.438  10.126  0.0796 -2.2961 -1.3148
  392TMC3    C7 5864   3.845   0.499  10.320 -0.1447 -0.1960  0.3005
  392TMC3    C8 5865   3.471   0.272  10.114 -0.3009 -0.0255  0.1464
  392TMC3    O1 5866   3.939   0.468  10.397 -0.5099  0.0817  0.1358
  392TMC3    O2 5867   3.351   0.263  10.129 -0.0637 -0.1789  0.2949
  393TMC3    C1 5868   3.119   2.811  10.265  0.7274  0.2657 -0.3499
  393TMC3    C2 5869   3.048   2.760  10.373  1.0222  0.6937 -0.0583
  393TMC3    C3 5870   3.116   2.684  10.459  0.0378 -0.3755 -0.0728
  393TMC3    C4 5871   3.250   2.784  10.249  0.0180 -0.2119  0.0639
  393TMC3    C5 5872   3.313   2.699  10.333  0.0250 -0.5533  0.0686
  393TMC3    C6 5873   3.250   2.652  10.443 -0.0129 -0.1382  0.7393
  393TMC3     C 5874   3.052   2.883  10.162 -0.1663 -0.1979  0.3606
  393TMC3     O 5875   3.099   2.992  10.136  0.3754  0.7619 -0.5337
  393TMC3     H 5876   2.943   2.783  10.390  0.5621 -1.3369 -0.1267
  393TMC3    H1 5877   3.298   2.817  10.157 -1.4630 -1.6061 -1.2010
  393TMC3    H2 5878   3.300   2.582  10.509  0.8242 -1.1605 -0.9952
  393TMC3    C7 5879   3.390   2.597  10.265 -0.3414 -0.7465 -0.1102
  393TMC3    C8 5880   3.057   2.643  10.585 -0.8575  0.5509  0.3027
  393TMC3    O1 5881   3.325   2.506  10.214 -0.1826  0.2308 -0.1300
  393TMC3    O2 5882   2.937   2.623  10.576  0.4543  0.2439 -0.3833
  394TMC3    C1 5883   4.358   3.656  10.551 -0.2165  0.2267  0.6669
  394TMC3    C2 5884   4.252   3.627  10.470 -0.1805 -0.2031 -0.1656
  394TMC3    C3 5885   4.282   3.585  10.345  0.1858  0.0202  0.4116
  394TMC3    C4 5886   4.488   3.653  10.504 -0.1637  0.5066  0.1887
  394TMC3    C5 5887   4.507   3.634  10.375 -0.0122 -0.0382  0.9334
  394TMC3    C6 5888   4.410   3.591  10.292  0.4909  0.1669  0.3173
  394TMC3     C 5889   4.344   3.599  10.678  0.1632  0.4463  0.8926
  394TMC3     O 5890   4.265   3.503  10.684 -0.1718  0.3956  0.7204
  394TMC3     H 5891   4.148   3.648  10.496 -0.3400 -0.8319 -0.2942
  394TMC3    H1 5892   4.573   3.677  10.567 -1.1561  1.6264  1.0991
  394TMC3    H2 5893   4.425   3.589  10.185 -3.2883  0.6956 -0.2155
  394TMC3    C7 5894   4.630   3.695  10.315  0.8799  0.1720 -0.2521
  394TMC3    C8 5895   4.178   3.515  10.267  0.1654 -0.5322  1.3300
  394TMC3    O1 5896   4.695   3.778  10.380 -0.2881 -0.2645  0.2358
  394TMC3    O2 5897   4.074   3.578  10.259  0.1394  0.3013  0.0445
  395TMC3    C1 5898   3.740   0.756  14.193 -0.2808 -0.6122  0.4804
  395TMC3    C2 5899   3.668   0.662  14.268 -0.4606  0.8278 -0.1246
  395TMC3    C3 5900   3.669   0.685  14.406 -0.9021 -0.7253  0.3077
  395TMC3    C4 5901   3.797   0.869  14.259 -0.5909  1.4243 -0.2413
  395TMC3    C5 5902   3.792   0.880  14.397 -0.9953 -0.5515  0.5088
  395TMC3    C6 5903   3.736   0.784  14.475  0.5088 -0.0705 -0.3450
  395TMC3     C 5904   3.838   0.680  14.119 -0.1861  0.3115  0.3389
  395TMC3     O 5905   3.953   0.715  14.143  0.0258 -0.5387 -0.1664
  395TMC3     H 5906   3.603   0.586  14.225  1.3207 -0.8287  0.1322
  395TMC3    H1 5907   3.868   0.922  14.197 -0.0271 -1.8249 -2.3367
  395TMC3    H2 5908   3.735   0.777  14.583 -2.5858 -1.4841 -0.4426
  395TMC3    C7 5909   3.906   0.944  14.462 -0.5908 -0.6458  0.2036
  395TMC3    C8 5910   3.650   0.564  14.489  0.0274  0.4203  0.5738
  395TMC3    O1 5911   3.955   0.879  14.550 -0.4423  0.3814  0.2049
  395TMC3    O2 5912   3.639   0.575  14.614 -0.3088  0.6674 -0.4778
  396MPD2     C 5913   3.872   1.303  16.986 -0.1525  0.3974 -0.9155
  396MPD2    C1 5914   3.973   1.356  17.060 -0.3943  0.5705  0.4267
  396MPD2    C2 5915   4.069   1.441  17.004  0.0244  0.3577  0.0730
  396MPD2    C3 5916   4.067   1.467  16.866  0.1137 -0.0444  0.3920
  396MPD2    C4 5917   3.964   1.410  16.792  0.7481 -0.1458 -0.3167
  396MPD2    C5 5918   3.867   1.335  16.851  0.4047  0.0640  0.1765
  396MPD2     H 5919   4.149   1.482  17.065  0.0342 -0.2312  0.4608
  396MPD2    H1 5920   3.955   1.415  16.684  1.9153  1.4614 -0.3351
  396MPD2    H2 5921   3.801   1.235  17.032 -0.5051  1.3784 -0.0196
  396MPD2    H3 5922   3.794   1.288  16.786  0.7756  3.2604 -2.5442
  396MPD2     N 5923   4.178   1.540  16.820 -0.4471  0.6961  0.2002
  396MPD2    H5 5924   4.245   1.571  16.889 -0.2488  0.1397  0.2594
  396MPD2    N1 5925   3.996   1.329  17.197  0.4759 -0.0769  0.2825
  396MPD2    H7 5926   4.077   1.371  17.241 -0.1529  1.3548  0.0803
  397TMC3    C1 5927   3.968   1.229  17.412  0.0613 -0.9516  0.6433
  397TMC3    C2 5928   4.102   1.198  17.388  0.8252 -0.7064  0.3126
  397TMC3    C3 5929   4.155   1.091  17.443  0.4097  1.2521 -0.3002
  397TMC3    C4 5930   3.899   1.134  17.488  0.0970  0.1833  0.2671
  397TMC3    C5 5931   3.959   1.024  17.539 -1.1893 -0.1322  0.5125
  397TMC3    C6 5932   4.090   0.992  17.514  0.4396 -0.0307  0.1250
  397TMC3     C 5933   3.915   1.253  17.275 -0.0232  0.4717 -0.6272
  397TMC3     O 5934   3.809   1.196  17.249 -0.0323 -0.2147 -0.3939
  397TMC3     H 5935   4.173   1.274  17.358 -0.6957 -0.3017 -2.2573
  397TMC3    H1 5936   3.795   1.145  17.515  0.4679  3.9385  0.1548
  397TMC3    H2 5937   4.132   0.898  17.548 -2.3824 -1.0088  0.9609
  397TMC3    C7 5938   3.898   0.958  17.655 -0.3962  0.1161 -0.1715
  397TMC3    C8 5939   4.270   1.035  17.371 -0.2402  0.2923 -0.2239
  397TMC3    O1 5940   3.774   0.937  17.641  0.4373  0.1351  0.5583
  397TMC3    O2 5941   4.333   0.941  17.421 -0.0336  0.3193 -0.5377
  398MPD2     C 5942   1.847   2.189  17.676 -0.4325  0.4930  0.3594
  398MPD2    C1 5943   1.939   2.132   0.073  0.2004  0.0251  0.0590
  398MPD2    C2 5944   2.019   2.212   0.153  0.3590  0.1895  0.5520
  398MPD2    C3 5945   2.008   2.354   0.141 -0.0070 -0.0028  0.0660
  398MPD2    C4 5946   1.923   2.409   0.048 -0.0409  0.1646  1.0325
  398MPD2    C5 5947   1.844   2.326  17.664  0.0821  0.6927  0.2837
  398MPD2     H 5948   2.088   2.167   0.224  0.5154 -1.6331 -0.7514
  398MPD2    H1 5949   1.913   2.516   0.032  0.0982 -0.0279 -0.3816
  398MPD2    H2 5950   1.786   2.125  17.613 -0.0731 -0.7880  1.3068
  398MPD2    H3 5951   1.770   2.367  17.595  0.3064 -0.8812 -0.9072
  398MPD2     N 5952   2.073   2.433   0.234  0.3598 -0.3029 -0.6364
  398MPD2    H5 5953   2.129   2.388   0.305 -0.5877  1.7583  1.4232
  398MPD2    N1 5954   1.942   1.990   0.089  0.2925  0.2445  0.2873
  398MPD2    H7 5955   1.989   1.968   0.176  1.7892 -1.7845 -1.0719
  399TMC3    C1 5956   1.889   1.757   0.055  0.2389  0.1077 -0.4377
  399TMC3    C2 5957   2.020   1.729   0.050  0.0156 -0.1826 -0.3653
  399TMC3    C3 5958   2.063   1.605   0.054  0.7037  0.1349 -0.1782
  399TMC3    C4 5959   1.791   1.668   0.042 -0.1529 -0.6463 -0.0983
  399TMC3    C5 5960   1.840   1.537   0.036  0.3848  0.3792  0.3883
  399TMC3    C6 5961   1.972   1.500   0.047  0.3482  0.1566 -0.9504
  399TMC3     C 5962   1.859   1.898   0.029 -0.0450 -0.3361  0.2149
  399TMC3     O 5963   1.754   1.909  17.648 -0.1423  0.3842 -0.0011
  399TMC3     H 5964   2.093   1.807   0.070  1.8424 -1.9808  0.0162
  399TMC3    H1 5965   1.688   1.701   0.036 -0.3046 -1.1159 -0.1074
  399TMC3    H2 5966   2.007   1.398   0.034  2.3285  0.6053  0.8422
  399TMC3    C7 5967   1.752   1.432  17.680 -0.3302 -0.2075 -0.2356
  399TMC3    C8 5968   2.205   1.591   0.057 -0.3054  0.0753  0.0735
  399TMC3    O1 5969   1.800   1.356  17.594 -0.7290  0.1340  0.3542
  399TMC3    O2 5970   2.274   1.688   0.016 -0.1942 -0.1048  0.4314
  400TMC3    C1 5971   1.107   0.537  16.685 -0.1746  0.1676 -0.1410
  400TMC3    C2 5972   0.996   0.569  16.614 -0.3740 -0.6712  0.4091
  400TMC3    C3 5973   0.966   0.701  16.598 -0.1390 -0.6791  0.1335
  400TMC3    C4 5974   1.191   0.623  16.748 -0.4797  0.8582  0.3683
  400TMC3    C5 5975   1.154   0.758  16.732  0.1344  0.2817  0.3659
  400TMC3    C6 5976   1.044   0.800  16.662 -0.3595  0.0721  0.7418
  400TMC3     C 5977   1.095   0.401  16.739 -0.3326 -0.3690  0.3654
  400TMC3     O 5978   1.043   0.319  16.663  0.0532  0.5459  0.1169
  400TMC3     H 5979   0.931   0.489  16.580 -2.3825  0.6379  1.1859
  400TMC3    H1 5980   1.284   0.598  16.799 -1.1501 -2.2020  0.0859
  400TMC3    H2 5981   1.022   0.903  16.640 -1.5743 -0.3145  0.1274
  400TMC3    C7 5982   1.264   0.844  16.746  0.3580 -0.1869 -0.2308
  400TMC3    C8 5983   0.835   0.739  16.548  0.0204  0.2349  0.7612
  400TMC3    O1 5984   1.378   0.806  16.755 -0.2074 -0.0773 -0.2709
  400TMC3    O2 5985   0.814   0.854  16.578  0.2287 -0.2810 -0.3966
  401MPD2     C 5986   4.471   3.966   0.260  0.0905  0.2038 -0.4127
  401MPD2    C1 5987   4.484   3.910   0.382 -0.0338 -0.1902  0.0681
  401MPD2    C2 5988   4.501   3.772   0.387 -0.5200 -0.3690 -0.0362
  401MPD2    C3 5989   4.504   3.697   0.274 -0.6373  0.0466  0.0304
  401MPD2    C4 5990   4.501   3.762   0.146 -0.4772 -0.2118  0.1807
  401MPD2    C5 5991   4.485   3.898   0.144  0.1966 -0.0358 -0.3527
  401MPD2     H 5992   4.502   3.720   0.483 -0.5111  0.6830  0.5368
  401MPD2    H1 5993   4.510   3.702   0.056 -1.0261 -2.4966  1.6440
  401MPD2    H2 5994   4.434   4.066   0.242 -0.4147 -0.0371 -0.7273
  401MPD2    H3 5995   4.481   3.956   0.052 -0.0641  0.5177  0.0019
  401MPD2     N 5996   4.524   3.560   0.288 -0.4068 -0.2226 -0.3850
  401MPD2    H5 5997   4.549   3.517   0.377 -0.9250  4.0721  1.8678
  401MPD2    N1 5998   4.465   3.984   0.498  0.4602 -0.0790 -0.6035
  401MPD2    H7 5999   4.481   3.947   0.591 -3.4368 -0.7814 -0.2061
  402TMC3    C1 6000   4.511   3.332   0.258  0.6913  0.4381 -0.4052
  402TMC3    C2 6001   4.446   3.306   0.380  0.3066  0.0899  0.0608
  402TMC3    C3 6002   4.474   3.184   0.436  0.9377 -0.2403 -0.1972
  402TMC3    C4 6003   4.570   3.229   0.189  0.3726 -0.3277 -0.7423
  402TMC3    C5 6004   4.602   3.113   0.255 -0.7137  0.1085 -0.2882
  402TMC3    C6 6005   4.554   3.092   0.380  0.4279 -0.1913  0.5953
  402TMC3     C 6006   4.505   3.461   0.196 -0.2586  0.1704  0.3726
  402TMC3     O 6007   4.464   3.470   0.083 -0.4811 -0.2223 -0.8237
  402TMC3     H 6008   4.397   3.386   0.434 -0.5940 -0.6241  0.3030
  402TMC3    H1 6009   4.617   3.246   0.093  2.9302 -1.2707  0.3479
  402TMC3    H2 6010   4.557   2.994   0.427 -0.1308 -0.0522  0.9246
  402TMC3    C7 6011   4.704   3.029   0.195  0.1428  0.9596  0.0760
  402TMC3    C8 6012   4.436   3.155   0.574  0.2701  0.0780 -0.1324
  402TMC3    O1 6013   0.001   3.047   0.075  0.3460 -0.2311  0.4958
  402TMC3    O2 6014   4.527   3.120   0.644 -0.2535 -0.2669 -0.3392
  403MPD2     C 6015   2.084   3.147  13.261  0.2063 -0.1020  0.4482
  403MPD2    C1 6016   2.072   3.018  13.316  0.7724  0.0208 -0.2808
  403MPD2    C2 6017   2.150   2.982  13.418  0.0360 -0.5631  0.1846
  403MPD2    C3 6018   2.225   3.085  13.476  0.4064 -0.3320  0.3601
  403MPD2    C4 6019   2.223   3.216  13.441  0.4934  0.4500  0.2133
  403MPD2    C5 6020   2.155   3.254  13.327  0.9107 -0.1271 -1.1416
  403MPD2     H 6021   2.155   2.886  13.467 -1.3825 -0.0644  1.2971
  403MPD2    H1 6022   2.285   3.293  13.486  0.1369  1.6531 -1.3393
  403MPD2    H2 6023   2.017   3.194  13.191 -0.6133 -1.3685  0.3754
  403MPD2    H3 6024   2.158   3.357  13.295 -0.3558 -0.1048 -1.1738
  403MPD2     N 6025   2.305   3.035  13.579 -0.4101 -1.0602  0.1151
  403MPD2    H5 6026   2.307   2.935  13.597  0.1338 -1.4848 -2.3638
  403MPD2    N1 6027   1.976   2.924  13.257  0.6747 -0.6453  0.2377
  403MPD2    H7 6028   1.927   2.954  13.174  0.3787  0.5222  0.8221
  404TMC3    C1 6029   1.873   2.707  13.241  0.3957  0.0070  0.4993
  404TMC3    C2 6030   1.862   2.578  13.296  0.8576  0.5810 -0.1257
  404TMC3    C3 6031   1.849   2.468  13.210 -0.4229  0.1760 -0.6283
  404TMC3    C4 6032   1.851   2.724  13.108  0.0165  0.1867 -0.3337
  404TMC3    C5 6033   1.849   2.613  13.023  0.3832 -0.4523 -0.0402
  404TMC3    C6 6034   1.852   2.481  13.072 -0.1048 -0.4755 -0.1876
  404TMC3     C 6035   1.931   2.809  13.322 -0.0774 -0.1044  0.1582
  404TMC3     O 6036   1.945   2.787  13.441 -0.5664  0.8750  0.3409
  404TMC3     H 6037   1.897   2.564  13.397  0.9412 -1.3013 -0.4252
  404TMC3    H1 6038   1.858   2.817  13.052  0.7085  1.3803  1.7234
  404TMC3    H2 6039   1.866   2.395  13.007 -1.7662  0.2740 -1.5506
  404TMC3    C7 6040   1.889   2.625  12.890 -0.6810 -0.3821 -0.5000
  404TMC3    C8 6041   1.908   2.347  13.262 -0.7269 -0.4172 -0.0749
  404TMC3    O1 6042   2.006   2.653  12.865 -0.0198  0.2473 -0.6897
  404TMC3    O2 6043   1.976   2.275  13.191 -0.2931  0.2989 -0.0575
  405MPD2     C 6044   2.753   3.162  14.485  0.0144  0.0276 -0.7257
  405MPD2    C1 6045   2.658   3.089  14.413  0.2012  0.0381  0.2293
  405MPD2    C2 6046   2.580   3.154  14.317 -0.0259 -0.1197 -0.7081
  405MPD2    C3 6047   2.585   3.293  14.296 -0.2113  0.1549  0.3424
  405MPD2    C4 6048   2.676   3.368  14.374  0.3658 -0.2532 -0.5345
  405MPD2    C5 6049   2.750   3.299  14.470 -0.5954  0.0255  0.1320
  405MPD2     H 6050   2.509   3.101  14.255 -1.3748  0.1086  0.6561
  405MPD2    H1 6051   2.706   3.470  14.355  0.8558  0.1286  2.3331
  405MPD2    H2 6052   2.821   3.112  14.553 -2.2083  0.8810  2.1006
  405MPD2    H3 6053   2.818   3.342  14.543  0.0970 -1.3950  0.3225
  405MPD2     N 6054   2.510   3.343  14.192  0.7348  0.0422 -0.3484
  405MPD2    H5 6055   2.445   3.282  14.143  0.2408  0.3224 -0.0388
  405MPD2    N1 6056   2.650   2.946  14.424  0.1992 -0.1996  0.4043
  405MPD2    H7 6057   2.702   2.905  14.501 -0.2095 -1.4939 -0.0126
  406TMC3    C1 6058   2.166   3.579  14.078  0.7623  0.3362 -0.5031
  406TMC3    C2 6059   2.133   3.482  13.985 -1.2474  0.6429 -0.5012
  406TMC3    C3 6060   2.231   3.401  13.944 -0.6432  0.3857 -0.4856
  406TMC3    C4 6061   2.298   3.606  14.122 -1.4040 -0.0752  0.0210
  406TMC3    C5 6062   2.387   3.506  14.073  0.1498 -0.0570  0.1005
  406TMC3    C6 6063   2.350   3.402  13.995  0.3538 -0.0783 -0.8364
  406TMC3     C 6064   2.059   3.657  14.130  0.6032 -0.2979  0.3718
  406TMC3     O 6065   2.085   3.767  14.174 -0.2008 -0.0949  0.3958
  406TMC3     H 6066   2.034   3.467  13.942 -0.9272  1.4326 -1.5065
  406TMC3    H1 6067   2.331   3.689  14.183  1.3804 -1.0385 -0.1652
  406TMC3    H2 6068   2.428   3.344  13.946 -0.0051 -0.2722 -1.1758
  406TMC3    C7 6069   2.494   3.477  14.166 -0.7210  0.3161  0.1193
  406TMC3    C8 6070   2.179   3.275  13.897 -0.2039 -1.2519  0.3478
  406TMC3    O1 6071   2.520   3.573  14.236 -0.3682  0.5661 -0.4364
  406TMC3    O2 6072   2.083   3.269  13.821 -0.1652 -0.2546 -0.9552
  407MPD2     C 6073   4.383   0.048   9.685  0.2184 -0.5169  0.5029
  407MPD2    C1 6074   4.471   0.139   9.625 -0.5762  0.8589  0.0566
  407MPD2    C2 6075   4.522   0.239   9.703 -0.0408 -0.3141 -0.1351
  407MPD2    C3 6076   4.477   0.266   9.829  0.0766  0.6167  1.3114
  407MPD2    C4 6077   4.388   0.177   9.888 -0.4784 -0.2012  0.1369
  407MPD2    C5 6078   4.347   0.065   9.820 -0.1344  0.3059 -0.4024
  407MPD2     H 6079   4.600   0.299   9.657 -0.6658  1.7859  1.5867
  407MPD2    H1 6080   4.373   0.192   9.994 -0.3222  0.7387  0.0288
  407MPD2    H2 6081   4.350   4.678   9.637  1.5238 -0.8996  0.3504
  407MPD2    H3 6082   4.297   4.704   9.869  0.5741 -1.0227 -1.9135
  407MPD2     N 6083   4.519   0.371   9.912 -0.2772  0.7730  0.5735
  407MPD2    H5 6084   4.496   0.374  10.011  0.4837  2.3916  0.6955
  407MPD2    N1 6085   4.509   0.136   9.490  0.3785 -0.2219 -0.7713
  407MPD2    H7 6086   4.564   0.214   9.457  1.5130  0.0052  1.6679
  408TMC3    C1 6087   4.515   0.054   9.272 -0.2238 -0.0710  0.5185
  408TMC3    C2 6088   4.624   4.705   9.228  0.4689 -0.1371  0.4897
  408TMC3    C3 6089   4.708   0.049   9.137 -0.3597 -0.5515 -0.1558
  408TMC3    C4 6090   4.484   0.178   9.231  0.2645  0.8441 -0.4711
  408TMC3    C5 6091   4.575   0.249   9.147  0.2251  0.4293 -0.4042
  408TMC3    C6 6092   4.686   0.182   9.095 -0.3804  0.2297  0.1465
  408TMC3     C 6093   4.485   0.022   9.407  0.3352 -0.2160  0.1776
  408TMC3     O 6094   4.467   4.624   9.437 -0.0164  0.2663 -0.2912
  408TMC3     H 6095   4.655   4.608   9.264  1.3948  0.2657  0.7767
  408TMC3    H1 6096   4.399   0.229   9.276 -0.2879 -0.2661 -0.2643
  408TMC3    H2 6097   0.017   0.224   9.009  2.1869 -2.3028  0.4666
  408TMC3    C7 6098   4.529   0.374   9.083 -0.5741  0.0330 -0.0686
  408TMC3    C8 6099   0.113   4.710   9.103 -0.8208 -0.4498  0.5045
  408TMC3    O1 6100   4.415   0.387   9.042  0.3518 -0.1332  0.5270
  408TMC3    O2 6101   0.123   4.592   9.131  0.4375  0.4829  0.0851
  409MPD2     C 6102   4.165   0.381  16.830 -0.2453  0.1151 -0.4037
  409MPD2    C1 6103   4.277   0.388  16.911  0.5616 -0.3978  0.6369
  409MPD2    C2 6104   4.391   0.443  16.861  0.5521 -0.0959  0.7105
  409MPD2    C3 6105   4.396   0.502  16.730 -0.1000  0.0803 -0.8499
  409MPD2    C4 6106   4.282   0.506  16.654  0.0474 -0.8333 -0.0071
  409MPD2    C5 6107   4.172   0.438  16.702  0.0640  1.2249 -0.1941
  409MPD2     H 6108   4.470   0.454  16.935  0.8012 -1.0582  0.5955
  409MPD2    H1 6109   4.269   0.535  16.550  1.5025  0.1722  0.0970
  409MPD2    H2 6110   4.074   0.338  16.870  0.4780 -1.9165 -0.9269
  409MPD2    H3 6111   4.083   0.445  16.640  0.8511 -1.3757 -1.6428
  409MPD2     N 6112   4.519   0.559  16.680  0.6478  0.1533  0.2333
  409MPD2    H5 6113   4.508   0.607  16.591 -0.8004  2.0747  1.4479
  409MPD2    N1 6114   4.280   0.336  17.042 -0.2488  0.0176 -0.8183
  409MPD2    H7 6115   4.371   0.342  17.087 -0.0318 -0.9478 -1.1267
  410TMC3    C1 6116   0.011   0.656  16.682  0.8778 -0.1990  0.2316
  410TMC3    C2 6117   0.139   0.620  16.686  0.1618  0.2580  0.0661
  410TMC3    C3 6118   0.233   0.711  16.652 -0.2034  0.2425 -0.1243
  410TMC3    C4 6119   4.691   0.790  16.657 -0.1173  0.4629  0.4561
  410TMC3    C5 6120   0.065   0.880  16.623  0.1272  1.1827  0.5533
  410TMC3    C6 6121   0.198   0.840  16.619  0.2892 -0.0101  0.2027
  410TMC3     C 6122   4.644   0.556  16.735  0.1292 -0.6179 -0.1675
  410TMC3     O 6123   4.688   0.494  16.829  0.1974  0.1627  0.3661
  410TMC3     H 6124   0.162   0.520  16.719 -1.2248  0.2696  1.0764
  410TMC3    H1 6125   4.588   0.824  16.669 -0.8990 -1.0436 -1.8821
  410TMC3    H2 6126   0.275   0.916  16.609 -1.0808  1.2958 -0.2297
  410TMC3    C7 6127   0.026   1.018  16.620 -0.2527  0.4409 -0.2943
  410TMC3    C8 6128   0.363   0.683  16.710  0.1089 -0.0257 -0.2466
  410TMC3    O1 6129   4.631   1.048  16.651 -0.0387  0.2272  0.3380
  410TMC3    O2 6130   0.412   0.772  16.775 -0.4410 -0.0132 -0.4389
  411MPD2     C 6131   4.636   1.571  14.280  0.0982  0.3362 -0.0248
  411MPD2    C1 6132   4.577   1.642  14.177  0.7806 -0.2660 -0.0205
  411MPD2    C2 6133   4.546   1.574  14.056  0.2265  0.2978 -0.9152
  411MPD2    C3 6134   4.567   1.438  14.048 -0.2276  1.1079 -0.4559
  411MPD2    C4 6135   4.625   1.367  14.153  0.5383  0.6315 -0.0140
  411MPD2    C5 6136   4.664   1.436  14.263  0.2233 -0.2910  0.4986
  411MPD2     H 6137   4.526   1.640  13.972  1.3396  1.9585  0.1201
  411MPD2    H1 6138   4.653   1.262  14.146  0.8952  0.7255  0.0309
  411MPD2    H2 6139   4.664   1.618  14.373  0.0249 -2.1805  1.2560
  411MPD2    H3 6140   4.707   1.381  14.346  0.9504 -1.3136 -0.5506
  411MPD2     N 6141   4.508   1.355  13.948 -0.1447 -0.2926 -0.0792
  411MPD2    H5 6142   4.519   1.255  13.961  0.9680 -0.2982 -1.0019
  411MPD2    N1 6143   4.547   1.781  14.199  0.5709 -0.3388  0.8645
  411MPD2    H7 6144   4.553   1.817  14.294 -0.9116  2.0571  0.0270
  412TMC3    C1 6145   4.371   1.304  13.768  0.4671 -0.4483  0.3985
  412TMC3    C2 6146   4.261   1.359  13.705  0.2589 -0.5251  0.0383
  412TMC3    C3 6147   4.206   1.290  13.602 -0.1711 -0.2047  0.9382
  412TMC3    C4 6148   4.447   1.203  13.712  0.3711 -0.1116 -0.4613
  412TMC3    C5 6149   4.388   1.129  13.614  0.2751  0.4039 -0.0746
  412TMC3    C6 6150   4.263   1.170  13.565 -0.1079  0.0384  0.3484
  412TMC3     C 6151   4.440   1.409  13.838 -0.1501 -0.4173 -0.8105
  412TMC3     O 6152   4.429   1.523  13.798  0.7084 -0.2375 -0.2599
  412TMC3     H 6153   4.221   1.456  13.729  0.1252 -0.7889  0.8941
  412TMC3    H1 6154   4.543   1.176  13.754  0.3327  1.2134  0.4817
  412TMC3    H2 6155   4.229   1.123  13.474 -3.3232  1.5798  0.7779
  412TMC3    C7 6156   4.478   1.112  13.499 -0.2493 -0.0803 -0.2233
  412TMC3    C8 6157   4.147   1.369  13.499  0.0511  0.1657  0.5904
  412TMC3    O1 6158   4.435   1.155  13.392 -0.4155 -0.0946 -0.1274
  412TMC3    O2 6159   4.053   1.444  13.531 -0.1625  0.0972 -0.1920
  413MPD2     C 6160   1.798   4.615  15.021 -0.3572 -0.1444 -0.2368
  413MPD2    C1 6161   1.713   4.516  14.980  0.1699 -0.0828  0.2781
  413MPD2    C2 6162   1.768   4.392  14.938 -0.2546  0.0440 -0.2977
  413MPD2    C3 6163   1.908   4.371  14.918  0.0571 -0.7417 -0.7933
  413MPD2    C4 6164   1.991   4.481  14.953 -0.2536 -0.4985  0.1217
  413MPD2    C5 6165   1.932   4.597  14.997 -0.0224 -0.2199  0.1167
  413MPD2     H 6166   1.705   4.305  14.929 -1.2082  0.7512 -0.4097
  413MPD2    H1 6167   2.099   4.480  14.944 -0.3983  2.7827 -1.8411
  413MPD2    H2 6168   1.764   4.716  15.043  1.7486  0.3858  0.6229
  413MPD2    H3 6169   2.004   4.671  15.028 -0.2394 -0.6948  1.7481
  413MPD2     N 6170   1.966   4.247  14.878  0.2657  0.0155  0.0461
  413MPD2    H5 6171   1.900   4.170  14.874  0.7328 -0.5402  2.9867
  413MPD2    N1 6172   1.575   4.540  14.980  0.6607  0.4948  0.2402
  413MPD2    H7 6173   1.543   4.630  15.013 -0.4534  0.2606 -0.1956
  414TMC3    C1 6174   2.109   4.090  14.810  0.4725 -0.0462  0.0388
  414TMC3    C2 6175   2.164   4.005  14.900  0.0659 -0.3183  0.1851
  414TMC3    C3 6176   2.114   3.877  14.910 -0.4017 -0.0722 -0.2353
  414TMC3    C4 6177   2.002   4.056  14.731  0.2290  0.8008  0.4550
  414TMC3    C5 6178   1.971   3.927  14.725 -0.3485  0.0593 -0.1012
  414TMC3    C6 6179   2.019   3.840  14.818  0.5041 -0.4715 -0.1374
  414TMC3     C 6180   2.100   4.221  14.864 -0.7006  0.6594  0.1321
  414TMC3     O 6181   2.199   4.278  14.902  0.0055 -0.1819  0.0521
  414TMC3     H 6182   2.260   4.035  14.942  0.6731 -1.4252 -0.4077
  414TMC3    H1 6183   1.963   4.127  14.659 -0.1344 -0.8720 -0.9942
  414TMC3    H2 6184   1.985   3.737  14.818 -0.9745  0.0240  0.1647
  414TMC3    C7 6185   1.867   3.887  14.628 -0.5911  0.2752 -0.4527
  414TMC3    C8 6186   2.179   3.770  14.983  0.0114 -0.3429 -0.1796
  414TMC3    O1 6187   1.772   3.966  14.635 -0.0793 -0.0070  0.2528
  414TMC3    O2 6188   2.170   3.656  14.930 -0.0550 -0.0145  0.2682
  415TMC3    C1 6189   2.479   2.056   9.715 -0.8524  0.0812 -0.3028
  415TMC3    C2 6190   2.593   2.073   9.645 -0.2756  0.0804 -0.2973
  415TMC3    C3 6191   2.655   1.956   9.594  0.5017 -0.0592 -0.4172
  415TMC3    C4 6192   2.422   1.936   9.731  0.4596  0.7923 -0.3476
  415TMC3    C5 6193   2.492   1.823   9.699 -0.2888 -0.4920 -0.1479
  415TMC3    C6 6194   2.610   1.824   9.632  0.1181 -0.3107  0.2090
  415TMC3     C 6195   2.405   2.163   9.777  0.4905 -0.5551 -0.6606
  415TMC3     O 6196   2.284   2.141   9.783 -0.2435  0.1317 -0.4347
  415TMC3     H 6197   2.619   2.173   9.613  2.2098 -0.7316 -0.7734
  415TMC3    H1 6198   2.318   1.924   9.761  0.2699  1.2448 -0.8177
  415TMC3    H2 6199   2.647   1.733   9.586  1.2852  0.0729  0.3901
  415TMC3    C7 6200   2.436   1.695   9.712 -0.0297  0.3923 -0.7114
  415TMC3    C8 6201   2.777   1.955   9.527 -0.2534  0.0148 -0.1145
  415TMC3    O1 6202   2.469   1.599   9.643 -0.4715  0.1551 -0.2729
  415TMC3    O2 6203   2.799   1.856   9.461  0.1225 -0.0629  0.1801
  416MPD2     C 6204   3.985   1.125  11.483  0.0928  0.0363 -0.0630
  416MPD2    C1 6205   3.907   1.117  11.371  0.1141  0.0408 -0.1139
  416MPD2    C2 6206   3.938   1.025  11.267 -0.2331 -0.4935  0.5653
  416MPD2    C3 6207   4.051   0.946  11.278 -0.0140 -0.4340 -0.1533
  416MPD2    C4 6208   4.114   0.943  11.403  0.1750 -0.2444  0.2192
  416MPD2    C5 6209   4.097   1.044  11.491 -1.1513  0.5539 -0.4511
  416MPD2     H 6210   3.884   1.022  11.174  1.1850 -0.3844 -0.2606
  416MPD2    H1 6211   4.198   0.879  11.424 -0.0278 -0.3489  0.7245
  416MPD2    H2 6212   3.963   1.192  11.566 -0.8851 -1.4053  0.8339
  416MPD2    H3 6213   4.156   1.060  11.581 -0.6233 -1.2424 -0.4776
  416MPD2     N 6214   4.100   0.871  11.173  0.0564 -0.0540 -0.6311
  416MPD2    H5 6215   4.152   0.787  11.192 -1.6981 -0.8621  0.6423
  416MPD2    N1 6216   3.796   1.213  11.359 -0.3234 -0.1744 -0.4725
  416MPD2    H7 6217   3.806   1.308  11.393  1.7675  0.1924 -2.1327
  417TMC3    C1 6218   3.599   1.308  11.275 -0.4319 -0.2367 -0.2739
  417TMC3    C2 6219   3.607   1.403  11.369 -0.0928 -0.2456 -0.3410
  417TMC3    C3 6220   3.538   1.518  11.349 -0.1371 -0.1354 -0.3670
  417TMC3    C4 6221   3.521   1.326  11.165 -0.0034 -0.5986 -0.1237
  417TMC3    C5 6222   3.442   1.437  11.152  0.5303  0.5353 -0.7855
  417TMC3    C6 6223   3.452   1.537  11.246  0.7247 -0.1690  0.0824
  417TMC3     C 6224   3.687   1.194  11.272 -0.0616 -0.0092 -0.3980
  417TMC3     O 6225   3.666   1.090  11.207  0.4600 -0.4386  0.2198
  417TMC3     H 6226   3.662   1.385  11.461  0.2937  0.0758 -0.5114
  417TMC3    H1 6227   3.536   1.258  11.082 -0.4836  0.3117 -0.9607
  417TMC3    H2 6228   3.403   1.634  11.242 -0.8694 -1.0013 -0.5598
  417TMC3    C7 6229   3.388   1.467  11.020  0.6362  1.2588  0.0004
  417TMC3    C8 6230   3.556   1.616  11.454 -0.3721  0.5851 -0.2991
  417TMC3    O1 6231   3.385   1.587  10.989 -0.4984  0.0354 -0.6100
  417TMC3    O2 6232   3.469   1.631  11.533  0.6397 -0.0467  0.3760
  418TMC3    C1 6233   2.423   2.638   0.341 -0.3842 -0.1648 -0.0279
  418TMC3    C2 6234   2.296   2.674   0.291  0.0739 -0.1649  0.5642
  418TMC3    C3 6235   2.183   2.605   0.332  0.0206 -0.2209  0.4398
  418TMC3    C4 6236   2.431   2.560   0.455 -0.1032  0.7458  0.3046
  418TMC3    C5 6237   2.317   2.499   0.501  0.4306 -0.1941  0.4500
  418TMC3    C6 6238   2.195   2.513   0.438 -0.2218  0.2997 -0.2998
  418TMC3     C 6239   2.545   2.693   0.285 -0.1954  0.1159  0.5815
  418TMC3     O 6240   2.526   2.799   0.230 -0.5843  0.3102  0.2309
  418TMC3     H 6241   2.295   2.749   0.213  1.1314  1.8505  2.4631
  418TMC3    H1 6242   2.527   2.538   0.500  0.8105  0.5341 -1.7966
  418TMC3    H2 6243   2.109   2.460   0.475 -0.4698 -0.1547 -1.5155
  418TMC3    C7 6244   2.334   2.378   0.578 -0.9160 -0.5128  0.0217
  418TMC3    C8 6245   2.089   2.570   0.232 -0.0179  0.1182 -0.0677
  418TMC3    O1 6246   2.255   2.283   0.557 -0.0783 -0.1107 -0.1438
  418TMC3    O2 6247   2.049   2.656   0.154  0.7332 -0.1290 -0.1406
  419MPD2     C 6248   1.306   1.183  12.394 -0.7145 -0.1244 -0.2106
  419MPD2    C1 6249   1.216   1.290  12.403 -0.4540 -0.5322 -0.9164
  419MPD2    C2 6250   1.194   1.346  12.527 -0.4423  0.3760 -0.5753
  419MPD2    C3 6251   1.250   1.295  12.646 -0.6230 -0.1748  0.0091
  419MPD2    C4 6252   1.343   1.192  12.635  0.5062  0.3084  0.0836
  419MPD2    C5 6253   1.367   1.135  12.511 -0.0295  0.3915  0.3421
  419MPD2     H 6254   1.126   1.430  12.538  0.2532  1.0170 -1.2224
  419MPD2    H1 6255   1.402   1.146  12.714 -1.2013 -2.4145 -0.2389
  419MPD2    H2 6256   1.330   1.136  12.300  0.3696 -2.2693  1.1218
  419MPD2    H3 6257   1.439   1.055  12.501  0.6049  0.9512  0.4950
  419MPD2     N 6258   1.223   1.367  12.761 -0.3501  0.1804  0.1007
  419MPD2    H5 6259   1.165   1.450  12.754 -0.2212 -0.1467 -4.2589
  419MPD2    N1 6260   1.139   1.343  12.291 -0.2583 -0.1403  0.2058
  419MPD2    H7 6261   1.063   1.408  12.303  0.5664  1.0014 -0.7113
  420TMC3    C1 6262   1.233   1.435  12.981  0.0590 -0.1573  0.1773
  420TMC3    C2 6263   1.110   1.497  12.964  0.2263 -0.5586 -0.4533
  420TMC3    C3 6264   1.046   1.535  13.077  0.1433  0.0552 -0.1784
  420TMC3    C4 6265   1.290   1.415  13.105  0.3199 -0.7523  0.3496
  420TMC3    C5 6266   1.216   1.451  13.216 -0.3383 -0.7212  0.5167
  420TMC3    C6 6267   1.101   1.518  13.200  0.7545  0.1725  0.2057
  420TMC3     C 6268   1.275   1.336  12.884  0.2789  0.8067  0.8466
  420TMC3     O 6269   1.350   1.246  12.927 -0.0212 -0.3857 -0.0677
  420TMC3     H 6270   1.070   1.511  12.864 -0.2435  0.5232 -0.1138
  420TMC3    H1 6271   1.381   1.356  13.113  1.7630  1.6955  1.7291
  420TMC3    H2 6272   1.051   1.543  13.293  1.1163  2.0475 -0.1031
  420TMC3    C7 6273   1.261   1.415  13.350 -0.5671 -0.1161  0.0519
  420TMC3    C8 6274   0.911   1.584  13.066 -0.1620 -0.1870 -0.3503
  420TMC3    O1 6275   1.338   1.323  13.355 -0.0892 -0.4269  0.0322
  420TMC3    O2 6276   0.857   1.586  12.960  0.1969  0.3281 -0.3224
  421TMC3    C1 6277   2.468   3.035  13.758  0.6104  0.6776 -0.0896
  421TMC3    C2 6278   2.555   3.100  13.833  0.3906 -0.2314 -0.3556
  421TMC3    C3 6279   2.630   3.029  13.922  0.8755  0.3682  0.8040
  421TMC3    C4 6280   2.445   2.897  13.767  0.1387 -0.7670  0.7850
  421TMC3    C5 6281   2.524   2.825  13.853 -1.1844 -0.0176 -0.5398
  421TMC3    C6 6282   2.619   2.885  13.930 -0.1268 -0.5018 -0.0086
  421TMC3     C 6283   2.383   3.112  13.664  0.4144  1.1819 -0.0178
  421TMC3     O 6284   2.413   3.234  13.663 -0.6259  0.0437 -0.1790
  421TMC3     H 6285   2.536   3.207  13.843  0.8408 -0.2993  1.2545
  421TMC3    H1 6286   2.366   2.845  13.713  1.9014 -1.7642 -0.8369
  421TMC3    H2 6287   2.683   2.822  13.990  1.8926 -0.5446 -2.1924
  421TMC3    C7 6288   2.559   2.686  13.815  0.5902 -0.2904  0.0523
  421TMC3    C8 6289   2.743   3.103  13.978 -0.3040 -0.2995 -0.1500
  421TMC3    O1 6290   2.612   2.625  13.909 -0.1528 -0.2709 -0.6760
  421TMC3    O2 6291   2.757   3.223  13.958 -0.1966  0.3439 -0.5705
  422TMC3    C1 6292   0.320   4.285  11.967 -0.6503  0.2665 -0.5844
  422TMC3    C2 6293   0.299   4.375  12.071 -0.2588  0.1152 -0.5628
  422TMC3    C3 6294   0.169   4.401  12.109 -0.2959 -0.6593 -0.2537
  422TMC3    C4 6295   0.223   4.205  11.918 -0.2300 -0.0485  0.7170
  422TMC3    C5 6296   0.100   4.233  11.966  0.2821 -0.2005  0.0833
  422TMC3    C6 6297   0.068   4.328  12.055 -0.2631  0.2114  0.0841
  422TMC3     C 6298   0.452   4.288  11.913 -0.4443 -0.2588 -0.4546
  422TMC3     O 6299   0.541   4.322  11.988  0.1635 -0.7307  0.3032
  422TMC3     H 6300   0.372   4.445  12.108  2.7133 -2.4007 -1.6431
  422TMC3    H1 6301   0.247   4.144  11.832 -1.0943 -0.5420  0.8253
  422TMC3    H2 6302   4.685   4.352  12.075 -0.4582 -2.5237  2.2506
  422TMC3    C7 6303   4.710   4.144  11.948  0.0648  0.0335 -0.2627
  422TMC3    C8 6304   0.138   4.511  12.204 -0.5626 -0.2882  0.0913
  422TMC3    O1 6305   4.682   4.114  11.836  0.3434  0.5185 -0.1042
  422TMC3    O2 6306   0.223   4.601  12.197  0.1314  0.1696 -0.0539
  423MPD2     C 6307   1.566   0.499   0.267 -0.5998  0.6255 -0.9966
  423MPD2    C1 6308   1.537   0.373   0.307 -0.7721 -0.1317 -0.5966
  423MPD2    C2 6309   1.542   0.274   0.214 -0.1002 -0.1280  0.0880
  423MPD2    C3 6310   1.586   0.297   0.084  0.4305  1.2871  0.3519
  423MPD2    C4 6311   1.620   0.432   0.048  0.2597  0.1279  0.3996
  423MPD2    C5 6312   1.602   0.532   0.136  0.3440  0.1996  0.1659
  423MPD2     H 6313   1.502   0.176   0.235  1.3355 -0.3774  1.6197
  423MPD2    H1 6314   1.650   0.461  17.636 -0.6694  2.8406  0.9003
  423MPD2    H2 6315   1.546   0.583   0.332 -0.1392  0.7368 -0.9962
  423MPD2    H3 6316   1.628   0.632   0.104 -0.6552  0.6175  0.6590
  423MPD2     N 6317   1.611   0.198  17.673  0.7024 -0.8354 -0.4355
  423MPD2    H5 6318   1.642   0.232  17.583  0.4292  0.9880  0.1676
  423MPD2    N1 6319   1.481   0.365   0.436  0.0316  0.2151 -0.2805
  423MPD2    H7 6320   1.457   0.457   0.470  0.7802  0.6057 -0.8096
  424TMC3    C1 6321   1.400   0.270   0.634  0.0298 -0.4209 -0.7084
  424TMC3    C2 6322   1.420   0.157   0.712 -0.4248  0.6525 -0.4167
  424TMC3    C3 6323   1.332   0.110   0.802  0.2907 -0.7629 -0.1150
  424TMC3    C4 6324   1.270   0.326   0.647  1.2212 -0.0568  0.4659
  424TMC3    C5 6325   1.174   0.269   0.729 -0.4070  0.2385 -0.5119
  424TMC3    C6 6326   1.207   0.165   0.818  0.7484 -0.1484  0.3211
  424TMC3     C 6327   1.452   0.249   0.505  0.3243  0.4046 -0.5440
  424TMC3     O 6328   1.483   0.137   0.479 -0.6356 -0.7080 -0.2802
  424TMC3     H 6329   1.516   0.107   0.702 -1.0202 -0.3405 -1.1304
  424TMC3    H1 6330   1.245   0.393   0.566 -1.6519 -0.4272  1.0607
  424TMC3    H2 6331   1.139   0.125   0.892 -0.8180 -0.3440 -1.2149
  424TMC3    C7 6332   1.043   0.336   0.732 -0.3876  0.4341  0.0643
  424TMC3    C8 6333   1.354   4.702   0.845 -0.0676  0.6001  0.3276
  424TMC3    O1 6334   1.013   0.396   0.628 -0.4701  0.1861  0.0202
  424TMC3    O2 6335   1.436   4.636   0.784  0.0518  0.2648 -0.4311
  425MPD2     C 6336   0.701   4.279  17.343 -0.2905  0.1904  0.1158
  425MPD2    C1 6337   0.650   4.178  17.261  0.6785  0.2792 -0.2048
  425MPD2    C2 6338   0.517   4.192  17.228 -0.0854  0.6163  0.1650
  425MPD2    C3 6339   0.435   4.289  17.278  0.4921 -0.6834  0.3810
  425MPD2    C4 6340   0.489   4.384  17.370 -0.5394  0.3360  0.2256
  425MPD2    C5 6341   0.621   4.380  17.394 -0.3912  0.2993 -0.3348
  425MPD2     H 6342   0.466   4.111  17.177  0.3409  1.9781 -2.4240
  425MPD2    H1 6343   0.431   4.456  17.426  0.5078  2.3056 -1.2256
  425MPD2    H2 6344   0.806   4.303  17.358  0.5342 -2.2839 -1.7507
  425MPD2    H3 6345   0.678   4.442  17.462  0.4793 -0.8020 -0.0605
  425MPD2     N 6346   0.293   4.275  17.259  0.3518  0.1302 -0.2853
  425MPD2    H5 6347   0.264   4.180  17.240 -0.3590  0.3398 -0.2264
  425MPD2    N1 6348   0.740   4.081  17.209  0.3737 -0.4492 -0.4942
  425MPD2    H7 6349   0.832   4.078  17.252 -0.5546  0.4554  1.5730
  426TMC3    C1 6350   0.792   3.871  17.097  0.7367  0.0085 -0.2647
  426TMC3    C2 6351   0.762   3.792  16.992 -0.4612  0.0190 -0.0878
  426TMC3    C3 6352   0.848   3.684  16.966  0.4556  0.4772 -0.1487
  426TMC3    C4 6353   0.907   3.857  17.171 -0.3426 -0.1736 -0.2537
  426TMC3    C5 6354   0.986   3.752  17.133 -0.4862  0.0663 -0.6403
  426TMC3    C6 6355   0.964   3.664  17.030  0.9284  0.4440  0.1897
  426TMC3     C 6356   0.705   3.984  17.120  0.0602  0.6062 -0.0056
  426TMC3     O 6357   0.605   3.986  17.047 -0.6491  0.1155 -0.1716
  426TMC3     H 6358   0.671   3.816  16.938  0.3105  1.2186 -0.8464
  426TMC3    H1 6359   0.946   3.937  17.232 -2.0024  0.6805 -0.3252
  426TMC3    H2 6360   1.029   3.580  17.008 -0.2127 -0.1112 -1.0211
  426TMC3    C7 6361   1.080   3.706  17.235 -0.2801 -0.3233 -0.3549
  426TMC3    C8 6362   0.800   3.594  16.867 -0.0243  0.4057  0.3622
  426TMC3    O1 6363   1.124   3.592  17.216  0.2680 -0.2062 -0.4754
  426TMC3    O2 6364   0.882   3.537  16.795  0.3412 -0.7054  0.1673
  427MPD2     C 6365   3.654   1.462  15.274 -0.3731 -0.2209  0.3537
  427MPD2    C1 6366   3.598   1.421  15.153 -0.8958  0.4139  0.2122
  427MPD2    C2 6367   3.463   1.431  15.140 -0.5149  1.0115 -0.1080
  427MPD2    C3 6368   3.390   1.493  15.241 -0.0958  0.5593 -0.0828
  427MPD2    C4 6369   3.449   1.540  15.356 -0.2442 -0.0582  0.1575
  427MPD2    C5 6370   3.586   1.526  15.374 -0.0029  0.5421  0.7415
  427MPD2     H 6371   3.419   1.395  15.047 -0.5186 -0.7490  0.5756
  427MPD2    H1 6372   3.395   1.600  15.429 -0.7922  0.4472 -0.6697
  427MPD2    H2 6373   3.761   1.451  15.287 -0.3058 -2.7336 -2.2874
  427MPD2    H3 6374   3.635   1.575  15.457  1.2587  0.2682  0.1579
  427MPD2     N 6375   3.247   1.512  15.212 -0.6723 -0.7183  1.4934
  427MPD2    H5 6376   3.187   1.551  15.284  1.1934 -1.8415  3.6265
  427MPD2    N1 6377   3.676   1.357  15.046 -0.4781  0.5050  0.7959
  427MPD2    H7 6378   3.627   1.298  14.980 -1.0665  1.3913  0.4558
  428TMC3    C1 6379   3.861   1.262  14.931 -0.9198  0.3110  0.8992
  428TMC3    C2 6380   3.826   1.126  14.943  1.2994 -0.2941  0.2184
  428TMC3    C3 6381   3.896   1.029  14.878  0.5537  0.4975 -0.2561
  428TMC3    C4 6382   3.987   1.286  14.877 -0.5065  0.1014  0.6897
  428TMC3    C5 6383   4.049   1.182  14.805  0.3083  0.1548  0.5817
  428TMC3    C6 6384   4.017   1.052  14.810 -0.1659  0.4715  0.2927
  428TMC3     C 6385   3.813   1.348  15.041 -0.6064 -0.0765  0.6882
  428TMC3     O 6386   3.896   1.413  15.100  0.0274 -0.1850 -0.5461
  428TMC3     H 6387   3.738   1.101  15.002  0.9415 -0.2132 -0.2838
  428TMC3    H1 6388   4.025   1.387  14.878 -0.1282 -0.0549  1.8297
  428TMC3    H2 6389   4.082   0.980  14.761 -1.7243  0.0624 -1.2203
  428TMC3    C7 6390   4.190   1.212  14.787 -0.1070 -0.1167 -0.4365
  428TMC3    C8 6391   3.861   0.902  14.932 -0.1464  0.4444 -0.3145
  428TMC3    O1 6392   4.271   1.130  14.830  0.0257 -0.4354  0.2957
  428TMC3    O2 6393   3.800   0.892  15.040 -0.3873  0.1785 -0.1062
  429MPD2     C 6394   0.361   1.485  17.486 -0.3519 -0.1369  0.1643
  429MPD2    C1 6395   0.410   1.386  17.394 -0.1093 -0.8618  0.2857
  429MPD2    C2 6396   0.520   1.432  17.323  1.0145 -0.5259  0.1609
  429MPD2    C3 6397   0.591   1.540  17.357  0.1104 -0.1211  0.5675
  429MPD2    C4 6398   0.540   1.635  17.451 -0.3631 -1.0796  0.2202
  429MPD2    C5 6399   0.430   1.601  17.518 -0.8170  0.0256  0.2300
  429MPD2     H 6400   0.555   1.365  17.245 -3.0545 -1.6328 -0.6882
  429MPD2    H1 6401   0.599   1.715  17.495 -1.4187  0.4752 -1.2435
  429MPD2    H2 6402   0.279   1.460  17.553 -1.4971  3.0154 -0.0616
  429MPD2    H3 6403   0.399   1.659  17.604  0.6611 -0.8136  1.3344
  429MPD2     N 6404   0.714   1.559  17.288  1.0742  0.0916  0.3879
  429MPD2    H5 6405   0.746   1.493  17.217 -1.4330 -2.0772  1.2990
  429MPD2    N1 6406   0.351   1.259  17.362  0.1764  0.5790 -0.2208
  429MPD2    H7 6407   0.400   1.205  17.293 -0.4397 -2.2014  1.5341
  430TMC3    C1 6408   0.891   1.668  17.195  0.2101  0.3527 -0.1952
  430TMC3    C2 6409   0.892   1.776  17.103 -0.4418 -0.3885 -0.0906
  430TMC3    C3 6410   0.973   1.767  16.991 -0.4046  0.2498  0.4457
  430TMC3    C4 6411   0.966   1.552  17.172  0.5010 -0.7320 -0.3980
  430TMC3    C5 6412   1.035   1.548  17.055 -0.6817  0.0125  0.1410
  430TMC3    C6 6413   1.050   1.657  16.972  0.7223 -0.0520  0.4161
  430TMC3     C 6414   0.781   1.677  17.289  0.8011 -0.8194  0.4549
  430TMC3     O 6415   0.756   1.784  17.341  0.7334  0.2105 -0.0610
  430TMC3     H 6416   0.825   1.860  17.115  0.3251  0.4398 -1.6027
  430TMC3    H1 6417   0.963   1.465  17.237  0.4473  0.3853  1.1184
  430TMC3    H2 6418   1.097   1.640  16.876 -0.5554 -0.9878 -0.0436
  430TMC3    C7 6419   1.065   1.414  16.999 -0.6873 -0.0804 -0.0091
  430TMC3    C8 6420   0.918   1.824  16.876  0.1826  0.6882 -0.2952
  430TMC3    O1 6421   0.989   1.319  17.019 -0.5109  0.7468 -0.1421
  430TMC3    O2 6422   0.926   1.758  16.776  0.2072  0.2010 -0.0891
  431MPD2     C 6423   0.825   2.078  12.334 -0.0922 -0.5107  0.3529
  431MPD2    C1 6424   0.912   2.109  12.230  0.0170  0.1419  0.7921
  431MPD2    C2 6425   0.959   1.999  12.154  0.4555  0.4833  0.6602
  431MPD2    C3 6426   0.911   1.868  12.178 -0.1026 -0.4177 -0.6064
  431MPD2    C4 6427   0.819   1.847  12.275  0.1634 -0.2836  0.6998
  431MPD2    C5 6428   0.778   1.951  12.354 -0.0421  0.7176 -0.3116
  431MPD2     H 6429   1.035   2.011  12.078  1.1020  2.7296  1.6365
  431MPD2    H1 6430   0.790   1.748  12.307  2.2603 -0.5865  1.6253
  431MPD2    H2 6431   0.781   2.151  12.401  0.3826  0.9088 -0.8798
  431MPD2    H3 6432   0.711   1.939  12.439  0.7938  1.5117  0.4632
  431MPD2     N 6433   0.957   1.751  12.117  0.4377 -0.6316 -0.8070
  431MPD2    H5 6434   0.914   1.664  12.147 -1.3508  0.6995  0.4806
  431MPD2    N1 6435   0.991   2.226  12.225  0.0420 -0.2105  0.3426
  431MPD2    H7 6436   1.066   2.233  12.157 -1.2968 -0.2701 -1.1391
  432TMC3    C1 6437   1.066   1.605  11.978 -0.4455  0.0593 -0.3471
  432TMC3    C2 6438   1.072   1.567  11.848 -0.0139 -0.4320 -0.2049
  432TMC3    C3 6439   1.101   1.435  11.829 -0.4125  0.3436 -0.2327
  432TMC3    C4 6440   1.067   1.515  12.083 -0.0040 -0.1367  0.5440
  432TMC3    C5 6441   1.092   1.383  12.055 -0.1529 -0.1900  0.5154
  432TMC3    C6 6442   1.119   1.341  11.928  0.4889 -0.2686  0.2990
  432TMC3     C 6443   1.033   1.738  12.003 -0.4358 -0.3471 -0.1999
  432TMC3     O 6444   1.049   1.816  11.912  0.1504  0.3528 -0.6568
  432TMC3     H 6445   1.084   1.634  11.764 -0.5392  1.4593  1.2134
  432TMC3    H1 6446   1.065   1.547  12.186  2.3981  0.3701  0.4299
  432TMC3    H2 6447   1.154   1.242  11.903  0.1310  0.1372 -1.8674
  432TMC3    C7 6448   1.175   1.320  12.160  0.3005 -0.7938 -0.4689
  432TMC3    C8 6449   1.161   1.390  11.704 -0.0554 -0.6225  0.7569
  432TMC3    O1 6450   1.261   1.249  12.116 -0.1953 -0.4224  0.1534
  432TMC3    O2 6451   1.122   1.291  11.643 -0.4266 -0.0844  0.0032
  433MPD2     C 6452   4.654   0.425  10.754 -0.8477  0.6114  0.9056
  433MPD2    C1 6453   4.654   0.293  10.791  0.2960  0.0282 -1.1610
  433MPD2    C2 6454   0.008   0.256  10.899 -0.0391  0.3753  1.1333
  433MPD2    C3 6455   0.082   0.359  10.963 -0.1968  0.1542  0.2033
  433MPD2    C4 6456   0.085   0.484  10.915 -0.0070 -0.5273 -0.3827
  433MPD2    C5 6457   0.009   0.524  10.809 -0.4349  0.0807  0.1733
  433MPD2     H 6458   0.032   0.155  10.932 -1.2067 -0.1554  0.3208
  433MPD2    H1 6459   0.142   0.568  10.952 -1.7410  0.4950 -0.0000
  433MPD2    H2 6460   4.590   0.448  10.670 -0.3383  0.3098  0.4343
  433MPD2    H3 6461   4.715   0.629  10.785  2.6654  0.2153 -1.2360
  433MPD2     N 6462   0.176   0.328  11.066 -0.2062 -0.1209 -0.7475
  433MPD2    H5 6463   0.194   0.231  11.092  1.4678  0.6660  1.0962
  433MPD2    N1 6464   4.603   0.199  10.704  0.0009 -0.1392 -0.3376
  433MPD2    H7 6465   4.580   0.228  10.610 -0.3357  1.0750  0.1186
  434TMC3    C1 6466   4.601   4.704  10.607 -0.2571 -0.1796 -0.8555
  434TMC3    C2 6467   4.607   4.564  10.621  0.2357  0.5178 -1.1358
  434TMC3    C3 6468   4.631   4.491  10.506  0.7798  0.2798 -0.3685
  434TMC3    C4 6469   4.608   0.049  10.488 -0.1455  0.1487 -0.3382
  434TMC3    C5 6470   4.637   4.693  10.377 -0.4543 -0.3589 -0.6905
  434TMC3    C6 6471   4.644   4.553  10.382  0.3436 -0.5734 -0.6090
  434TMC3     C 6472   4.593   0.067  10.730  0.4992  0.2130  0.4821
  434TMC3     O 6473   4.583   0.004  10.832  0.5383  0.0344 -0.6636
  434TMC3     H 6474   4.592   4.508  10.713  1.2267  2.6556  0.3477
  434TMC3    H1 6475   4.611   0.156  10.467  3.0112 -0.1981 -1.7216
  434TMC3    H2 6476   4.676   4.491  10.300 -0.8071 -1.4240 -0.4086
  434TMC3    C7 6477   4.671   0.042  10.249 -0.5415 -0.0823  0.2864
  434TMC3    C8 6478   4.662   4.349  10.515  0.4787  0.5156 -0.1650
  434TMC3    O1 6479   4.702   0.163  10.244 -0.4374  0.4058 -0.2872
  434TMC3    O2 6480   4.628   4.276  10.428 -0.0745  0.0473 -0.0127
  435MPD2     C 6481   2.024   0.222  15.098 -0.3830 -0.5432 -0.0895
  435MPD2    C1 6482   1.992   0.176  15.220 -0.1054 -0.8018  0.0110
  435MPD2    C2 6483   2.084   0.094  15.286 -0.0023 -0.1950  0.4607
  435MPD2    C3 6484   2.208   0.065  15.238  0.4573 -0.3031  0.4793
  435MPD2    C4 6485   2.239   0.113  15.115 -0.0833  0.3241 -0.2977
  435MPD2    C5 6486   2.140   0.180  15.039  0.0174 -0.1630 -0.0235
  435MPD2     H 6487   2.055   0.063  15.386 -2.8276  0.8462 -0.0197
  435MPD2    H1 6488   2.334   0.096  15.066 -0.7938 -2.4943 -0.6750
  435MPD2    H2 6489   1.954   0.278  15.037  2.5488  2.5562 -0.5757
  435MPD2    H3 6490   2.164   0.213  14.939  0.1444 -1.2204 -0.3369
  435MPD2     N 6491   2.295   4.710  15.320  0.6046 -0.2479  0.0607
  435MPD2    H5 6492   2.269   4.686  15.415  1.3787 -0.1587  0.2961
  435MPD2    N1 6493   1.867   0.199  15.283 -0.2323  0.1225 -0.5463
  435MPD2    H7 6494   1.856   0.148  15.370  0.5974 -0.3554 -0.7178
  436TMC3    C1 6495   1.515   0.318  15.516 -0.4847  0.3657 -0.0461
  436TMC3    C2 6496   1.606   0.345  15.418 -0.4266  0.4243  0.0729
  436TMC3    C3 6497   1.651   0.241  15.341  0.4834  0.1147  0.0276
  436TMC3    C4 6498   1.474   0.186  15.543  0.4332 -0.5745  0.9598
  436TMC3    C5 6499   1.521   0.085  15.465 -0.0881 -0.8140  0.3227
  436TMC3    C6 6500   1.606   0.112  15.360 -0.0783  0.0669 -0.1352
  436TMC3     C 6501   1.530   0.404  15.627 -0.4983 -0.4856  0.2767
  436TMC3     O 6502   1.644   0.456  15.635 -0.0513 -0.0521 -0.2921
  436TMC3     H 6503   1.647   0.443  15.399  0.7127 -0.2255 -0.7870
  436TMC3    H1 6504   1.399   0.169  15.619 -0.1807 -3.5209 -0.3207
  436TMC3    H2 6505   1.638   0.036  15.290  0.4016  0.6447 -0.5352
  436TMC3    C7 6506   1.541   4.674  15.522 -0.5792  0.9696 -0.2446
  436TMC3    C8 6507   1.763   0.271  15.249 -0.6377 -0.0069  0.6572
  436TMC3    O1 6508   1.557   4.582  15.440  0.4997 -0.4301  0.7549
  436TMC3    O2 6509   1.764   0.366  15.173  0.3069 -0.6225  0.6539
  437TMC3    C1 6510   0.388   2.821  12.367 -0.1625 -0.2529 -0.3814
  437TMC3    C2 6511   0.283   2.835  12.277  0.1176  0.4601 -0.4593
  437TMC3    C3 6512   0.303   2.901  12.155  0.7925  0.0627 -0.4827
  437TMC3    C4 6513   0.519   2.855  12.332  0.4085 -0.4535  0.2058
  437TMC3    C5 6514   0.532   2.919  12.209 -1.1967  0.2056 -0.0608
  437TMC3    C6 6515   0.427   2.948  12.126 -0.0828  0.1031 -0.3529
  437TMC3     C 6516   0.364   2.752  12.492 -0.0541 -0.3818  0.5746
  437TMC3     O 6517   0.453   2.718  12.562 -0.1389  0.0968 -0.9415
  437TMC3     H 6518   0.186   2.790  12.291  0.3701  0.7195  2.2523
  437TMC3    H1 6519   0.598   2.825  12.399  2.8439  2.1279 -1.5221
  437TMC3    H2 6520   0.451   2.987  12.028  0.4200 -1.9174 -1.0255
  437TMC3    C7 6521   0.663   2.975  12.171  0.0334 -0.0059  0.3870
  437TMC3    C8 6522   0.211   2.863  12.048 -0.4210  0.1083  0.2702
  437TMC3    O1 6523   0.661   3.038  12.064 -0.7027 -0.2019 -0.6062
  437TMC3    O2 6524   0.143   2.766  12.071  0.4993  0.2558  0.3519
  438MPD2     C 6525   2.915   2.988  16.804 -0.3602  0.3740  0.1711
  438MPD2    C1 6526   3.001   2.913  16.881  0.2748 -0.4279 -0.3479
  438MPD2    C2 6527   2.972   2.899  17.015 -0.0160  0.1285  0.0186
  438MPD2    C3 6528   2.866   2.961  17.073  0.4613 -0.2007  0.4016
  438MPD2    C4 6529   2.782   3.035  16.989  0.0880 -0.6306 -0.2108
  438MPD2    C5 6530   2.810   3.053  16.857  0.1462  0.2999  0.8661
  438MPD2     H 6531   3.031   2.837  17.081 -0.2387  1.2864  1.2973
  438MPD2    H1 6532   2.691   3.081  17.025  0.1740  0.4188 -1.3471
  438MPD2    H2 6533   2.933   3.014  16.700  0.1598 -0.8964 -0.0533
  438MPD2    H3 6534   2.745   3.117  16.798  2.7635  1.6337 -0.5689
  438MPD2     N 6535   2.808   2.934  17.203 -0.0150 -0.0690 -0.2270
  438MPD2    H5 6536   2.722   2.983  17.223 -0.1339 -0.4225  0.1320
  438MPD2    N1 6537   3.116   2.841  16.830 -0.3611 -0.1595 -0.0709
  438MPD2    H7 6538   3.166   2.773  16.887  1.1311 -0.5446 -1.8308
  439TMC3    C1 6539   3.249   2.743  16.668 -0.2600 -0.6314 -0.4054
  439TMC3    C2 6540   3.279   2.710  16.542 -0.0633 -0.0421 -0.3819
  439TMC3    C3 6541   3.386   2.627  16.518  0.1578 -0.4876 -0.3756
  439TMC3    C4 6542   3.331   2.701  16.768 -0.3407 -0.2979  0.4406
  439TMC3    C5 6543   3.446   2.631  16.742 -0.1035  0.7204 -0.1679
  439TMC3    C6 6544   3.477   2.589  16.615  0.7733  0.6648  0.2106
  439TMC3     C 6545   3.154   2.844  16.698 -0.9281 -0.0541 -0.2334
  439TMC3     O 6546   3.118   2.917  16.608 -0.2036 -0.4600 -0.0525
  439TMC3     H 6547   3.205   2.742  16.469 -0.6235 -4.4675 -1.7475
  439TMC3    H1 6548   3.311   2.731  16.871 -0.6112 -0.8595  0.5494
  439TMC3    H2 6549   3.562   2.525  16.596 -0.0633 -0.1475 -0.8572
  439TMC3    C7 6550   3.519   2.566  16.847  0.0296  0.6302  0.0354
  439TMC3    C8 6551   3.417   2.566  16.389  0.1259 -0.4636 -0.2396
  439TMC3    O1 6552   3.642   2.555  16.829 -0.4674  0.3837 -0.3849
  439TMC3    O2 6553   3.504   2.480  16.390  0.1428  0.1782 -0.1360
  440MPD2     C 6554   2.081   3.060  14.464 -0.0056 -0.0676  0.2338
  440MPD2    C1 6555   2.033   3.080  14.587 -0.1224  0.2100  0.4780
  440MPD2    C2 6556   2.119   3.067  14.696  0.1853 -0.0070 -0.2031
  440MPD2    C3 6557   2.262   3.058  14.684  0.4829 -0.5578  0.1938
  440MPD2    C4 6558   2.312   3.034  14.557 -0.0922 -0.4522 -0.3002
  440MPD2    C5 6559   2.221   3.037  14.455  0.3275  0.0334 -0.1378
  440MPD2     H 6560   2.077   3.070  14.796 -2.2491 -0.8064 -1.1821
  440MPD2    H1 6561   2.418   3.015  14.550 -0.1237 -0.1187 -1.7814
  440MPD2    H2 6562   2.016   3.041  14.380  0.1570 -0.3999  0.1809
  440MPD2    H3 6563   2.263   3.023  14.356 -1.7065 -1.1699 -0.8447
  440MPD2     N 6564   2.333   3.053  14.801 -0.7669  0.3947 -0.2454
  440MPD2    H5 6565   2.277   3.056  14.886  2.8283  0.1644  2.1465
  440MPD2    N1 6566   1.895   3.096  14.615  0.0911 -0.2175 -0.4275
  440MPD2    H7 6567   1.877   3.088  14.715 -0.7352 -0.5611 -0.5978
  441TMC3    C1 6568   2.519   3.085  14.943  0.3943  0.0367  0.1001
  441TMC3    C2 6569   2.579   3.201  14.979 -0.1556  0.1026 -0.2142
  441TMC3    C3 6570   2.613   3.226  15.108  0.2093  0.2623 -0.6376
  441TMC3    C4 6571   2.507   2.982  15.034 -0.2609 -0.0008  0.5404
  441TMC3    C5 6572   2.552   3.002  15.155 -0.4147 -0.3551 -0.1214
  441TMC3    C6 6573   2.617   3.119  15.196  0.7099 -0.2026 -0.1604
  441TMC3     C 6574   2.468   3.065  14.808  0.6113  0.6700  0.1742
  441TMC3     O 6575   2.543   3.113  14.725  0.4925 -0.4908 -0.1009
  441TMC3     H 6576   2.610   3.276  14.907  3.3426 -1.3300 -0.1733
  441TMC3    H1 6577   2.447   2.898  15.001  0.8401 -0.0149 -1.4442
  441TMC3    H2 6578   2.655   3.132  15.297  1.0832  0.6477 -0.4143
  441TMC3    C7 6579   2.496   2.920  15.262  0.3947  0.1599 -0.5893
  441TMC3    C8 6580   2.629   3.360  15.169 -0.4719 -0.8435 -0.1502
  441TMC3    O1 6581   2.385   2.873  15.238 -0.4585 -0.1266 -0.7909
  441TMC3    O2 6582   2.672   3.373  15.283  0.1069 -0.0114 -0.4666
  442MPD2     C 6583   0.041   4.018  16.406  0.6241 -0.5007 -0.2284
  442MPD2    C1 6584   4.692   3.917  16.467  0.3799  0.4103  0.1154
  442MPD2    C2 6585   0.009   3.791  16.439 -0.5838 -0.4908  0.3815
  442MPD2    C3 6586   0.116   3.755  16.364  0.7977  0.2391  0.8094
  442MPD2    C4 6587   0.199   3.855  16.320  0.4573  0.7580 -0.0610
  442MPD2    C5 6588   0.162   3.990  16.343 -0.3634 -0.3106 -0.1765
  442MPD2     H 6589   4.675   3.709  16.484 -0.4875 -1.7491 -1.7575
  442MPD2    H1 6590   0.285   3.836  16.257 -0.4286 -1.3766 -0.6451
  442MPD2    H2 6591   0.024   4.123  16.429  0.2032 -0.2287 -1.7704
  442MPD2    H3 6592   0.218   4.073  16.302 -0.7004  0.5925  1.1997
  442MPD2     N 6593   0.146   3.627  16.321 -0.0622 -0.3695 -0.5838
  442MPD2    H5 6594   0.238   3.613  16.278 -0.3928 -1.1476 -1.0423
  442MPD2    N1 6595   4.573   3.949  16.537 -0.0905 -0.5161 -0.1250
  442MPD2    H7 6596   4.554   4.049  16.534  3.8439  0.2333  0.6159
  443TMC3    C1 6597   4.363   3.924  16.651  0.2540 -0.3337 -0.4048
  443TMC3    C2 6598   4.362   4.063  16.647  0.2244 -0.2315 -0.2230
  443TMC3    C3 6599   4.240   4.118  16.630 -0.2969 -0.7728  0.7881
  443TMC3    C4 6600   4.251   3.845  16.644  0.1214 -0.4328 -0.1742
  443TMC3    C5 6601   4.129   3.915  16.634  0.0143  0.4348  0.2552
  443TMC3    C6 6602   4.122   4.049  16.631  0.6624  0.2251  0.1137
  443TMC3     C 6603   4.488   3.861  16.602 -0.1861  0.1689  0.2133
  443TMC3     O 6604   4.484   3.737  16.609  0.4532 -0.4610  0.7180
  443TMC3     H 6605   4.455   4.119  16.645 -1.2638  2.3124  2.4120
  443TMC3    H1 6606   4.255   3.737  16.637  0.5960 -0.4476  0.3988
  443TMC3    H2 6607   4.026   4.096  16.612 -0.2163 -1.9913 -0.9301
  443TMC3    C7 6608   4.009   3.835  16.629 -0.4813 -0.1423  0.8057
  443TMC3    C8 6609   4.228   4.259  16.608 -0.6342 -0.3381 -0.0006
  443TMC3    O1 6610   4.031   3.723  16.588  0.5041 -0.2202 -0.4756
  443TMC3    O2 6611   4.135   4.300  16.673  0.0820  0.8280  0.6434
  444MPD2     C 6612   0.489   3.252  16.945  0.0878 -0.0132 -0.3231
  444MPD2    C1 6613   0.394   3.181  16.877 -0.1119  0.1430  0.2024
  444MPD2    C2 6614   0.427   3.075  16.791  0.3177 -0.0840  0.6168
  444MPD2    C3 6615   0.560   3.042  16.772 -0.4362  0.3963 -0.6494
  444MPD2    C4 6616   0.658   3.119  16.838  0.0275  0.4424 -0.2648
  444MPD2    C5 6617   0.617   3.219  16.924 -0.3136 -0.7840  0.4775
  444MPD2     H 6618   0.347   3.020  16.742  0.6100  1.5252 -1.6774
  444MPD2    H1 6619   0.761   3.099  16.811 -0.0806  2.1242 -1.9290
  444MPD2    H2 6620   0.466   3.334  17.013 -2.1374  1.6577 -3.1006
  444MPD2    H3 6621   0.691   3.275  16.979  2.5184 -3.2214 -0.8584
  444MPD2     N 6622   0.582   2.929  16.695  0.1304 -0.3813  0.5168
  444MPD2    H5 6623   0.499   2.883  16.659 -0.9980  1.3212  0.9432
  444MPD2    N1 6624   0.263   3.202  16.895 -1.2263 -0.0077  0.4717
  444MPD2    H7 6625   0.191   3.153  16.843 -1.6565  0.4455  0.6456
  445TMC3    C1 6626   0.689   2.736  16.599 -0.1150  0.5157  0.8514
  445TMC3    C2 6627   0.563   2.689  16.557 -0.7708 -0.0750  0.2109
  445TMC3    C3 6628   0.559   2.580  16.470 -0.5235  0.7872  0.0974
  445TMC3    C4 6629   0.806   2.696  16.541  0.3768 -0.5988  0.7896
  445TMC3    C5 6630   0.797   2.596  16.449  0.1905 -0.0962 -0.0483
  445TMC3    C6 6631   0.681   2.540  16.411 -0.0022  0.5710 -0.6224
  445TMC3     C 6632   0.704   2.865  16.672  0.1138 -0.5398  0.6211
  445TMC3     O 6633   0.816   2.904  16.704 -0.5622  0.3173  0.0676
  445TMC3     H 6634   0.473   2.720  16.609 -0.8368 -0.0354  0.0749
  445TMC3    H1 6635   0.904   2.740  16.554  0.8094 -1.3709  0.1289
  445TMC3    H2 6636   0.689   2.492  16.314 -1.0273 -0.6962 -0.0815
  445TMC3    C7 6637   0.919   2.555  16.384 -0.3429  0.9536 -0.3729
  445TMC3    C8 6638   0.435   2.544  16.412 -0.1509 -0.3732 -0.1029
  445TMC3    O1 6639   1.007   2.635  16.355  0.3578 -0.2755 -0.1173
  445TMC3    O2 6640   0.331   2.591  16.452 -0.5888  0.3184  0.7729
  446MPD2     C 6641   4.347   4.289  11.090 -0.9185 -0.6796 -0.4185
  446MPD2    C1 6642   4.347   4.383  10.986  0.3758  0.3056 -0.0218
  446MPD2    C2 6643   4.458   4.461  10.972  0.5123 -0.1263  0.3271
  446MPD2    C3 6644   4.578   4.438  11.035 -0.2277  0.6469 -0.1058
  446MPD2    C4 6645   4.582   4.345  11.135 -0.4596 -0.5487 -1.1956
  446MPD2    C5 6646   4.460   4.282  11.170 -0.8079 -0.2852 -0.5129
  446MPD2     H 6647   4.460   4.531  10.888  0.8644 -0.9708 -0.3662
  446MPD2    H1 6648   4.675   4.333  11.189  0.6623 -0.0317 -3.0374
  446MPD2    H2 6649   4.268   4.216  11.104 -1.5289  0.1736  0.6495
  446MPD2    H3 6650   4.469   4.211  11.251 -0.4472  1.1126  0.6704
  446MPD2     N 6651   4.690   4.527  11.000 -0.4527  0.0235  0.2963
  446MPD2    H5 6652   4.669   4.611  10.948  1.7300  0.6960  0.4968
  446MPD2    N1 6653   4.235   4.387  10.901  0.1698  0.4825 -0.1081
  446MPD2    H7 6654   4.145   4.353  10.933 -0.8812  3.0855 -0.2938
  447TMC3    C1 6655   0.210   4.586  10.978 -0.1121 -0.8798 -0.9478
  447TMC3    C2 6656   0.193   4.630  10.846 -0.0008  0.3632  0.2510
  447TMC3    C3 6657   0.302   4.662  10.777  0.7839  0.0504 -0.3395
  447TMC3    C4 6658   0.327   4.585  11.041 -0.1288 -0.1238 -0.3102
  447TMC3    C5 6659   0.438   4.625  10.968  0.3954 -0.5647 -0.0735
  447TMC3    C6 6660   0.422   4.660  10.836 -0.4218  0.4805  0.6707
  447TMC3     C 6661   0.098   4.501  11.043  0.9472  0.0913  0.6081
  447TMC3     O 6662   0.139   4.400  11.096  0.6833  0.4674 -0.0525
  447TMC3     H 6663   0.095   4.631  10.799  0.5253 -0.2369 -0.8561
  447TMC3    H1 6664   0.324   4.542  11.140  2.0618 -0.9218 -0.5870
  447TMC3    H2 6665   0.507   4.694  10.779 -1.3439  0.8635 -0.4803
  447TMC3    C7 6666   0.569   4.577  11.004  0.0275 -1.1506 -0.0878
  447TMC3    C8 6667   0.280   0.014  10.653  0.1947  0.1240 -0.1896
  447TMC3    O1 6668   0.634   4.543  10.905  0.0155 -0.2279  0.0737
  447TMC3    O2 6669   0.159   0.030  10.631 -0.3725 -0.2863  0.1493
  448TMC3    C1 6670   3.321   4.484  16.565  0.2320  0.7519  0.5402
  448TMC3    C2 6671   3.242   4.372  16.562 -0.3273 -0.5267 -0.7626
  448TMC3    C3 6672   3.290   4.250  16.613 -0.1544 -0.1494  0.4278
  448TMC3    C4 6673   3.442   4.488  16.633  0.7117 -0.6390 -0.3533
  448TMC3    C5 6674   3.488   4.371  16.683 -0.2466  0.6137 -0.0604
  448TMC3    C6 6675   3.416   4.255  16.674  0.1004  0.6902  0.0330
  448TMC3     C 6676   3.271   4.613  16.516 -1.1180  0.0407  0.2358
  448TMC3     O 6677   3.343   4.706  16.540  0.2735 -0.4893 -0.0652
  448TMC3     H 6678   3.139   4.375  16.528 -1.6892 -2.1498  3.2665
  448TMC3    H1 6679   3.491   4.581  16.660 -0.0461 -0.8173  1.6334
  448TMC3    H2 6680   3.474   4.165  16.690 -0.2102  0.7401  1.4184
  448TMC3    C7 6681   3.611   4.374  16.762 -0.1163  0.4115  0.3597
  448TMC3    C8 6682   3.211   4.133  16.617  0.0438  0.4675  0.2909
  448TMC3    O1 6683   3.702   4.452  16.728  0.3260  0.3635 -0.6926
  448TMC3    O2 6684   3.246   4.057  16.709  0.0481  0.5764 -0.1010
  449MPD2     C 6685   4.443   2.973  13.780 -0.3356  0.2742  0.0738
  449MPD2    C1 6686   4.316   2.953  13.730 -0.4365  0.3832 -0.2082
  449MPD2    C2 6687   4.255   2.834  13.765  0.4312 -1.0688 -0.0326
  449MPD2    C3 6688   4.316   2.737  13.844  0.0701  0.0190 -0.1307
  449MPD2    C4 6689   4.451   2.747  13.870 -0.0510  0.6635 -0.7920
  449MPD2    C5 6690   4.515   2.871  13.834 -0.2654  0.0183 -0.3513
  449MPD2     H 6691   4.151   2.820  13.742 -0.1980  1.1811  1.4257
  449MPD2    H1 6692   4.510   2.673  13.923  1.7987  1.5275 -1.6387
  449MPD2    H2 6693   4.484   3.073  13.770  1.0402 -0.2379  0.5661
  449MPD2    H3 6694   4.618   2.896  13.855 -0.0794 -0.0178 -1.1959
  449MPD2     N 6695   4.237   2.630  13.877  0.1557  0.6680 -0.5762
  449MPD2    H5 6696   4.156   2.619  13.817 -0.2431 -0.7061  0.2296
  449MPD2    N1 6697   4.233   3.044  13.660 -0.9564 -0.1654 -0.1617
  449MPD2    H7 6698   4.140   3.009  13.639 -0.9498 -0.7389  0.7703
  450TMC3    C1 6699   4.151   3.248  13.565 -0.5732 -0.1252 -0.0117
  450TMC3    C2 6700   4.165   3.291  13.440 -0.5881 -0.3779  0.2120
  450TMC3    C3 6701   4.048   3.301  13.359 -0.8651 -0.5408  0.5334
  450TMC3    C4 6702   4.032   3.196  13.607 -0.1328  0.5754  0.3936
  450TMC3    C5 6703   3.920   3.233  13.534  0.1454 -0.1634 -0.0976
  450TMC3    C6 6704   3.922   3.281  13.405  1.0897  0.6977 -0.1071
  450TMC3     C 6705   4.264   3.174  13.617  0.6770  0.0722 -0.8372
  450TMC3     O 6706   4.375   3.226  13.617 -0.3372  0.2950  0.7790
  450TMC3     H 6707   4.263   3.317  13.403 -0.9422 -0.2749 -0.6654
  450TMC3    H1 6708   4.020   3.149  13.704 -2.1914 -0.1268 -0.1969
  450TMC3    H2 6709   3.834   3.312  13.351  2.1926  1.4931 -1.4436
  450TMC3    C7 6710   3.798   3.164  13.562 -1.3279  0.3505 -0.5112
  450TMC3    C8 6711   4.064   3.295  13.213 -0.1978  0.0193  0.7716
  450TMC3    O1 6712   3.688   3.210  13.530 -0.4022  0.6684  0.2556
  450TMC3    O2 6713   3.958   3.314  13.151 -0.1151 -0.2771 -0.2084
  451MPD2     C 6714   1.686   1.876   1.576 -0.3108 -0.2349 -0.2101
  451MPD2    C1 6715   1.558   1.893   1.509 -0.1215 -0.1462 -0.0354
  451MPD2    C2 6716   1.474   1.781   1.493 -0.1247  0.0074  0.4039
  451MPD2    C3 6717   1.515   1.648   1.523 -0.1207 -0.4717  0.3918
  451MPD2    C4 6718   1.639   1.637   1.584 -0.1853 -0.1333 -0.3343
  451MPD2    C5 6719   1.720   1.749   1.610 -0.4489  0.1011 -0.6878
  451MPD2     H 6720   1.372   1.808   1.468  0.3074  0.6966 -0.6198
  451MPD2    H1 6721   1.676   1.538   1.608  0.8666  0.3470  0.0565
  451MPD2    H2 6722   1.752   1.957   1.607  0.4454 -1.5159  1.5399
  451MPD2    H3 6723   1.814   1.726   1.658 -1.1204  0.2140  0.6724
  451MPD2     N 6724   1.443   1.528   1.491  0.6518 -0.2447  0.2606
  451MPD2    H5 6725   1.491   1.440   1.508 -0.0780 -0.4608  1.1912
  451MPD2    N1 6726   1.507   2.021   1.475  0.1922 -0.1871 -0.4274
  451MPD2    H7 6727   1.408   2.029   1.456  0.1309  1.2575  0.4776
  452TMC3    C1 6728   1.257   1.397   1.412 -0.5513 -1.1242 -0.0053
  452TMC3    C2 6729   1.293   1.307   1.509 -0.1954 -0.1812 -0.2233
  452TMC3    C3 6730   1.237   1.181   1.489  0.2774  0.5835  0.3199
  452TMC3    C4 6731   1.161   1.375   1.313 -0.3446  0.3159 -0.1542
  452TMC3    C5 6732   1.118   1.252   1.291  0.7837 -0.8334 -0.0565
  452TMC3    C6 6733   1.150   1.152   1.378 -0.0877  0.7458 -0.1870
  452TMC3     C 6734   1.315   1.529   1.439  0.4190 -0.1060  0.1967
  452TMC3     O 6735   1.232   1.617   1.433  0.4002  0.3302  0.1796
  452TMC3     H 6736   1.340   1.334   1.603 -1.1379  0.9849 -0.0833
  452TMC3    H1 6737   1.136   1.452   1.241 -0.7896  0.7172  0.4293
  452TMC3    H2 6738   1.116   1.049   1.375 -1.4292  1.2564 -1.7562
  452TMC3    C7 6739   1.033   1.223   1.171 -0.7941  0.7621 -0.5467
  452TMC3    C8 6740   1.271   1.078   1.591  0.1554 -0.0082 -0.1314
  452TMC3    O1 6741   1.011   1.321   1.101 -0.0436 -0.4167 -0.1412
  452TMC3    O2 6742   1.190   0.982   1.591 -0.5242 -0.4309  0.1298
  453TMC3    C1 6743   2.329   3.123  11.296 -0.3587 -0.1101 -0.4145
  453TMC3    C2 6744   2.239   3.031  11.340 -0.1008 -0.0950  0.1526
  453TMC3    C3 6745   2.140   2.999  11.247 -0.9582  1.2767 -0.8082
  453TMC3    C4 6746   2.337   3.167  11.167  0.3464  0.8203  0.4144
  453TMC3    C5 6747   2.229   3.137  11.089  0.3936  0.1061  0.1074
  453TMC3    C6 6748   2.122   3.064  11.127  0.5973  0.7921  0.1888
  453TMC3     C 6749   2.405   3.196  11.396  0.5273 -0.0913  0.0378
  453TMC3     O 6750   2.470   3.293  11.353  0.3304  0.1469  0.4373
  453TMC3     H 6751   2.272   2.960  11.415 -4.6656  0.1044  2.3652
  453TMC3    H1 6752   2.409   3.242  11.136  0.5617 -0.6039 -2.4838
  453TMC3    H2 6753   2.035   3.051  11.063 -0.1233 -1.5673  1.6545
  453TMC3    C7 6754   2.205   3.226  10.972 -0.2775 -0.6882  0.3825
  453TMC3    C8 6755   2.025   2.932  11.291 -0.0025 -0.5038  0.2744
  453TMC3    O1 6756   2.096   3.232  10.919  0.2797 -0.6501 -0.2654
  453TMC3    O2 6757   1.958   2.869  11.210 -0.0190 -0.2278  0.2574
  454MPD2     C 6758   1.236   2.812  16.229 -0.0664 -0.3270 -0.7914
  454MPD2    C1 6759   1.138   2.892  16.177 -0.7814 -0.0717 -0.2752
  454MPD2    C2 6760   1.080   2.986  16.256  0.4204  0.1677 -0.0612
  454MPD2    C3 6761   1.085   2.972  16.393 -0.4848 -0.2418  0.3474
  454MPD2    C4 6762   1.183   2.892  16.457  0.1467 -0.8052  0.4892
  454MPD2    C5 6763   1.252   2.816  16.368 -0.9182  0.6001  0.8287
  454MPD2     H 6764   1.011   3.063  16.222  0.7705  1.1362  1.4541
  454MPD2    H1 6765   1.198   2.878  16.563 -0.9747 -0.2004  0.7313
  454MPD2    H2 6766   1.283   2.739  16.165 -0.2496  0.3357 -1.6773
  454MPD2    H3 6767   1.316   2.738  16.409 -0.0991  0.2895 -1.0182
  454MPD2     N 6768   1.013   3.053  16.480 -0.0056  0.1457 -0.2556
  454MPD2    H5 6769   1.051   3.064  16.574  1.7243  2.4924 -1.2346
  454MPD2    N1 6770   1.108   2.890  16.038 -0.2339  0.6252 -0.2752
  454MPD2    H7 6771   1.043   2.962  16.009 -0.8817  0.1178 -0.0863
  455TMC3    C1 6772   0.805   3.091  16.356  0.5966 -0.1489 -0.6077
  455TMC3    C2 6773   0.725   3.192  16.324 -0.7177 -0.1997 -0.2676
  455TMC3    C3 6774   0.591   3.168  16.300  0.0817 -0.0959  0.0241
  455TMC3    C4 6775   0.763   2.961  16.337  0.6902  1.4286 -0.1574
  455TMC3    C5 6776   0.636   2.937  16.285  0.0424  0.3514 -0.4858
  455TMC3    C6 6777   0.551   3.042  16.272 -0.0180  0.1733 -0.1473
  455TMC3     C 6778   0.906   3.137  16.456  0.1909  0.1365 -0.2607
  455TMC3     O 6779   0.853   3.210  16.539 -0.0968  0.1025  0.3302
  455TMC3     H 6780   0.760   3.294  16.332  0.2179 -0.5715  0.3378
  455TMC3    H1 6781   0.832   2.879  16.353 -1.6703 -0.7278 -1.0693
  455TMC3    H2 6782   0.446   3.018  16.264  0.1448 -0.7794  0.6052
  455TMC3    C7 6783   0.612   2.821  16.207 -0.8494  0.7101  0.1727
  455TMC3    C8 6784   0.504   3.252  16.386  0.4668  0.4176  0.5872
  455TMC3    O1 6785   0.501   2.773  16.200 -0.0153 -0.1615 -0.8227
  455TMC3    O2 6786   0.384   3.246  16.379 -0.1488  0.4582  0.2638
  456MPD2     C 6787   3.370   2.928  16.124  0.0706 -0.6687 -0.7245
  456MPD2    C1 6788   3.444   2.911  16.236 -0.7010 -0.1962  0.3136
  456MPD2    C2 6789   3.404   2.970  16.350 -0.7448 -0.3782  0.3865
  456MPD2    C3 6790   3.295   3.052  16.361 -0.2404  0.3736 -0.6535
  456MPD2    C4 6791   3.217   3.063  16.245  0.2333 -0.0943 -0.5317
  456MPD2    C5 6792   3.251   2.990  16.132 -0.3681  0.4076 -0.6798
  456MPD2     H 6793   3.465   2.963  16.438  0.4490 -0.2110 -0.4336
  456MPD2    H1 6794   3.127   3.123  16.236 -0.8923 -2.1202 -2.5267
  456MPD2    H2 6795   3.395   2.882  16.029 -0.6070  1.1005 -1.7456
  456MPD2    H3 6796   3.179   2.987  16.050 -1.8649 -0.5055  0.6696
  456MPD2     N 6797   3.270   3.110  16.484  0.2576 -0.3824  0.1060
  456MPD2    H5 6798   3.320   3.077  16.566 -1.3251 -1.6065  0.5803
  456MPD2    N1 6799   3.566   2.838  16.229  0.6975 -0.3483 -0.8997
  456MPD2    H7 6800   3.594   2.824  16.133 -1.9117 -0.9936 -1.5562
  457TMC3    C1 6801   3.164   3.270  16.637  0.4255  0.1031 -0.1436
  457TMC3    C2 6802   3.086   3.385  16.650 -0.4768  0.8467 -0.0285
  457TMC3    C3 6803   3.123   3.486  16.731 -0.6771  0.0907  0.8138
  457TMC3    C4 6804   3.269   3.248  16.723  0.1945 -0.2191 -0.6169
  457TMC3    C5 6805   3.297   3.340  16.816  0.1673  0.1286 -0.2567
  457TMC3    C6 6806   3.233   3.465  16.822 -0.5916  0.0457  0.3569
  457TMC3     C 6807   3.175   3.210  16.505  0.5616  0.2134  0.2266
  457TMC3     O 6808   3.105   3.272  16.422  0.1301 -0.2955  0.2525
  457TMC3     H 6809   3.003   3.398  16.582  0.3711  0.7369 -1.0902
  457TMC3    H1 6810   3.335   3.162  16.722  0.1217 -0.3113  1.3557
  457TMC3    H2 6811   3.264   3.539  16.895 -0.8862  1.0084 -0.4971
  457TMC3    C7 6812   3.434   3.325  16.867  0.4384 -0.1770 -0.1482
  457TMC3    C8 6813   3.099   3.620  16.694 -0.1742 -0.6532 -0.2514
  457TMC3    O1 6814   3.469   3.212  16.895  0.5210 -0.1654  0.2275
  457TMC3    O2 6815   3.151   3.706  16.764  0.3843  0.2696 -0.2360
  458MPD2     C 6816   1.166   3.072  12.186 -0.7123 -0.3451  0.6877
  458MPD2    C1 6817   1.132   3.006  12.303 -0.5719  0.5234 -0.6701
  458MPD2    C2 6818   1.003   2.964  12.325  0.2371 -0.1830  0.0534
  458MPD2    C3 6819   0.908   2.981  12.229 -0.1085 -0.0287  0.2708
  458MPD2    C4 6820   0.945   3.037  12.113  0.0728 -0.3054 -0.7506
  458MPD2    C5 6821   1.072   3.079  12.091 -0.0063 -0.3706  0.4776
  458MPD2     H 6822   0.977   2.912  12.417 -0.4744  0.8801  0.4556
  458MPD2    H1 6823   0.878   3.053  12.029 -0.9511  0.5535  0.2244
  458MPD2    H2 6824   1.265   3.101  12.152  1.1213 -2.9088  3.8682
  458MPD2    H3 6825   1.093   3.120  11.993  1.0246 -1.2291  0.3489
  458MPD2     N 6826   0.772   2.943  12.255 -0.2044  0.3004 -0.5599
  458MPD2    H5 6827   0.759   2.905  12.349 -1.0893  2.7209  0.2901
  458MPD2    N1 6828   1.237   2.988  12.395 -0.3297 -0.3270 -0.2552
  458MPD2    H7 6829   1.317   3.048  12.376 -0.5206 -0.1226 -0.4180
  459TMC3    C1 6830   1.363   2.905  12.570 -0.1336 -0.4924 -0.0201
  459TMC3    C2 6831   1.476   2.953  12.507  0.6831 -0.8759  0.0962
  459TMC3    C3 6832   1.589   2.968  12.585 -0.1345  0.1500  0.0905
  459TMC3    C4 6833   1.356   2.881  12.704 -0.2182 -0.1273 -0.1367
  459TMC3    C5 6834   1.473   2.890  12.776 -0.6975  1.0690 -0.8630
  459TMC3    C6 6835   1.581   2.946  12.723  0.0746 -0.0495  0.2816
  459TMC3     C 6836   1.236   2.907  12.501  0.2789 -0.7606  0.8344
  459TMC3     O 6837   1.146   2.830  12.544  0.6133  0.4870 -0.4219
  459TMC3     H 6838   1.487   2.945  12.399 -0.1674  2.2024 -0.2134
  459TMC3    H1 6839   1.268   2.833  12.744 -1.4239  1.1711 -1.2224
  459TMC3    H2 6840   1.672   2.955  12.781 -0.6377  1.2743  1.1884
  459TMC3    C7 6841   1.489   2.800  12.886 -0.4297 -0.2404 -0.3209
  459TMC3    C8 6842   1.719   3.005  12.535 -0.0876 -0.2676  0.2915
  459TMC3    O1 6843   1.470   2.680  12.863 -0.0282  0.2249 -0.0416
  459TMC3    O2 6844   1.815   3.001  12.608  0.3503 -0.0125  1.0438
  460MPD2     C 6845   0.512   0.075  10.367 -0.4940  0.7479 -0.4356
  460MPD2    C1 6846   0.390   0.082  10.437 -0.4612 -0.1598  0.4869
  460MPD2    C2 6847   0.293   0.167  10.386  0.1773  0.2543  0.1470
  460MPD2    C3 6848   0.320   0.243  10.272  0.3579 -1.0926  0.4936
  460MPD2    C4 6849   0.436   0.231  10.208  0.3120  0.3273 -0.6644
  460MPD2    C5 6850   0.536   0.152  10.254  0.1084 -0.3383  0.2987
  460MPD2     H 6851   0.197   0.181  10.434 -0.9120  1.9456 -2.5235
  460MPD2    H1 6852   0.455   0.274  10.111 -0.3731  1.8325 -0.1384
  460MPD2    H2 6853   0.596   0.011  10.392 -0.4587  1.2329  0.7021
  460MPD2    H3 6854   0.632   0.151  10.205 -0.0817 -0.2571 -0.0737
  460MPD2     N 6855   0.219   0.334  10.223 -0.1373  1.0344 -0.1171
  460MPD2    H5 6856   0.125   0.317  10.256  0.0539  1.7758  0.8433
  460MPD2    N1 6857   0.382   0.011  10.556  0.7179 -0.2113  1.0550
  460MPD2    H7 6858   0.460   4.670  10.574  1.0184 -1.1209 -3.5425
  461TMC3    C1 6859   0.138   0.527  10.112  0.2696  0.3821  0.1229
  461TMC3    C2 6860   0.019   0.470  10.057 -0.0319 -0.2063 -0.0255
  461TMC3    C3 6861   4.672   0.544   9.966 -0.3187 -0.2442  0.4532
  461TMC3    C4 6862   0.178   0.652  10.066  0.0576  0.2582  0.5328
  461TMC3    C5 6863   0.097   0.714   9.967  0.3690  0.2210  0.3145
  461TMC3    C6 6864   4.710   0.661   9.909  0.2989 -0.3709  0.0933
  461TMC3     C 6865   0.248   0.447  10.152  0.1429 -0.7706  0.7542
  461TMC3     O 6866   0.360   0.499  10.135 -0.3232 -0.5342  0.2182
  461TMC3     H 6867   0.001   0.363  10.068  2.7219 -0.5223  1.6085
  461TMC3    H1 6868   0.269   0.698  10.102  1.5406 -0.2887 -2.5384
  461TMC3    H2 6869   4.638   0.713   9.847 -1.1072 -0.2383  1.8092
  461TMC3    C7 6870   0.106   0.861   9.942  0.8927  0.0351 -0.0135
  461TMC3    C8 6871   4.611   0.464   9.869 -0.3073  0.1742 -0.3681
  461TMC3    O1 6872   0.054   0.913   9.842  0.1294  0.2316  0.1551
  461TMC3    O2 6873   4.654   0.486   9.755 -0.2980 -0.2179  0.4556
  462TMC3    C1 6874   0.523   0.822  17.202  0.3140 -0.7281  0.1107
  462TMC3    C2 6875   0.477   0.729  17.109  0.4571 -0.7498 -0.1835
  462TMC3    C3 6876   0.451   0.609  17.163  0.5928  0.3110  0.4787
  462TMC3    C4 6877   0.532   0.797  17.336 -0.2391 -0.0046  0.3994
  462TMC3    C5 6878   0.525   0.665  17.380 -0.5965  0.4829 -0.2987
  462TMC3    C6 6879   0.487   0.574  17.285  0.1666 -0.1094 -0.2817
  462TMC3     C 6880   0.519   0.965  17.161 -0.3258  0.0751 -0.0508
  462TMC3     O 6881   0.509   1.051  17.250  0.8136 -0.1758 -0.1747
  462TMC3     H 6882   0.444   0.747  17.008 -1.6524 -1.7947  0.3261
  462TMC3    H1 6883   0.567   0.871  17.407  1.0114 -0.1833 -0.0202
  462TMC3    H2 6884   0.453   0.479  17.324  0.2419  0.1030  0.3022
  462TMC3    C7 6885   0.456   0.651  17.506  0.1263  0.5795  0.1659
  462TMC3    C8 6886   0.348   0.533  17.103  0.4529  0.1144  0.5704
  462TMC3    O1 6887   0.405   0.541  17.540 -0.0086 -0.4063  0.0992
  462TMC3    O2 6888   0.253   0.593  17.054 -0.3958 -0.2411  0.2747
  463MPD2     C 6889   1.330   0.307   1.949  0.6165 -0.1257  0.5154
  463MPD2    C1 6890   1.219   0.322   1.868  1.1352  0.9084 -0.7230
  463MPD2    C2 6891   1.218   0.422   1.774 -0.3413  0.0013  0.2180
  463MPD2    C3 6892   1.321   0.512   1.762  0.2416  0.4893 -0.5196
  463MPD2    C4 6893   1.429   0.500   1.845 -0.4726 -0.5615 -0.3791
  463MPD2    C5 6894   1.434   0.393   1.932 -0.6080 -0.5801  0.3676
  463MPD2     H 6895   1.127   0.425   1.715  1.7149 -0.8458 -2.9891
  463MPD2    H1 6896   1.517   0.562   1.831 -1.1151  0.8092  1.7262
  463MPD2    H2 6897   1.323   0.238   2.033 -0.1548  1.2833  1.6172
  463MPD2    H3 6898   1.523   0.384   1.993 -1.1342  2.2581  1.5364
  463MPD2     N 6899   1.321   0.604   1.659  0.7773  0.4387  0.4783
  463MPD2    H5 6900   1.413   0.638   1.630  0.2755  1.0427 -0.4142
  463MPD2    N1 6901   1.106   0.242   1.877 -0.0303  1.1854 -0.0383
  463MPD2    H7 6902   1.043   0.266   1.801 -0.3456 -1.2192 -0.5445
  464TMC3    C1 6903   0.955   0.072   1.946 -0.4265  0.6541  0.2616
  464TMC3    C2 6904   0.897   0.070   1.821  0.2746  0.0012  0.0247
  464TMC3    C3 6905   0.796   4.700   1.789  0.1784  0.7328 -0.2539
  464TMC3    C4 6906   0.914   4.701   2.041 -0.0482  0.1823 -0.1480
  464TMC3    C5 6907   0.812   4.618   2.010  0.0224  0.5434 -0.2138
  464TMC3    C6 6908   0.744   4.616   1.885 -0.7444 -0.4496  0.0749
  464TMC3     C 6909   1.095   0.129   1.955 -0.4113 -0.2163  0.4636
  464TMC3     O 6910   1.172   0.086   2.040  0.7398  0.6372 -0.1486
  464TMC3     H 6911   0.953   0.119   1.742  0.5792 -0.1940  0.1208
  464TMC3    H1 6912   0.954   4.694   2.141 -0.4348  1.3524  0.0764
  464TMC3    H2 6913   0.665   4.545   1.866 -1.3206  0.2698 -0.2141
  464TMC3    C7 6914   0.791   4.518   2.108  0.4688 -0.6967 -0.2618
  464TMC3    C8 6915   0.736   4.705   1.655  0.0332 -0.0032  0.6575
  464TMC3    O1 6916   0.814   4.536   2.224 -0.0701  0.5114  0.4647
  464TMC3    O2 6917   0.795   0.040   1.566  0.3506  0.1394  0.3211
  465MPD2     C 6918   2.604   2.848  16.695  0.3304 -0.1488  0.0104
  465MPD2    C1 6919   2.472   2.844  16.736 -0.0214  0.2627 -0.1703
  465MPD2    C2 6920   2.375   2.898  16.658  0.3476  0.1146  0.0035
  465MPD2    C3 6921   2.396   2.961  16.540 -0.2157  0.0326  0.7961
  465MPD2    C4 6922   2.529   2.980  16.501 -0.3935  0.7890 -0.5870
  465MPD2    C5 6923   2.630   2.920  16.580  0.7338 -0.0723  0.3090
  465MPD2     H 6924   2.272   2.884  16.687  0.7324  2.0691  2.3805
  465MPD2    H1 6925   2.562   3.028  16.410  1.5988  3.2288  1.4024
  465MPD2    H2 6926   2.680   2.787  16.743 -0.4320 -1.4947 -0.4678
  465MPD2    H3 6927   2.733   2.916  16.547  1.1466  0.4557  1.5432
  465MPD2     N 6928   2.287   3.003  16.466 -0.1410  0.3334 -0.4832
  465MPD2    H5 6929   2.197   2.965  16.495 -0.9095  1.9336 -0.7811
  465MPD2    N1 6930   2.428   2.782  16.858  0.1969  0.5636 -0.0850
  465MPD2    H7 6931   2.329   2.787  16.879 -0.1904 -0.2641 -1.7277
  466TMC3    C1 6932   1.928   3.163  16.367  0.0941 -0.0398  0.0831
  466TMC3    C2 6933   1.924   3.261  16.277  0.2117  0.7444 -0.5424
  466TMC3    C3 6934   2.031   3.280  16.193  0.6398  0.7684  0.3530
  466TMC3    C4 6935   2.047   3.092  16.387 -0.6751 -1.1848  0.3206
  466TMC3    C5 6936   2.155   3.115  16.303 -0.2241  0.3477 -0.3864
  466TMC3    C6 6937   2.146   3.209  16.209 -0.0574 -0.1597  0.0292
  466TMC3     C 6938   1.848   3.173  16.481 -0.4552 -0.2013 -0.1655
  466TMC3     O 6939   1.857   3.079  16.558 -0.6009 -0.3714  0.3657
  466TMC3     H 6940   1.834   3.313  16.247 -1.7251 -1.7225  0.9796
  466TMC3    H1 6941   2.055   3.013  16.461 -5.0374 -0.3012  1.7202
  466TMC3    H2 6942   2.238   3.249  16.170  0.4320  0.8222  2.1597
  466TMC3    C7 6943   2.290   3.084  16.349 -0.6227 -0.1425 -0.0759
  466TMC3    C8 6944   2.033   3.410  16.128 -0.3336  0.1798  0.7082
  466TMC3    O1 6945   2.376   3.151  16.292 -1.0061 -0.4948  0.3190
  466TMC3    O2 6946   2.025   3.412  16.005 -0.5654 -0.7220  0.0818
  467TMC3    C1 6947   2.939   1.721  13.472  0.0002 -0.6524 -0.3783
  467TMC3    C2 6948   2.947   1.690  13.341  0.1683 -0.1851 -0.3334
  467TMC3    C3 6949   2.876   1.758  13.249 -0.1698 -0.6198  0.0712
  467TMC3    C4 6950   2.860   1.830  13.508  0.2184  0.5260  0.2210
  467TMC3    C5 6951   2.793   1.902  13.406 -0.0983 -0.2559  0.3105
  467TMC3    C6 6952   2.790   1.856  13.279  0.1601 -1.2349 -0.2081
  467TMC3     C 6953   3.052   1.691  13.556 -0.2472 -0.2545 -0.2595
  467TMC3     O 6954   3.081   1.768  13.648  0.1936 -0.1933  0.1367
  467TMC3     H 6955   3.000   1.603  13.304  2.4944  0.4152  1.6173
  467TMC3    H1 6956   2.867   1.870  13.608  0.6874 -0.0559  0.4201
  467TMC3    H2 6957   2.754   1.921  13.200  1.6488 -0.9769 -0.6761
  467TMC3    C7 6958   2.675   1.974  13.446  0.5083 -0.1173 -0.2729
  467TMC3    C8 6959   2.939   1.754  13.117 -0.5082 -0.1109  0.5509
  467TMC3    O1 6960   2.634   2.051  13.360 -0.7226  0.0030  0.1902
  467TMC3    O2 6961   2.868   1.742  13.017  0.0417  0.0141  0.5524
  468MPD2     C 6962   2.018   4.608   9.944  0.0941 -0.2068  0.0199
  468MPD2    C1 6963   2.033   4.615  10.085  0.7098  0.2771  0.4524
  468MPD2    C2 6964   2.060   4.501  10.160  0.2215 -1.1798 -0.4119
  468MPD2    C3 6965   2.073   4.378  10.099 -0.2275  0.2941 -0.4375
  468MPD2    C4 6966   2.055   4.366   9.966  0.4011  0.0017  0.2842
  468MPD2    C5 6967   2.025   4.480   9.893 -0.6941 -0.3607 -0.5033
  468MPD2     H 6968   2.099   4.523  10.259 -2.7316  0.4130  0.3989
  468MPD2    H1 6969   2.078   4.274   9.914  0.1721  0.6005 -0.8715
  468MPD2    H2 6970   1.990   4.685   9.873  0.3991  0.4277  0.5908
  468MPD2    H3 6971   2.017   4.476   9.785  1.1056 -0.1576 -0.6439
  468MPD2     N 6972   2.124   4.261  10.166 -0.3804  0.9156  0.0549
  468MPD2    H5 6973   2.149   4.182  10.108  1.5604  2.4873 -1.2460
  468MPD2    N1 6974   2.058   0.018  10.148 -0.4576 -0.5486  0.1686
  468MPD2    H7 6975   2.089   0.011  10.244 -2.8876 -1.0515  0.9152
  469TMC3    C1 6976   2.146   0.230  10.173  0.8247 -0.4732 -0.8498
  469TMC3    C2 6977   2.262   0.197  10.236  0.2455 -0.2981  0.1033
  469TMC3    C3 6978   2.340   0.301  10.283  0.2225  0.3129 -0.6204
  469TMC3    C4 6979   2.118   0.364  10.138 -0.4494  0.0932  0.0128
  469TMC3    C5 6980   2.209   0.462  10.181 -0.2199 -0.0355 -0.3755
  469TMC3    C6 6981   2.313   0.430  10.250  0.0246  0.4628 -0.0561
  469TMC3     C 6982   2.078   0.137  10.085  0.1472  0.2846  0.1403
  469TMC3     O 6983   2.059   0.168   9.967  0.1007 -0.3875  0.0074
  469TMC3     H 6984   2.296   0.094  10.246 -2.3653 -1.1288  0.5367
  469TMC3    H1 6985   2.034   0.397  10.079 -0.1162  2.5210  0.8792
  469TMC3    H2 6986   2.375   0.512  10.282  0.9697 -1.0764  2.0852
  469TMC3    C7 6987   2.175   0.605  10.164  0.3797  0.0412  0.0522
  469TMC3    C8 6988   2.436   0.286  10.381 -0.2110 -0.2350 -0.0541
  469TMC3    O1 6989   2.261   0.683  10.201  0.5025  0.7483  0.6609
  469TMC3    O2 6990   2.529   0.370  10.386  0.0420 -1.1255  0.0944
  470TMC3    C1 6991   0.492   0.927   0.940 -0.4075  0.4849 -0.4845
  470TMC3    C2 6992   0.575   1.025   0.992  0.2061 -0.1336  0.2332
  470TMC3    C3 6993   0.614   1.016   1.125 -0.7034  0.7780  0.0444
  470TMC3    C4 6994   0.447   0.831   1.023 -0.2585  0.6262  0.1956
  470TMC3    C5 6995   0.484   0.836   1.159  0.5784 -0.6787  0.4310
  470TMC3    C6 6996   0.575   0.921   1.211  0.8649  0.4345  0.0233
  470TMC3     C 6997   0.475   0.921   0.796 -0.2316 -0.1396 -0.1189
  470TMC3     O 6998   0.509   1.024   0.736  0.5190  0.3482 -0.3175
  470TMC3     H 6999   0.612   1.103   0.927  1.8325 -2.9195 -2.2164
  470TMC3    H1 7000   0.374   0.755   1.000  0.9916 -0.4398 -0.2853
  470TMC3    H2 7001   0.589   0.932   1.318 -1.3220 -0.2293  0.3988
  470TMC3    C7 7002   0.376   0.795   1.241 -0.3817 -0.0910 -0.5298
  470TMC3    C8 7003   0.621   1.150   1.183 -0.5122 -0.9117  0.1615
  470TMC3    O1 7004   0.263   0.809   1.192 -0.0818 -0.1660 -0.4847
  470TMC3    O2 7005   0.565   1.238   1.120  0.0232 -0.0922  0.0316
  471MPD2     C 7006   0.649   2.156  16.622 -0.8878 -0.3255 -0.2436
  471MPD2    C1 7007   0.660   2.022  16.616 -0.0617  0.3966 -0.5192
  471MPD2    C2 7008   0.737   1.960  16.706 -0.3205 -0.3249  0.8071
  471MPD2    C3 7009   0.802   2.022  16.803  0.2684  0.2496  0.4416
  471MPD2    C4 7010   0.787   2.158  16.815  0.4185 -0.1603  0.8861
  471MPD2    C5 7011   0.712   2.225  16.721 -0.0174 -0.1902 -0.0940
  471MPD2     H 7012   0.750   1.853  16.693 -0.9435 -0.3392  0.2764
  471MPD2    H1 7013   0.836   2.226  16.884  1.2779 -0.0448  0.1594
  471MPD2    H2 7014   0.595   2.216  16.549  1.4433  1.6312 -0.3678
  471MPD2    H3 7015   0.700   2.333  16.715 -0.2717 -0.2263 -0.2365
  471MPD2     N 7016   0.877   1.954  16.895 -0.5760 -0.6325 -0.3487
  471MPD2    H5 7017   0.905   2.003  16.979 -0.8973 -0.0909 -0.5572
  471MPD2    N1 7018   0.602   1.940  16.517 -1.0044 -0.7178  0.4878
  471MPD2    H7 7019   0.632   1.843  16.514  1.5070  0.0555  0.9049
  472TMC3    C1 7020   0.456   1.856  16.359  0.7601 -1.0001  0.6470
  472TMC3    C2 7021   0.405   1.875  16.231  0.0647  0.8094 -0.7993
  472TMC3    C3 7022   0.365   1.766  16.163 -0.2584  1.1334 -0.2144
  472TMC3    C4 7023   0.492   1.734  16.403  0.0234  0.8519 -0.1477
  472TMC3    C5 7024   0.457   1.622  16.328 -0.5082 -0.3682  0.2306
  472TMC3    C6 7025   0.374   1.636  16.217  0.5480  0.6453 -0.0764
  472TMC3     C 7026   0.498   1.974  16.434 -0.0608  0.8017  0.4840
  472TMC3     O 7027   0.460   2.083  16.403  0.1445  0.0135  0.6289
  472TMC3     H 7028   0.391   1.969  16.179 -1.2299  0.9670 -0.1640
  472TMC3    H1 7029   0.523   1.714  16.505 -0.5740 -0.4099 -0.2085
  472TMC3    H2 7030   0.332   1.547  16.171  1.5261 -0.0237  0.3396
  472TMC3    C7 7031   0.427   1.506  16.412 -0.7801 -0.5325 -0.1678
  472TMC3    C8 7032   0.236   1.774  16.099 -0.2089 -0.0174 -0.1276
  472TMC3    O1 7033   0.463   1.400  16.364 -0.3347 -0.1689 -0.0193
  472TMC3    O2 7034   0.213   1.860  16.016 -0.4359 -0.1732 -0.6218
  473MPD2     C 7035   0.057   4.177  14.061 -0.6451 -1.3251  0.4562
  473MPD2    C1 7036   0.148   4.271  14.027 -0.1151  0.2783  0.8592
  473MPD2    C2 7037   0.227   4.326  14.130  0.3590  0.3153 -0.5401
  473MPD2    C3 7038   0.211   4.292  14.263  0.0428  0.4633 -0.4251
  473MPD2    C4 7039   0.106   4.207  14.291 -0.2514  0.2814 -0.0166
  473MPD2    C5 7040   0.041   4.139  14.190  0.4633  0.3291  0.5618
  473MPD2     H 7041   0.309   4.392  14.104 -0.1265  1.1796  0.1298
  473MPD2    H1 7042   0.082   4.185  14.394 -0.5819  2.0544  0.2960
  473MPD2    H2 7043   0.002   4.117  13.989 -0.8971  0.9950 -1.3035
  473MPD2    H3 7044   4.680   4.075  14.219  0.4353 -0.0089 -0.2626
  473MPD2     N 7045   0.265   4.362  14.371 -0.2317 -0.0450  0.4723
  473MPD2    H5 7046   0.229   4.342  14.464  1.8157  1.2599  1.5641
  473MPD2    N1 7047   0.174   4.310  13.892 -0.8872 -0.0404  0.1893
  473MPD2    H7 7048   0.240   4.386  13.878  1.2416 -1.5413  1.9918
  474TMC3    C1 7049   0.406   4.508  14.481  0.1167  0.2431  0.1778
  474TMC3    C2 7050   0.310   4.589  14.530  0.9088 -0.4482 -0.5721
  474TMC3    C3 7051   0.350   4.709  14.591 -0.6870  0.6124 -0.2910
  474TMC3    C4 7052   0.534   4.545  14.498 -0.7762  0.3300 -1.2119
  474TMC3    C5 7053   0.572   4.651  14.572  0.1093 -0.4964  0.4882
  474TMC3    C6 7054   0.480   0.010  14.623  0.9686  0.2011 -0.4421
  474TMC3     C 7055   0.376   4.445  14.356 -0.5001  0.0323  0.0328
  474TMC3     O 7056   0.460   4.449  14.264  0.4879  0.6808 -0.3929
  474TMC3     H 7057   0.209   4.579  14.493 -0.1637 -0.2715  2.2763
  474TMC3    H1 7058   0.611   4.475  14.470 -0.7449 -0.2901  0.4614
  474TMC3    H2 7059   0.503   0.108  14.664 -1.7491 -0.1736  1.9532
  474TMC3    C7 7060   0.711   4.656  14.613  0.0526  0.0585  0.4702
  474TMC3    C8 7061   0.251   0.098  14.581 -0.6294 -0.4703  0.6199
  474TMC3    O1 7062   0.794   4.612  14.536  0.5191  0.8422  0.1069
  474TMC3    O2 7063   0.140   0.062  14.552 -0.0093 -0.2847 -0.0530
  475MPD2     C 7064   3.820   2.411  10.084  0.2862 -0.4121 -0.8605
  475MPD2    C1 7065   3.843   2.543  10.122  0.5524 -0.0972  0.2518
  475MPD2    C2 7066   3.752   2.612  10.197 -0.4234 -0.3298 -0.0600
  475MPD2    C3 7067   3.633   2.548  10.217  0.0936 -0.1062 -0.4833
  475MPD2    C4 7068   3.610   2.421  10.179 -0.6773 -0.3616  0.3706
  475MPD2    C5 7069   3.705   2.349  10.121 -0.0230 -0.2935  0.3048
  475MPD2     H 7070   3.760   2.716  10.228 -0.2050 -0.6542  0.9834
  475MPD2    H1 7071   3.522   2.369  10.215 -1.5985  0.8741 -0.0820
  475MPD2    H2 7072   3.896   2.366  10.022  1.0746 -1.3830  0.8448
  475MPD2    H3 7073   3.689   2.244  10.100  2.1045 -0.4935 -0.2473
  475MPD2     N 7074   3.522   2.628  10.270  0.2621  0.1462 -0.1774
  475MPD2    H5 7075   3.542   2.724  10.294 -1.7063  1.1718 -2.6259
  475MPD2    N1 7076   3.958   2.604  10.064 -0.1684  0.5711  0.1072
  475MPD2    H7 7077   4.025   2.532  10.038 -0.2390  0.5291  0.0431
  476TMC3    C1 7078   3.907   2.835  10.079 -0.7801  0.2562 -0.1799
  476TMC3    C2 7079   3.796   2.850   9.996  0.7048 -0.0824 -0.2900
  476TMC3    C3 7080   3.705   2.940  10.038  0.0326 -0.3979 -0.2163
  476TMC3    C4 7081   3.933   2.903  10.197  0.2182  0.0305 -0.0741
  476TMC3    C5 7082   3.843   3.001  10.219 -0.2289  0.4132  0.5631
  476TMC3    C6 7083   3.721   3.016  10.153  0.1641 -0.2710 -0.3346
  476TMC3     C 7084   4.003   2.736  10.052 -0.3676  0.6181  0.3881
  476TMC3     O 7085   4.113   2.781  10.049  0.7280 -0.4179  0.2984
  476TMC3     H 7086   3.771   2.797   9.904 -1.0892 -0.4949  0.4219
  476TMC3    H1 7087   4.032   2.902  10.241 -0.9757 -0.3897  2.6744
  476TMC3    H2 7088   3.653   3.098  10.171  0.6597  0.0295  0.1516
  476TMC3    C7 7089   3.888   3.095  10.319  0.3225  0.0132 -0.0422
  476TMC3    C8 7090   3.571   2.936   9.981  0.3068 -0.4497  0.4650
  476TMC3    O1 7091   4.005   3.095  10.354 -0.0597  0.9757 -0.1556
  476TMC3    O2 7092   3.497   3.033   9.998 -0.2936 -0.6329 -0.8363
  477MPD2     C 7093   0.866   3.913  11.364 -0.3080 -0.1934 -0.2937
  477MPD2    C1 7094   0.769   3.841  11.419  0.2086 -0.3225 -0.2580
  477MPD2    C2 7095   0.802   3.741  11.519 -0.6537 -0.0681 -0.3471
  477MPD2    C3 7096   0.930   3.739  11.571 -0.1274  0.4235 -0.4652
  477MPD2    C4 7097   1.023   3.821  11.513  0.2008 -1.2748 -0.6147
  477MPD2    C5 7098   0.987   3.901  11.407 -0.0351 -0.2655 -0.0282
  477MPD2     H 7099   0.723   3.676  11.554  0.1619 -0.0162  1.5869
  477MPD2    H1 7100   1.127   3.821  11.546  0.5937 -1.1299 -1.8650
  477MPD2    H2 7101   0.843   3.991  11.292 -0.0605  0.1754  0.0203
  477MPD2    H3 7102   1.059   3.973  11.369  1.8755 -1.9241  0.4697
  477MPD2     N 7103   0.957   3.659  11.677  0.4517  0.2471  0.3398
  477MPD2    H5 7104   0.887   3.593  11.709 -0.2339  1.2750  0.9670
  477MPD2    N1 7105   0.643   3.862  11.362  0.0020  0.2615  0.3882
  477MPD2    H7 7106   0.640   3.929  11.285  0.7004 -0.1156  0.0347
  478TMC3    C1 7107   0.416   3.891  11.358 -0.5071 -0.9397 -0.1947
  478TMC3    C2 7108   0.320   3.941  11.434 -0.3178  0.0473  0.2862
  478TMC3    C3 7109   0.253   4.049  11.389 -0.8137 -0.0862 -0.1888
  478TMC3    C4 7110   0.439   3.941  11.235  0.3770  0.5676 -0.6694
  478TMC3    C5 7111   0.362   4.040  11.181  0.2142  0.2641 -0.0743
  478TMC3    C6 7112   0.266   4.100  11.263  0.7079  0.0863 -0.1196
  478TMC3     C 7113   0.525   3.831  11.425 -0.7045 -0.2767  0.0882
  478TMC3     O 7114   0.508   3.778  11.536  0.0263  0.5883 -0.3595
  478TMC3     H 7115   0.304   3.913  11.538 -1.4138  1.4573  0.4926
  478TMC3    H1 7116   0.511   3.894  11.169  0.7523 -0.5872  0.5693
  478TMC3    H2 7117   0.211   4.184  11.223  2.0358 -0.1774 -2.4637
  478TMC3    C7 7118   0.334   4.024  11.034  0.0350  0.4488  0.6228
  478TMC3    C8 7119   0.225   4.151  11.493 -0.1396 -0.0602 -0.5236
  478TMC3    O1 7120   0.377   3.923  10.984  0.1414 -0.3367  0.1910
  478TMC3    O2 7121   0.201   4.109  11.609 -0.1601  0.3506 -0.1353
  479MPD2     C 7122   4.350   1.494  14.622  0.4762  0.5426 -0.1102
  479MPD2    C1 7123   4.333   1.397  14.718  0.3257 -0.7921  0.1436
  479MPD2    C2 7124   4.433   1.373  14.804 -1.0100 -0.1130  0.3595
  479MPD2    C3 7125   4.559   1.437  14.800 -0.3270 -0.0116 -0.1125
  479MPD2    C4 7126   4.579   1.520  14.695  0.3613 -0.5680 -0.1968
  479MPD2    C5 7127   4.473   1.550  14.610  0.0005 -0.5638 -0.1824
  479MPD2     H 7128   4.426   1.298  14.882  0.8471 -0.3984  0.2547
  479MPD2    H1 7129   4.667   1.584  14.688 -1.5726  1.7345 -3.2638
  479MPD2    H2 7130   4.275   1.518  14.549  0.9596  3.0797  0.2073
  479MPD2    H3 7131   4.494   1.614  14.525  0.8873  0.5746  0.8726
  479MPD2     N 7132   4.665   1.428  14.897 -0.4022  0.0516 -0.3653
  479MPD2    H5 7133   0.038   1.456  14.873  0.1699 -2.5062 -1.0400
  479MPD2    N1 7134   4.210   1.326  14.724  0.0809 -0.4439  0.6067
  479MPD2    H7 7135   4.131   1.359  14.669 -1.5394  1.6290  4.1263
  480TMC3    C1 7136   4.368   1.426  15.264 -0.6396  0.7768  0.4144
  480TMC3    C2 7137   4.298   1.529  15.218 -0.5360  0.2711  0.2368
  480TMC3    C3 7138   4.336   1.593  15.100  0.4923  0.4106 -0.1734
  480TMC3    C4 7139   4.476   1.380  15.198  0.4087  0.1434 -0.1147
  480TMC3    C5 7140   4.518   1.449  15.083 -0.0380 -1.0819  0.1361
  480TMC3    C6 7141   4.458   1.567  15.041 -0.3224  0.1813  0.7318
  480TMC3     C 7142   4.374   1.397  15.407  1.4591  0.0603  0.6922
  480TMC3     O 7143   4.484   1.376  15.454  0.6393  0.5105 -0.7017
  480TMC3     H 7144   4.221   1.579  15.275 -0.6136 -1.0748  1.3018
  480TMC3    H1 7145   4.528   1.290  15.228 -0.9013 -1.1249 -1.5721
  480TMC3    H2 7146   4.504   1.634  14.970 -0.1021 -1.7863 -0.9836
  480TMC3    C7 7147   4.642   1.399  15.034 -0.0387 -0.0685 -0.1579
  480TMC3    C8 7148   4.224   1.656  15.028  0.4964 -0.1545 -0.1075
  480TMC3    O1 7149   0.010   1.353  15.110 -1.1768 -0.2093  0.3584
  480TMC3    O2 7150   4.121   1.682  15.090 -0.7074  0.0842  0.2611
  481MPD2     C 7151   1.597   0.956  13.970 -0.2115 -0.2674 -0.1787
  481MPD2    C1 7152   1.496   0.885  14.039 -0.2040  0.2800 -0.4918
  481MPD2    C2 7153   1.513   0.832  14.164 -0.6847 -0.0251  0.0975
  481MPD2    C3 7154   1.635   0.841  14.224  0.5905  0.4978 -0.2612
  481MPD2    C4 7155   1.737   0.901  14.155 -0.4212 -0.5259 -0.2354
  481MPD2    C5 7156   1.717   0.953  14.034 -0.0247  0.7462  0.2571
  481MPD2     H 7157   1.429   0.793  14.221  0.6217 -1.5590  0.9478
  481MPD2    H1 7158   1.830   0.935  14.200 -0.1752 -0.2805 -0.9197
  481MPD2    H2 7159   1.579   1.006  13.876  1.3171 -0.4353 -0.5644
  481MPD2    H3 7160   1.797   1.009  13.986  0.9534 -1.4458 -0.6339
  481MPD2     N 7161   1.660   0.809  14.360  0.1799  0.0992  0.2499
  481MPD2    H5 7162   1.760   0.813  14.380  0.1325  1.0517  0.3175
  481MPD2    N1 7163   1.369   0.892  13.982 -0.1001 -0.4765  0.4398
  481MPD2    H7 7164   1.369   0.951  13.899  0.1874 -0.2551  0.5991
  482TMC3    C1 7165   1.151   0.840  13.926 -0.0076  0.0356  0.3527
  482TMC3    C2 7166   1.066   0.745  13.885 -0.0411 -0.1609  0.3320
  482TMC3    C3 7167   0.946   0.782  13.829  0.0155 -0.4921 -0.3203
  482TMC3    C4 7168   1.117   0.973  13.935 -0.3628  0.4496  0.2834
  482TMC3    C5 7169   0.995   1.003  13.878 -0.9915 -0.0711 -0.5328
  482TMC3    C6 7170   0.901   0.913  13.823 -1.2071 -0.0148 -0.1342
  482TMC3     C 7171   1.264   0.807  14.011 -0.1284  0.3229 -0.1588
  482TMC3     O 7172   1.270   0.705  14.076  0.4387 -0.0368 -0.2569
  482TMC3     H 7173   1.097   0.641  13.883  1.2990  0.2354  0.7330
  482TMC3    H1 7174   1.181   1.052  13.972  0.2576  0.5239 -0.9195
  482TMC3    H2 7175   0.801   0.932  13.785 -1.0635 -2.2601 -1.6647
  482TMC3    C7 7176   0.977   1.142  13.840 -0.5293  0.0023  0.1733
  482TMC3    C8 7177   0.874   0.668  13.761 -0.1813  0.7467  0.0560
  482TMC3    O1 7178   0.866   1.191  13.840  0.3051  0.2762  0.3435
  482TMC3    O2 7179   0.915   0.557  13.790  0.5694  0.5713 -0.0455
  483TMC3    C1 7180   4.420   4.152   0.649  0.6802  0.4706  0.1574
  483TMC3    C2 7181   4.359   4.271   0.668 -0.5620 -0.2213  0.0708
  483TMC3    C3 7182   4.404   4.356   0.764 -0.5757 -0.6918  0.3989
  483TMC3    C4 7183   4.516   4.104   0.739 -0.5214 -0.3996  0.6459
  483TMC3    C5 7184   4.540   4.182   0.850 -1.1864 -0.0276  0.7576
  483TMC3    C6 7185   4.490   4.309   0.863  0.0923  0.0769 -0.0669
  483TMC3     C 7186   4.425   4.113   0.507  0.2672  0.4336 -0.2215
  483TMC3     O 7187   4.384   4.182   0.417  0.0578 -0.3926  0.0618
  483TMC3     H 7188   4.289   4.307   0.594 -1.9531  1.5969  2.2749
  483TMC3    H1 7189   4.561   4.005   0.730 -0.5978 -0.2061 -2.0425
  483TMC3    H2 7190   4.535   4.366   0.943 -0.8492  0.0917  0.4527
  483TMC3    C7 7191   4.603   4.121   0.961  0.6167 -0.4802 -1.3066
  483TMC3    C8 7192   4.382   4.496   0.743  0.4183  0.8280 -0.0487
  483TMC3    O1 7193   4.690   4.036   0.944  0.4028  0.5599 -0.2061
  483TMC3    O2 7194   4.351   4.510   0.621  0.1632  0.0640  0.2682
  484MPD2     C 7195   1.797   3.036  12.179  0.4415  0.3627 -0.2263
  484MPD2    C1 7196   1.826   3.041  12.312 -0.5556 -0.5216 -0.1424
  484MPD2    C2 7197   1.952   3.051  12.359 -0.2235 -0.1529  0.5919
  484MPD2    C3 7198   2.050   3.047  12.262  0.3920 -0.6603 -0.3658
  484MPD2    C4 7199   2.024   3.040  12.123  0.3078 -0.6728 -0.3653
  484MPD2    C5 7200   1.894   3.026  12.086  0.0015 -0.2210 -0.1823
  484MPD2     H 7201   1.980   3.078  12.460  0.7504 -1.2272  0.6048
  484MPD2    H1 7202   2.104   3.038  12.049  0.7246  1.7315  0.0253
  484MPD2    H2 7203   1.691   3.034  12.156  0.4072 -0.6052  0.0071
  484MPD2    H3 7204   1.862   3.001  11.985 -0.2650  0.5414 -0.2862
  484MPD2     N 7205   2.184   3.067  12.296 -0.2024  0.4917 -0.3779
  484MPD2    H5 7206   2.245   3.060  12.216 -0.9729 -1.0094 -0.8323
  484MPD2    N1 7207   1.712   3.031  12.400  0.6997 -0.5371 -0.5513
  484MPD2    H7 7208   1.617   3.037  12.365 -0.5046 -1.6546  2.4886
  485TMC3    C1 7209   2.396   3.088  12.399 -1.6312 -0.9405  0.2668
  485TMC3    C2 7210   2.469   3.058  12.511  0.4479  0.3034 -0.5401
  485TMC3    C3 7211   2.602   3.091  12.511  0.1097 -0.4241 -0.6333
  485TMC3    C4 7212   2.452   3.151  12.291  0.2248 -0.2444 -0.2754
  485TMC3    C5 7213   2.590   3.187  12.292  0.4749  0.2881 -0.3517
  485TMC3    C6 7214   2.656   3.168  12.411 -0.3435  0.7234  0.2401
  485TMC3     C 7215   2.249   3.074  12.418 -0.1876 -0.8162  0.0386
  485TMC3     O 7216   2.202   3.048  12.527 -0.7008  0.0735 -0.4692
  485TMC3     H 7217   2.421   3.001  12.590 -0.6325 -0.7875 -1.9910
  485TMC3    H1 7218   2.411   3.167  12.192 -1.1287  0.3493  0.3958
  485TMC3    H2 7219   2.764   3.175  12.398 -0.5649  0.0754 -1.9075
  485TMC3    C7 7220   2.666   3.161  12.167  0.6742  0.2614 -0.3302
  485TMC3    C8 7221   2.700   2.999  12.576 -0.2565 -0.1325  0.0788
  485TMC3    O1 7222   2.784   3.198  12.178 -0.7452 -0.1242  0.2536
  485TMC3    O2 7223   2.816   3.022  12.552  0.1230  0.4529  0.0017
  486MPD2     C 7224   3.790   1.844  12.454 -0.8397 -0.5107 -0.3025
  486MPD2    C1 7225   3.832   1.865  12.327 -0.1076 -0.4944  0.0422
  486MPD2    C2 7226   3.858   1.986  12.272  0.4076 -0.2747  0.1659
  486MPD2    C3 7227   3.820   2.095  12.337 -0.2722 -0.2004 -0.1363
  486MPD2    C4 7228   3.772   2.074  12.463  1.0865 -0.2740 -0.6899
  486MPD2    C5 7229   3.754   1.951  12.522  0.7126 -0.4403 -0.3815
  486MPD2     H 7230   3.906   1.989  12.175 -1.0665  0.5783 -0.5408
  486MPD2    H1 7231   3.738   2.160  12.521  0.8660 -1.7847  1.4437
  486MPD2    H2 7232   3.785   1.745  12.498 -3.2932  0.2435  1.1052
  486MPD2    H3 7233   3.714   1.937  12.622  1.3415  0.0727 -0.0598
  486MPD2     N 7234   3.841   2.219  12.275 -0.6132  0.5066 -0.7982
  486MPD2    H5 7235   3.881   2.210  12.181  0.6071 -1.7265 -0.0673
  486MPD2    N1 7236   3.853   1.749  12.254 -0.1006  0.5994  0.1166
  486MPD2    H7 7237   3.834   1.666  12.310 -1.4263 -0.5994 -2.1322
  487TMC3    C1 7238   3.916   1.590  12.104  0.5428  0.5104  0.6663
  487TMC3    C2 7239   3.812   1.520  12.149  0.0261 -0.5051  0.7519
  487TMC3    C3 7240   3.828   1.387  12.177 -0.1367  0.4727  0.5130
  487TMC3    C4 7241   4.037   1.529  12.105 -0.7542 -0.2207 -0.3212
  487TMC3    C5 7242   4.050   1.401  12.151  0.6853  0.1784  0.1526
  487TMC3    C6 7243   3.948   1.319  12.189 -0.0706 -0.5775 -0.5675
  487TMC3     C 7244   3.919   1.728  12.135  0.2012  0.2161 -0.0493
  487TMC3     O 7245   4.000   1.800  12.071  0.2440  0.4025  0.1277
  487TMC3     H 7246   3.716   1.569  12.162 -0.5625 -1.0021 -1.8058
  487TMC3    H1 7247   4.121   1.594  12.082  0.2746 -2.4173 -2.8028
  487TMC3    H2 7248   3.968   1.223  12.234 -0.4039 -0.7064 -0.6965
  487TMC3    C7 7249   4.182   1.375  12.218  0.0040 -0.1578 -0.4090
  487TMC3    C8 7250   3.720   1.332  12.247  0.6600  0.0129  0.5076
  487TMC3    O1 7251   4.184   1.295  12.310 -0.1033  0.3196 -0.0683
  487TMC3    O2 7252   3.622   1.400  12.274 -0.1718 -0.1759  0.2904
  488MPD2     C 7253   4.013   3.525  15.781 -0.6180 -0.3802 -0.3271
  488MPD2    C1 7254   4.047   3.538  15.917 -0.3086 -0.4644 -0.0190
  488MPD2    C2 7255   3.949   3.520  16.010 -0.0723 -0.1968  0.2666
  488MPD2    C3 7256   3.825   3.474  15.983  0.0483  0.2283 -0.0412
  488MPD2    C4 7257   3.793   3.447  15.849  0.1928  0.1563 -0.0427
  488MPD2    C5 7258   3.884   3.482  15.750  0.3129  0.5672  0.0331
  488MPD2     H 7259   3.973   3.536  16.115  1.3395  1.8983 -0.3905
  488MPD2    H1 7260   3.698   3.405  15.818  0.7608 -0.6845 -0.6515
  488MPD2    H2 7261   4.079   3.533  15.696 -0.8465 -1.4509 -0.6075
  488MPD2    H3 7262   3.862   3.468  15.645 -1.6973  2.2867  0.2204
  488MPD2     N 7263   3.744   3.431  16.085  0.5044  0.2515  0.0275
  488MPD2    H5 7264   3.783   3.430  16.179  1.4796 -0.8149 -0.3889
  488MPD2    N1 7265   4.177   3.580  15.966  0.0895  0.1187 -0.1355
  488MPD2    H7 7266   4.177   3.605  16.065  1.2219 -1.8831  0.3525
  489TMC3    C1 7267   3.561   3.329  16.188 -0.0289 -0.1411  0.3084
  489TMC3    C2 7268   3.469   3.398  16.268 -0.7563  0.5084 -0.2704
  489TMC3    C3 7269   3.493   3.397  16.402  0.5719  0.4283  0.4700
  489TMC3    C4 7270   3.654   3.243  16.243 -0.2934 -0.5788 -0.7139
  489TMC3    C5 7271   3.665   3.233  16.379 -0.3486  0.2125  0.0045
  489TMC3    C6 7272   3.588   3.314  16.457 -0.0297  0.1295 -0.6148
  489TMC3     C 7273   3.616   3.391  16.067 -0.2328  0.0041 -1.0397
  489TMC3     O 7274   3.530   3.427  15.985 -0.7323 -0.7563 -0.3262
  489TMC3     H 7275   3.404   3.479  16.237  0.9125  1.6840 -0.6857
  489TMC3    H1 7276   3.715   3.181  16.178  0.7371  1.0439 -1.3014
  489TMC3    H2 7277   3.617   3.319  16.562 -1.0172  1.9407 -0.4163
  489TMC3    C7 7278   3.781   3.160  16.427 -0.3935 -0.0250 -0.7277
  489TMC3    C8 7279   3.461   3.520  16.468  0.2203 -0.0256 -0.3388
  489TMC3    O1 7280   3.873   3.147  16.343 -0.6634 -0.1146  0.1289
  489TMC3    O2 7281   3.353   3.571  16.456 -0.4762 -0.3515  0.6887
  490MPD2     C 7282   0.505   2.896  17.103 -0.1692 -0.1197  0.0640
  490MPD2    C1 7283   0.548   2.767  17.122  0.2305  0.2263 -0.1493
  490MPD2    C2 7284   0.642   2.740  17.219 -0.4273  0.0200  0.3524
  490MPD2    C3 7285   0.705   2.841  17.292 -0.1112  0.1818 -0.4104
  490MPD2    C4 7286   0.654   2.970  17.272 -0.3568 -0.2851  0.3890
  490MPD2    C5 7287   0.554   2.998  17.187  0.5612  0.1129 -0.2753
  490MPD2     H 7288   0.685   2.641  17.226 -1.1853 -0.3100  0.3778
  490MPD2    H1 7289   0.685   3.057  17.330 -1.2122  0.8306 -0.8086
  490MPD2    H2 7290   0.439   2.927  17.022  0.3439  1.0859  0.0968
  490MPD2    H3 7291   0.512   3.098  17.177  0.5113  0.1124 -0.0744
  490MPD2     N 7292   0.819   2.825  17.384 -0.3861  0.2611  0.0915
  490MPD2    H5 7293   0.852   2.908  17.432 -1.0824 -0.7005  2.2085
  490MPD2    N1 7294   0.511   2.655  17.036  0.2570  0.3043 -0.1617
  490MPD2    H7 7295   0.548   2.566  17.067 -0.0314 -0.3543 -1.6970
  491TMC3    C1 7296   0.437   2.526  16.869  0.2507  0.5110 -0.5074
  491TMC3    C2 7297   0.533   2.442  16.921  0.3342  0.0964  0.4431
  491TMC3    C3 7298   0.503   2.323  16.981  0.4403  0.9407  0.3851
  491TMC3    C4 7299   0.310   2.486  16.870  0.8294 -0.6551 -0.2454
  491TMC3    C5 7300   0.279   2.360  16.925 -1.1002  0.2343  0.3790
  491TMC3    C6 7301   0.378   2.272  16.969 -0.3527 -0.4142  0.5298
  491TMC3     C 7302   0.461   2.661  16.912  0.3409 -0.4219  0.2643
  491TMC3     O 7303   0.402   2.751  16.856  0.7482 -0.1572  0.1583
  491TMC3     H 7304   0.635   2.478  16.927  0.8714 -1.2804 -0.3946
  491TMC3    H1 7305   0.230   2.551  16.836 -0.8214 -2.0043  1.0869
  491TMC3    H2 7306   0.346   2.184  17.024 -1.2263  0.7544  1.8794
  491TMC3    C7 7307   0.141   2.307  16.918  0.8191  1.4300 -0.0309
  491TMC3    C8 7308   0.566   2.316  17.115 -0.2882 -0.2278  0.0928
  491TMC3    O1 7309   0.135   2.185  16.932  0.4923  0.1594 -0.3079
  491TMC3    O2 7310   0.641   2.408  17.142 -0.0913  0.5411 -0.1985
  492MPD2     C 7311   0.366   3.379  11.037 -0.1337  0.3590  0.2985
  492MPD2    C1 7312   0.351   3.274  10.948 -0.6360  0.0459  0.4852
  492MPD2    C2 7313   0.320   3.151  11.009  0.6713  0.3327  1.1954
  492MPD2    C3 7314   0.294   3.145  11.147 -0.4684  0.0410  0.0457
  492MPD2    C4 7315   0.333   3.246  11.231  0.4068 -0.7998  0.1058
  492MPD2    C5 7316   0.364   3.367  11.174 -0.2323  0.5788 -0.6087
  492MPD2     H 7317   0.300   3.063  10.949  1.9373  0.2843  0.8561
  492MPD2    H1 7318   0.330   3.238  11.339  1.6932  1.4148  0.3094
  492MPD2    H2 7319   0.373   3.482  11.003  1.8827 -0.2948 -1.2406
  492MPD2    H3 7320   0.372   3.452  11.241 -1.1692 -0.6184  1.0155
  492MPD2     N 7321   0.243   3.026  11.202  0.1207 -0.4027  0.6976
  492MPD2    H5 7322   0.244   3.023  11.303 -1.0958  0.3826  0.7325
  492MPD2    N1 7323   0.385   3.298  10.808 -0.7094  0.1578 -0.0649
  492MPD2    H7 7324   0.407   3.394  10.786 -0.8636 -0.1869 -1.7825
  493TMC3    C1 7325   0.412   3.254  10.575  0.4086 -0.3378  0.0125
  493TMC3    C2 7326   0.515   3.348  10.570 -0.3521 -1.0906  0.1890
  493TMC3    C3 7327   0.556   3.371  10.447  0.5646  0.1937 -0.2106
  493TMC3    C4 7328   0.355   3.196  10.472  0.0897  0.0522  0.1414
  493TMC3    C5 7329   0.406   3.224  10.348 -0.3213  0.4558  0.0117
  493TMC3    C6 7330   0.503   3.311  10.340 -0.1460  0.4181 -0.3777
  493TMC3     C 7331   0.370   3.209  10.704  0.3424  0.3562  0.0649
  493TMC3     O 7332   0.318   3.101  10.710 -0.2819  0.2934 -0.5384
  493TMC3     H 7333   0.547   3.405  10.656 -0.6026 -0.3675 -0.1961
  493TMC3    H1 7334   0.264   3.137  10.485 -0.4846  1.5919  3.0461
  493TMC3    H2 7335   0.553   3.323  10.245 -0.6922 -0.7775 -0.8147
  493TMC3    C7 7336   0.406   3.114  10.256 -0.1911  0.1691 -0.0205
  493TMC3    C8 7337   0.673   3.452  10.447 -0.1610 -0.8379 -0.5794
  493TMC3    O1 7338   0.409   3.142  10.141  0.3671  0.2394 -0.2685
  493TMC3    O2 7339   0.746   3.440  10.544  0.5648 -0.1379 -0.0062
  494TMC3    C1 7340   1.248   4.613   0.371 -0.1131  0.4296  0.1269
  494TMC3    C2 7341   1.378   4.583   0.406 -0.0008 -0.2878 -0.5648
  494TMC3    C3 7342   1.453   4.508   0.314  0.2104 -0.5001 -0.0602
  494TMC3    C4 7343   1.194   4.582   0.248  0.3735  0.0378 -0.3140
  494TMC3    C5 7344   1.264   4.493   0.166 -0.6042  0.1932 -0.2820
  494TMC3    C6 7345   1.393   4.464   0.196  0.6945 -0.7539  0.1204
  494TMC3     C 7346   1.156   4.637   0.478  0.4770 -0.3035  0.0147
  494TMC3     O 7347   1.063   4.716   0.453  0.4770 -0.1946 -0.0051
  494TMC3     H 7348   1.420   4.621   0.499  1.0158 -1.0969 -0.6860
  494TMC3    H1 7349   1.093   4.611   0.223  0.3924 -0.5246 -1.0344
  494TMC3    H2 7350   1.449   4.419   0.114  2.1738  2.7897 -0.8343
  494TMC3    C7 7351   1.240   4.514   0.031  0.6158  0.2713  0.1395
  494TMC3    C8 7352   1.598   4.519   0.329 -0.2211  0.5145 -0.4683
  494TMC3    O1 7353   1.228   4.418  17.645  0.4954 -0.1476  0.2736
  494TMC3    O2 7354   1.664   4.431   0.283 -0.1253 -0.1736 -0.1660
  495TMC3    C1 7355   4.487   2.012  14.151  0.2519 -0.6886  0.0707
  495TMC3    C2 7356   4.375   2.071  14.086 -0.2344  0.6671  0.5674
  495TMC3    C3 7357   4.269   2.118  14.157  0.3027  0.1090  0.2554
  495TMC3    C4 7358   4.493   2.018  14.284 -0.5607 -0.7925  0.7457
  495TMC3    C5 7359   4.381   2.063  14.356 -0.5721 -0.0712 -0.5361
  495TMC3    C6 7360   4.275   2.131  14.294  0.3577 -0.9360  0.1480
  495TMC3     C 7361   4.520   1.876  14.100 -0.3543  0.3123 -0.0752
  495TMC3     O 7362   4.483   1.854  13.983 -0.4908 -0.4694  0.0074
  495TMC3     H 7363   4.372   2.069  13.977  0.5273 -0.6489  0.5591
  495TMC3    H1 7364   4.587   1.985  14.327 -0.0310 -3.3913 -2.4275
  495TMC3    H2 7365   4.182   2.149  14.346  1.0732  1.0837  0.7000
  495TMC3    C7 7366   4.346   1.977  14.473 -0.1198 -0.1681  0.6987
  495TMC3    C8 7367   4.160   2.020  14.134 -0.3738  0.3912 -0.2051
  495TMC3    O1 7368   4.437   1.899  14.500 -0.5427 -0.8425  0.2239
  495TMC3    O2 7369   4.073   2.025  14.217  0.2434  0.4759 -0.2454
  496MPD2     C 7370   2.088   2.337  15.634 -0.3122  0.5926  0.3217
  496MPD2    C1 7371   2.013   2.226  15.603  0.6929  0.8753 -0.1612
  496MPD2    C2 7372   1.976   2.149  15.705 -0.6061 -0.0299 -0.1444
  496MPD2    C3 7373   2.004   2.179  15.834 -0.6854  0.7042  0.2614
  496MPD2    C4 7374   2.066   2.298  15.866  0.1820 -0.0008  0.2359
  496MPD2    C5 7375   2.108   2.374  15.762 -0.6650 -0.0852 -0.2037
  496MPD2     H 7376   1.923   2.056  15.683  0.3077 -0.7895  0.8675
  496MPD2    H1 7377   2.080   2.327  15.970  1.3662 -1.7135  0.5593
  496MPD2    H2 7378   2.120   2.397  15.550 -2.3227  1.9209  0.5085
  496MPD2    H3 7379   2.160   2.466  15.786  0.9386 -1.4491  1.4622
  496MPD2     N 7380   1.953   2.108  15.943  0.2149  0.4892 -0.5187
  496MPD2    H5 7381   1.965   2.130  16.041 -0.2759  1.4786 -0.6890
  496MPD2    N1 7382   1.986   2.191  15.468  0.1450  1.0169  0.4864
  496MPD2    H7 7383   1.998   2.273  15.410  3.0273 -0.5208 -1.1041
  497TMC3    C1 7384   1.840   1.923  16.041  0.6485 -0.9835  0.7411
  497TMC3    C2 7385   1.741   1.834  16.015  0.0923 -0.3083 -0.3323
  497TMC3    C3 7386   1.677   1.783  16.127  1.1757 -1.0894 -0.0882
  497TMC3    C4 7387   1.886   1.968  16.160  0.2482 -0.4396  0.1291
  497TMC3    C5 7388   1.803   1.924  16.261 -0.0823  0.5635  0.0346
  497TMC3    C6 7389   1.699   1.836  16.251 -0.1476  0.0879 -0.0325
  497TMC3     C 7390   1.902   1.978  15.924 -0.0343 -0.3786  0.1438
  497TMC3     O 7391   1.887   1.905  15.825 -0.0026  0.1582 -0.8182
  497TMC3     H 7392   1.726   1.793  15.916 -1.3408 -0.0806 -0.2084
  497TMC3    H1 7393   1.975   2.029  16.174 -0.3060  0.7267 -1.4962
  497TMC3    H2 7394   1.651   1.791  16.337 -2.1536 -1.8724 -2.2067
  497TMC3    C7 7395   1.827   1.961  16.403  0.6630  0.3610 -0.7951
  497TMC3    C8 7396   1.570   1.688  16.120  0.7898 -0.2335 -0.5103
  497TMC3    O1 7397   1.742   1.937  16.491  0.4165 -0.5503 -0.2282
  497TMC3    O2 7398   1.504   1.669  16.222 -0.4346 -0.4380 -0.5832
  498MPD2     C 7399   3.209   2.159   9.338  0.0556  0.1810  1.1470
  498MPD2    C1 7400   3.151   2.255   9.417 -0.5796  0.6757 -0.1825
  498MPD2    C2 7401   3.026   2.227   9.470  0.4137 -0.8356  0.7098
  498MPD2    C3 7402   2.962   2.105   9.454  0.6997 -0.1693  0.2536
  498MPD2    C4 7403   3.015   2.011   9.367 -0.1318  0.3330 -0.0507
  498MPD2    C5 7404   3.141   2.041   9.316  0.7774  0.2265 -0.6286
  498MPD2     H 7405   2.980   2.308   9.526 -0.0021  0.8260 -2.0171
  498MPD2    H1 7406   2.983   1.911   9.343 -0.8891  0.1602  1.6849
  498MPD2    H2 7407   3.309   2.169   9.297 -0.0411 -2.2124  0.2773
  498MPD2    H3 7408   3.184   1.960   9.257  0.9347  0.9563 -1.5099
  498MPD2     N 7409   2.849   2.071   9.533 -0.2346 -0.2090  0.0519
  498MPD2    H5 7410   2.821   2.136   9.607  1.4065 -2.6525  2.8062
  498MPD2    N1 7411   3.206   2.389   9.430  0.2159  0.4931 -0.6406
  498MPD2    H7 7412   3.144   2.461   9.465 -0.5813 -1.2394  1.5943
  499TMC3    C1 7413   3.371   2.564   9.448 -0.9186  0.6667  0.3764
  499TMC3    C2 7414   3.494   2.586   9.500  0.1937  0.5060  0.3839
  499TMC3    C3 7415   3.520   2.705   9.555  0.4652 -0.6614 -0.0951
  499TMC3    C4 7416   3.272   2.650   9.464  0.9246 -0.9419 -0.4781
  499TMC3    C5 7417   3.295   2.771   9.521  0.2587  0.9623  0.1189
  499TMC3    C6 7418   3.423   2.796   9.570  0.2217  0.8591 -0.3221
  499TMC3     C 7419   3.336   2.426   9.402  0.1433  1.1887  0.9659
  499TMC3     O 7420   3.425   2.354   9.356 -0.0575 -0.1231  0.3413
  499TMC3     H 7421   3.577   2.524   9.468 -0.2264 -0.1900  0.6392
  499TMC3    H1 7422   3.182   2.644   9.404 -0.9243 -2.5852  2.4339
  499TMC3    H2 7423   3.441   2.896   9.609 -2.7160  0.2388  2.5808
  499TMC3    C7 7424   3.202   2.882   9.520 -0.4036  0.8547  0.7267
  499TMC3    C8 7425   3.653   2.733   9.599 -0.0556  0.2785  0.5715
  499TMC3    O1 7426   3.254   2.993   9.528 -0.4516 -0.0790 -0.4365
  499TMC3    O2 7427   3.671   2.847   9.642  0.4753  0.8467 -0.3872
  500MPD2     C 7428   4.473   3.946  10.123 -0.2492 -0.1484 -0.4863
  500MPD2    C1 7429   4.459   3.908   9.994 -0.1539 -0.0343 -0.1230
  500MPD2    C2 7430   4.350   3.837   9.952 -0.3183 -0.9998 -0.1980
  500MPD2    C3 7431   4.248   3.809  10.044 -0.1176 -0.1738  0.1432
  500MPD2    C4 7432   4.264   3.856  10.177  0.1597 -0.3701  0.1205
  500MPD2    C5 7433   4.379   3.923  10.213  0.4675  0.1588 -0.3387
  500MPD2     H 7434   4.342   3.807   9.848 -1.8405  1.8135 -0.8831
  500MPD2    H1 7435   4.186   3.855  10.252  0.4709 -3.0012  0.3909
  500MPD2    H2 7436   4.569   3.983  10.156 -1.0514  0.0318  1.6377
  500MPD2    H3 7437   4.394   3.958  10.315 -0.9497  0.3870 -0.2086
  500MPD2     N 7438   4.136   3.725  10.015 -0.7435  0.2529  0.0716
  500MPD2    H5 7439   4.076   3.701  10.093  0.2249  1.1879  1.1011
  500MPD2    N1 7440   4.558   3.955   9.908 -0.6627 -0.0155 -0.3337
  500MPD2    H7 7441   4.639   3.998   9.951  1.3548 -1.9057 -2.1705
  501TMC3    C1 7442   4.642   4.070   9.723  0.4157 -0.2014  0.0134
  501TMC3    C2 7443   4.603   4.184   9.657  0.2288  0.5082 -0.5809
  501TMC3    C3 7444   4.693   4.289   9.655 -0.3451 -0.3509 -0.1938
  501TMC3    C4 7445   0.039   4.058   9.793  0.5298 -0.2458  0.5484
  501TMC3    C5 7446   0.118   4.167   9.802 -0.8454 -0.1086 -0.2030
  501TMC3    C6 7447   0.092   4.282   9.725 -0.2967  0.2385  0.5139
  501TMC3     C 7448   4.536   3.989   9.777 -0.1288  1.0288  0.1349
  501TMC3     O 7449   4.431   3.978   9.720  0.3282 -0.0134  0.1196
  501TMC3     H 7450   4.498   4.180   9.629 -0.0824  0.7583  0.5094
  501TMC3    H1 7451   0.073   3.962   9.829 -2.4769 -1.4179  0.3009
  501TMC3    H2 7452   0.160   4.366   9.713 -0.0535 -0.3398 -1.9810
  501TMC3    C7 7453   0.133   4.190   9.942  0.3858  0.7841 -0.5659
  501TMC3    C8 7454   4.637   4.408   9.705  0.8186 -0.8502  0.6852
  501TMC3    O1 7455   0.064   4.122  10.015  0.0939  0.0359 -0.3188
  501TMC3    O2 7456   4.530   4.401   9.765 -0.1609  0.3668  0.1330
  502TMC3    C1 7457   3.897   2.550  14.898 -0.2819  0.0179  0.6433
  502TMC3    C2 7458   3.874   2.683  14.891 -0.1784 -0.5770  0.5620
  502TMC3    C3 7459   3.744   2.729  14.890 -0.2469 -0.2064  0.4968
  502TMC3    C4 7460   3.799   2.460  14.907 -0.4112  0.0375 -0.0464
  502TMC3    C5 7461   3.668   2.513  14.908  0.4026 -0.1601  0.0929
  502TMC3    C6 7462   3.635   2.647  14.895 -0.0384 -0.0207 -0.2553
  502TMC3     C 7463   4.030   2.518  14.954  0.4970  0.4074 -0.8875
  502TMC3     O 7464   4.128   2.587  14.926  0.1829  0.0178 -0.3518
  502TMC3     H 7465   3.960   2.747  14.874 -0.2451 -0.2082  1.5855
  502TMC3    H1 7466   3.821   2.355  14.922  1.5675  0.6100  1.1142
  502TMC3    H2 7467   3.530   2.673  14.886  0.2196  0.1665 -2.6708
  502TMC3    C7 7468   3.570   2.414  14.935 -0.1837 -0.5099  0.3449
  502TMC3    C8 7469   3.730   2.874  14.889  0.3522 -0.1129  0.3987
  502TMC3    O1 7470   3.602   2.304  14.892 -0.1042  0.4180  0.5314
  502TMC3    O2 7471   3.829   2.943  14.879 -0.2210 -0.0555 -0.0612
  503MPD2     C 7472   1.314   3.284  16.544  0.6439 -1.4111 -0.1981
  503MPD2    C1 7473   1.308   3.313  16.681  0.1032 -1.0203  0.2721
  503MPD2    C2 7474   1.341   3.213  16.772 -0.4910  0.4687 -0.4014
  503MPD2    C3 7475   1.401   3.092  16.728 -0.2298 -0.2622  0.5116
  503MPD2    C4 7476   1.403   3.063  16.599 -0.3060 -0.1995  0.6490
  503MPD2    C5 7477   1.371   3.163  16.507 -0.2336 -0.3585  0.2004
  503MPD2     H 7478   1.342   3.237  16.877  0.3598  0.0559 -0.3111
  503MPD2    H1 7479   1.433   2.966  16.562 -0.9480 -1.1261  2.5346
  503MPD2    H2 7480   1.287   3.354  16.466 -1.1644 -3.3981 -1.3802
  503MPD2    H3 7481   1.378   3.144  16.401  1.6815  1.2060  0.0547
  503MPD2     N 7482   1.468   3.020  16.825 -0.4722  0.0696  0.8151
  503MPD2    H5 7483   1.468   3.055  16.920 -0.4459  4.5100 -0.7974
  503MPD2    N1 7484   1.283   3.440  16.737 -0.0058 -0.2942 -0.0318
  503MPD2    H7 7485   1.299   3.453  16.837  0.3163 -1.6945  0.1108
  504TMC3    C1 7486   1.590   2.835  16.914  0.0573  0.8165  0.6231
  504TMC3    C2 7487   1.543   2.858  17.042  0.0113  0.6651 -0.3028
  504TMC3    C3 7488   1.589   2.773  17.142  0.4318 -0.4257 -0.1925
  504TMC3    C4 7489   1.684   2.731  16.896  0.0606 -0.3882  0.0959
  504TMC3    C5 7490   1.738   2.669  17.006 -0.9139 -0.6354 -0.0989
  504TMC3    C6 7491   1.684   2.673  17.129 -0.5419 -0.4803  0.3176
  504TMC3     C 7492   1.539   2.894  16.797 -0.6441  0.7989 -0.6724
  504TMC3     O 7493   1.570   2.843  16.691 -0.0646 -0.1971 -0.1387
  504TMC3     H 7494   1.469   2.938  17.050 -0.4681  0.1368  0.6180
  504TMC3    H1 7495   1.715   2.712  16.794 -1.1028  0.0258 -0.3417
  504TMC3    H2 7496   1.720   2.603  17.204 -0.1986 -2.2622 -1.4879
  504TMC3    C7 7497   1.845   2.570  16.978 -0.2154  0.2645  0.9579
  504TMC3    C8 7498   1.527   2.796  17.266  0.2922  0.4514  0.6298
  504TMC3    O1 7499   1.864   2.560  16.858  0.1424 -0.1921  0.1253
  504TMC3    O2 7500   1.477   2.905  17.284  0.6928 -0.0078  0.5108
  505MPD2     C 7501   1.602   1.860   9.957  0.1382 -0.2415  0.1442
  505MPD2    C1 7502   1.608   1.865  10.099  0.4385 -1.2764 -0.2535
  505MPD2    C2 7503   1.631   1.983  10.157 -0.4032 -0.2517 -0.8592
  505MPD2    C3 7504   1.654   2.096  10.084 -0.2377 -0.0853  0.1286
  505MPD2    C4 7505   1.646   2.094   9.947 -0.0964  0.1364  0.0783
  505MPD2    C5 7506   1.607   1.975   9.881 -0.0762  0.3917  0.2834
  505MPD2     H 7507   1.631   1.998  10.264 -1.8624  2.0405 -1.1918
  505MPD2    H1 7508   1.667   2.181   9.885 -1.3359  0.5999  0.3143
  505MPD2    H2 7509   1.580   1.764   9.911 -0.2892 -0.0421 -0.0649
  505MPD2    H3 7510   1.603   1.969   9.773  1.0208  0.2103  0.2595
  505MPD2     N 7511   1.688   2.215  10.155 -0.2311 -0.1548  0.6135
  505MPD2    H5 7512   1.700   2.205  10.255  1.4023 -1.1139  0.3207
  505MPD2    N1 7513   1.604   1.742  10.169 -0.5462  0.7311  0.5936
  505MPD2    H7 7514   1.583   1.656  10.120 -0.5336  1.6340 -0.9853
  506TMC3    C1 7515   1.682   1.588  10.326 -0.0215 -0.0088  0.5992
  506TMC3    C2 7516   1.784   1.537  10.244 -0.9720 -0.2069 -0.7197
  506TMC3    C3 7517   1.897   1.487  10.301  0.2850 -0.4807 -0.0036
  506TMC3    C4 7518   1.703   1.593  10.459  0.3566  0.2722 -0.1228
  506TMC3    C5 7519   1.820   1.545  10.508 -0.2743  0.3383  0.6377
  506TMC3    C6 7520   1.916   1.483  10.436  0.3174 -0.0376 -0.1325
  506TMC3     C 7521   1.645   1.720  10.300 -1.2690  0.3411 -0.0178
  506TMC3     O 7522   1.676   1.810  10.378 -0.1052 -0.0668  0.3085
  506TMC3     H 7523   1.760   1.525  10.139  1.0638  0.8864 -1.3246
  506TMC3    H1 7524   1.626   1.633  10.524 -0.9091 -0.1853 -1.3445
  506TMC3    H2 7525   2.005   1.445  10.485  0.9756  0.8475 -0.6329
  506TMC3    C7 7526   1.870   1.613  10.621 -0.6316 -0.0166  0.3789
  506TMC3    C8 7527   1.999   1.429  10.220 -0.4461  0.8037  0.3560
  506TMC3    O1 7528   1.962   1.569  10.691  0.3497 -0.1208  0.3012
  506TMC3    O2 7529   2.057   1.337  10.271 -0.1016 -0.1232 -0.2463
  507TMC3    C1 7530   2.396   2.651  14.550 -0.8921 -0.1216  0.0105
  507TMC3    C2 7531   2.324   2.598  14.447  0.2529 -0.3252  0.7003
  507TMC3    C3 7532   2.371   2.613  14.322  1.0264  0.0408 -0.4614
  507TMC3    C4 7533   2.514   2.719  14.523  0.4604  0.4828  0.1259
  507TMC3    C5 7534   2.567   2.726  14.398 -0.4758 -0.5081 -0.5524
  507TMC3    C6 7535   2.491   2.669  14.302  0.3228  0.0045  0.1803
  507TMC3     C 7536   2.328   2.687  14.667 -0.6177 -0.7604 -0.0156
  507TMC3     O 7537   2.400   2.720  14.760  0.7360  0.4607 -0.3172
  507TMC3     H 7538   2.227   2.552  14.467 -0.7857  0.6344 -2.1449
  507TMC3    H1 7539   2.564   2.775  14.601  0.9501  1.5339 -0.9579
  507TMC3    H2 7540   2.537   2.655  14.205 -0.6920  0.9540 -0.4374
  507TMC3    C7 7541   2.585   2.860  14.348 -0.1201 -0.2259  0.1805
  507TMC3    C8 7542   2.278   2.628  14.217 -0.1342 -1.0208  0.3011
  507TMC3    O1 7543   2.537   2.883  14.240  0.0488 -0.0794 -0.1742
  507TMC3    O2 7544   2.172   2.571  14.210  0.1583  0.3085 -0.0260
  508MPD2     C 7545   3.498   0.346  15.910  0.0872 -0.1549 -0.4125
  508MPD2    C1 7546   3.445   0.473  15.923 -0.4478  0.4307 -0.3291
  508MPD2    C2 7547   3.352   0.517  15.830 -0.9062 -0.1510 -0.1875
  508MPD2    C3 7548   3.328   0.440  15.716  0.2858 -0.3588  0.2036
  508MPD2    C4 7549   3.398   0.320  15.693 -0.4068 -0.5662 -0.1052
  508MPD2    C5 7550   3.472   0.270  15.797  0.6911  0.0893 -0.1960
  508MPD2     H 7551   3.300   0.611  15.845  0.3851  0.8034 -1.6862
  508MPD2    H1 7552   3.374   0.253  15.611  1.1894 -1.1535 -0.0945
  508MPD2    H2 7553   3.567   0.305  15.983  0.2333  0.5281 -0.1651
  508MPD2    H3 7554   3.510   0.169  15.786  0.6192  0.0720 -0.2790
  508MPD2     N 7555   3.231   0.496  15.633 -0.6368  0.1285  0.3960
  508MPD2    H5 7556   3.192   0.584  15.664 -1.0748  0.0986 -0.0731
  508MPD2    N1 7557   3.484   0.554  16.032 -0.4994 -0.0578  0.0778
  508MPD2    H7 7558   3.541   0.506  16.102 -0.7056  0.0495  0.3194
  509TMC3    C1 7559   3.072   0.580  15.198 -0.2521 -0.5522  0.4373
  509TMC3    C2 7560   3.159   0.690  15.190  0.0153  0.3108  0.3653
  509TMC3    C3 7561   3.231   0.730  15.299  0.2857  0.0932  0.1728
  509TMC3    C4 7562   3.080   0.504  15.315 -0.2913 -0.3308 -0.6812
  509TMC3    C5 7563   3.158   0.539  15.418  0.0455 -0.3400  0.2997
  509TMC3    C6 7564   3.224   0.656  15.414 -1.1447 -0.5722 -0.4296
  509TMC3     C 7565   2.942   0.610  15.142  0.8805 -0.4082 -0.6307
  509TMC3     O 7566   2.863   0.522  15.109  0.2331 -0.3563 -0.2272
  509TMC3     H 7567   3.177   0.741  15.097 -1.7268  0.5221  0.1463
  509TMC3    H1 7568   3.010   0.422  15.325  2.3893 -2.6282 -0.7562
  509TMC3    H2 7569   3.279   0.686  15.502 -0.9549  0.1791 -0.8055
  509TMC3    C7 7570   3.183   0.444  15.518 -0.5733 -0.5116  0.6222
  509TMC3    C8 7571   3.334   0.826  15.269  0.1706  0.4885  0.3279
  509TMC3    O1 7572   3.176   0.325  15.481 -0.4248 -0.5339  0.0633
  509TMC3    O2 7573   3.370   0.833  15.149 -0.7632 -0.6994 -0.0984
  510MPD2     C 7574   1.006   2.057  14.308 -0.5422  0.1582  0.4612
  510MPD2    C1 7575   1.097   1.997  14.394 -0.0715 -0.2430 -0.0041
  510MPD2    C2 7576   1.238   2.011  14.371 -0.1108 -0.8774 -0.2919
  510MPD2    C3 7577   1.289   2.104  14.288  0.1290 -0.3304  0.0160
  510MPD2    C4 7578   1.194   2.173  14.213 -0.4328  0.1281  0.2209
  510MPD2    C5 7579   1.056   2.154  14.225 -0.2194  0.4371 -0.0038
  510MPD2     H 7580   1.304   1.953  14.434 -3.1900 -2.2360  1.7080
  510MPD2    H1 7581   1.223   2.252  14.145  1.5190 -1.1582 -0.4530
  510MPD2    H2 7582   0.900   2.043  14.323 -0.6276  1.9905  1.6613
  510MPD2    H3 7583   0.991   2.205  14.155  1.9949  0.2140 -2.2235
  510MPD2     N 7584   1.435   2.129  14.276  0.7217  0.3896  0.0771
  510MPD2    H5 7585   1.500   2.083  14.338  1.6141  0.3689 -0.8751
  510MPD2    N1 7586   1.050   1.912  14.492  0.6603 -0.3852 -0.0343
  510MPD2    H7 7587   0.953   1.882  14.491 -0.3875  3.0257 -0.5213
  511TMC3    C1 7588   1.032   1.774  14.670 -0.7543 -0.5396  0.2924
  511TMC3    C2 7589   0.935   1.822  14.749  0.4761 -0.4014 -0.2679
  511TMC3    C3 7590   0.854   1.734  14.820 -0.3178 -0.7869 -0.2183
  511TMC3    C4 7591   1.063   1.646  14.674  0.1127 -0.6625  0.3987
  511TMC3    C5 7592   0.983   1.557  14.737 -0.7984  0.2873 -0.9798
  511TMC3    C6 7593   0.876   1.596  14.820  0.0211 -0.6336 -0.1443
  511TMC3     C 7594   1.117   1.863  14.595 -0.2512  0.8243 -0.6181
  511TMC3     O 7595   1.216   1.902  14.657  0.0271 -0.0705 -0.1305
  511TMC3     H 7596   0.912   1.928  14.757  0.6889 -0.2370 -1.7558
  511TMC3    H1 7597   1.154   1.619  14.623  0.6132 -0.1295  1.0047
  511TMC3    H2 7598   0.808   1.519  14.855  1.5643 -2.9938 -2.3899
  511TMC3    C7 7599   0.974   1.430  14.671  0.2038  0.7194 -0.4644
  511TMC3    C8 7600   0.761   1.792  14.918 -0.5410 -0.6020  0.7749
  511TMC3    O1 7601   1.044   1.412  14.571 -0.2648 -0.3474  0.6132
  511TMC3    O2 7602   0.741   1.911  14.931  0.3666  0.0855 -0.1966
  512TMC3    C1 7603   0.438   1.539  12.797 -0.2360  0.2339 -0.6497
  512TMC3    C2 7604   0.510   1.536  12.913 -0.0442 -0.2041 -0.6493
  512TMC3    C3 7605   0.556   1.414  12.961  0.0603 -0.9659 -0.4817
  512TMC3    C4 7606   0.425   1.425  12.724  0.0529  0.4394  0.1532
  512TMC3    C5 7607   0.485   1.314  12.769 -0.4834  0.2857 -0.4679
  512TMC3    C6 7608   0.551   1.305  12.886 -0.2576 -0.3826 -0.4079
  512TMC3     C 7609   0.329   1.633  12.810  0.0018 -0.0223  0.5278
  512TMC3     O 7610   0.311   1.680  12.921 -0.6924 -0.5099 -0.3202
  512TMC3     H 7611   0.534   1.628  12.966  0.6716 -0.7982  0.0654
  512TMC3    H1 7612   0.365   1.418  12.634  0.0481 -0.8626  0.2557
  512TMC3    H2 7613   0.589   1.209  12.920 -1.8382 -0.3465  1.4940
  512TMC3    C7 7614   0.519   1.214  12.663  0.0957  0.2649  0.1322
  512TMC3    C8 7615   0.521   1.379  13.093  0.2596  0.0335 -0.6549
  512TMC3    O1 7616   0.497   1.258  12.550  0.6814 -0.3134  0.0361
  512TMC3    O2 7617   0.568   1.273  13.143 -0.2293 -0.4013 -0.3010
  513MPD2     C 7618   1.494   2.310  12.809 -0.0857 -0.0148 -0.0484
  513MPD2    C1 7619   1.459   2.188  12.767  0.0037 -0.0913 -0.5818
  513MPD2    C2 7620   1.485   2.086  12.847  0.0572  0.4526 -0.0655
  513MPD2    C3 7621   1.538   2.091  12.967 -0.2320  1.0719 -0.5308
  513MPD2    C4 7622   1.580   2.214  13.010  0.3290 -0.4389 -0.3154
  513MPD2    C5 7623   1.568   2.320  12.924 -0.1760  0.8009  0.5047
  513MPD2     H 7624   1.441   1.992  12.815  0.8430  0.1157 -0.1336
  513MPD2    H1 7625   1.639   2.218  13.101  0.5392 -0.4269 -0.4521
  513MPD2    H2 7626   1.472   2.402  12.756  3.8439  2.6998  3.0742
  513MPD2    H3 7627   1.610   2.414  12.959 -0.6462  1.4349 -0.6683
  513MPD2     N 7628   1.555   1.962  13.030 -0.3991  0.0742  0.7465
  513MPD2    H5 7629   1.519   1.881  12.981 -0.5639 -0.0649  1.1059
  513MPD2    N1 7630   1.382   2.181  12.648  0.4942  0.1757  0.3479
  513MPD2    H7 7631   1.360   2.270  12.605  3.6856  0.6835 -0.2363
  514TMC3    C1 7632   1.289   2.086  12.450  0.1290  0.2249  0.8378
  514TMC3    C2 7633   1.374   2.158  12.371 -0.2111  0.0214 -0.2923
  514TMC3    C3 7634   1.415   2.097  12.258 -0.0141 -0.5015  0.4143
  514TMC3    C4 7635   1.236   1.959  12.408  0.3257  0.9113  0.3494
  514TMC3    C5 7636   1.275   1.919  12.286 -0.0327  0.7987 -0.2780
  514TMC3    C6 7637   1.366   1.979  12.208 -0.8056  0.3932 -1.3576
  514TMC3     C 7638   1.346   2.065  12.582 -0.1933  0.4480 -0.1765
  514TMC3     O 7639   1.347   1.945  12.618  0.2807  0.2969  0.4416
  514TMC3     H 7640   1.433   2.237  12.417 -1.7577  1.1741 -0.2851
  514TMC3    H1 7641   1.162   1.906  12.466  0.7306 -0.4446 -0.3681
  514TMC3    H2 7642   1.415   1.930  12.124  0.7837  0.5914 -0.5479
  514TMC3    C7 7643   1.304   1.778  12.289 -0.5518 -0.4192  0.3167
  514TMC3    C8 7644   1.545   2.147  12.210  0.0546  0.5594 -0.2718
  514TMC3    O1 7645   1.328   1.711  12.189 -0.1464 -0.2317 -0.0058
  514TMC3    O2 7646   1.586   2.246  12.264 -0.6150  0.3088 -0.1916
  515MPD2     C 7647   0.205   2.786  14.150  0.0235  0.1568 -0.1942
  515MPD2    C1 7648   0.110   2.870  14.210 -1.2928 -0.3916 -0.5911
  515MPD2    C2 7649   0.143   2.996  14.269  0.0607  0.0098 -0.3881
  515MPD2    C3 7650   0.277   3.035  14.274 -0.8438  0.3202  0.0820
  515MPD2    C4 7651   0.366   2.956  14.208 -0.2239 -0.4360  0.0534
  515MPD2    C5 7652   0.331   2.835  14.146 -0.5359 -0.6054  0.7125
  515MPD2     H 7653   0.074   3.060  14.323 -0.9675 -1.9522  0.6142
  515MPD2    H1 7654   0.472   2.979  14.207 -0.3616  0.1791 -0.1997
  515MPD2    H2 7655   0.200   2.692  14.095 -0.7946  0.2969 -0.3463
  515MPD2    H3 7656   0.412   2.784  14.095 -0.4086  0.0303  0.2803
  515MPD2     N 7657   0.335   3.137  14.350 -0.5083 -0.0850 -0.3756
  515MPD2    H5 7658   0.436   3.136  14.353 -0.5692 -2.5566  0.4177
  515MPD2    N1 7659   4.690   2.843  14.224  0.1818 -0.0484 -0.7787
  515MPD2    H7 7660   4.630   2.915  14.264 -1.0076  0.2351 -3.0859
  516TMC3    C1 7661   4.505   2.694  14.237 -0.4054 -0.2958  0.9015
  516TMC3    C2 7662   4.428   2.804  14.209 -0.0467 -0.0108  0.2278
  516TMC3    C3 7663   4.293   2.793  14.235  0.0422 -0.1718 -0.0804
  516TMC3    C4 7664   4.459   2.583  14.302 -0.1664 -0.6681 -0.4570
  516TMC3    C5 7665   4.328   2.581  14.345  0.8427  0.1258 -0.0372
  516TMC3    C6 7666   4.242   2.689  14.309  0.3181  0.1399 -0.0179
  516TMC3     C 7667   4.642   2.716  14.208 -0.4863 -0.5158 -0.1135
  516TMC3     O 7668   4.706   2.617  14.173  0.6389 -0.4493 -0.2012
  516TMC3     H 7669   4.466   2.872  14.134  0.8325  1.4448  1.9796
  516TMC3    H1 7670   4.524   2.502  14.335  1.8007  0.2871 -1.9784
  516TMC3    H2 7671   4.140   2.692  14.348  0.3088 -1.1877  0.0816
  516TMC3    C7 7672   4.286   2.476  14.435  0.0982  0.1170 -0.0102
  516TMC3    C8 7673   4.198   2.887  14.182  0.1539 -0.7757  0.6299
  516TMC3    O1 7674   4.376   2.408  14.487  0.0693  0.0592 -0.2938
  516TMC3    O2 7675   4.083   2.857  14.206  0.2658 -0.1820  0.5701
  517MPD2     C 7676   4.264   4.560  17.557 -0.1271  0.0530 -0.3483
  517MPD2    C1 7677   4.400   4.586  17.560  0.0259 -0.2840 -0.3247
  517MPD2    C2 7678   4.439   4.693  17.646  0.3006 -0.1215 -0.1251
  517MPD2    C3 7679   4.349   0.060   0.012  0.8328  0.3974 -0.0341
  517MPD2    C4 7680   4.213   0.030  17.680  1.0918 -0.1830  0.4138
  517MPD2    C5 7681   4.169   4.643  17.617 -0.0291 -0.1301  0.5765
  517MPD2     H 7682   4.543   4.719  17.661  0.7384 -2.2159  0.5485
  517MPD2    H1 7683   4.140   0.098   0.034  0.7446 -0.8681  0.9279
  517MPD2    H2 7684   4.219   4.487  17.491 -0.4897  1.0440 -1.2087
  517MPD2    H3 7685   4.066   4.615  17.598 -0.3519  0.1708  1.8287
  517MPD2     N 7686   4.387   0.159   0.103 -0.0896 -0.6357 -0.0472
  517MPD2    H5 7687   4.311   0.210   0.148  0.3025  0.2269 -0.3611
  517MPD2    N1 7688   4.495   4.507  17.485  0.2390 -0.0042 -0.0555
  517MPD2    H7 7689   4.590   4.534  17.507  0.6242  0.1560 -1.8563
  518TMC3    C1 7690   4.571   4.336  17.333  0.0968 -0.4975 -0.4466
  518TMC3    C2 7691   4.549   4.227  17.258  0.0241 -0.5885  0.1795
  518TMC3    C3 7692   4.648   4.175  17.181 -0.1649 -0.5000  0.9227
  518TMC3    C4 7693   4.693   4.398  17.337 -0.6426 -0.4498  0.0251
  518TMC3    C5 7694   0.067   4.337  17.259  0.0590  0.1162 -0.2911
  518TMC3    C6 7695   0.048   4.227  17.179 -0.6336  0.7719 -0.1221
  518TMC3     C 7696   4.462   4.396  17.412 -0.4232 -0.1306 -0.0453
  518TMC3     O 7697   4.358   4.335  17.405 -0.5860 -0.9240 -0.9044
  518TMC3     H 7698   4.450   4.183  17.254 -0.8059  1.2652  0.4934
  518TMC3    H1 7699   4.720   4.490  17.387 -0.0422 -0.7147  0.1920
  518TMC3    H2 7700   0.121   4.188  17.109 -0.1816  0.5614  0.4770
  518TMC3    C7 7701   0.204   4.381  17.278 -0.1969 -0.5445 -0.6463
  518TMC3    C8 7702   4.632   4.039  17.131  0.0508  0.7004 -0.1397
  518TMC3    O1 7703   0.222   4.495  17.317 -0.0361 -0.1684 -0.1908
  518TMC3    O2 7704   0.009   3.963  17.128 -0.0405  0.1348 -0.1480
  519MPD2     C 7705   1.554   3.365  13.890  0.0268  0.2803  0.4814
  519MPD2    C1 7706   1.444   3.297  13.901  0.6016  0.6580  0.1553
  519MPD2    C2 7707   1.440   3.169  13.867  0.1413 -0.7837  0.3845
  519MPD2    C3 7708   1.559   3.103  13.834  0.2316 -0.3731  0.0895
  519MPD2    C4 7709   1.677   3.170  13.827  0.5560  0.7369  0.2292
  519MPD2    C5 7710   1.674   3.304  13.854 -0.4079  0.4103 -0.0302
  519MPD2     H 7711   1.346   3.115  13.875 -0.1177 -0.7317 -2.4863
  519MPD2    H1 7712   1.771   3.121  13.806 -1.0577 -2.4541  0.5110
  519MPD2    H2 7713   1.556   3.472  13.906  0.8189 -0.0050  2.3868
  519MPD2    H3 7714   1.761   3.368  13.839 -1.4101  1.5290 -1.0669
  519MPD2     N 7715   1.571   2.964  13.805 -0.1332  0.3150  0.0331
  519MPD2    H5 7716   1.664   2.926  13.793  0.1382  0.9578  0.0700
  519MPD2    N1 7717   1.333   3.369  13.942 -0.0385 -0.3493  0.1294
  519MPD2    H7 7718   1.341   3.468  13.961 -1.0948 -0.4018  0.8576
  520TMC3    C1 7719   1.503   2.745  13.738 -0.4577  0.4565 -0.2407
  520TMC3    C2 7720   1.394   2.658  13.712  0.1022  0.2474 -0.2937
  520TMC3    C3 7721   1.415   2.528  13.728 -0.2174  0.5765 -0.1834
  520TMC3    C4 7722   1.629   2.697  13.756 -0.9350  0.0974 -0.2170
  520TMC3    C5 7723   1.639   2.558  13.764 -0.0205  0.2843 -0.1005
  520TMC3    C6 7724   1.536   2.474  13.763  0.4114  0.5271  0.4405
  520TMC3     C 7725   1.469   2.881  13.772 -0.6170  0.3248 -0.3437
  520TMC3     O 7726   1.349   2.911  13.755  0.0464 -0.3698 -0.2210
  520TMC3     H 7727   1.292   2.691  13.701  0.2336  1.2643  1.6416
  520TMC3    H1 7728   1.723   2.750  13.768 -0.5921 -0.1809 -1.6599
  520TMC3    H2 7729   1.550   2.367  13.776 -1.4937  0.2663  0.3665
  520TMC3    C7 7730   1.753   2.501  13.828  0.5008 -0.8885  0.5543
  520TMC3    C8 7731   1.315   2.434  13.673  0.0513 -0.4860 -0.3893
  520TMC3    O1 7732   1.735   2.406  13.901  0.3935 -0.5211 -0.2929
  520TMC3    O2 7733   1.337   2.320  13.700 -0.7493  0.1316  0.1137
  521MPD2     C 7734   2.028   1.366  17.074  1.2305  0.4006 -0.4717
  521MPD2    C1 7735   2.058   1.236  17.032 -0.2006  0.1237  0.0224
  521MPD2    C2 7736   2.190   1.195  17.006 -0.2155 -0.1384  0.4650
  521MPD2    C3 7737   2.291   1.290  17.015  0.5106 -0.0813  0.0198
  521MPD2    C4 7738   2.262   1.419  17.061 -0.9101 -0.2785 -0.4855
  521MPD2    C5 7739   2.136   1.455  17.091 -0.5828 -0.1344  0.8302
  521MPD2     H 7740   2.208   1.092  16.977 -2.5328 -0.3003 -0.3735
  521MPD2    H1 7741   2.341   1.491  17.081 -0.4079 -1.5861  2.2940
  521MPD2    H2 7742   1.925   1.401  17.079  1.3605  0.5353  1.1688
  521MPD2    H3 7743   2.119   1.560  17.112 -0.5778  0.2381 -1.0658
  521MPD2     N 7744   2.417   1.252  16.967  0.0985  0.1446 -0.5526
  521MPD2    H5 7745   2.417   1.171  16.906  0.7159 -0.7854  0.6806
  521MPD2    N1 7746   1.942   1.158  17.007  0.2385 -0.1242  0.3069
  521MPD2    H7 7747   1.855   1.191  17.047 -0.8570 -0.9231 -1.3792
  522TMC3    C1 7748   2.632   1.308  16.873 -0.2798 -0.0918  0.1398
  522TMC3    C2 7749   2.757   1.340  16.905 -0.5318 -0.5503 -0.1594
  522TMC3    C3 7750   2.858   1.297  16.818 -0.9305 -0.1172  0.0745
  522TMC3    C4 7751   2.603   1.250  16.753 -0.1468 -0.3991 -1.0746
  522TMC3    C5 7752   2.699   1.223  16.661 -0.4225 -0.4021  0.2671
  522TMC3    C6 7753   2.833   1.241  16.693  0.4171 -0.0032 -1.0470
  522TMC3     C 7754   2.532   1.324  16.984  0.4317 -0.7342  0.5335
  522TMC3     O 7755   2.564   1.407  17.070  0.4493 -0.0489 -0.0230
  522TMC3     H 7756   2.786   1.388  16.997 -1.5161  0.2513 -0.2669
  522TMC3    H1 7757   2.499   1.241  16.721 -0.1021  0.0399 -1.3395
  522TMC3    H2 7758   2.906   1.207  16.620 -2.7276 -1.3179 -3.5576
  522TMC3    C7 7759   2.668   1.151  16.542 -0.2127 -0.2639 -0.3480
  522TMC3    C8 7760   2.995   1.277  16.868  0.4643 -0.0534 -0.3389
  522TMC3    O1 7761   2.751   1.068  16.499  0.1895  0.4158 -0.0588
  522TMC3    O2 7762   3.031   1.354  16.958  0.4295  0.1895 -0.4479
  523MPD2     C 7763   0.203   1.103  10.198 -0.3945 -0.0584  0.1138
  523MPD2    C1 7764   0.164   1.063  10.076 -0.4924 -0.6305  0.1959
  523MPD2    C2 7765   0.108   1.157   9.989  0.1882  0.0106 -0.7264
  523MPD2    C3 7766   0.119   1.289  10.020  0.4614  0.1413 -0.2658
  523MPD2    C4 7767   0.183   1.328  10.133  0.5052  0.4408 -0.1715
  523MPD2    C5 7768   0.224   1.235  10.226  0.3400 -0.7153  0.0384
  523MPD2     H 7769   0.073   1.124   9.892 -0.5339 -0.9312 -0.1507
  523MPD2    H1 7770   0.195   1.434  10.155  3.8362  0.6032 -2.8233
  523MPD2    H2 7771   0.224   1.029  10.275  1.2251 -0.8522 -1.0821
  523MPD2    H3 7772   0.264   1.268  10.321  1.5033  0.4641 -0.8732
  523MPD2     N 7773   0.067   1.393   9.940  0.0561 -0.5557 -0.7247
  523MPD2    H5 7774   0.077   1.485   9.982  0.1808  0.3686 -2.7757
  523MPD2    N1 7775   0.162   0.924  10.052 -0.6138 -0.0497 -0.5253
  523MPD2    H7 7776   0.181   0.863  10.131 -3.0124 -0.4385 -0.2386
  524TMC3    C1 7777   4.688   1.516   9.772  0.5093  0.1473 -1.1723
  524TMC3    C2 7778   0.055   1.617   9.785  0.1472 -0.2538 -0.9413
  524TMC3    C3 7779   0.027   1.723   9.713 -0.6793 -0.9543 -0.7751
  524TMC3    C4 7780   4.573   1.528   9.700 -0.3764 -0.5046  0.0046
  524TMC3    C5 7781   4.540   1.646   9.641 -0.4159 -0.2976 -0.7495
  524TMC3    C6 7782   4.633   1.749   9.643 -0.3483  0.5658 -0.1740
  524TMC3     C 7783   4.718   1.378   9.822 -0.2706  0.2074  0.5718
  524TMC3     O 7784   4.652   1.284   9.776  0.8454  0.1442 -0.7030
  524TMC3     H 7785   0.159   1.600   9.807 -0.1601  1.3668  1.8890
  524TMC3    H1 7786   4.502   1.446   9.701 -0.7138 -0.2095  0.4082
  524TMC3    H2 7787   4.618   1.841   9.587 -1.0272  0.4640 -0.1680
  524TMC3    C7 7788   4.396   1.673   9.633  0.1258  0.4469 -0.0425
  524TMC3    C8 7789   0.132   1.820   9.716  0.0372  0.2374  0.2706
  524TMC3    O1 7790   4.322   1.583   9.673  0.5816 -0.5915 -0.9834
  524TMC3    O2 7791   0.203   1.833   9.810  0.3041  0.1953  0.2024
  525MPD2     C 7792   2.634   2.277  14.512 -0.5333 -0.8176 -0.4353
  525MPD2    C1 7793   2.762   2.267  14.583 -0.4579 -0.6431  0.5344
  525MPD2    C2 7794   2.874   2.327  14.527  0.0715  0.6790  0.4397
  525MPD2    C3 7795   2.863   2.402  14.414 -0.1014 -0.2053  0.5839
  525MPD2    C4 7796   2.740   2.425  14.355  0.1742  0.7295  0.3628
  525MPD2    C5 7797   2.626   2.360  14.406  0.4041 -0.1330  0.5584
  525MPD2     H 7798   2.972   2.304  14.567 -0.6658  0.5942  2.2019
  525MPD2    H1 7799   2.721   2.485  14.267  1.8473 -0.8450 -1.0699
  525MPD2    H2 7800   2.543   2.230  14.548 -0.9337 -0.8400 -1.4821
  525MPD2    H3 7801   2.541   2.376  14.342  2.0937  0.0094 -1.6527
  525MPD2     N 7802   2.966   2.473  14.346 -0.1983  0.1174 -0.0791
  525MPD2    H5 7803   2.942   2.555  14.292  1.1757  1.0135  0.6579
  525MPD2    N1 7804   2.777   2.197  14.700  0.0410  0.0622  0.6522
  525MPD2    H7 7805   2.872   2.192  14.734  0.2469  0.9335  0.2024
  526TMC3    C1 7806   2.732   2.035  14.876 -0.5803  0.3792 -0.1949
  526TMC3    C2 7807   2.650   2.014  14.987  0.4137  0.0455 -0.1577
  526TMC3    C3 7808   2.689   1.935  15.092  0.0351 -0.2804  0.0705
  526TMC3    C4 7809   2.864   2.004  14.887  0.1969 -0.0291 -0.1776
  526TMC3    C5 7810   2.907   1.925  14.997 -0.5094  0.3689  0.1718
  526TMC3    C6 7811   2.815   1.891  15.098  0.0697  0.0833 -0.3028
  526TMC3     C 7812   2.679   2.124  14.765 -0.3313  0.1082  0.4653
  526TMC3     O 7813   2.559   2.120  14.743  0.7538  0.4147  0.0354
  526TMC3     H 7814   2.550   2.058  14.982  0.1950 -0.0947  2.5743
  526TMC3    H1 7815   2.935   2.030  14.809  0.8893 -1.0950  0.0943
  526TMC3    H2 7816   2.848   1.830  15.182  0.4832  0.8306  0.0817
  526TMC3    C7 7817   3.045   1.890  15.022 -0.3723  0.1421  0.5161
  526TMC3    C8 7818   2.616   1.939  15.220  0.6189  0.4523 -0.0309
  526TMC3    O1 7819   3.080   1.874  15.138 -0.5245 -0.5512 -0.3968
  526TMC3    O2 7820   2.659   1.874  15.315  0.5230 -0.4476  0.0553
  527MPD2     C 7821   0.610   0.510   0.911 -0.0593  0.2591  0.0300
  527MPD2    C1 7822   0.654   0.423   1.012 -0.0686 -0.4947 -0.6994
  527MPD2    C2 7823   0.782   0.363   0.992 -0.2238  0.2452  0.2469
  527MPD2    C3 7824   0.844   0.382   0.867 -0.1103  0.6640  0.9171
  527MPD2    C4 7825   0.790   0.462   0.766  0.1254 -0.2395  0.4170
  527MPD2    C5 7826   0.668   0.526   0.788  0.2754  0.3227 -0.2441
  527MPD2     H 7827   0.828   0.300   1.067  0.0005  1.5554  1.2295
  527MPD2    H1 7828   0.847   0.494   0.680  1.0100 -0.6104  0.8539
  527MPD2    H2 7829   0.511   0.554   0.917 -0.3993 -0.4518 -0.3401
  527MPD2    H3 7830   0.630   0.600   0.719 -0.7914  0.1158  0.1092
  527MPD2     N 7831   0.968   0.314   0.842  0.2307  0.2742  0.3482
  527MPD2    H5 7832   1.013   0.268   0.920  0.3377  0.1290  0.2000
  527MPD2    N1 7833   0.588   0.398   1.132  0.0946  0.3937 -0.2475
  527MPD2    H7 7834   0.633   0.342   1.203 -0.1842 -1.5306 -1.6124
  528TMC3    C1 7835   0.398   0.369   1.275  0.5775  0.0648 -0.3991
  528TMC3    C2 7836   0.485   0.364   1.385 -0.0774  0.4913 -0.5068
  528TMC3    C3 7837   0.429   0.325   1.505 -0.7459  0.9551 -0.8827
  528TMC3    C4 7838   0.262   0.343   1.279 -0.3130  0.5108 -0.4851
  528TMC3    C5 7839   0.213   0.299   1.401  0.0556 -0.9577 -0.3206
  528TMC3    C6 7840   0.295   0.294   1.518 -0.6175  0.6127 -0.3623
  528TMC3     C 7841   0.454   0.418   1.151 -0.1634  0.1506 -0.0404
  528TMC3     O 7842   0.380   0.457   1.061 -0.3747  0.4973 -0.3607
  528TMC3     H 7843   0.586   0.403   1.373 -0.3366  1.1390 -0.5957
  528TMC3    H1 7844   0.208   0.350   1.185 -2.3501 -1.8149  0.5168
  528TMC3    H2 7845   0.248   0.280   1.614  1.5309 -1.2584  0.4196
  528TMC3    C7 7846   0.071   0.270   1.418 -0.3929 -0.2916 -0.1781
  528TMC3    C8 7847   0.519   0.292   1.611  0.5412  1.2436 -0.2436
  528TMC3    O1 7848   0.036   0.241   1.535  0.0313 -0.5313 -0.0167
  528TMC3    O2 7849   0.635   0.326   1.604  0.4984  0.3483 -0.6506
  529MPD2     C 7850   4.246   3.169  17.642  0.1269  0.1162 -0.1155
  529MPD2    C1 7851   4.107   3.146  17.646  0.4160  0.2006  0.3638
  529MPD2    C2 7852   4.019   3.233  17.590  0.1191  0.3133 -0.1136
  529MPD2    C3 7853   4.065   3.354  17.539  0.6348  0.4001 -0.0434
  529MPD2    C4 7854   4.196   3.374  17.533 -0.1417 -0.1979 -0.2472
  529MPD2    C5 7855   4.288   3.277  17.565 -0.3259 -0.0865  0.4378
  529MPD2     H 7856   3.916   3.203  17.600  0.2802 -0.2312 -0.0887
  529MPD2    H1 7857   4.227   3.461  17.476  3.0713 -1.1424  0.0841
  529MPD2    H2 7858   4.316   3.090  17.668 -1.2180 -0.7650  0.7646
  529MPD2    H3 7859   4.390   3.291  17.533 -0.7756  0.0224 -0.9413
  529MPD2     N 7860   3.990   3.458  17.485  0.1037  0.1521 -0.0068
  529MPD2    H5 7861   4.044   3.532  17.440  2.3838 -0.5665  1.5283
  529MPD2    N1 7862   4.054   3.035   0.012 -0.2543 -0.5016 -0.2373
  529MPD2    H7 7863   3.956   3.030  17.674 -0.0095 -3.1634 -0.6591
  530TMC3    C1 7864   4.015   2.875   0.169 -0.5742  0.5777  0.5888
  530TMC3    C2 7865   4.018   2.863   0.304  0.3382 -0.4573  0.4396
  530TMC3    C3 7866   3.903   2.822   0.354 -0.3241  0.5091 -0.6017
  530TMC3    C4 7867   3.902   2.850   0.098 -0.6680 -0.5861  0.6761
  530TMC3    C5 7868   3.802   2.779   0.154 -0.5936 -0.5580 -0.3837
  530TMC3    C6 7869   3.797   2.769   0.288 -0.1897  0.8434  0.8174
  530TMC3     C 7870   4.109   2.954   0.110 -1.1181 -0.4117  0.4679
  530TMC3     O 7871   4.215   2.970   0.172  0.1812 -0.4195  0.8379
  530TMC3     H 7872   4.092   2.923   0.357 -2.5708  2.0099  1.7331
  530TMC3    H1 7873   3.893   2.863  17.679 -1.3034 -0.1570  0.7841
  530TMC3    H2 7874   3.721   2.713   0.341 -1.4291  1.8680  0.0973
  530TMC3    C7 7875   3.679   2.804   0.088 -0.7083 -0.0524 -0.5941
  530TMC3    C8 7876   3.863   2.867   0.484 -1.3171  0.0707  0.5805
  530TMC3    O1 7877   3.667   2.888   0.001  0.3311 -0.6538 -0.3250
  530TMC3    O2 7878   3.744   2.881   0.498 -0.1340  0.4172  0.1040
  531MPD2     C 7879   1.572   1.429  12.574  0.0726  0.6572 -0.6924
  531MPD2    C1 7880   1.533   1.534  12.655  0.3447 -0.2033 -0.8035
  531MPD2    C2 7881   1.462   1.641  12.593 -0.3653 -1.4152  0.1899
  531MPD2    C3 7882   1.422   1.640  12.461 -0.3873 -0.0477 -0.4871
  531MPD2    C4 7883   1.460   1.535  12.386  0.0835  0.0975  1.3109
  531MPD2    C5 7884   1.537   1.431  12.438 -0.1255  0.1164 -0.2775
  531MPD2     H 7885   1.442   1.729  12.653  2.1646  0.1870 -1.3069
  531MPD2    H1 7886   1.426   1.526  12.284 -0.2082 -2.2848  1.6219
  531MPD2    H2 7887   1.626   1.350  12.624 -0.1444  0.9823  0.0523
  531MPD2    H3 7888   1.566   1.349  12.373 -2.0828 -0.5860 -0.2448
  531MPD2     N 7889   1.346   1.751  12.412 -0.4727  0.3228  0.1512
  531MPD2    H5 7890   1.312   1.811  12.486 -0.8957  1.3317 -0.8490
  531MPD2    N1 7891   1.563   1.536  12.788  0.0616 -0.2854  0.1431
  531MPD2    H7 7892   1.618   1.463  12.831 -0.1753 -0.1744  0.6366
  532TMC3    C1 7893   1.585   1.609  13.011  0.3950 -0.4565 -0.9236
  532TMC3    C2 7894   1.548   1.714  13.094 -0.3748 -0.2361  0.4681
  532TMC3    C3 7895   1.642   1.789  13.156 -0.5296 -0.1009  0.5464
  532TMC3    C4 7896   1.714   1.568  13.005 -0.3079 -0.1196 -0.3251
  532TMC3    C5 7897   1.804   1.642  13.084 -0.1979 -0.4315  0.0799
  532TMC3    C6 7898   1.770   1.753  13.161  0.3867  0.6689  0.0830
  532TMC3     C 7899   1.523   1.629  12.880  0.9249 -0.2699 -0.0508
  532TMC3     O 7900   1.454   1.732  12.871  0.1231  0.0007 -0.2052
  532TMC3     H 7901   1.442   1.739  13.096 -0.3204  0.0439 -0.1367
  532TMC3    H1 7902   1.741   1.480  12.948  0.0889  1.7529 -3.0232
  532TMC3    H2 7903   1.837   1.825  13.207  1.8349 -0.9232  0.4854
  532TMC3    C7 7904   1.940   1.601  13.115  0.0331 -0.1749 -0.4236
  532TMC3    C8 7905   1.622   1.932  13.149  0.3515 -0.1963 -0.2635
  532TMC3    O1 7906   1.993   1.661  13.209 -0.0860 -0.2380  0.1934
  532TMC3    O2 7907   1.682   2.004  13.224  0.3902 -0.0449 -0.6110
  533TMC3    C1 7908   3.135   2.624  14.401  1.0157 -0.4272  0.4329
  533TMC3    C2 7909   3.263   2.640  14.447 -0.0851 -0.0826  0.9876
  533TMC3    C3 7910   3.288   2.757  14.513 -0.4403 -0.2332  0.2843
  533TMC3    C4 7911   3.040   2.712  14.431 -0.3052 -0.3594 -1.0086
  533TMC3    C5 7912   3.070   2.827  14.500  0.6844 -0.0911  0.3893
  533TMC3    C6 7913   3.197   2.846  14.554 -0.8073 -0.1504 -0.2218
  533TMC3     C 7914   3.093   2.475  14.388  0.4202  0.1081  0.0470
  533TMC3     O 7915   3.163   2.399  14.455  0.0833 -0.3544 -0.2612
  533TMC3     H 7916   3.342   2.576  14.411 -0.9725 -0.1003 -0.8901
  533TMC3    H1 7917   2.936   2.703  14.403 -0.2757 -0.2630 -1.1535
  533TMC3    H2 7918   3.221   2.929  14.619 -1.1907 -0.9518  0.9476
  533TMC3    C7 7919   2.956   2.863  14.589  0.5089 -0.2765 -0.7685
  533TMC3    C8 7920   3.418   2.816  14.519  0.9267 -0.4931 -0.5055
  533TMC3    O1 7921   2.851   2.803  14.579  0.1599 -0.4468  1.0058
  533TMC3    O2 7922   3.416   2.936  14.502 -0.3612  0.2582  0.2820
  534MPD2     C 7923   0.683   4.274   2.252 -0.0355  0.1305 -1.0741
  534MPD2    C1 7924   0.715   4.286   2.116 -0.0135 -0.1338 -0.2609
  534MPD2    C2 7925   0.717   4.176   2.030  0.5773 -0.2225 -0.0067
  534MPD2    C3 7926   0.668   4.050   2.069 -0.6681 -1.0681 -0.2487
  534MPD2    C4 7927   0.639   4.049   2.204 -0.1947 -0.1284  0.1185
  534MPD2    C5 7928   0.650   4.154   2.294  0.6158 -0.5116  0.2430
  534MPD2     H 7929   0.735   4.191   1.924  0.1509  1.5405  0.1627
  534MPD2    H1 7930   0.595   3.963   2.253  2.0638 -1.1394  0.4103
  534MPD2    H2 7931   0.687   4.359   2.319  1.1886 -1.0998  0.4137
  534MPD2    H3 7932   0.629   4.147   2.401 -0.1129 -1.1902  0.0585
  534MPD2     N 7933   0.653   3.939   1.980  0.5953  0.5399 -0.0149
  534MPD2    H5 7934   0.600   3.859   2.013 -0.3463  0.3304 -1.9691
  534MPD2    N1 7935   0.757   4.402   2.051  0.2490 -0.3736  0.1030
  534MPD2    H7 7936   0.784   4.390   1.954 -1.1948  0.9208 -0.4434
  535TMC3    C1 7937   0.671   3.818   1.777  0.2267 -0.4024 -0.4711
  535TMC3    C2 7938   0.545   3.758   1.800  0.0187 -0.2378 -0.3323
  535TMC3    C3 7939   0.518   3.633   1.747  0.2963  1.2573  0.1446
  535TMC3    C4 7940   0.758   3.767   1.689  0.1063 -0.2328 -0.5014
  535TMC3    C5 7941   0.735   3.639   1.655 -1.1268 -0.0426  0.3572
  535TMC3    C6 7942   0.616   3.575   1.678 -0.6491 -0.1792 -0.2546
  535TMC3     C 7943   0.703   3.930   1.853 -0.7360 -0.1003  0.2281
  535TMC3     O 7944   0.800   3.987   1.803 -0.2480  0.0746  0.2414
  535TMC3     H 7945   0.472   3.806   1.864 -1.1610 -0.1384 -1.7638
  535TMC3    H1 7946   0.857   3.806   1.666 -1.1786  2.0968 -2.0465
  535TMC3    H2 7947   0.603   3.478   1.631 -0.2105 -0.5268  0.3457
  535TMC3    C7 7948   0.820   3.571   1.564 -0.3287  0.1741  0.3133
  535TMC3    C8 7949   0.381   3.592   1.736 -0.5378 -0.5798 -0.5324
  535TMC3    O1 7950   0.887   3.643   1.491  0.4443  0.3485 -0.0719
  535TMC3    O2 7951   0.362   3.539   1.627  0.3745  0.9348  0.2931
  536MPD2     C 7952   4.616   1.972  16.100  0.6755 -0.5970  0.0863
  536MPD2    C1 7953   4.498   1.938  16.161 -0.8298 -0.9448  0.0354
  536MPD2    C2 7954   4.386   2.002  16.108  0.2263 -0.4747  0.5884
  536MPD2    C3 7955   4.381   2.089  16.004  0.5816  0.0006 -0.3091
  536MPD2    C4 7956   4.500   2.123  15.952  0.6655 -0.4470 -0.4495
  536MPD2    C5 7957   4.620   2.065  15.997  0.0957 -0.7782 -0.5356
  536MPD2     H 7958   4.290   1.976  16.150  0.7224 -0.4073  1.7516
  536MPD2    H1 7959   4.506   2.191  15.868 -1.3486  0.6273  0.2718
  536MPD2    H2 7960   4.709   1.935  16.142  0.3153 -0.6988  0.7971
  536MPD2    H3 7961   4.715   2.094  15.955  0.6755 -0.8866  0.7037
  536MPD2     N 7962   4.262   2.150  15.949 -0.7611 -0.3411 -0.5269
  536MPD2    H5 7963   4.275   2.225  15.882  2.5280 -2.4539 -2.2804
  536MPD2    N1 7964   4.506   1.864  16.282 -0.1673 -0.0892  0.3275
  536MPD2    H7 7965   4.597   1.842  16.322 -0.5079 -0.8471  0.7016
  537TMC3    C1 7966   4.417   1.771  16.477 -1.0645 -0.1085 -0.1570
  537TMC3    C2 7967   4.487   1.853  16.566 -0.5089 -0.6198  0.2913
  537TMC3    C3 7968   4.449   1.833  16.700  0.8978 -0.2392  0.3338
  537TMC3    C4 7969   4.340   1.668  16.519 -0.5944 -0.0414  0.7475
  537TMC3    C5 7970   4.316   1.653  16.654  0.2997  0.3644 -0.4839
  537TMC3    C6 7971   4.375   1.733  16.747  0.0557 -0.3482 -0.3134
  537TMC3     C 7972   4.398   1.811  16.338  0.1116  0.3009  0.2564
  537TMC3     O 7973   4.291   1.789  16.290  0.4808 -0.3465 -0.0670
  537TMC3     H 7974   4.537   1.943  16.533  0.9626 -1.2557  0.8232
  537TMC3    H1 7975   4.264   1.634  16.450 -2.2760  2.0439  1.5696
  537TMC3    H2 7976   4.347   1.734  16.852  1.1271  1.2843 -0.0541
  537TMC3    C7 7977   4.192   1.579  16.685 -0.4307  0.4248  0.6410
  537TMC3    C8 7978   4.485   1.947  16.781  0.5081 -0.1577  0.3891
  537TMC3    O1 7979   4.118   1.551  16.593 -0.1871  0.1898 -0.4283
  537TMC3    O2 7980   4.556   1.924  16.882  0.4165  0.2852  0.5751
  538TMC3    C1 7981   0.481   0.329  10.725  0.4392 -0.7183  0.4845
  538TMC3    C2 7982   0.575   0.340  10.621 -0.9766 -0.9962 -0.5854
  538TMC3    C3 7983   0.546   0.408  10.511  0.2303  0.6085 -0.5729
  538TMC3    C4 7984   0.358   0.381  10.698 -0.4766  0.4246 -0.4629
  538TMC3    C5 7985   0.337   0.459  10.588  0.5661  0.4841 -0.2521
  538TMC3    C6 7986   0.423   0.466  10.488 -0.4023  0.4122 -0.6076
  538TMC3     C 7987   0.526   0.320  10.868 -0.3972  0.7893 -0.1764
  538TMC3     O 7988   0.463   0.383  10.947 -0.2914  0.0129 -0.1241
  538TMC3     H 7989   0.676   0.311  10.649 -1.4165 -0.8253  1.2181
  538TMC3    H1 7990   0.279   0.378  10.772 -1.4987 -0.7527 -1.5981
  538TMC3    H2 7991   0.402   0.525  10.400  0.8237 -1.9296 -2.4697
  538TMC3    C7 7992   0.257   0.576  10.598  0.5668 -0.0311 -0.2128
  538TMC3    C8 7993   0.657   0.421  10.415 -0.2886 -1.2903 -0.2614
  538TMC3    O1 7994   0.167   0.586  10.517  0.0916 -0.3857  0.1547
  538TMC3    O2 7995   0.749   0.340  10.407 -0.5038 -0.6975 -0.0023
  539MPD2     C 7996   0.193   4.403  11.643  0.3528  0.2432  0.2542
  539MPD2    C1 7997   0.260   4.400  11.524 -0.0159 -0.0497  0.0630
  539MPD2    C2 7998   0.328   4.513  11.482  0.9193  0.2944 -0.4068
  539MPD2    C3 7999   0.323   4.624  11.565  0.7274  0.2967 -0.0417
  539MPD2    C4 8000   0.243   4.632  11.672  0.1942  0.5196  1.1037
  539MPD2    C5 8001   0.176   4.519  11.711 -0.2679  0.2957 -0.0322
  539MPD2     H 8002   0.377   4.503  11.386  1.5901 -0.1208 -0.0201
  539MPD2    H1 8003   0.233   0.000  11.732 -0.0497 -0.2267  2.1862
  539MPD2    H2 8004   0.140   4.313  11.674 -1.8454  0.9379 -1.4476
  539MPD2    H3 8005   0.113   4.529  11.798  1.5405  0.3609  1.2690
  539MPD2     N 8006   0.370   0.024  11.518 -0.0383 -0.6152 -0.0368
  539MPD2    H5 8007   0.362   0.103  11.580 -2.5564 -1.3791  0.6303
  539MPD2    N1 8008   0.257   4.275  11.451 -0.3206  0.3080 -0.4285
  539MPD2    H7 8009   0.297   4.285  11.358  0.9921 -0.5673  0.0334
  540TMC3    C1 8010   0.411   0.209  11.378 -0.1383 -0.2580 -0.9653
  540TMC3    C2 8011   0.346   0.255  11.269 -0.2021 -0.3316 -0.3236
  540TMC3    C3 8012   0.283   0.375  11.272 -0.0378 -0.2537  0.2680
  540TMC3    C4 8013   0.410   0.290  11.495  0.2751  0.0018  0.4816
  540TMC3    C5 8014   0.332   0.404  11.492  0.5289 -0.7904  0.2546
  540TMC3    C6 8015   0.275   0.453  11.380  0.5969  0.6056  1.0136
  540TMC3     C 8016   0.412   0.062  11.397 -0.6748 -0.4754 -0.2592
  540TMC3     O 8017   0.432   4.712  11.303 -0.5281 -1.0285 -0.4781
  540TMC3     H 8018   0.350   0.195  11.179  0.2827 -2.1633  0.9348
  540TMC3    H1 8019   0.465   0.260  11.583  3.1736  2.1452 -0.6116
  540TMC3    H2 8020   0.229   0.551  11.385  2.0179  1.2259  2.1157
  540TMC3    C7 8021   0.221   0.385  11.584 -0.0021 -0.0874 -0.0716
  540TMC3    C8 8022   0.216   0.427  11.153 -0.4277  0.6029 -0.2746
  540TMC3    O1 8023   0.109   0.425  11.553 -0.9182 -0.2412  0.0677
  540TMC3    O2 8024   0.188   0.547  11.161  0.2783  0.2255 -0.2715
  541MPD2     C 8025   2.968   1.695  12.592 -0.3295 -0.4797  0.0810
  541MPD2    C1 8026   3.096   1.646  12.582  0.4830 -0.5267 -0.1886
  541MPD2    C2 8027   3.196   1.701  12.497  0.3397 -0.0924 -0.4893
  541MPD2    C3 8028   3.167   1.823  12.444 -0.4796 -0.0329  0.4022
  541MPD2    C4 8029   3.038   1.869  12.447  0.1011 -0.1995 -0.4174
  541MPD2    C5 8030   2.942   1.804  12.519  0.5492 -0.2506  0.2144
  541MPD2     H 8031   3.295   1.657  12.488 -0.1853 -1.2170 -0.7837
  541MPD2    H1 8032   3.014   1.959  12.391 -0.4220  0.7096  1.2436
  541MPD2    H2 8033   2.888   1.648  12.647  0.1960 -2.2843 -0.7023
  541MPD2    H3 8034   2.840   1.841  12.510  0.9348  0.3806 -1.6359
  541MPD2     N 8035   3.263   1.889  12.367  0.2574 -0.3639  0.1222
  541MPD2    H5 8036   3.239   1.985  12.346  2.8882  0.5923  1.5061
  541MPD2    N1 8037   3.125   1.534  12.650  0.3539  0.0761 -0.6566
  541MPD2    H7 8038   3.216   1.493  12.634  0.0588 -0.7826 -0.1433
  542TMC3    C1 8039   3.435   1.926  12.221  0.1457 -0.1893  0.0620
  542TMC3    C2 8040   3.504   1.861  12.129  0.0183  0.4705  0.1623
  542TMC3    C3 8041   3.580   1.935  12.049 -0.1917 -0.2635  0.4150
  542TMC3    C4 8042   3.429   2.063  12.228  0.9445 -0.3972  0.0329
  542TMC3    C5 8043   3.494   2.134  12.141  0.2584  0.2462  0.1157
  542TMC3    C6 8044   3.566   2.072  12.042 -0.1207 -0.0807  0.2026
  542TMC3     C 8045   3.382   1.835  12.323 -0.7345 -0.0408 -0.2660
  542TMC3     O 8046   3.432   1.723  12.340  0.4228  0.0828 -0.3509
  542TMC3     H 8047   3.505   1.753  12.135 -1.7568  0.4576  0.4904
  542TMC3    H1 8048   3.379   2.118  12.307  0.9533  0.1643 -0.3530
  542TMC3    H2 8049   3.634   2.128  11.979 -0.1660  1.6252  1.6633
  542TMC3    C7 8050   3.514   2.276  12.145  0.7407 -0.5352 -0.3905
  542TMC3    C8 8051   3.623   1.852  11.940 -0.8926  0.2570  0.1079
  542TMC3    O1 8052   3.552   2.330  12.041 -0.3579 -0.2815 -0.0345
  542TMC3    O2 8053   3.560   1.747  11.930 -0.6787 -0.3965  0.5526
  543TMC3    C1 8054   2.756   2.798  17.389 -0.1147 -0.0907 -0.1252
  543TMC3    C2 8055   2.788   2.689  17.467  0.2863  0.0592  0.1007
  543TMC3    C3 8056   2.689   2.633  17.545 -0.0374  0.2448 -0.9226
  543TMC3    C4 8057   2.645   2.875  17.416 -0.0343 -0.6409 -0.0174
  543TMC3    C5 8058   2.558   2.819  17.505 -0.2288 -0.2402  0.5238
  543TMC3    C6 8059   2.573   2.697  17.559 -0.4521  0.1584 -0.1349
  543TMC3     C 8060   2.860   2.844  17.295  0.4585  0.5285 -0.1220
  543TMC3     O 8061   2.963   2.781  17.298 -0.0527  0.4780 -0.1125
  543TMC3     H 8062   2.885   2.641  17.459  0.4132  0.2515  0.4857
  543TMC3    H1 8063   2.640   2.974  17.372 -4.6499  0.3556  2.7829
  543TMC3    H2 8064   2.495   2.673  17.631 -0.4474  0.4799 -0.0222
  543TMC3    C7 8065   2.427   2.880  17.520  0.1235  1.1936 -1.0609
  543TMC3    C8 8066   2.698   2.507  17.617 -0.2732  0.4749  0.2905
  543TMC3    O1 8067   2.336   2.798  17.519 -0.1457 -0.6427  0.2287
  543TMC3    O2 8068   2.593   2.470  17.674 -0.0492  0.4117  0.5737
  544MPD2     C 8069   2.866   2.050   0.013 -0.1599 -0.4515  0.7153
  544MPD2    C1 8070   2.954   2.107  17.611  0.8774  0.6128 -0.1313
  544MPD2    C2 8071   2.935   2.239  17.584 -0.3617 -0.3625  0.0058
  544MPD2    C3 8072   2.831   2.307  17.647  0.5955 -0.3278  0.2726
  544MPD2    C4 8073   2.753   2.249   0.050  0.3584 -0.2326 -0.1013
  544MPD2    C5 8074   2.777   2.121   0.081 -0.9816  0.6109 -0.3571
  544MPD2     H 8075   2.971   2.281  17.491  0.4047 -0.7119  0.1514
  544MPD2    H1 8076   2.669   2.296   0.100  1.6764  1.4042  0.5768
  544MPD2    H2 8077   2.882   1.945   0.035 -0.0806 -0.8907 -1.3784
  544MPD2    H3 8078   2.711   2.076   0.155  0.6907 -0.4957  0.4433
  544MPD2     N 8079   2.810   2.441  17.596 -0.1754 -0.3925  0.2948
  544MPD2    H5 8080   2.867   2.483  17.523  1.0636 -0.4732  1.2199
  544MPD2    N1 8081   3.054   2.026  17.551  0.0456 -0.5928  0.0853
  544MPD2    H7 8082   3.067   1.930  17.582 -0.2717 -0.6761 -0.0427
  545TMC3    C1 8083   3.249   1.975  17.418  0.0543  0.0800  0.0941
  545TMC3    C2 8084   3.338   2.002  17.325  0.2170 -0.3228  0.0229
  545TMC3    C3 8085   3.447   1.931  17.322 -0.1999 -0.5553  0.7343
  545TMC3    C4 8086   3.270   1.878  17.511 -0.2014 -0.7660 -0.0201
  545TMC3    C5 8087   3.396   1.822  17.521  0.0616  0.3174 -0.1739
  545TMC3    C6 8088   3.484   1.850  17.423  0.0866  0.2729  0.4840
  545TMC3     C 8089   3.138   2.069  17.445 -0.0190  0.3073  0.0145
  545TMC3     O 8090   3.137   2.171  17.379  0.0794  0.4884 -0.1242
  545TMC3     H 8091   3.317   2.069  17.242 -0.6801  0.4069  0.8287
  545TMC3    H1 8092   3.194   1.836  17.577 -0.2365 -0.3822  0.1871
  545TMC3    H2 8093   3.576   1.796  17.402 -0.6043 -1.3149  1.5025
  545TMC3    C7 8094   3.406   1.684  17.565  0.6203 -0.1302  0.0623
  545TMC3    C8 8095   3.522   1.928  17.200 -1.0172  1.0019  0.1483
  545TMC3    O1 8096   3.308   1.618  17.540  0.1572 -0.3759  0.3425
  545TMC3    O2 8097   3.637   1.887  17.194 -0.6725  0.0205 -0.4939
  546MPD2     C 8098   4.706   2.531  17.179  0.1738 -0.0936  0.3198
  546MPD2    C1 8099   4.579   2.574  17.149 -0.2773 -0.1400  0.1128
  546MPD2    C2 8100   4.566   2.695  17.079 -0.1161  0.8522  0.0249
  546MPD2    C3 8101   4.677   2.764  17.033 -0.5282  0.1518 -0.6367
  546MPD2    C4 8102   0.081   2.712  17.058 -0.6370  0.2012 -0.2437
  546MPD2    C5 8103   0.095   2.597  17.138 -0.2305 -0.0114  0.6364
  546MPD2     H 8104   4.467   2.737  17.070 -0.9294 -0.7566  1.6111
  546MPD2    H1 8105   0.166   2.778  17.041 -3.2167  3.3379 -0.9585
  546MPD2    H2 8106   4.708   2.436  17.230  3.9426 -0.4529 -0.4978
  546MPD2    H3 8107   0.197   2.565  17.154 -0.1470  0.8971  1.9844
  546MPD2     N 8108   4.672   2.886  16.962  0.4959  0.4194  1.2498
  546MPD2    H5 8109   0.033   2.916  16.912  0.9900 -3.0966 -0.0440
  546MPD2    N1 8110   4.472   2.498  17.204 -0.3929  0.0815  0.7948
  546MPD2    H7 8111   4.487   2.438  17.284 -0.1332 -0.2776  0.4765
  547TMC3    C1 8112   4.244   2.450  17.251 -0.3970 -0.3314  0.5456
  547TMC3    C2 8113   4.113   2.493  17.230 -0.0786  0.1332 -0.6331
  547TMC3    C3 8114   4.007   2.405  17.245  0.0685  0.0252 -0.1194
  547TMC3    C4 8115   4.262   2.320  17.284  0.5551  0.3431  0.4396
  547TMC3    C5 8116   4.155   2.239  17.286 -0.1404  0.2516 -0.5116
  547TMC3    C6 8117   4.031   2.274  17.291 -0.4923  0.0301  0.3448
  547TMC3     C 8118   4.341   2.513  17.165  0.0300 -0.5467  0.4715
  547TMC3     O 8119   4.293   2.581  17.080 -0.7224 -0.2260  0.5590
  547TMC3     H 8120   4.090   2.587  17.181 -1.5436 -0.0866 -0.3689
  547TMC3    H1 8121   4.359   2.283  17.315  1.2880  0.5160 -1.6311
  547TMC3    H2 8122   3.951   2.202  17.305 -1.1278  0.7647  0.5357
  547TMC3    C7 8123   4.181   2.115  17.354 -0.5483  0.2567  0.2294
  547TMC3    C8 8124   3.879   2.448  17.203 -0.4683  0.8252  0.4851
  547TMC3    O1 8125   4.093   2.076  17.436 -0.7203 -0.3407  0.3240
  547TMC3    O2 8126   3.868   2.553  17.136  0.2211  0.1329  0.4451
  548MPD2     C 8127   3.994   3.780  11.649 -0.0743 -0.2268 -0.1693
  548MPD2    C1 8128   4.012   3.719  11.771  0.0806  0.0261 -0.2812
  548MPD2    C2 8129   4.135   3.657  11.797 -0.2337 -0.0022 -0.2930
  548MPD2    C3 8130   4.228   3.645  11.700  0.4857  0.2545 -0.1792
  548MPD2    C4 8131   4.203   3.713  11.585 -0.0755 -0.4208 -0.0566
  548MPD2    C5 8132   4.093   3.786  11.555 -0.1147 -0.4875  0.0993
  548MPD2     H 8133   4.166   3.627  11.896  0.0552 -1.0178 -0.6984
  548MPD2    H1 8134   4.272   3.714  11.501 -0.6398 -3.4370 -0.5492
  548MPD2    H2 8135   3.902   3.830  11.624 -0.8427 -0.9580  1.1542
  548MPD2    H3 8136   4.065   3.825  11.458  0.0440  1.1482  0.7178
  548MPD2     N 8137   4.348   3.577  11.729 -0.7001  0.6400 -0.3954
  548MPD2    H5 8138   4.353   3.524  11.815  2.0308  0.6036 -0.5880
  548MPD2    N1 8139   3.906   3.710  11.860  0.1172 -0.1765  0.2062
  548MPD2    H7 8140   3.821   3.760  11.834  0.4045 -0.5024 -1.3555
  549TMC3    C1 8141   3.779   3.616  12.042 -0.3216 -0.0430  0.1663
  549TMC3    C2 8142   3.693   3.722  12.030 -0.3498  1.2658 -0.4684
  549TMC3    C3 8143   3.587   3.735  12.118 -0.2036 -0.9304 -0.1331
  549TMC3    C4 8144   3.773   3.512  12.136 -1.0297 -0.3777  0.6660
  549TMC3    C5 8145   3.662   3.529  12.223 -0.2654 -0.4987 -0.0143
  549TMC3    C6 8146   3.573   3.638  12.220 -0.3242 -0.4057  0.6338
  549TMC3     C 8147   3.901   3.622  11.971  0.4592  0.0368  0.3908
  549TMC3     O 8148   3.980   3.529  11.996  0.2520 -1.1122  0.1080
  549TMC3     H 8149   3.724   3.806  11.968  1.3049  0.4065 -0.8082
  549TMC3    H1 8150   3.857   3.447  12.157  0.6122  0.9802 -1.7331
  549TMC3    H2 8151   3.477   3.620  12.266 -0.6747  0.1450  0.1166
  549TMC3    C7 8152   3.638   3.426  12.322 -0.0082  0.6669  0.3967
  549TMC3    C8 8153   3.498   3.855  12.103  0.0750 -0.6274  1.3368
  549TMC3    O1 8154   3.558   3.446  12.413  0.2024 -0.1363  0.2022
  549TMC3    O2 8155   3.504   3.921  12.003 -0.2826  0.2758 -0.3870
  550TMC3    C1 8156   2.791   1.257  12.503  0.1562  0.0464  0.5014
  550TMC3    C2 8157   2.741   1.308  12.624  0.2646  0.5572 -0.2902
  550TMC3    C3 8158   2.619   1.373  12.612  0.2232 -0.4579 -0.3353
  550TMC3    C4 8159   2.733   1.269  12.373  0.0495 -0.0452 -0.5434
  550TMC3    C5 8160   2.615   1.343  12.385 -0.2822 -0.7588 -0.2053
  550TMC3    C6 8161   2.554   1.396  12.494 -0.8644 -0.4154  0.2459
  550TMC3     C 8162   2.915   1.184  12.515 -0.3185 -0.0406  1.1434
  550TMC3     O 8163   2.933   1.123  12.617  0.1643 -0.5062 -0.1224
  550TMC3     H 8164   2.802   1.303  12.713 -0.7025 -1.3901  0.2728
  550TMC3    H1 8165   2.775   1.218  12.287 -1.2393  2.2764 -2.5277
  550TMC3    H2 8166   2.468   1.462  12.488 -2.0893 -2.1705 -1.8837
  550TMC3    C7 8167   2.551   1.386  12.258 -0.2256 -0.3859 -0.1039
  550TMC3    C8 8168   2.561   1.434  12.733  1.0945  0.1166  0.1173
  550TMC3    O1 8169   2.438   1.438  12.267 -0.1045 -0.1017  0.3689
  550TMC3    O2 8170   2.473   1.519  12.713 -0.0433  0.5477  0.1204
  551TMC3    C1 8171   0.218   3.658  13.257  0.0286  0.0873  0.1193
  551TMC3    C2 8172   0.323   3.668  13.170  0.0910  0.6806  0.0783
  551TMC3    C3 8173   0.438   3.737  13.199  0.1442 -0.1815  0.3098
  551TMC3    C4 8174   0.228   3.727  13.377 -0.8585  0.4760 -0.4565
  551TMC3    C5 8175   0.346   3.800  13.401  0.4458 -0.1893  0.3051
  551TMC3    C6 8176   0.453   3.799  13.315  0.2063 -0.8143 -0.2176
  551TMC3     C 8177   0.084   3.631  13.199 -0.9246 -0.5576 -0.0245
  551TMC3     O 8178   0.074   3.629  13.076  0.2519  0.2846 -0.4210
  551TMC3     H 8179   0.311   3.609  13.080  0.3425 -0.8675  1.0569
  551TMC3    H1 8180   0.143   3.732  13.444 -0.3340 -0.9867  0.3166
  551TMC3    H2 8181   0.550   3.842  13.339 -0.2739  0.7488 -1.0578
  551TMC3    C7 8182   0.355   3.855  13.530 -0.2297 -0.0121  0.2444
  551TMC3    C8 8183   0.531   3.741  13.090 -0.2595 -0.7007  0.3549
  551TMC3    O1 8184   0.293   3.807  13.625  0.1847  0.5431  0.3340
  551TMC3    O2 8185   0.507   3.667  12.994  0.5756 -0.3096 -0.0265
  552MPD2     C 8186   2.019   1.148  13.687  0.0268 -0.9885  0.3696
  552MPD2    C1 8187   2.015   1.034  13.763  0.0709  0.2112  0.0183
  552MPD2    C2 8188   2.121   1.007  13.847 -0.0358 -1.3620  0.5560
  552MPD2    C3 8189   2.234   1.091  13.856 -0.1092  0.4126 -0.1639
  552MPD2    C4 8190   2.226   1.211  13.789 -0.6382  0.2886  0.1095
  552MPD2    C5 8191   2.118   1.236  13.704 -0.2218 -0.8581 -0.0700
  552MPD2     H 8192   2.117   0.911  13.898 -1.3850 -2.0948 -0.9181
  552MPD2    H1 8193   2.310   1.278  13.774 -0.7570  0.6165  0.9342
  552MPD2    H2 8194   1.947   1.162  13.607  0.7657  1.1486  0.0794
  552MPD2    H3 8195   2.120   1.334  13.657 -1.9221 -0.7163  0.1415
  552MPD2     N 8196   2.347   1.056  13.930 -0.1808  0.2598  0.7735
  552MPD2    H5 8197   2.421   1.125  13.928 -0.3234  0.3472 -1.0879
  552MPD2    N1 8198   1.917   0.940  13.748  0.5242 -0.2299 -0.7559
  552MPD2    H7 8199   1.928   0.858  13.807 -3.3152  0.4404  0.8819
  553TMC3    C1 8200   1.736   0.836  13.679  0.2778  1.2133 -0.3416
  553TMC3    C2 8201   1.670   0.826  13.557 -0.2549 -0.1314 -1.0075
  553TMC3    C3 8202   1.653   0.705  13.498 -0.6995  0.0825  0.1138
  553TMC3    C4 8203   1.804   0.728  13.729 -0.2011 -0.6846  0.2721
  553TMC3    C5 8204   1.805   0.611  13.649 -0.1392 -0.0252 -0.1210
  553TMC3    C6 8205   1.716   0.592  13.544  0.2888 -0.2621 -0.5793
  553TMC3     C 8206   1.796   0.963  13.695  0.8606 -0.6517  0.7687
  553TMC3     O 8207   1.750   1.065  13.637  0.4687  0.0331  0.1875
  553TMC3     H 8208   1.645   0.915  13.501 -0.8154  0.0713 -0.4426
  553TMC3    H1 8209   1.842   0.736  13.830  0.5822 -2.3570  0.0999
  553TMC3    H2 8210   1.720   0.500  13.487  3.5024 -1.1717  1.0938
  553TMC3    C7 8211   1.936   0.561  13.628 -0.5600  0.6051  0.1140
  553TMC3    C8 8212   1.624   0.700  13.352 -0.3335  0.9584 -0.0024
  553TMC3    O1 8213   1.958   0.485  13.539 -0.5745  0.0095 -0.0709
  553TMC3    O2 8214   1.635   0.592  13.292  0.3182  0.0928  0.1492
  554TMC3    C1 8215   4.377   0.055  11.122  0.0656  0.2958  0.8046
  554TMC3    C2 8216   4.265   0.006  11.054  0.4035 -0.0920  0.8267
  554TMC3    C3 8217   4.227   0.073  10.939  0.4092  0.1982 -0.3424
  554TMC3    C4 8218   4.431   0.176  11.087  0.9378 -0.1670  0.4809
  554TMC3    C5 8219   4.385   0.235  10.973 -0.6665  0.2476 -0.0689
  554TMC3    C6 8220   4.281   0.191  10.891 -0.0471 -0.2192 -0.0620
  554TMC3     C 8221   4.446   4.705  11.226 -0.4172 -0.4873  0.0642
  554TMC3     O 8222   4.561   0.027  11.251 -0.4323 -0.2729 -0.1233
  554TMC3     H 8223   4.225   4.627  11.068  0.3772 -0.2090 -0.0614
  554TMC3    H1 8224   4.518   0.212  11.141  0.6213  2.4501 -0.7431
  554TMC3    H2 8225   4.242   0.247  10.807 -3.8073 -1.5223  0.8288
  554TMC3    C7 8226   4.398   0.379  10.962 -0.7241  0.5298 -0.3274
  554TMC3    C8 8227   4.106   0.042  10.870 -0.4852  0.0811  0.4009
  554TMC3    O1 8228   4.332   0.431  10.873 -0.1915  0.4210 -0.0953
  554TMC3    O2 8229   4.102   0.063  10.749 -0.3551  0.4525 -0.2684
  555TMC3    C1 8230   3.239   4.106  14.693 -0.1698  0.2510  0.0554
  555TMC3    C2 8231   3.173   4.205  14.765  0.3550 -0.9308  0.3287
  555TMC3    C3 8232   3.123   4.158  14.886 -0.3906 -0.3251 -0.0341
  555TMC3    C4 8233   3.265   3.974  14.734 -0.0363  0.4068  0.8790
  555TMC3    C5 8234   3.225   3.947  14.856  0.1604  0.0734 -0.0911
  555TMC3    C6 8235   3.150   4.027  14.929 -0.0586 -0.6974 -0.2025
  555TMC3     C 8236   3.303   4.140  14.567  0.1840  0.5081  0.9403
  555TMC3     O 8237   3.417   4.098  14.551  0.1432  0.1490 -0.7808
  555TMC3     H 8238   3.172   4.311  14.741  0.1262 -1.0668 -0.2582
  555TMC3    H1 8239   3.325   3.915  14.666 -0.4977 -0.4539  1.2210
  555TMC3    H2 8240   3.101   3.994  15.020  1.0010  0.4094  0.7778
  555TMC3    C7 8241   3.243   3.813  14.909 -0.4506  0.2651  0.7110
  555TMC3    C8 8242   3.075   4.260  14.972  0.3707 -0.5217  0.1819
  555TMC3    O1 8243   3.168   3.772  14.996 -0.3544  0.1689  0.1187
  555TMC3    O2 8244   3.003   4.349  14.928  0.5629  0.6356  0.2630
  556MPD2     C 8245   1.317   1.716  10.469 -0.1331 -0.5345  0.1303
  556MPD2    C1 8246   1.289   1.591  10.525  0.6806  0.3869  0.1976
  556MPD2    C2 8247   1.196   1.511  10.459  0.2009  0.9432 -0.0091
  556MPD2    C3 8248   1.153   1.542  10.330 -0.2581  1.0317 -0.5807
  556MPD2    C4 8249   1.186   1.663  10.271  0.5033  0.4173  0.2758
  556MPD2    C5 8250   1.272   1.744  10.344  0.1835  0.1497 -0.4650
  556MPD2     H 8251   1.167   1.424  10.516  0.3409  0.9944  0.1421
  556MPD2    H1 8252   1.144   1.705  10.180  0.3064 -0.6635 -0.1255
  556MPD2    H2 8253   1.378   1.790  10.519  1.5205 -3.3122  2.2200
  556MPD2    H3 8254   1.300   1.839  10.300  2.4888 -0.5979 -0.6346
  556MPD2     N 8255   1.076   1.438  10.273  0.6253 -0.2682 -0.1050
  556MPD2    H5 8256   1.079   1.345  10.314  0.5954 -0.3566 -0.3045
  556MPD2    N1 8257   1.338   1.550  10.651 -0.0042  0.9587  0.2972
  556MPD2    H7 8258   1.301   1.458  10.672  2.3360 -0.3758 -1.3390
  557TMC3    C1 8259   0.986   1.318  10.084  0.4999  0.2070  0.0514
  557TMC3    C2 8260   0.999   1.322   9.946  0.3884 -0.3939 -0.4256
  557TMC3    C3 8261   0.939   1.219   9.877  0.0008  0.2725  0.1749
  557TMC3    C4 8262   0.954   1.206  10.154 -0.1069 -0.0478  0.4054
  557TMC3    C5 8263   0.899   1.103  10.081  0.4262  0.0858 -0.6997
  557TMC3    C6 8264   0.885   1.114   9.944  0.2565  0.4251  0.0577
  557TMC3     C 8265   1.016   1.447  10.148  0.2095 -0.0032  1.0318
  557TMC3     O 8266   1.011   1.538  10.068 -0.4198  0.2458 -0.4747
  557TMC3     H 8267   1.029   1.411   9.891  0.4010 -0.6659 -0.8518
  557TMC3    H1 8268   0.932   1.211  10.260 -0.1203  2.7678  0.2647
  557TMC3    H2 8269   0.837   1.033   9.890  0.7188 -0.7508  1.4218
  557TMC3    C7 8270   0.842   0.986  10.148 -0.1370 -0.7890 -0.3385
  557TMC3    C8 8271   0.919   1.231   9.736  0.1292 -0.2180  0.2281
  557TMC3    O1 8272   0.787   1.000  10.255  0.2008 -0.0717  1.0120
  557TMC3    O2 8273   0.904   1.346   9.692 -0.0509 -0.2463  0.5556
  558TMC3    C1 8274   3.972   3.627   9.885  0.1723 -0.4851 -0.2819
  558TMC3    C2 8275   3.882   3.654   9.988  0.2771 -0.6468 -0.4161
  558TMC3    C3 8276   3.759   3.605   9.971  0.0476 -0.7282  0.1082
  558TMC3    C4 8277   3.938   3.552   9.778 -0.5080 -0.2887  0.7282
  558TMC3    C5 8278   3.805   3.516   9.762  0.4275 -0.1598 -0.1689
  558TMC3    C6 8279   3.717   3.540   9.859  0.1903 -0.5759 -0.1080
  558TMC3     C 8280   4.101   3.684   9.890 -0.1078  0.5543  0.3154
  558TMC3     O 8281   4.163   3.678   9.786 -0.9274 -0.4839  0.1497
  558TMC3     H 8282   3.901   3.715  10.075  1.1476 -1.1501 -0.2577
  558TMC3    H1 8283   4.008   3.529   9.699 -0.5654 -0.3741  0.7026
  558TMC3    H2 8284   3.616   3.506   9.840 -0.3976  0.7014  0.7265
  558TMC3    C7 8285   3.755   3.536   9.628  0.9668 -0.8309 -0.6504
  558TMC3    C8 8286   3.674   3.614  10.090 -0.1380  0.0422 -0.4440
  558TMC3    O1 8287   3.845   3.561   9.549 -0.0671  0.3182 -0.3921
  558TMC3    O2 8288   3.717   3.679  10.186  0.3000 -0.4468 -0.0898
  559MPD2     C 8289   3.700   4.417   9.950 -0.1285  0.6597  0.4875
  559MPD2    C1 8290   3.643   4.508  10.038  0.2316 -0.9122  0.8676
  559MPD2    C2 8291   3.709   4.548  10.151 -0.3526 -0.7479 -0.1746
  559MPD2    C3 8292   3.841   4.504  10.177 -0.4895 -0.3005  0.0031
  559MPD2    C4 8293   3.901   4.422  10.088 -0.3340 -0.2125  0.8539
  559MPD2    C5 8294   3.834   4.374   9.978  0.6165 -0.5484  0.0936
  559MPD2     H 8295   3.665   4.624  10.214  1.2506 -1.2507  1.5487
  559MPD2    H1 8296   4.002   4.389  10.107 -0.3000 -0.5887  0.0467
  559MPD2    H2 8297   3.657   4.379   9.858  0.6826  2.6586 -0.7183
  559MPD2    H3 8298   3.886   4.317   9.903 -1.8978 -1.1926 -1.1714
  559MPD2     N 8299   3.883   4.543  10.303 -0.2242  0.4375  0.2421
  559MPD2    H5 8300   3.819   4.606  10.350 -1.8796 -0.5817 -0.6701
  559MPD2    N1 8301   3.503   4.538  10.009 -0.7342 -0.7455  0.1878
  559MPD2    H7 8302   3.475   4.510   9.916  0.1646  0.6472 -0.4950
  560TMC3    C1 8303   3.985   4.508  10.517 -0.3723  0.6236  0.6427
  560TMC3    C2 8304   3.864   4.484  10.580 -0.6248 -0.1936 -0.2195
  560TMC3    C3 8305   3.879   4.442  10.710 -0.0256  0.8502 -0.4840
  560TMC3    C4 8306   4.107   4.481  10.577  1.0263 -0.0268  1.2830
  560TMC3    C5 8307   4.111   4.453  10.711 -0.1130 -0.2900 -0.4818
  560TMC3    C6 8308   3.994   4.442  10.782 -0.4246  0.2705 -0.8137
  560TMC3     C 8309   3.981   4.483  10.370  0.7424  0.0037  0.1449
  560TMC3     O 8310   4.063   4.404  10.326 -0.5982 -0.0662 -0.2297
  560TMC3     H 8311   3.780   4.459  10.516 -1.9373  1.1881  0.9835
  560TMC3    H1 8312   4.199   4.495  10.522  1.4502 -1.7212  1.5502
  560TMC3    H2 8313   3.985   4.443  10.890 -0.9919 -0.7165 -0.8550
  560TMC3    C7 8314   4.244   4.425  10.766 -0.1954 -0.3096  0.3125
  560TMC3    C8 8315   3.759   4.384  10.767 -0.1078 -0.5539  0.0399
  560TMC3    O1 8316   4.346   4.438  10.695 -0.2481 -0.3670  0.0905
  560TMC3    O2 8317   3.770   4.299  10.853  0.3668 -0.4526  0.6119
  561TMC3    C1 8318   1.869   3.355  11.119  0.5248  0.7917  0.3347
  561TMC3    C2 8319   1.846   3.320  11.248 -0.3417 -0.9881  0.1873
  561TMC3    C3 8320   1.943   3.340  11.340 -0.2936  0.3890 -0.6376
  561TMC3    C4 8321   1.976   3.433  11.090 -0.1679 -0.0122  0.3207
  561TMC3    C5 8322   2.071   3.455  11.185  0.0378  0.1405 -0.0500
  561TMC3    C6 8323   2.066   3.396  11.313 -0.3062 -0.3462 -0.3006
  561TMC3     C 8324   1.763   3.338  11.015 -0.1566 -0.0719  0.4138
  561TMC3     O 8325   1.649   3.323  11.050  0.0956  0.4382  0.3179
  561TMC3     H 8326   1.752   3.274  11.276 -0.5040 -1.2253 -0.7666
  561TMC3    H1 8327   1.991   3.464  10.988 -2.6980 -0.7951 -0.2939
  561TMC3    H2 8328   2.149   3.407  11.382 -0.1435 -0.5504 -0.4640
  561TMC3    C7 8329   2.198   3.519  11.157 -0.0356  0.1965 -0.1570
  561TMC3    C8 8330   1.929   3.284  11.473  0.0834 -0.6545 -0.0033
  561TMC3    O1 8331   2.297   3.495  11.223  0.5093 -0.2213  0.1726
  561TMC3    O2 8332   2.019   3.217  11.518  0.2687  0.1173  0.2751
  562TMC3    C1 8333   3.254   0.111  16.048 -1.0350 -0.2116 -0.1881
  562TMC3    C2 8334   3.187   0.220  16.004  0.2082 -0.6962  0.1358
  562TMC3    C3 8335   3.086   0.200  15.919 -0.2653 -0.0285 -0.2755
  562TMC3    C4 8336   3.223   4.704  16.003  0.0061 -0.1449  0.0264
  562TMC3    C5 8337   3.122   4.692  15.910  0.5544 -0.2247  0.2486
  562TMC3    C6 8338   3.045   0.078  15.874 -0.1363  0.1524 -0.2084
  562TMC3     C 8339   3.376   0.123  16.132  0.3808 -0.2175  0.6153
  562TMC3     O 8340   3.459   0.036  16.121  0.4917 -0.3436  0.0183
  562TMC3     H 8341   3.208   0.318  16.045  2.1631 -0.6570 -0.9673
  562TMC3    H1 8342   3.278   4.620  16.043 -0.2074 -1.0991 -1.6670
  562TMC3    H2 8343   2.958   0.065  15.810  0.1654  0.7218 -0.7265
  562TMC3    C7 8344   3.083   4.562  15.869 -0.0719 -0.7890 -0.2838
  562TMC3    C8 8345   3.022   0.324  15.873  0.3453  0.1075  0.1838
  562TMC3    O1 8346   2.993   4.568  15.794 -0.3854 -0.3065 -0.0628
  562TMC3    O2 8347   3.028   0.409  15.963  0.0079 -0.3348 -0.7919
  563MPD2     C 8348   0.318   1.270  15.355  0.5502  0.4492  0.0573
  563MPD2    C1 8349   0.364   1.320  15.471  0.3862  0.9777 -0.4782
  563MPD2    C2 8350   0.480   1.274  15.527 -0.4492  1.1046 -0.6248
  563MPD2    C3 8351   0.553   1.182  15.462  0.1405  1.0065 -0.0900
  563MPD2    C4 8352   0.513   1.142  15.336  0.1539  0.2187 -1.1583
  563MPD2    C5 8353   0.396   1.183  15.282 -0.3820 -0.3985  1.1614
  563MPD2     H 8354   0.504   1.299  15.630  1.1189 -0.5100 -0.6127
  563MPD2    H1 8355   0.547   1.044  15.305 -0.8317 -1.3481  2.6376
  563MPD2    H2 8356   0.219   1.300  15.325  0.4918  0.0283 -0.1565
  563MPD2    H3 8357   0.358   1.125  15.199 -0.6292  1.4009  0.0128
  563MPD2     N 8358   0.669   1.142  15.521  0.2383 -0.3026 -0.3895
  563MPD2    H5 8359   0.686   1.180  15.614 -1.5726 -2.1967  0.7081
  563MPD2    N1 8360   0.279   1.406  15.540  0.3944  0.2268 -0.0707
  563MPD2    H7 8361   0.194   1.440  15.497 -0.2536 -0.4705  0.6511
  564TMC3    C1 8362   0.188   1.469  15.743 -0.6611  0.1812  0.0047
  564TMC3    C2 8363   0.086   1.397  15.683  0.3260 -0.0188 -0.4516
  564TMC3    C3 8364   0.014   1.308  15.762  0.0767  0.2209  0.1962
  564TMC3    C4 8365   0.223   1.439  15.876  0.3281  0.1642  0.0859
  564TMC3    C5 8366   0.164   1.337  15.944  0.1081  0.0236  0.2490
  564TMC3    C6 8367   0.057   1.276  15.888  0.3041  0.0388 -0.2006
  564TMC3     C 8368   0.306   1.459  15.668  0.0393 -0.3899  0.0697
  564TMC3     O 8369   0.410   1.475  15.734  0.8233  0.2308 -0.1536
  564TMC3     H 8370   0.041   1.442  15.595  0.8377  0.2905 -0.5584
  564TMC3    H1 8371   0.310   1.481  15.926  1.4665 -1.4705 -0.5426
  564TMC3    H2 8372   0.015   1.183  15.925 -0.7893  1.1613  1.4101
  564TMC3    C7 8373   0.263   1.235  15.974  0.1178  0.1605  0.4010
  564TMC3    C8 8374   4.680   1.194  15.685  0.1539 -0.3336  0.6473
  564TMC3    O1 8375   0.346   1.258  16.058 -0.5397  0.6978  0.2306
  564TMC3    O2 8376   4.627   1.111  15.754 -0.3631  0.3149  0.1622
  565TMC3    C1 8377   1.327   2.810  10.026 -0.0691 -0.2147  0.0041
  565TMC3    C2 8378   1.369   2.762  10.146  0.2196  0.1068  0.6465
  565TMC3    C3 8379   1.317   2.636  10.174 -0.1689 -0.5572 -0.5613
  565TMC3    C4 8380   1.244   2.739   9.937 -0.1855 -0.3612  0.4603
  565TMC3    C5 8381   1.181   2.627   9.990 -0.2670  0.6254 -0.2037
  565TMC3    C6 8382   1.203   2.579  10.117 -0.1889  0.4328 -0.8617
  565TMC3     C 8383   1.391   2.930   9.976  0.4334  0.3860  0.1983
  565TMC3     O 8384   1.334   2.985   9.882 -0.7530 -0.2350 -0.2317
  565TMC3     H 8385   1.430   2.814  10.219  2.0941 -1.4379  0.1541
  565TMC3    H1 8386   1.223   2.788   9.842  2.4679 -0.5242 -0.2136
  565TMC3    H2 8387   1.157   2.486  10.145 -3.1200  0.7215 -4.7336
  565TMC3    C7 8388   1.059   2.582   9.930  0.5951 -0.2821  0.6953
  565TMC3    C8 8389   1.371   2.557  10.283  0.2833  0.2524 -0.3502
  565TMC3    O1 8390   1.019   2.470   9.963 -0.0403 -0.2875  0.3285
  565TMC3    O2 8391   1.415   2.619  10.378  0.5604 -0.6692 -0.7435
  566MPD2     C 8392   2.735   4.020  13.968 -0.0354  0.1824  0.3570
  566MPD2    C1 8393   2.830   4.110  13.916 -0.0517 -0.0573 -0.4895
  566MPD2    C2 8394   2.799   4.175  13.798 -0.7122 -0.6945  0.4477
  566MPD2    C3 8395   2.683   4.147  13.721 -0.0417 -0.3740 -0.0843
  566MPD2    C4 8396   2.584   4.058  13.775  0.1065  0.0899 -0.5096
  566MPD2    C5 8397   2.619   4.000  13.898 -0.0263  0.0862 -0.7079
  566MPD2     H 8398   2.871   4.250  13.769  1.2018 -3.2795 -1.5057
  566MPD2    H1 8399   2.493   4.036  13.721 -0.8730  0.6793  0.9041
  566MPD2    H2 8400   2.739   3.977  14.067  0.2030  0.4388  0.4588
  566MPD2    H3 8401   2.546   3.933  13.942  2.2336 -1.4665  0.7112
  566MPD2     N 8402   2.662   4.214  13.599 -0.1786  0.3596  0.1590
  566MPD2    H5 8403   2.593   4.176  13.536  1.1129 -2.2487  0.3048
  566MPD2    N1 8404   2.953   4.117  13.982 -0.0854 -0.4920 -0.5005
  566MPD2    H7 8405   2.967   4.037  14.042 -1.1539 -1.0608 -0.9909
  567TMC3    C1 8406   3.172   4.196  14.029 -0.4720  0.5533 -0.9155
  567TMC3    C2 8407   3.278   4.225  13.951  0.5029  0.3685  0.1409
  567TMC3    C3 8408   3.397   4.169  13.972  0.7037  0.5553  0.0934
  567TMC3    C4 8409   3.186   4.104  14.125 -0.3798  0.0952  0.3225
  567TMC3    C5 8410   3.309   4.038  14.139  0.1818  0.4564  0.2530
  567TMC3    C6 8411   3.420   4.069  14.069  0.1331 -0.3194 -0.2013
  567TMC3     C 8412   3.046   4.226  13.968  0.3889 -0.5868 -0.5051
  567TMC3     O 8413   3.039   4.331  13.905  0.2342  0.0572 -0.3164
  567TMC3     H 8414   3.274   4.309  13.882 -0.4526 -0.4723 -0.8076
  567TMC3    H1 8415   3.099   4.071  14.180  0.1208 -0.3442  0.8516
  567TMC3    H2 8416   3.515   4.019  14.080  0.7911  0.6178 -1.5605
  567TMC3    C7 8417   3.327   3.945  14.252  0.7424 -0.1546  0.5667
  567TMC3    C8 8418   3.492   4.183  13.862  0.0984 -0.5428 -0.1850
  567TMC3    O1 8419   3.443   3.930  14.290 -0.1870  0.0877  0.0476
  567TMC3    O2 8420   3.468   4.270  13.776  0.1389  0.2963 -0.1797
  568MPD2     C 8421   0.352   4.454  16.018  0.3291  0.3706  0.4885
  568MPD2    C1 8422   0.318   4.532  16.122  0.7861  0.6360 -0.1861
  568MPD2    C2 8423   0.293   4.667  16.100 -0.0990 -0.1020  0.7348
  568MPD2    C3 8424   0.296   4.719  15.972 -0.2612  0.1663 -0.5313
  568MPD2    C4 8425   0.313   4.632  15.868 -0.0225  0.4421  0.0075
  568MPD2    C5 8426   0.356   4.503  15.891 -0.9806 -0.4183 -0.0556
  568MPD2     H 8427   0.269   0.009  16.185 -0.8759  1.2711 -0.5276
  568MPD2    H1 8428   0.325   4.671  15.767 -3.5168  1.1587 -0.1344
  568MPD2    H2 8429   0.373   4.348  16.030  1.9545  0.6547  0.1544
  568MPD2    H3 8430   0.409   4.440  15.820  0.8445  2.2041 -1.0178
  568MPD2     N 8431   0.272   0.137  15.955  0.3987  0.1694 -0.2147
  568MPD2    H5 8432   0.262   0.194  16.039 -1.0210 -1.3015  0.5978
  568MPD2    N1 8433   0.325   4.482  16.257  0.4887  0.7106  0.0839
  568MPD2    H7 8434   0.362   4.387  16.263  2.1700  1.3106 -0.8090
  569TMC3    C1 8435   0.247   0.345  15.831 -0.3227 -0.8679  0.0704
  569TMC3    C2 8436   0.319   0.414  15.924  0.1719 -0.1051 -0.5519
  569TMC3    C3 8437   0.335   0.543  15.903 -0.3008  0.4219 -0.4180
  569TMC3    C4 8438   0.198   0.394  15.708 -0.3980 -0.2895  0.2474
  569TMC3    C5 8439   0.224   0.527  15.693 -0.3374 -0.5915  1.0623
  569TMC3    C6 8440   0.282   0.605  15.789 -0.3211  0.2538 -0.3754
  569TMC3     C 8441   0.255   0.200  15.832  0.4557  0.2025 -0.5370
  569TMC3     O 8442   0.265   0.154  15.718 -0.0232  0.6093 -0.4106
  569TMC3     H 8443   0.334   0.378  16.025  0.2769 -0.6643 -0.7620
  569TMC3    H1 8444   0.148   0.329  15.637  1.3898 -0.9689 -0.3754
  569TMC3    H2 8445   0.305   0.709  15.772  0.0271  0.2533  0.0974
  569TMC3    C7 8446   0.162   0.586  15.573  0.3643 -0.4342  0.5308
  569TMC3    C8 8447   0.353   0.640  16.010 -0.4550 -0.4956  0.2668
  569TMC3    O1 8448   0.139   0.519  15.475 -0.0045 -0.8540 -0.1296
  569TMC3    O2 8449   0.284   0.735  16.020  0.1857  0.1735  0.3531
  570TMC3    C1 8450   4.393   3.661  15.982  0.6486 -0.0169  0.5698
  570TMC3    C2 8451   4.526   3.629  15.966  0.0463  0.1222 -0.1140
  570TMC3    C3 8452   4.623   3.697  16.028  0.3591  0.6886 -0.0160
  570TMC3    C4 8453   4.354   3.757  16.074 -0.5692  0.4056 -0.2174
  570TMC3    C5 8454   4.452   3.830  16.141 -0.5791  0.7472 -0.5530
  570TMC3    C6 8455   4.590   3.803  16.115 -0.6788 -0.8290 -0.3798
  570TMC3     C 8456   4.289   3.594  15.901 -0.2709 -0.5939  0.7240
  570TMC3     O 8457   4.319   3.554  15.790  0.2278 -0.2636  0.1105
  570TMC3     H 8458   4.553   3.558  15.887  1.0953 -0.1743  0.5040
  570TMC3    H1 8459   4.247   3.777  16.082 -0.7538 -1.3116  1.5290
  570TMC3    H2 8460   4.666   3.861  16.166 -0.3280 -1.1178 -0.5747
  570TMC3    C7 8461   4.405   3.951  16.196 -0.6251  0.2535 -0.8907
  570TMC3    C8 8462   0.028   3.713  15.959  0.3574 -0.2069  0.0461
  570TMC3    O1 8463   4.281   3.965  16.223  0.2258 -0.5677 -0.4091
  570TMC3    O2 8464   0.071   3.825  15.971 -0.1801 -0.2173 -0.9094
  571MPD2     C 8465   2.802   0.934  16.876 -0.0859 -0.5431 -0.3082
  571MPD2    C1 8466   2.665   0.938  16.887  0.6666 -0.1845 -0.3491
  571MPD2    C2 8467   2.616   0.976  17.013 -0.2796  0.3593 -0.2733
  571MPD2    C3 8468   2.694   1.035  17.112 -0.3793  0.0171  1.1336
  571MPD2    C4 8469   2.828   1.046  17.087 -0.8078  0.1823 -0.8101
  571MPD2    C5 8470   2.880   0.984  16.980  0.8817  0.6690 -0.1385
  571MPD2     H 8471   2.508   0.970  17.022 -0.1846 -1.7386 -0.5235
  571MPD2    H1 8472   2.902   1.088  17.154 -1.7202 -0.2277  0.4536
  571MPD2    H2 8473   2.850   0.893  16.788 -0.7245  1.6736 -1.6937
  571MPD2    H3 8474   2.985   0.965  16.959  1.8153  2.5035  2.9084
  571MPD2     N 8475   2.635   1.100  17.220  0.6790 -0.1299  0.1615
  571MPD2    H5 8476   2.693   1.164  17.274  0.4962  0.7285 -0.6465
  571MPD2    N1 8477   2.580   0.886  16.782  0.6710 -0.4023  0.0750
  571MPD2    H7 8478   2.622   0.844  16.700  0.2862 -0.6799  0.0216
  572TMC3    C1 8479   2.468   1.138  17.383  0.1048  0.0513  0.8726
  572TMC3    C2 8480   2.418   1.049  17.474  0.4183 -0.9254 -0.3634
  572TMC3    C3 8481   2.303   1.075  17.544 -0.5001  0.4116 -0.2618
  572TMC3    C4 8482   2.424   1.262  17.377 -0.5871 -0.2077 -0.1979
  572TMC3    C5 8483   2.318   1.287  17.457  0.0985  0.5923 -0.2221
  572TMC3    C6 8484   2.255   1.200  17.539 -0.1767  0.1981  0.6779
  572TMC3     C 8485   2.503   1.076  17.261 -0.1752 -0.5008  0.0840
  572TMC3     O 8486   2.421   0.996  17.219 -0.3213 -0.1073  0.1189
  572TMC3     H 8487   2.454   0.947  17.462  0.6483 -0.6687 -1.8419
  572TMC3    H1 8488   2.439   1.320  17.286 -0.5025 -1.2067 -0.8297
  572TMC3    H2 8489   2.172   1.241  17.595 -2.4426 -2.5608 -0.6834
  572TMC3    C7 8490   2.235   1.405  17.424 -0.0420 -0.0953 -0.0172
  572TMC3    C8 8491   2.229   0.975  17.613 -0.2149  0.0417  0.5118
  572TMC3    O1 8492   2.113   1.396  17.438 -0.4035  0.1435 -0.0849
  572TMC3    O2 8493   2.282   0.862  17.611 -0.0273 -0.4822  0.5759
  573MPD2     C 8494   4.051   0.984   1.054  0.0496  0.9811 -0.1680
  573MPD2    C1 8495   4.166   1.066   1.025 -1.2992  0.5693  0.0446
  573MPD2    C2 8496   4.181   1.101   0.890 -0.3730  0.1279  0.4988
  573MPD2    C3 8497   4.085   1.073   0.790  0.5797  0.2697 -0.0117
  573MPD2    C4 8498   3.985   0.986   0.821  0.8992  0.2261 -0.1683
  573MPD2    C5 8499   3.979   0.945   0.950  0.2155 -0.2400 -0.6184
  573MPD2     H 8500   4.251   1.180   0.864 -0.3232 -0.7673 -2.0274
  573MPD2    H1 8501   3.911   0.940   0.756  0.3547 -0.0980  0.6740
  573MPD2    H2 8502   4.014   0.960   1.153  0.6868  2.2857  0.3793
  573MPD2    H3 8503   3.898   0.876   0.973 -0.6456  0.7627 -0.6636
  573MPD2     N 8504   4.093   1.122   0.655 -0.0662 -0.6417 -0.2432
  573MPD2    H5 8505   4.031   1.081   0.586  0.0981  0.7447 -1.2401
  573MPD2    N1 8506   4.247   1.121   1.130  0.2642  0.1513  0.3470
  573MPD2    H7 8507   4.209   1.119   1.224 -1.5192  0.1491 -0.3741
  574TMC3    C1 8508   4.142   1.259   0.476 -0.3684 -0.3384 -0.3127
  574TMC3    C2 8509   4.030   1.224   0.414 -0.9056 -0.4860 -0.2378
  574TMC3    C3 8510   4.010   1.269   0.283 -0.0253 -0.1663  0.0301
  574TMC3    C4 8511   4.222   1.353   0.422 -0.5693 -0.3557 -0.8153
  574TMC3    C5 8512   4.213   1.386   0.294  0.5001 -0.1535 -0.1705
  574TMC3    C6 8513   4.104   1.347   0.220 -0.7123 -0.6347 -0.7080
  574TMC3     C 8514   4.171   1.229   0.619 -0.0239 -0.8253  0.7450
  574TMC3     O 8515   4.223   1.320   0.679  0.4553 -0.0925  0.2213
  574TMC3     H 8516   3.950   1.166   0.459 -2.6682  0.2484 -2.4101
  574TMC3    H1 8517   4.306   1.387   0.483 -3.3414  0.5931  2.5037
  574TMC3    H2 8518   4.090   1.388   0.120 -0.9472  1.5477  0.2069
  574TMC3    C7 8519   4.312   1.481   0.236  0.8492  0.7616  0.3386
  574TMC3    C8 8520   3.869   1.260   0.231  0.0003 -0.1547  0.0494
  574TMC3    O1 8521   4.334   1.475   0.114 -0.1537 -0.1098  0.5803
  574TMC3    O2 8522   3.797   1.180   0.287  0.3201  0.5146  0.4468
  575TMC3    C1 8523   1.450   2.482  11.139  0.0963  0.9647  0.0754
  575TMC3    C2 8524   1.388   2.374  11.196 -0.6031 -0.2904 -0.7384
  575TMC3    C3 8525   1.358   2.265  11.120  0.3353 -0.4359  0.0781
  575TMC3    C4 8526   1.500   2.482  11.012  0.1613  0.5156 -0.0288
  575TMC3    C5 8527   1.474   2.365  10.942  0.1326 -0.4851 -0.5879
  575TMC3    C6 8528   1.405   2.252  10.991 -0.0999  0.3395 -0.3282
  575TMC3     C 8529   1.435   2.606  11.221  0.1333 -0.2255 -0.3147
  575TMC3     O 8530   1.369   2.611  11.324  0.0792  0.0232  0.4317
  575TMC3     H 8531   1.363   2.383  11.301  1.0057  1.4944 -0.5099
  575TMC3    H1 8532   1.560   2.565  10.976 -0.0206  0.0078 -1.4943
  575TMC3    H2 8533   1.356   2.173  10.935 -0.1575  0.8531 -1.0065
  575TMC3    C7 8534   1.483   2.381  10.796 -0.7168 -0.2366  0.3368
  575TMC3    C8 8535   1.317   2.137  11.171  0.8482  0.4438  0.1972
  575TMC3    O1 8536   1.511   2.488  10.746  0.5695  0.4956  0.3843
  575TMC3    O2 8537   1.361   2.037  11.112  0.5147  0.1506  0.0866
  576MPD2     C 8538   0.840   3.545  12.444  0.1232  1.1007 -0.3608
  576MPD2    C1 8539   0.833   3.617  12.324 -0.5063 -0.5425  0.5424
  576MPD2    C2 8540   0.740   3.717  12.312  0.5686  0.0244 -0.1090
  576MPD2    C3 8541   0.651   3.755  12.408  0.9919  0.4026  0.5464
  576MPD2    C4 8542   0.679   3.697  12.530  0.1544 -0.7245  0.6355
  576MPD2    C5 8543   0.768   3.597  12.546  0.3068  0.3188  0.1877
  576MPD2     H 8544   0.731   3.770  12.218 -0.4573  0.7250  0.3934
  576MPD2    H1 8545   0.631   3.726  12.623  0.7089 -0.2107  0.7625
  576MPD2    H2 8546   0.901   3.459  12.471  0.7691  0.9396 -2.2662
  576MPD2    H3 8547   0.776   3.545  12.641 -1.8631  0.3910  0.4085
  576MPD2     N 8548   0.560   3.865  12.397  0.0417  0.2624  0.5437
  576MPD2    H5 8549   0.556   3.916  12.309 -0.6565 -0.1384  0.3413
  576MPD2    N1 8550   0.911   3.593  12.206 -0.3866  0.2710  0.4867
  576MPD2    H7 8551   0.905   3.664  12.134  3.3406 -0.0813 -0.2012
  577TMC3    C1 8552   1.063   3.480  12.065 -0.1924  0.4524 -0.3876
  577TMC3    C2 8553   1.179   3.407  12.062 -0.2960  0.2269  0.9189
  577TMC3    C3 8554   1.250   3.407  11.944  0.7725 -0.2246  0.3312
  577TMC3    C4 8555   1.018   3.557  11.955  0.1113  0.0708 -0.6262
  577TMC3    C5 8556   1.091   3.544  11.838  0.4425 -0.7661  0.0348
  577TMC3    C6 8557   1.207   3.475  11.831 -0.3781 -0.1793  0.2758
  577TMC3     C 8558   0.992   3.484  12.192  0.2276  0.1916  0.7167
  577TMC3     O 8559   1.005   3.382  12.264  0.1895 -0.0550  0.0685
  577TMC3     H 8560   1.203   3.349  12.151  0.4624 -1.5380 -0.4134
  577TMC3    H1 8561   0.930   3.621  11.953 -0.6770 -1.0191 -0.6616
  577TMC3    H2 8562   1.260   3.487  11.737  0.0445 -2.2244  0.2677
  577TMC3    C7 8563   1.080   3.651  11.738  0.7155  0.6122 -0.3077
  577TMC3    C8 8564   1.364   3.312  11.931 -0.2392  0.2674 -0.1773
  577TMC3    O1 8565   1.184   3.716  11.735  0.2889 -0.0731  0.3241
  577TMC3    O2 8566   1.376   3.229  12.015  0.3670 -0.1305 -0.4217
  578MPD2     C 8567   4.108   3.193   0.741 -0.2035  0.5305  0.1760
  578MPD2    C1 8568   4.247   3.189   0.729  0.5315 -0.3370 -0.2853
  578MPD2    C2 8569   4.325   3.179   0.842  0.5466  0.5177 -0.1043
  578MPD2    C3 8570   4.262   3.190   0.964 -0.3999 -0.0442 -0.4230
  578MPD2    C4 8571   4.125   3.192   0.975  0.3114 -0.5307 -0.4753
  578MPD2    C5 8572   4.047   3.194   0.862 -0.1738 -0.1020  0.0097
  578MPD2     H 8573   4.433   3.168   0.840  0.2047 -2.6294 -2.6579
  578MPD2    H1 8574   4.072   3.193   1.070 -0.8157 -0.2188 -1.1051
  578MPD2    H2 8575   4.054   3.186   0.648  0.1289 -2.7963  0.2516
  578MPD2    H3 8576   3.940   3.183   0.875 -0.9143  3.8770 -2.4394
  578MPD2     N 8577   4.347   3.195   1.081 -0.0144 -0.2612  0.3229
  578MPD2    H5 8578   4.445   3.191   1.055 -0.5738 -2.9055 -1.3517
  578MPD2    N1 8579   4.311   3.194   0.600  0.0477  0.3972 -0.1921
  578MPD2    H7 8580   4.255   3.208   0.517  0.1844 -1.8009 -0.6663
  579TMC3    C1 8581   4.420   3.216   1.299  0.2006  0.3254 -0.3757
  579TMC3    C2 8582   4.402   3.282   1.418 -0.6586 -0.2402  0.2833
  579TMC3    C3 8583   4.504   3.282   1.508 -0.5209  0.0619 -0.7208
  579TMC3    C4 8584   4.532   3.146   1.264  0.2178 -0.0926  0.2982
  579TMC3    C5 8585   4.628   3.148   1.362 -0.5651  0.2467  0.3369
  579TMC3    C6 8586   4.623   3.218   1.483 -0.0839 -0.9102 -0.0416
  579TMC3     C 8587   4.306   3.218   1.207  0.7146  0.2962 -0.2846
  579TMC3     O 8588   4.200   3.243   1.262  0.3007 -0.6832 -0.3948
  579TMC3     H 8589   4.315   3.343   1.434  1.0505  1.9275  1.2357
  579TMC3    H1 8590   4.544   3.098   1.168  1.9104  1.4530 -0.2598
  579TMC3    H2 8591   4.699   3.206   1.559 -1.5837 -0.9125  1.4677
  579TMC3    C7 8592   0.025   3.063   1.345  0.1575  0.2992  0.0511
  579TMC3    C8 8593   4.499   3.386   1.608 -0.0727  0.6702  0.2977
  579TMC3    O1 8594   0.118   3.079   1.425 -1.0375 -0.1320  0.4846
  579TMC3    O2 8595   4.392   3.411   1.663 -0.2450  0.2550  0.4401
  580TMC3    C1 8596   3.130   3.276  11.926  0.6279  0.3661 -0.6595
  580TMC3    C2 8597   3.201   3.385  11.975  0.0718 -0.0089  0.3173
  580TMC3    C3 8598   3.331   3.375  12.008  0.5407 -0.7928 -0.1666
  580TMC3    C4 8599   3.189   3.150  11.936  0.7902 -0.0318  0.0718
  580TMC3    C5 8600   3.318   3.142  11.982  0.0538  0.2290  0.6028
  580TMC3    C6 8601   3.393   3.254  12.023 -0.0527 -0.1413  0.6679
  580TMC3     C 8602   3.094   3.299  11.792  0.2365 -0.1651 -0.7008
  580TMC3     O 8603   3.173   3.360  11.721  0.4791 -0.3625 -0.2635
  580TMC3     H 8604   3.161   3.486  11.972  1.4620  0.6880  5.2007
  580TMC3    H1 8605   3.140   3.058  11.908 -0.8440  1.7386 -2.8736
  580TMC3    H2 8606   3.496   3.249  12.057  0.1461 -2.3870 -0.2827
  580TMC3    C7 8607   3.379   3.014  11.978 -0.0532  0.3922 -0.9723
  580TMC3    C8 8608   3.409   3.476  11.944  0.2807 -0.6047 -0.0272
  580TMC3    O1 8609   3.451   3.002  12.073  0.0597 -0.0029  0.0109
  580TMC3    O2 8610   3.358   3.588  11.936 -0.0917 -0.1161 -0.0904
  581MPD2     C 8611   1.295   2.428  14.477 -0.3232  0.5035  0.2432
  581MPD2    C1 8612   1.155   2.401  14.480 -0.0278 -0.5425  0.2948
  581MPD2    C2 8613   1.078   2.468  14.381 -0.2689 -0.8897  0.2812
  581MPD2    C3 8614   1.133   2.552  14.283 -0.0178 -0.1937  0.5686
  581MPD2    C4 8615   1.267   2.572  14.283 -0.5574  0.0265  0.3294
  581MPD2    C5 8616   1.344   2.515  14.376 -0.0985 -0.7146 -0.5385
  581MPD2     H 8617   0.970   2.457  14.371 -0.3307  0.5531 -0.7782
  581MPD2    H1 8618   1.318   2.640  14.217 -1.5443 -1.0437 -1.5465
  581MPD2    H2 8619   1.368   2.386  14.543  0.6454  2.4115  0.3969
  581MPD2    H3 8620   1.450   2.536  14.386 -0.0636 -1.3252  0.4234
  581MPD2     N 8621   1.052   2.599  14.177 -0.2981 -0.4284 -0.3515
  581MPD2    H5 8622   1.083   2.680  14.125 -0.5987 -0.7997 -1.1176
  581MPD2    N1 8623   1.102   2.328  14.593 -0.6117  0.2327 -0.8213
  581MPD2    H7 8624   1.165   2.278  14.655 -1.4622  0.0085 -0.1409
  582TMC3    C1 8625   0.945   2.265  14.756  0.4419 -0.1304  0.2123
  582TMC3    C2 8626   1.057   2.223  14.827  0.0381 -1.3208  0.3542
  582TMC3    C3 8627   1.034   2.169  14.946 -0.4935  0.3273  0.1056
  582TMC3    C4 8628   0.820   2.259  14.798 -0.1690 -0.2085  0.4473
  582TMC3    C5 8629   0.800   2.222  14.925 -0.9531 -0.5144 -0.6500
  582TMC3    C6 8630   0.903   2.169  14.990  0.7540 -0.4989  0.3648
  582TMC3     C 8631   0.973   2.333  14.632 -0.9334  0.5218  0.0537
  582TMC3     O 8632   0.879   2.400  14.594  0.0584 -0.5627  0.2757
  582TMC3     H 8633   1.161   2.238  14.798 -0.3649 -0.7514 -0.8110
  582TMC3    H1 8634   0.744   2.318  14.748  0.8837 -0.6513 -1.6636
  582TMC3    H2 8635   0.882   2.136  15.091 -1.4115  1.9785  0.6929
  582TMC3    C7 8636   0.711   2.306  14.997  0.2128 -0.2703  0.0598
  582TMC3    C8 8637   1.131   2.193  15.051 -0.4263  0.1833 -0.7736
  582TMC3    O1 8638   0.603   2.345  14.957  0.5217  0.0624  0.9953
  582TMC3    O2 8639   1.082   2.242  15.150 -0.5799 -0.1841 -0.4244
  583MPD2     C 8640   1.685   3.976  16.531  0.9084  0.5465  0.5338
  583MPD2    C1 8641   1.638   4.084  16.458  0.2351 -0.2307  0.2746
  583MPD2    C2 8642   1.570   4.185  16.521 -0.6121  0.1578  0.2744
  583MPD2    C3 8643   1.525   4.167  16.650 -0.7376 -0.2792 -0.7705
  583MPD2    C4 8644   1.552   4.050  16.719  0.7298 -0.9881  0.5733
  583MPD2    C5 8645   1.632   3.952  16.656  0.0647  0.3365  0.0415
  583MPD2     H 8646   1.566   4.279  16.468 -0.8839  0.2273  0.4146
  583MPD2    H1 8647   1.528   4.036  16.823 -1.4445  0.2130  0.2430
  583MPD2    H2 8648   1.742   3.899  16.480  0.0342  0.0307  0.3455
  583MPD2    H3 8649   1.660   3.860  16.707  1.1525  1.6402  1.8208
  583MPD2     N 8650   1.452   4.275  16.706  0.1682 -0.9562  0.5451
  583MPD2    H5 8651   1.429   4.354  16.647 -0.8577  0.7848  3.2888
  583MPD2    N1 8652   1.672   4.095  16.325 -0.2188  0.1965 -0.3110
  583MPD2    H7 8653   1.667   4.189  16.287 -0.0001  0.3857  0.1239
  584TMC3    C1 8654   1.330   4.408  16.864 -0.0521  0.2534 -0.5793
  584TMC3    C2 8655   1.358   4.523  16.793 -0.5255 -0.4648 -0.2048
  584TMC3    C3 8656   1.315   4.647  16.834 -0.4063  0.8046  0.1667
  584TMC3    C4 8657   1.282   4.427  16.987 -0.3004 -0.0095 -0.0708
  584TMC3    C5 8658   1.263   4.557  17.036 -0.0594 -0.4392  0.0371
  584TMC3    C6 8659   1.276   4.669  16.958 -0.1274  0.0011 -0.1112
  584TMC3     C 8660   1.388   4.278  16.826  0.8017  0.1313 -0.3205
  584TMC3     O 8661   1.362   4.187  16.903 -0.2194 -0.1890  0.2231
  584TMC3     H 8662   1.388   4.516  16.689 -1.9345  1.3137 -0.7176
  584TMC3    H1 8663   1.252   4.343  17.048 -0.5024 -0.5160 -0.8644
  584TMC3    H2 8664   1.246   0.047  16.991 -0.5476 -0.4373  0.8185
  584TMC3    C7 8665   1.266   4.566  17.176  0.1514 -0.1102 -0.9034
  584TMC3    C8 8666   1.325   0.033  16.734 -0.4379  0.1936 -0.2535
  584TMC3    O1 8667   1.298   4.466  17.242  0.0710 -0.5096  0.4276
  584TMC3    O2 8668   1.317   0.005  16.614  0.0089 -0.5187  0.4028
  585MPD2     C 8669   0.874   3.347   0.347 -0.3773  0.4328  0.1255
  585MPD2    C1 8670   0.961   3.256   0.402 -0.2631 -0.5021 -0.0728
  585MPD2    C2 8671   0.984   3.141   0.329 -0.1483 -0.1473  0.9635
  585MPD2    C3 8672   0.913   3.121   0.211  0.4766 -0.0581  0.2353
  585MPD2    C4 8673   0.824   3.216   0.163 -0.1162  0.0086 -0.6218
  585MPD2    C5 8674   0.808   3.331   0.229 -0.3672 -1.0610  0.1163
  585MPD2     H 8675   1.049   3.065   0.371 -0.1283  0.5724  2.2290
  585MPD2    H1 8676   0.755   3.213   0.080  1.3785  0.3259 -1.8565
  585MPD2    H2 8677   0.856   3.440   0.400  0.9213  0.9041 -0.2459
  585MPD2    H3 8678   0.734   3.404   0.198  0.7900  0.5896  1.2214
  585MPD2     N 8679   0.911   2.999   0.141 -0.1686 -0.6428 -0.1343
  585MPD2    H5 8680   0.842   2.986   0.067 -0.5034 -2.4197  0.4936
  585MPD2    N1 8681   1.028   3.287   0.525  0.0816  0.1557 -0.1316
  585MPD2    H7 8682   0.992   3.372   0.568  0.9139  0.2495  0.3835
  586TMC3    C1 8683   1.009   2.791   0.061 -0.2264  0.3663 -0.5907
  586TMC3    C2 8684   1.045   2.671   0.111  0.1405 -0.1020  0.4235
  586TMC3    C3 8685   1.039   2.563   0.028  0.4524  0.3322 -0.1344
  586TMC3    C4 8686   0.946   2.808  17.632 -0.3048  0.3678  0.4720
  586TMC3    C5 8687   0.949   2.695  17.546 -0.1090  0.6430  0.5455
  586TMC3    C6 8688   0.997   2.572  17.588 -0.5549 -1.3721 -0.1856
  586TMC3     C 8689   1.002   2.895   0.159 -0.0317  0.2800 -0.1335
  586TMC3     O 8690   1.101   2.891   0.234  0.1780 -0.2122 -0.0066
  586TMC3     H 8691   1.088   2.659   0.210  3.5185  0.2546 -1.0296
  586TMC3    H1 8692   0.911   2.904  17.595 -1.0780 -1.1867 -2.8146
  586TMC3    H2 8693   0.972   2.486  17.526 -1.2583 -1.4996  0.2733
  586TMC3    C7 8694   0.862   2.702  17.431  0.8886  0.5404  0.9674
  586TMC3    C8 8695   1.069   2.434   0.079 -0.1648  0.7884  0.6780
  586TMC3    O1 8696   0.829   2.593  17.382 -0.0595 -0.2334  0.1784
  586TMC3    O2 8697   1.036   2.342   0.005 -0.1893 -0.2817  0.1949
  587TMC3    C1 8698   3.593   2.129  16.351 -0.2343 -1.1408  0.2245
  587TMC3    C2 8699   3.544   2.123  16.481  0.6160 -0.2366 -0.1832
  587TMC3    C3 8700   3.600   2.188  16.580 -0.4203 -0.2984 -0.7503
  587TMC3    C4 8701   3.698   2.214  16.324 -0.0784  0.2336 -0.4305
  587TMC3    C5 8702   3.752   2.292  16.426  0.7766 -0.5232 -0.4223
  587TMC3    C6 8703   3.689   2.284  16.549  0.4805  0.1410  0.1322
  587TMC3     C 8704   3.497   2.138  16.240  0.9464  0.4950  0.2299
  587TMC3     O 8705   3.542   2.190  16.134  0.0663  0.8558  0.0060
  587TMC3     H 8706   3.467   2.050  16.503 -1.4357  1.5124 -1.5553
  587TMC3    H1 8707   3.735   2.228  16.223 -0.1114  0.2200 -0.4443
  587TMC3    H2 8708   3.717   2.357  16.624  0.0391  0.7696 -0.3198
  587TMC3    C7 8709   3.889   2.338  16.435  0.4163 -0.0305  0.1020
  587TMC3    C8 8710   3.523   2.223  16.691 -0.1233 -0.4133  0.2897
  587TMC3    O1 8711   3.934   2.336  16.546  0.2288 -0.7383 -0.2034
  587TMC3    O2 8712   3.577   2.222  16.802 -0.4957 -0.0506 -0.2085
  588TMC3    C1 8713   0.219   0.244   9.420  0.3432  0.3272 -0.5948
  588TMC3    C2 8714   0.200   0.108   9.424  0.0620 -0.2045 -0.5646
  588TMC3    C3 8715   0.310   0.026   9.435  0.1381  0.2277  0.1261
  588TMC3    C4 8716   0.340   0.302   9.405 -0.0345  0.0922  0.1653
  588TMC3    C5 8717   0.445   0.218   9.391  0.2131 -0.2092 -0.5320
  588TMC3    C6 8718   0.439   0.086   9.415 -0.0386  0.0534  0.1562
  588TMC3     C 8719   0.104   0.337   9.439 -0.3752  0.1479  0.2771
  588TMC3     O 8720   4.717   0.302   9.396 -0.2992  0.0053 -0.4055
  588TMC3     H 8721   0.101   0.066   9.436 -0.8354  1.5795 -1.7623
  588TMC3    H1 8722   0.342   0.407   9.379  2.0797 -0.1615 -0.7343
  588TMC3    H2 8723   0.526   0.023   9.398  1.3708  2.6140 -2.2616
  588TMC3    C7 8724   0.575   0.273   9.425 -0.1669  0.1650  0.1878
  588TMC3    C8 8725   0.292   4.610   9.464 -0.0119  0.4237  0.0675
  588TMC3    O1 8726   0.666   0.195   9.454 -0.0968  0.4448 -0.2025
  588TMC3    O2 8727   0.175   4.575   9.481  0.1627  0.6231 -0.6001
  589TMC3    C1 8728   0.325   1.969   1.302  0.3242 -0.0219 -0.1585
  589TMC3    C2 8729   0.362   2.055   1.402 -0.3039 -0.2220  0.3029
  589TMC3    C3 8730   0.461   2.005   1.480 -0.0413 -0.0169 -0.1548
  589TMC3    C4 8731   0.396   1.852   1.279  0.1756 -0.5195  0.4071
  589TMC3    C5 8732   0.488   1.805   1.366  0.3436 -0.2835  0.5152
  589TMC3    C6 8733   0.524   1.881   1.472  0.4895 -0.0051 -0.7317
  589TMC3     C 8734   0.202   1.999   1.226  0.8528 -0.1651  0.5660
  589TMC3     O 8735   0.181   1.921   1.133  0.5190  0.3258 -0.0545
  589TMC3     H 8736   0.336   2.160   1.408  3.1201  0.6122  1.0056
  589TMC3    H1 8737   0.370   1.788   1.195 -1.8273  2.0700 -0.9504
  589TMC3    H2 8738   0.588   1.838   1.548 -1.0168 -1.1609 -0.1087
  589TMC3    C7 8739   0.522   1.670   1.339  0.0000  0.0289  0.3122
  589TMC3    C8 8740   0.514   2.094   1.571 -0.1071 -0.2121  0.0988
  589TMC3    O1 8741   0.461   1.599   1.261  0.1328  0.6320 -0.5359
  589TMC3    O2 8742   0.426   2.162   1.623  0.3358  0.4581 -0.6110
  590MPD2     C 8743   4.048   0.805  16.619 -0.3070  0.0637  0.5564
  590MPD2    C1 8744   4.011   0.837  16.490  0.0706  0.3967  0.6748
  590MPD2    C2 8745   4.108   0.890  16.400 -0.2757 -0.0865  0.6419
  590MPD2    C3 8746   4.239   0.900  16.445  0.5787  0.5645  0.0959
  590MPD2    C4 8747   4.270   0.870  16.572 -0.5230  0.4306 -0.1219
  590MPD2    C5 8748   4.175   0.817  16.654  0.6998 -0.4528 -0.1147
  590MPD2     H 8749   4.097   0.911  16.294  1.2008  1.2763  0.7733
  590MPD2    H1 8750   4.364   0.884  16.623 -0.0441 -0.8803 -0.6389
  590MPD2    H2 8751   3.976   0.762  16.687  1.6687 -1.5923  1.6023
  590MPD2    H3 8752   4.204   0.799  16.757 -1.0639 -2.6520  0.0017
  590MPD2     N 8753   4.338   0.944  16.354  0.9441 -0.0598 -0.5161
  590MPD2    H5 8754   4.320   1.000  16.271 -0.5550  0.0497 -0.1255
  590MPD2    N1 8755   3.886   0.786  16.453 -0.5574 -0.7637  0.2060
  590MPD2    H7 8756   3.834   0.753  16.534  0.9883  1.2495  2.0130
  591TMC3    C1 8757   4.537   0.922  16.231 -0.2600 -0.1729 -0.4550
  591TMC3    C2 8758   4.554   0.807  16.157  0.0244 -0.0371  0.5103
  591TMC3    C3 8759   4.556   0.817  16.022  0.5195  0.2187 -0.6067
  591TMC3    C4 8760   4.496   1.039  16.173 -0.5794 -0.6940  0.4612
  591TMC3    C5 8761   4.483   1.045  16.039  0.1976 -0.3093  0.9880
  591TMC3    C6 8762   4.508   0.933  15.956  0.3290  0.1573 -0.0187
  591TMC3     C 8763   4.462   0.887  16.353  0.7309 -0.3096  0.1308
  591TMC3     O 8764   4.499   0.793  16.420 -0.0274 -0.4282 -0.6205
  591TMC3     H 8765   4.564   0.708  16.198 -1.6296 -0.1573  0.6311
  591TMC3    H1 8766   4.496   1.132  16.229 -1.1249 -0.5674  0.2504
  591TMC3    H2 8767   4.488   0.940  15.850 -1.5176  0.2090  0.3230
  591TMC3    C7 8768   4.369   1.131  16.010  0.3622  0.0082  0.2741
  591TMC3    C8 8769   4.570   0.695  15.954  1.0067  0.1071  0.8524
  591TMC3    O1 8770   4.287   1.163  16.094  0.2223 -0.7971  0.6473
  591TMC3    O2 8771   4.587   0.596  16.026 -0.0887 -0.0397 -0.4500
  592MPD2     C 8772   4.389   2.894  10.907  0.2569 -0.9145  0.0826
  592MPD2    C1 8773   4.415   2.928  11.036  1.1739 -0.3710 -0.0835
  592MPD2    C2 8774   4.344   2.866  11.138  0.4868 -0.3429 -0.3214
  592MPD2    C3 8775   4.262   2.760  11.107 -0.1918  0.1630 -0.0025
  592MPD2    C4 8776   4.240   2.720  10.974  0.3963  0.4393 -0.0716
  592MPD2    C5 8777   4.310   2.788  10.877  0.2371 -0.5599 -0.2352
  592MPD2     H 8778   4.355   2.901  11.240 -0.6506  1.0524 -0.6803
  592MPD2    H1 8779   4.179   2.634  10.947  1.1864 -0.8082  2.0744
  592MPD2    H2 8780   4.442   2.946  10.828  1.7717 -1.7286  0.5691
  592MPD2    H3 8781   4.306   2.766  10.771 -0.8044  1.3204 -0.5980
  592MPD2     N 8782   4.194   2.702  11.218  0.0658  0.4190 -0.0363
  592MPD2    H5 8783   4.198   2.753  11.306 -1.5968  0.9869 -0.2931
  592MPD2    N1 8784   4.504   3.036  11.065  0.1795  0.2073 -0.2460
  592MPD2    H7 8785   4.544   3.081  10.984 -0.5689  1.0449 -0.1529
  593TMC3    C1 8786   4.655   3.170  11.180  0.3665  0.2651 -0.8527
  593TMC3    C2 8787   4.691   3.219  11.299  0.9749 -0.4409  0.5879
  593TMC3    C3 8788   0.022   3.343  11.304  0.7221  0.0569  0.0914
  593TMC3    C4 8789   4.665   3.239  11.065  0.3989 -0.2935  0.4940
  593TMC3    C5 8790   4.693   3.376  11.073 -0.1932  0.4827  0.7012
  593TMC3    C6 8791   0.018   3.420  11.190  0.1842  0.3442  0.3535
  593TMC3     C 8792   4.557   3.060  11.184 -0.0654  0.2140  0.3082
  593TMC3     O 8793   4.551   2.996  11.290  0.3999 -0.2871 -0.8189
  593TMC3     H 8794   4.673   3.173  11.396  0.2517 -0.2920  0.5302
  593TMC3    H1 8795   4.655   3.195  10.966  0.3783  1.1456 -0.1532
  593TMC3    H2 8796   0.063   3.519  11.194  1.8108 -0.2611 -3.1882
  593TMC3    C7 8797   0.014   3.448  10.954 -0.0744  0.1548  0.3934
  593TMC3    C8 8798   0.073   3.394  11.421 -0.2030  0.6246  0.0482
  593TMC3    O1 8799   0.076   3.552  10.970  0.0531  0.0220 -0.5997
  593TMC3    O2 8800   0.116   3.322  11.511 -0.1914  0.3970  0.0977
  594MPD2     C 8801   2.900   1.291  13.838  0.3647  0.2453  0.0886
  594MPD2    C1 8802   2.905   1.268  13.978 -0.3045  0.7591 -0.0454
  594MPD2    C2 8803   3.010   1.312  14.055 -0.0850 -0.1905 -0.4954
  594MPD2    C3 8804   3.121   1.377  13.993 -0.2059  0.1319 -0.2743
  594MPD2    C4 8805   3.117   1.400  13.857  0.6609 -0.2410 -0.6700
  594MPD2    C5 8806   3.007   1.355  13.783 -0.5428 -0.2310  0.2534
  594MPD2     H 8807   3.011   1.290  14.161 -2.2604 -0.3600 -0.5141
  594MPD2    H1 8808   3.195   1.451  13.803  0.3046 -0.5235 -1.4435
  594MPD2    H2 8809   2.817   1.276  13.769  2.1845  3.5563 -2.8275
  594MPD2    H3 8810   3.009   1.365  13.675 -1.1103 -3.1709 -0.0276
  594MPD2     N 8811   3.225   1.426  14.083 -0.4612 -0.6012 -1.0613
  594MPD2    H5 8812   3.226   1.396  14.180  1.2800  0.3740 -0.7763
  594MPD2    N1 8813   2.793   1.195  14.027  0.1862 -0.8878  0.2331
  594MPD2    H7 8814   2.722   1.162  13.964 -0.5860  0.1060  0.5701
  595TMC3    C1 8815   3.617   1.623  14.226 -1.0314 -0.8055  0.8918
  595TMC3    C2 8816   3.549   1.556  14.127  0.1454 -0.4505 -0.1339
  595TMC3    C3 8817   3.417   1.535  14.153 -0.4861 -0.4147 -0.0988
  595TMC3    C4 8818   3.559   1.653  14.348 -0.1528  0.1991  0.0349
  595TMC3    C5 8819   3.426   1.628  14.368  0.4633 -0.0660 -0.2650
  595TMC3    C6 8820   3.354   1.564  14.275  0.5973 -0.2755  0.5355
  595TMC3     C 8821   3.741   1.683  14.202 -0.1296  0.2717  0.9096
  595TMC3     O 8822   3.762   1.794  14.255  0.1591  0.2960  0.6681
  595TMC3     H 8823   3.578   1.535  14.025 -0.0979 -0.5521 -0.1820
  595TMC3    H1 8824   3.623   1.713  14.412 -0.5514 -0.1807  0.7867
  595TMC3    H2 8825   3.246   1.554  14.286  0.3665  1.5498 -0.0212
  595TMC3    C7 8826   3.357   1.666  14.491  0.0875  0.0557 -0.6630
  595TMC3    C8 8827   3.338   1.493  14.043 -0.4573  0.4657 -0.2430
  595TMC3    O1 8828   3.235   1.660  14.495 -0.0301  0.1641  0.2817
  595TMC3    O2 8829   3.374   1.532  13.929 -0.3879  0.0456 -0.5326
  596MPD2     C 8830   2.444   3.907  16.576  0.6620 -0.0633  0.6858
  596MPD2    C1 8831   2.427   4.028  16.507  0.1771  0.0905  0.3499
  596MPD2    C2 8832   2.431   4.044  16.370  0.1756 -0.5979 -0.2286
  596MPD2    C3 8833   2.445   3.926  16.301  0.7404  0.0570 -0.1476
  596MPD2    C4 8834   2.455   3.801  16.368 -0.1741  0.2893  0.0457
  596MPD2    C5 8835   2.456   3.790  16.503 -1.3076  0.8542  0.2521
  596MPD2     H 8836   2.435   4.142  16.325 -2.5837 -0.1902  0.3897
  596MPD2    H1 8837   2.461   3.706  16.317  0.3829 -0.0066  0.6535
  596MPD2    H2 8838   2.435   3.897  16.684  1.9033  0.8341  0.8689
  596MPD2    H3 8839   2.475   3.694  16.551 -1.2298  0.5824 -0.3252
  596MPD2     N 8840   2.448   3.910  16.158  0.4945  0.3220  0.2255
  596MPD2    H5 8841   2.475   3.818  16.126  0.6418  0.1235  0.9165
  596MPD2    N1 8842   2.420   4.146  16.578 -0.3507 -0.1692 -0.5175
  596MPD2    H7 8843   2.403   4.237  16.536 -0.0988  0.5705  0.9696
  597TMC3    C1 8844   2.414   4.295  16.752  0.0612 -0.2907  0.2478
  597TMC3    C2 8845   2.517   4.374  16.794 -0.4916 -0.2519  0.6110
  597TMC3    C3 8846   2.494   4.503  16.847 -0.3790  0.5484 -0.5149
  597TMC3    C4 8847   2.283   4.336  16.752  0.1085  0.1415 -0.5837
  597TMC3    C5 8848   2.262   4.464  16.793 -0.4451  0.2114 -0.5846
  597TMC3    C6 8849   2.363   4.549  16.836 -1.1005 -0.2283  0.1316
  597TMC3     C 8850   2.447   4.158  16.714 -0.4771  0.0453 -0.0747
  597TMC3     O 8851   2.506   4.086  16.791  0.5843  0.0720  0.4811
  597TMC3     H 8852   2.613   4.324  16.789  0.2902  1.3328  0.0387
  597TMC3    H1 8853   2.207   4.273  16.708 -0.2032  1.6769 -2.2528
  597TMC3    H2 8854   2.345   4.656  16.841  3.0757  0.4661 -0.4178
  597TMC3    C7 8855   2.123   4.497  16.832  0.1903  0.1914 -0.6706
  597TMC3    C8 8856   2.593   4.605  16.834 -0.4756 -0.1106  0.6559
  597TMC3    O1 8857   2.063   4.405  16.879  0.1003 -0.2204  0.2242
  597TMC3    O2 8858   2.557   0.003  16.823  0.0478 -0.4232 -0.2536
  598TMC3    C1 8859   0.379   0.755  14.965 -0.9056 -0.7118 -0.2037
  598TMC3    C2 8860   0.260   0.699  14.930 -0.2929 -0.1634 -0.2565
  598TMC3    C3 8861   0.226   0.708  14.798 -0.2611 -0.1719 -0.1557
  598TMC3    C4 8862   0.467   0.809  14.869  0.7589 -0.7277 -0.6548
  598TMC3    C5 8863   0.429   0.814  14.736 -0.2235 -0.0717 -0.4396
  598TMC3    C6 8864   0.304   0.766  14.704  0.1228 -0.6191  0.4070
  598TMC3     C 8865   0.423   0.763  15.101 -0.0079 -0.2078  0.4556
  598TMC3     O 8866   0.476   0.867  15.139  0.0925 -0.2952 -0.8264
  598TMC3     H 8867   0.195   0.660  15.007  1.0501  1.1795  1.5461
  598TMC3    H1 8868   0.569   0.836  14.895  0.0824  1.0461  0.2066
  598TMC3    H2 8869   0.268   0.765  14.601  1.0717 -1.7355  0.0809
  598TMC3    C7 8870   0.521   0.869  14.633 -0.2101 -0.2256 -0.1362
  598TMC3    C8 8871   0.096   0.653  14.763 -0.3106  0.4342 -0.0396
  598TMC3    O1 8872   0.501   0.849  14.517 -0.1624 -0.4657 -0.7209
  598TMC3    O2 8873   0.051   0.569  14.839  0.5738  0.3025 -0.4740
  599MPD2     C 8874   0.889   3.348  16.021 -0.3928 -0.3638  0.5354
  599MPD2    C1 8875   0.815   3.244  15.961  0.0445 -0.1913 -0.7738
  599MPD2    C2 8876   0.681   3.241  15.990 -0.4758 -0.0765 -0.3925
  599MPD2    C3 8877   0.621   3.349  16.055  0.0026  0.0364 -0.4813
  599MPD2    C4 8878   0.697   3.458  16.096 -0.1886 -0.2390  0.0488
  599MPD2    C5 8879   0.833   3.455  16.085 -0.1964  0.1339  0.0670
  599MPD2     H 8880   0.621   3.166  15.940 -1.8850  1.0095 -0.3402
  599MPD2    H1 8881   0.647   3.542  16.141  0.2448  0.5783 -0.9977
  599MPD2    H2 8882   0.998   3.346  16.019 -0.4369 -1.2825 -0.9152
  599MPD2    H3 8883   0.901   3.535  16.112 -0.0888  0.3363 -0.8113
  599MPD2     N 8884   0.482   3.361  16.077 -0.2576  0.2662 -0.1615
  599MPD2    H5 8885   0.447   3.436  16.136  1.5140 -0.9264  2.4399
  599MPD2    N1 8886   0.884   3.155  15.871  0.4116  0.3649  0.1651
  599MPD2    H7 8887   0.983   3.174  15.860  0.4591  0.5253  0.8421
  600TMC3    C1 8888   0.251   3.289  16.096  0.0554 -0.3518  0.0734
  600TMC3    C2 8889   0.175   3.171  16.115  0.0819 -0.8343 -0.5507
  600TMC3    C3 8890   0.075   3.170  16.210 -0.5260 -0.2328  0.9459
  600TMC3    C4 8891   0.219   3.397  16.175 -0.6946  0.1833  0.0578
  600TMC3    C5 8892   0.123   3.388  16.271  0.0959  1.3950  1.0289
  600TMC3    C6 8893   0.045   3.277  16.288  0.6373 -0.3086 -0.4570
  600TMC3     C 8894   0.390   3.267  16.038 -0.5424 -0.5706 -0.2208
  600TMC3     O 8895   0.404   3.170  15.966 -0.7266 -0.2512  0.1662
  600TMC3     H 8896   0.201   3.083  16.057 -0.9803 -0.7850 -1.1074
  600TMC3    H1 8897   0.269   3.489  16.148  2.5353 -1.2782  1.1517
  600TMC3    H2 8898   4.689   3.271  16.364  1.3545 -0.7250  0.2354
  600TMC3    C7 8899   0.066   3.516  16.327 -0.1170 -0.4384 -0.1897
  600TMC3    C8 8900   4.700   3.064  16.231 -0.4037 -0.5002 -0.0031
  600TMC3    O1 8901   4.678   3.504  16.382  0.5037  0.1173  0.0572
  600TMC3    O2 8902   4.645   3.012  16.137  0.2733 -0.2649 -0.0925
  601MPD2     C 8903   2.177   1.886  17.261 -0.0718  0.4902 -0.5065
  601MPD2    C1 8904   2.086   1.809  17.315 -1.0601  0.0163  0.5999
  601MPD2    C2 8905   2.131   1.681  17.354  0.1600  0.1174 -0.1837
  601MPD2    C3 8906   2.266   1.641  17.337 -0.6449  0.2369  0.1012
  601MPD2    C4 8907   2.352   1.733  17.294  0.8674 -0.0475 -0.5174
  601MPD2    C5 8908   2.307   1.852  17.254  0.0250 -0.2832  0.6774
  601MPD2     H 8909   2.065   1.608  17.400 -0.5360  1.5371  1.0708
  601MPD2    H1 8910   2.458   1.708  17.292  1.2403  1.1713  2.8375
  601MPD2    H2 8911   2.151   1.981  17.215 -0.0037  0.9332  0.3678
  601MPD2    H3 8912   2.381   1.926  17.228 -0.5476  0.5015  1.2962
  601MPD2     N 8913   2.315   1.515  17.389  0.1124 -0.3952 -0.4650
  601MPD2    H5 8914   2.415   1.504  17.395  0.0824  0.5181  1.8095
  601MPD2    N1 8915   1.954   1.846  17.335 -0.0781 -0.2283  0.1763
  601MPD2    H7 8916   1.883   1.774  17.339 -0.8072  0.6670  3.4366
  602TMC3    C1 8917   1.778   1.997  17.325  0.0004 -0.2482 -0.4546
  602TMC3    C2 8918   1.750   2.133  17.327  0.3195 -0.7339 -0.1264
  602TMC3    C3 8919   1.620   2.163  17.344  0.0158  0.1086  0.4121
  602TMC3    C4 8920   1.681   1.897  17.328  0.4408 -0.5290 -0.4076
  602TMC3    C5 8921   1.550   1.941  17.345 -0.4722  0.3488  0.0655
  602TMC3    C6 8922   1.517   2.071  17.358  0.4936  0.0881 -0.4364
  602TMC3     C 8923   1.920   1.980  17.340 -0.2408 -0.2493 -0.2957
  602TMC3     O 8924   1.999   2.076  17.352 -0.2837 -0.2361  0.3047
  602TMC3     H 8925   1.824   2.212  17.328  1.4844 -1.8362  1.5316
  602TMC3    H1 8926   1.697   1.790  17.336 -0.0701 -0.6651 -1.1470
  602TMC3    H2 8927   1.417   2.098  17.393  0.6412 -3.2020  2.4880
  602TMC3    C7 8928   1.467   1.876  17.238 -0.0511  0.6524  1.0394
  602TMC3    C8 8929   1.594   2.290  17.280  1.2862  0.0487 -0.3161
  602TMC3    O1 8930   1.471   1.757  17.218  0.6262 -0.2610 -0.0372
  602TMC3    O2 8931   1.673   2.350  17.206 -0.5103  0.1166 -0.1407
  603TMC3    C1 8932   1.067   2.103  10.710 -0.1321 -0.3809 -0.2454
  603TMC3    C2 8933   1.042   2.106  10.843 -0.8647  0.3606  0.4066
  603TMC3    C3 8934   1.038   2.222  10.913 -0.3631 -0.1029  0.6380
  603TMC3    C4 8935   1.075   2.219  10.636  0.6149  0.4180 -0.2368
  603TMC3    C5 8936   1.050   2.334  10.702  0.1457 -0.0595 -0.2829
  603TMC3    C6 8937   1.032   2.340  10.840  0.2109 -0.6919 -0.2879
  603TMC3     C 8938   1.034   1.975  10.643  0.0763 -0.1410  0.4425
  603TMC3     O 8939   0.994   1.974  10.527 -0.8207  0.4460  0.2123
  603TMC3     H 8940   1.021   2.019  10.904 -1.7965 -0.2927 -0.8446
  603TMC3    H1 8941   1.084   2.215  10.528  0.4291  0.7369 -0.2669
  603TMC3    H2 8942   1.043   2.429  10.901 -2.3077  0.6504 -1.7980
  603TMC3    C7 8943   1.088   2.464  10.643  0.0567 -0.0899  0.2007
  603TMC3    C8 8944   0.961   2.214  11.042  0.0971 -0.7281  0.8294
  603TMC3    O1 8945   1.131   2.553  10.716  0.3890 -0.0799  0.2534
  603TMC3    O2 8946   0.998   2.117  11.106 -0.5673  0.0044  0.0443
  604MPD2     C 8947   1.417   0.665  16.053  0.3276 -0.0703 -0.1961
  604MPD2    C1 8948   1.297   0.619  15.998  0.1320  0.2729  0.2240
  604MPD2    C2 8949   1.297   0.554  15.877 -0.7248 -0.0903  0.6999
  604MPD2    C3 8950   1.415   0.511  15.812 -0.5806 -0.2837 -0.6370
  604MPD2    C4 8951   1.527   0.550  15.871 -1.1906  0.0036 -0.0540
  604MPD2    C5 8952   1.532   0.630  15.989  0.2079  0.0212 -0.4405
  604MPD2     H 8953   1.201   0.527  15.834 -1.2043  2.0759  0.4029
  604MPD2    H1 8954   1.626   0.526  15.833 -1.5887 -0.8151 -0.5617
  604MPD2    H2 8955   1.427   0.717  16.147 -0.5245  1.0073 -0.6903
  604MPD2    H3 8956   1.627   0.640  16.041  0.2599 -1.3878 -0.2533
  604MPD2     N 8957   1.417   0.429  15.693 -0.0896 -0.6493  0.4645
  604MPD2    H5 8958   1.328   0.396  15.658  0.1068 -0.3556 -0.3170
  604MPD2    N1 8959   1.183   0.645  16.075  0.2455 -0.2213 -0.0617
  604MPD2    H7 8960   1.208   0.690  16.162 -2.3104  1.2463 -0.0983
  605TMC3    C1 8961   0.972   0.685  16.140 -0.4605 -0.0527 -0.0171
  605TMC3    C2 8962   1.036   0.736  16.245  0.3952 -0.8487  0.8229
  605TMC3    C3 8963   0.988   0.856  16.293  0.1765 -0.2356 -0.3046
  605TMC3    C4 8964   0.852   0.733  16.085 -0.3156 -0.4551  0.8252
  605TMC3    C5 8965   0.801   0.847  16.147  0.4157 -0.3701 -0.5432
  605TMC3    C6 8966   0.873   0.913  16.248  0.4378 -0.1610 -0.2124
  605TMC3     C 8967   1.052   0.621  16.042 -0.7878  0.3642 -0.6495
  605TMC3     O 8968   0.999   0.552  15.958  0.0348 -0.0630 -0.4501
  605TMC3     H 8969   1.127   0.692  16.284  1.9210 -0.1281 -1.8838
  605TMC3    H1 8970   0.811   0.673  16.004  1.7756  0.9642 -1.2549
  605TMC3    H2 8971   0.833   1.006  16.287 -3.3067 -1.3236 -1.3065
  605TMC3    C7 8972   0.695   0.913  16.082 -0.0843  0.5248  0.0583
  605TMC3    C8 8973   1.110   0.938  16.309 -0.4827  0.2039 -0.6626
  605TMC3    O1 8974   0.656   1.012  16.144 -0.0504  0.3603 -0.6534
  605TMC3    O2 8975   1.212   0.889  16.260  0.7324 -0.0982 -0.4487
  606TMC3    C1 8976   2.824   3.920  16.846 -0.0251  0.3303  0.0104
  606TMC3    C2 8977   2.897   3.882  16.956  0.5996  1.1500  0.4844
  606TMC3    C3 8978   2.865   3.762  17.011 -0.0487 -0.3813 -0.6330
  606TMC3    C4 8979   2.727   3.840  16.781 -0.0133  0.1972 -0.4271
  606TMC3    C5 8980   2.690   3.732  16.855  0.0841 -0.1355  0.9552
  606TMC3    C6 8981   2.760   3.685  16.965 -0.0349  0.2666  0.2820
  606TMC3     C 8982   2.860   4.046  16.789  0.1914  0.7958 -0.1138
  606TMC3     O 8983   2.932   4.117  16.860 -0.2037  0.5791  0.8784
  606TMC3     H 8984   2.981   3.940  16.992 -1.5085  4.0925  0.6789
  606TMC3    H1 8985   2.686   3.860  16.683  1.4459  0.5196 -0.9766
  606TMC3    H2 8986   2.723   3.597  17.017  0.6605 -1.4195 -2.0766
  606TMC3    C7 8987   2.613   3.638  16.784  0.4901  0.2402 -0.7093
  606TMC3    C8 8988   2.979   3.696  17.075 -0.1296 -1.2633 -0.8755
  606TMC3    O1 8989   2.664   3.606  16.680 -0.9627 -0.0693 -0.1840
  606TMC3    O2 8990   3.062   3.772  17.119  0.2100 -0.0843  0.4296
  607MPD2     C 8991   4.368   2.383  11.325 -0.0446  0.5354 -0.1490
  607MPD2    C1 8992   4.447   2.440  11.416  0.1184 -0.3660  0.3631
  607MPD2    C2 8993   4.443   2.392  11.546 -0.7046 -0.2058  0.1882
  607MPD2    C3 8994   4.353   2.297  11.581  0.0179  0.9792  0.2727
  607MPD2    C4 8995   4.268   2.248  11.488  0.4716 -0.0328 -0.3063
  607MPD2    C5 8996   4.275   2.288  11.359 -0.2534  0.2748  0.3537
  607MPD2     H 8997   4.529   2.414  11.608 -0.1530  0.9310 -0.9955
  607MPD2    H1 8998   4.183   2.192  11.524  1.7449 -1.0291  1.1521
  607MPD2    H2 8999   4.379   2.407  11.220 -0.1027  0.6428 -0.1300
  607MPD2    H3 9000   4.197   2.257  11.291 -0.2880  2.5192 -0.6476
  607MPD2     N 9001   4.360   2.270  11.717 -0.3998 -0.7309  0.4961
  607MPD2    H5 9002   4.436   2.317  11.764 -0.8629 -0.1332  0.6593
  607MPD2    N1 9003   4.551   2.522  11.386  0.6903 -0.1232 -0.7691
  607MPD2    H7 9004   4.611   2.533  11.468  1.4754  0.0668 -1.3665
  608TMC3    C1 9005   4.708   2.641  11.282 -0.1798  0.7565  0.3146
  608TMC3    C2 9006   0.066   2.623  11.398  0.1065 -0.2420  0.8252
  608TMC3    C3 9007   0.189   2.684  11.395 -0.1991 -0.4829 -0.1727
  608TMC3    C4 9008   0.015   2.751  11.200 -0.2437 -0.7798  0.3402
  608TMC3    C5 9009   0.139   2.815  11.209  0.4114  0.3570 -0.0215
  608TMC3    C6 9010   0.223   2.786  11.312  0.1038  0.0983  0.1828
  608TMC3     C 9011   4.578   2.580  11.264 -0.1203 -0.8562  0.3479
  608TMC3     O 9012   4.529   2.571  11.153  0.3382 -0.5507 -0.3485
  608TMC3     H 9013   0.055   2.535  11.461 -0.1861 -0.9340 -0.1869
  608TMC3    H1 9014   4.668   2.774  11.119  1.0709  0.8258 -0.3248
  608TMC3    H2 9015   0.326   2.820  11.316  0.4028 -0.9386  1.1454
  608TMC3    C7 9016   0.160   2.935  11.135 -0.2460 -0.1101 -0.1380
  608TMC3    C8 9017   0.281   2.639  11.502  0.2856  0.1930  1.0055
  608TMC3    O1 9018   0.103   2.944  11.027  0.2675  0.2719  0.1035
  608TMC3    O2 9019   0.402   2.642  11.483  0.8880 -0.3185  0.4559
  609TMC3    C1 9020   3.367   1.841   8.961  0.7181 -0.2615  0.0780
  609TMC3    C2 9021   3.448   1.950   8.933 -0.7626 -0.7423  0.3730
  609TMC3    C3 9022   3.581   1.924   8.895 -0.4053  0.3977 -0.1722
  609TMC3    C4 9023   3.413   1.713   8.949  0.9458  0.2034  0.4215
  609TMC3    C5 9024   3.544   1.693   8.909 -0.0525  1.0885 -0.2932
  609TMC3    C6 9025   3.625   1.796   8.883 -0.7460 -0.2535 -0.5923
  609TMC3     C 9026   3.228   1.851   8.973  0.7533  0.0736  0.2896
  609TMC3     O 9027   3.164   1.754   9.007  0.0914 -0.5083 -0.0209
  609TMC3     H 9028   3.409   2.047   8.963 -2.1768 -0.5862 -1.9908
  609TMC3    H1 9029   3.348   1.627   8.963 -1.9443  2.1332 -1.1566
  609TMC3    H2 9030   3.726   1.768   8.854 -0.5523 -1.1893  0.9550
  609TMC3    C7 9031   3.588   1.561   8.880  0.5753  0.2189 -0.7050
  609TMC3    C8 9032   3.654   2.027   8.821 -0.2684  0.2921 -0.5248
  609TMC3    O1 9033   3.701   1.549   8.917 -0.4361 -0.4142 -0.2748
  609TMC3    O2 9034   3.755   1.984   8.766 -0.0094  0.3854  0.5126
  610TMC3    C1 9035   0.235   2.112  12.833 -1.0739  0.6738  0.1433
  610TMC3    C2 9036   0.288   2.202  12.747 -0.2055 -0.7687 -0.0705
  610TMC3    C3 9037   0.409   2.186  12.698 -0.3183 -0.2973  0.8948
  610TMC3    C4 9038   0.309   1.999  12.872 -0.5518 -0.1863 -0.3992
  610TMC3    C5 9039   0.441   1.995  12.829  0.3843 -0.9755  0.3504
  610TMC3    C6 9040   0.491   2.089  12.749 -0.1138 -0.5465  0.0102
  610TMC3     C 9041   0.098   2.123  12.886 -0.9408 -0.0302  0.3600
  610TMC3     O 9042   0.067   2.060  12.987  0.4377  0.0666  0.0977
  610TMC3     H 9043   0.236   2.290  12.710  3.4403  0.9863 -1.0520
  610TMC3    H1 9044   0.267   1.925  12.940 -0.6221  1.3119  1.1870
  610TMC3    H2 9045   0.596   2.071  12.728  0.1551  1.2225 -0.1708
  610TMC3    C7 9046   0.526   1.912  12.905 -0.8702 -0.1198  0.0139
  610TMC3    C8 9047   0.456   2.277  12.590  0.0991  0.2756 -0.8675
  610TMC3    O1 9048   0.629   1.874  12.849  0.1959 -0.6562 -0.0799
  610TMC3    O2 9049   0.579   2.275  12.588  0.0810  0.3235 -0.7349
  611MPD2     C 9050   0.362   2.061  10.112  0.3704 -0.6888 -0.1978
  611MPD2    C1 9051   0.266   2.126  10.031  0.9742 -0.3713  0.4840
  611MPD2    C2 9052   0.301   2.257   9.979  0.8036 -0.1580  0.6448
  611MPD2    C3 9053   0.423   2.308  10.011 -0.5938 -0.4585  0.1817
  611MPD2    C4 9054   0.510   2.238  10.089 -0.0609 -0.8604  0.5329
  611MPD2    C5 9055   0.481   2.119  10.144 -0.1309 -0.4319  0.1707
  611MPD2     H 9056   0.228   2.311   9.919 -4.1357 -4.0170  3.1170
  611MPD2    H1 9057   0.609   2.278  10.113 -0.3021 -0.8496  1.5027
  611MPD2    H2 9058   0.333   1.963  10.149 -2.6790 -0.3042 -1.5536
  611MPD2    H3 9059   0.538   2.058  10.212  0.6413 -1.7538 -1.6682
  611MPD2     N 9060   0.477   2.429   9.966  0.1144  0.0914  0.6450
  611MPD2    H5 9061   0.572   2.454   9.991 -0.2787  0.1306  2.0568
  611MPD2    N1 9062   0.136   2.059  10.019 -0.2337  0.3362 -0.3955
  611MPD2    H7 9063   0.129   1.964  10.053 -2.6234  0.8517  0.5165
  612TMC3    C1 9064   0.493   2.637   9.880 -0.6268  0.2214  0.0466
  612TMC3    C2 9065   0.571   2.667   9.989  0.8652 -0.4084  1.0081
  612TMC3    C3 9066   0.634   2.787   9.999 -0.5404 -0.3170 -0.8008
  612TMC3    C4 9067   0.463   2.735   9.795 -0.4853 -0.1351  0.6186
  612TMC3    C5 9068   0.514   2.859   9.800  0.2000  0.0914  0.0235
  612TMC3    C6 9069   0.606   2.886   9.899 -0.2452  0.1851  0.2227
  612TMC3     C 9070   0.421   2.522   9.885  0.3973 -0.4298 -0.6343
  612TMC3     O 9071   0.310   2.515   9.836 -0.5813  0.4039  0.1375
  612TMC3     H 9072   0.581   2.610  10.080 -1.1582 -2.2105  0.0794
  612TMC3    H1 9073   0.380   2.704   9.733 -1.0280  1.2491  0.6616
  612TMC3    H2 9074   0.644   2.988   9.900  2.0818 -0.6608 -0.5791
  612TMC3    C7 9075   0.490   2.961   9.707  0.1424  0.4866  0.1587
  612TMC3    C8 9076   0.741   2.812  10.100 -0.3833  0.3049 -0.0935
  612TMC3    O1 9077   0.525   3.076   9.725  0.1242 -1.0828  0.3374
  612TMC3    O2 9078   0.772   2.931  10.096 -0.6415 -0.1616 -0.4946
  613MPD2     C 9079   3.792   4.375  16.281 -0.5177  0.5097  0.0266
  613MPD2    C1 9080   3.671   4.379  16.220  0.8920  0.5306  0.0912
  613MPD2    C2 9081   3.574   4.279  16.251 -0.6001  0.3274  0.0847
  613MPD2    C3 9082   3.595   4.191  16.355  0.4589  0.0146 -0.7159
  613MPD2    C4 9083   3.718   4.196  16.419 -0.2217  0.0684  0.0608
  613MPD2    C5 9084   3.814   4.281  16.383 -0.1632  0.5213  0.6848
  613MPD2     H 9085   3.486   4.276  16.189  0.3681 -0.1984 -1.2634
  613MPD2    H1 9086   3.742   4.126  16.498 -0.1186  0.0096 -0.0228
  613MPD2    H2 9087   3.871   4.442  16.251  1.5961 -1.8009  0.4073
  613MPD2    H3 9088   3.913   4.270  16.426  0.7688  0.9212 -1.3665
  613MPD2     N 9089   3.511   4.082  16.384 -0.2298  0.5780 -0.4433
  613MPD2    H5 9090   3.558   4.014  16.443  0.1317  1.6266  0.4765
  613MPD2    N1 9091   3.658   4.466  16.107 -0.2398 -0.7666  0.3496
  613MPD2    H7 9092   3.747   4.494  16.067 -0.0172  0.3309  1.6001
  614TMC3    C1 9093   3.600   4.473  15.883 -0.1736  0.5571 -0.1497
  614TMC3    C2 9094   3.697   4.385  15.840  0.8462  0.1577 -0.0286
  614TMC3    C3 9095   3.665   4.306  15.732  0.3683 -0.8961 -0.0517
  614TMC3    C4 9096   3.486   4.490  15.803 -0.6031  0.0315 -0.4616
  614TMC3    C5 9097   3.476   4.422  15.688 -0.5677  0.6475  0.0738
  614TMC3    C6 9098   3.562   4.323  15.645 -0.9436  0.2053 -0.5446
  614TMC3     C 9099   3.554   4.462  16.022  0.3565  0.1227 -0.2267
  614TMC3     O 9100   3.434   4.445  16.037 -0.6263  0.3267  0.3872
  614TMC3     H 9101   3.775   4.363  15.911  2.0191 -2.9031 -2.2706
  614TMC3    H1 9102   3.406   4.558  15.832 -0.2654 -0.1845  0.9497
  614TMC3    H2 9103   3.552   4.282  15.546 -2.1456  2.4421 -1.3482
  614TMC3    C7 9104   3.367   4.470  15.599  0.9644  0.3822  0.1207
  614TMC3    C8 9105   3.712   4.170  15.744 -0.0311  0.0708  0.1187
  614TMC3    O1 9106   3.327   4.586  15.616  0.7311 -0.2078 -0.0512
  614TMC3    O2 9107   3.784   4.135  15.836 -0.1207  0.0576 -0.4251
  615MPD2     C 9108   2.910   0.988  15.767 -0.7900  0.3968  0.2770
  615MPD2    C1 9109   2.962   1.116  15.787  0.0475 -0.6514  0.4677
  615MPD2    C2 9110   2.909   1.229  15.718 -0.0086 -1.0101 -0.0588
  615MPD2    C3 9111   2.814   1.207  15.620  0.1275  0.1981 -0.9899
  615MPD2    C4 9112   2.772   1.076  15.589  0.1881  0.6142  0.4427
  615MPD2    C5 9113   2.820   0.969  15.664 -0.6414 -0.2847  0.7204
  615MPD2     H 9114   2.956   1.324  15.739 -1.7080  0.1875 -1.7184
  615MPD2    H1 9115   2.698   1.056  15.512 -1.1766  1.2240  1.5875
  615MPD2    H2 9116   2.930   0.899  15.827 -3.6028 -0.7952 -0.5464
  615MPD2    H3 9117   2.781   0.871  15.643 -0.6193 -0.2141  0.3459
  615MPD2     N 9118   2.756   1.310  15.547 -0.3936 -0.0845  0.6432
  615MPD2    H5 9119   2.669   1.287  15.501  1.3740 -0.2221 -2.6025
  615MPD2    N1 9120   3.051   1.144  15.891 -0.0097  0.3485  0.0132
  615MPD2    H7 9121   3.055   1.242  15.919 -1.6395 -0.4130  2.9646
  616TMC3    C1 9122   3.178   1.108  16.085  0.4865 -0.4592  0.3038
  616TMC3    C2 9123   3.301   1.065  16.122 -1.0791  0.2979  0.6440
  616TMC3    C3 9124   3.351   1.122  16.234  0.9722  0.6430 -0.3571
  616TMC3    C4 9125   3.102   1.198  16.158 -0.2847  0.7291  0.5477
  616TMC3    C5 9126   3.157   1.238  16.277 -0.3528 -0.2112 -0.2093
  616TMC3    C6 9127   3.279   1.206  16.313 -0.2169  0.2736  0.6431
  616TMC3     C 9128   3.120   1.052  15.967 -0.4546 -0.3044  0.0502
  616TMC3     O 9129   3.147   0.937  15.940 -0.3474 -0.1042  0.3474
  616TMC3     H 9130   3.353   0.992  16.062  1.5274  2.6986 -0.0231
  616TMC3    H1 9131   3.001   1.228  16.132 -0.1116  0.6308 -0.2413
  616TMC3    H2 9132   3.329   1.245  16.401  2.0908 -1.0323 -0.0843
  616TMC3    C7 9133   3.078   1.320  16.370  0.5230 -0.5464  0.5173
  616TMC3    C8 9134   3.498   1.144  16.238 -0.0430 -0.3599  0.4999
  616TMC3    O1 9135   3.144   1.372  16.458 -0.4377 -0.3560 -0.5792
  616TMC3    O2 9136   3.546   1.183  16.338 -0.7058  0.6916 -0.1747
  617MPD2     C 9137   1.093   4.068  14.065  0.5009 -0.4779 -0.0647
  617MPD2    C1 9138   1.133   4.021  13.945 -0.2689 -0.5171 -0.0176
  617MPD2    C2 9139   1.045   3.962  13.855  0.4557 -0.2555  0.0497
  617MPD2    C3 9140   0.907   3.971  13.881  0.0734  0.0718 -0.2228
  617MPD2    C4 9141   0.861   4.038  13.991 -0.1809 -0.3437 -0.4287
  617MPD2    C5 9142   0.959   4.066  14.094 -0.4167  0.6388  0.0112
  617MPD2     H 9143   1.074   3.934  13.755  1.0617  0.3884  0.0404
  617MPD2    H1 9144   0.756   4.047  14.017 -0.1391 -1.2430  0.0499
  617MPD2    H2 9145   1.169   4.089  14.138  0.3914  0.2002 -0.1375
  617MPD2    H3 9146   0.930   4.115  14.187 -2.7144  0.0463 -0.4056
  617MPD2     N 9147   0.806   3.901  13.803 -0.4881 -0.0555  1.1475
  617MPD2    H5 9148   0.711   3.909  13.836 -1.2156  1.6380 -1.3867
  617MPD2    N1 9149   1.268   4.017  13.928  0.6151 -0.5243  0.0761
  617MPD2    H7 9150   1.324   4.069  13.994  0.0849 -0.5040  0.5058
  618TMC3    C1 9151   1.484   3.937  13.870  0.2228 -0.0608  0.4443
  618TMC3    C2 9152   1.557   3.832  13.828  0.6217 -0.5821  0.3359
  618TMC3    C3 9153   1.681   3.810  13.873  0.2114 -0.8685 -0.1674
  618TMC3    C4 9154   1.540   4.015  13.974 -0.4555  0.5770  0.9804
  618TMC3    C5 9155   1.671   3.991  14.014  0.6474  0.0321  0.0750
  618TMC3    C6 9156   1.745   3.888  13.960  0.0720 -0.2699 -0.4090
  618TMC3     C 9157   1.339   3.933  13.847 -0.0920  0.8437  0.5894
  618TMC3     O 9158   1.304   3.844  13.765  0.2273  0.4726  0.7015
  618TMC3     H 9159   1.512   3.772  13.750 -2.8049  0.6003  1.4117
  618TMC3    H1 9160   1.494   4.105  14.013 -2.6550  0.1938 -0.6664
  618TMC3    H2 9161   1.849   3.872  13.983 -0.1701  1.1984  1.6369
  618TMC3    C7 9162   1.732   4.086  14.103 -0.2747  0.2934 -0.3796
  618TMC3    C8 9163   1.754   3.715  13.795 -0.2134  0.5363 -0.0714
  618TMC3    O1 9164   1.653   4.118  14.191  0.5075  0.3222 -0.5281
  618TMC3    O2 9165   1.692   3.656  13.706  0.1563 -0.3786  0.0016
  619MPD2     C 9166   2.516   0.495  13.183 -0.3138 -0.5350  0.2705
  619MPD2    C1 9167   2.374   0.500  13.191  0.1903  0.1444 -0.7825
  619MPD2    C2 9168   2.313   0.429  13.294  0.3538  0.3960  0.7111
  619MPD2    C3 9169   2.382   0.347  13.376 -0.0506 -0.4407 -0.2212
  619MPD2    C4 9170   2.523   0.346  13.369  0.1446  0.0194  0.3533
  619MPD2    C5 9171   2.590   0.425  13.275  0.1073 -0.3710  0.4948
  619MPD2     H 9172   2.206   0.435  13.309  0.2722  2.1929 -0.6022
  619MPD2    H1 9173   2.583   0.285  13.436  1.7490  1.3936  0.1933
  619MPD2    H2 9174   2.570   0.556  13.112  0.3166 -1.6523 -0.2236
  619MPD2    H3 9175   2.696   0.408  13.266  0.4078  1.6568  0.2359
  619MPD2     N 9176   2.303   0.277  13.468 -0.5471 -0.3796  0.1864
  619MPD2    H5 9177   2.204   0.298  13.474 -0.9397 -1.2270 -3.1146
  619MPD2    N1 9178   2.297   0.578  13.101 -0.4402 -0.0931  0.3021
  619MPD2    H7 9179   2.198   0.569  13.123 -0.4900 -1.1564 -0.3766
  620TMC3    C1 9180   2.236   0.725  12.937  0.0039  0.3350 -0.2324
  620TMC3    C2 9181   2.112   0.660  12.947 -0.1247  0.0497 -0.4100
  620TMC3    C3 9182   2.017   0.730  12.880  0.2713  0.1130  0.2145
  620TMC3    C4 9183   2.259   0.840  12.865 -0.3606  0.6720 -1.1148
  620TMC3    C5 9184   2.155   0.907  12.811  0.3105  0.3293 -0.6919
  620TMC3    C6 9185   2.033   0.851  12.813 -0.5543  0.4979  0.2322
  620TMC3     C 9186   2.341   0.657  13.000  0.3576  0.2372  0.2895
  620TMC3     O 9187   2.452   0.690  12.972 -0.3221  0.2067  0.2268
  620TMC3     H 9188   2.096   0.565  12.996 -2.3401  1.1351  0.9533
  620TMC3    H1 9189   2.358   0.884  12.869 -1.2984  2.6772  0.0371
  620TMC3    H2 9190   1.950   0.906  12.771  0.1066  0.9707 -0.4490
  620TMC3    C7 9191   2.153   1.050  12.830 -0.1869 -0.2774  0.1050
  620TMC3    C8 9192   1.890   0.682  12.900  0.5242 -0.6816 -0.4142
  620TMC3    O1 9193   2.060   1.105  12.780 -0.7482 -0.1493  0.0129
  620TMC3    O2 9194   1.873   0.583  12.972 -0.3412 -0.0842 -0.5294
  621MPD2     C 9195   3.289   0.445   9.609  0.1765 -0.9625 -0.8968
  621MPD2    C1 9196   3.231   0.569   9.608  0.1363  0.0411 -0.1574
  621MPD2    C2 9197   3.298   0.683   9.623  0.7892  0.0721  0.1040
  621MPD2    C3 9198   3.435   0.680   9.653 -0.2800  0.5255  0.1889
  621MPD2    C4 9199   3.496   0.559   9.651 -0.0406  0.4269 -0.3827
  621MPD2    C5 9200   3.429   0.450   9.624  0.6121  0.0894 -0.1288
  621MPD2     H 9201   3.239   0.774   9.630  0.6231  0.0047 -0.3945
  621MPD2    H1 9202   3.602   0.547   9.668 -0.5104 -2.4702  0.4976
  621MPD2    H2 9203   3.250   0.346   9.591 -2.8572  0.1275 -0.4020
  621MPD2    H3 9204   3.473   0.351   9.623  0.5911  0.0941 -2.3707
  621MPD2     N 9205   3.498   0.800   9.680 -0.5266 -0.3345 -0.0659
  621MPD2    H5 9206   3.453   0.889   9.661  0.6705  0.7500  2.0702
  621MPD2    N1 9207   3.092   0.580   9.581 -0.0849 -0.0524 -0.4550
  621MPD2    H7 9208   3.053   0.674   9.576  1.2433  0.6715  2.5502
  622TMC3    C1 9209   2.875   0.536   9.508 -0.2088 -0.2692  0.1102
  622TMC3    C2 9210   2.755   0.478   9.556  0.2552  0.1968  0.7968
  622TMC3    C3 9211   2.635   0.522   9.518 -0.2777  0.0911 -0.2600
  622TMC3    C4 9212   2.869   0.642   9.416  0.3201 -0.5641  0.2866
  622TMC3    C5 9213   2.742   0.686   9.387 -0.3309  0.0652  0.4436
  622TMC3    C6 9214   2.626   0.630   9.431  1.6625  0.6264 -1.1272
  622TMC3     C 9215   3.003   0.478   9.549  0.6444  0.3803  0.1015
  622TMC3     O 9216   3.007   0.364   9.583 -0.1254 -0.7452 -0.4349
  622TMC3     H 9217   2.757   0.392   9.622 -1.7611 -0.6769 -0.2960
  622TMC3    H1 9218   2.959   0.685   9.372 -0.6505  3.6746  2.4669
  622TMC3    H2 9219   2.538   0.689   9.405 -0.0551 -2.2613 -1.8126
  622TMC3    C7 9220   2.747   0.804   9.309 -0.5295 -0.3461  0.4976
  622TMC3    C8 9221   2.520   0.477   9.596  0.3889  0.0458  0.2781
  622TMC3    O1 9222   2.844   0.878   9.315  0.3419 -0.0290 -0.1752
  622TMC3    O2 9223   2.520   0.368   9.654 -0.1709 -0.5824 -0.8832
  623MPD2     C 9224   1.483   1.035  15.517 -0.0122 -0.5640 -0.4026
  623MPD2    C1 9225   1.426   1.035  15.639 -0.2257 -0.4713  0.7167
  623MPD2    C2 9226   1.489   1.077  15.752  0.8138 -0.6487 -0.1062
  623MPD2    C3 9227   1.626   1.110  15.744 -0.1101 -0.2587  0.1899
  623MPD2    C4 9228   1.686   1.111  15.616  0.1121 -0.2086 -0.6708
  623MPD2    C5 9229   1.609   1.079  15.509  0.0620 -1.0324 -0.3495
  623MPD2     H 9230   1.433   1.089  15.844 -0.4775 -0.2096 -0.9520
  623MPD2    H1 9231   1.787   1.144  15.593 -0.6015  1.9803 -0.6236
  623MPD2    H2 9232   1.432   1.011  15.424  0.5697  1.0866 -1.1508
  623MPD2    H3 9233   1.664   1.066  15.416 -0.7125 -0.0062 -0.9548
  623MPD2     N 9234   1.687   1.158  15.861 -0.9915 -0.4324  0.8288
  623MPD2    H5 9235   1.635   1.147  15.948 -0.0383 -2.2697  1.1669
  623MPD2    N1 9236   1.290   0.992  15.657  0.1954  0.7677  0.4465
  623MPD2    H7 9237   1.260   0.993  15.753 -0.5957  0.8354  0.1999
  624TMC3    C1 9238   1.976   1.292  16.190  0.1537 -0.1245  0.1733
  624TMC3    C2 9239   1.875   1.313  16.277  0.4580  0.3149 -0.3941
  624TMC3    C3 9240   1.749   1.313  16.222  0.1882  0.3039  0.4868
  624TMC3    C4 9241   1.964   1.251  16.059 -0.1665  0.1013  0.1397
  624TMC3    C5 9242   1.838   1.250  16.013  0.2632  0.0995 -0.3469
  624TMC3    C6 9243   1.731   1.285  16.094  0.2456 -0.2256  0.2044
  624TMC3     C 9244   2.096   1.273  16.258 -0.0573 -0.6297 -1.1317
  624TMC3     O 9245   2.129   1.348  16.350 -0.0533  0.6094  0.7933
  624TMC3     H 9246   1.890   1.338  16.382 -0.9733  0.2621 -0.1702
  624TMC3    H1 9247   2.043   1.225  15.990  0.5946 -1.5261  1.6303
  624TMC3    H2 9248   1.629   1.289  16.058  1.2641 -0.1926 -2.7279
  624TMC3    C7 9249   1.811   1.217  15.874 -0.2556  0.5765 -0.1607
  624TMC3    C8 9250   1.643   1.348  16.317 -0.1364  0.8850 -0.6229
  624TMC3    O1 9251   1.898   1.228  15.785  0.1054 -0.2040 -0.5811
  624TMC3    O2 9252   1.650   1.450  16.383  0.0706 -0.0007 -0.4870
  625MPD2     C 9253   1.753   1.726   0.366 -0.1733  0.0541  0.2023
  625MPD2    C1 9254   1.835   1.835   0.385 -0.4066  0.3838  0.4121
  625MPD2    C2 9255   1.968   1.816   0.421 -0.1248 -0.3862 -0.5050
  625MPD2    C3 9256   2.012   1.687   0.445  0.1312  0.2021  0.9584
  625MPD2    C4 9257   1.929   1.580   0.420 -0.0111  0.5988  0.5029
  625MPD2    C5 9258   1.804   1.604   0.367 -0.1492 -0.6810 -0.5996
  625MPD2     H 9259   2.038   1.895   0.445  0.1498 -0.0611 -2.3621
  625MPD2    H1 9260   1.969   1.480   0.433 -0.8707 -0.0897 -2.2123
  625MPD2    H2 9261   1.652   1.726   0.328  0.0728 -2.3821 -0.4951
  625MPD2    H3 9262   1.731   1.525   0.351 -0.3041 -0.4099 -1.2329
  625MPD2     N 9263   2.146   1.676   0.494 -0.9019 -0.0909 -0.1507
  625MPD2    H5 9264   2.194   1.763   0.516 -1.2976 -1.0455  4.3653
  625MPD2    N1 9265   1.792   1.970   0.368  0.1471 -0.4871 -0.5048
  625MPD2    H7 9266   1.845   2.046   0.408 -1.4129  0.2920  0.0739
  626TMC3    C1 9267   1.668   2.152   0.340 -0.7259 -0.5636 -0.4651
  626TMC3    C2 9268   1.604   2.218   0.242  0.6049 -0.0044  0.1187
  626TMC3    C3 9269   1.619   2.356   0.241  0.2784  0.0418  0.0900
  626TMC3    C4 9270   1.729   2.210   0.444  0.0911 -0.2517  0.6698
  626TMC3    C5 9271   1.752   2.348   0.434 -0.1571  0.0298  0.7122
  626TMC3    C6 9272   1.687   2.423   0.336 -0.0945  0.0163 -0.2191
  626TMC3     C 9273   1.674   2.009   0.327  0.2913  0.7743  0.3984
  626TMC3     O 9274   1.578   1.954   0.287  0.8109  1.0412 -0.0779
  626TMC3     H 9275   1.556   2.162   0.162  0.9674 -3.4771  2.3248
  626TMC3    H1 9276   1.771   2.161   0.531  0.5775  1.9540  1.6847
  626TMC3    H2 9277   1.720   2.523   0.310 -1.3161  0.3875 -0.3611
  626TMC3    C7 9278   1.833   2.405   0.539  0.6264  0.4805  0.3199
  626TMC3    C8 9279   1.577   2.416   0.121  0.3470 -0.5042  0.0633
  626TMC3    O1 9280   1.877   2.330   0.620 -0.3410  0.1830 -0.6074
  626TMC3    O2 9281   1.542   2.354   0.022  0.3925  0.1899 -0.0308
  627MPD2     C 9282   0.376   2.484  13.702 -0.2536  0.1728  0.2255
  627MPD2    C1 9283   0.426   2.449  13.827  0.8178 -0.2696 -0.0378
  627MPD2    C2 9284   0.377   2.346  13.895 -0.5324  0.1580 -0.5750
  627MPD2    C3 9285   0.267   2.271  13.845 -0.2810 -0.0457  0.1293
  627MPD2    C4 9286   0.214   2.303  13.727  0.1514  0.0013 -0.7320
  627MPD2    C5 9287   0.276   2.401  13.648  0.0075 -0.1371 -0.4580
  627MPD2     H 9288   0.425   2.317  13.988 -1.6270 -0.7179 -0.2863
  627MPD2    H1 9289   0.131   2.246  13.687 -2.0239  0.7680  2.6848
  627MPD2    H2 9290   0.411   2.566  13.641  0.1778 -0.8875 -0.9550
  627MPD2    H3 9291   0.240   2.425  13.548  1.9406  0.3745 -1.0256
  627MPD2     N 9292   0.215   2.170  13.928  0.6462 -0.0651 -0.2740
  627MPD2    H5 9293   0.264   2.159  14.016 -0.2303 -1.8825 -0.0051
  627MPD2    N1 9294   0.529   2.520  13.883  0.2503  0.4732  0.1964
  627MPD2    H7 9295   0.586   2.474  13.952  1.9503  0.6268 -1.1151
  628TMC3    C1 9296   0.664   2.692  13.943  0.0518  0.0786 -0.3315
  628TMC3    C2 9297   0.750   2.598  13.991  0.0083  0.3608 -0.0599
  628TMC3    C3 9298   0.855   2.652  14.056  0.4700  0.4351 -0.6374
  628TMC3    C4 9299   0.663   2.827  13.959  0.5525  0.3048  0.1744
  628TMC3    C5 9300   0.770   2.872  14.028  0.5142 -0.2682 -0.2207
  628TMC3    C6 9301   0.874   2.784  14.071  0.1997 -0.0444 -0.3057
  628TMC3     C 9302   0.557   2.647  13.861  0.0272  0.1866 -0.7144
  628TMC3     O 9303   0.496   2.732  13.801  0.2657  0.2757  0.4826
  628TMC3     H 9304   0.745   2.494  13.959 -1.7342  0.0362  1.2215
  628TMC3    H1 9305   0.605   2.902  13.906 -2.5050 -1.9496  0.3371
  628TMC3    H2 9306   0.937   2.826  14.148 -1.0997  0.0706  0.6966
  628TMC3    C7 9307   0.774   3.010  14.090 -0.4775 -0.6152 -0.0570
  628TMC3    C8 9308   0.929   2.556  14.139 -0.0047  0.4873 -0.3752
  628TMC3    O1 9309   0.881   3.045  14.135  0.1444  0.8946 -0.2224
  628TMC3    O2 9310   0.873   2.448  14.163  0.0816  0.1397  0.1194
  629MPD2     C 9311   3.960   1.088  16.029 -0.2026  0.0614 -0.0227
  629MPD2    C1 9312   3.923   1.137  16.149 -0.3147 -0.2100 -0.3976
  629MPD2    C2 9313   3.790   1.129  16.186  0.7476  0.0925 -0.3470
  629MPD2    C3 9314   3.695   1.081  16.092 -0.0358 -0.1563  0.4131
  629MPD2    C4 9315   3.740   1.036  15.976  0.5505 -0.5106  0.0193
  629MPD2    C5 9316   3.867   1.034  15.948  0.3828  0.3108  0.0818
  629MPD2     H 9317   3.761   1.166  16.284  1.5562 -1.7605  0.5961
  629MPD2    H1 9318   3.668   0.997  15.905  0.7948  1.2355 -1.1666
  629MPD2    H2 9319   4.067   1.088  16.009  0.0436 -2.4847  1.3462
  629MPD2    H3 9320   3.906   0.993  15.856 -0.5200  2.0110 -1.0621
  629MPD2     N 9321   3.556   1.093  16.123  0.2813 -0.1696 -0.3603
  629MPD2    H5 9322   3.493   1.071  16.046 -0.1317 -0.7259  0.1378
  629MPD2    N1 9323   4.019   1.199  16.227  0.3156  0.5838  0.1137
  629MPD2    H7 9324   4.111   1.215  16.188 -0.5986 -0.1533 -2.4050
  630TMC3    C1 9325   4.128   1.272  16.427  0.1663 -0.5082  0.4473
  630TMC3    C2 9326   4.233   1.324  16.360  0.4263  0.3598 -0.0257
  630TMC3    C3 9327   4.360   1.324  16.421 -0.5192  0.0889 -0.1061
  630TMC3    C4 9328   4.139   1.234  16.556  0.0761 -0.3298 -0.0223
  630TMC3    C5 9329   4.265   1.221  16.611 -0.3475  0.0682 -0.1017
  630TMC3    C6 9330   4.379   1.269  16.551 -0.5258 -0.0725  0.0444
  630TMC3     C 9331   4.009   1.227  16.360  0.0372 -1.1669 -0.1233
  630TMC3     O 9332   3.913   1.206  16.434  0.1227  0.2934  0.1616
  630TMC3     H 9333   4.221   1.331  16.253  0.0840  2.2971  0.1487
  630TMC3    H1 9334   4.064   1.162  16.585  0.4240  0.2392  2.3132
  630TMC3    H2 9335   4.482   1.250  16.577 -0.4263 -0.8757 -0.9453
  630TMC3    C7 9336   4.271   1.165  16.751  0.0857  0.3329 -0.2365
  630TMC3    C8 9337   4.470   1.397  16.364 -0.6307  0.1141  0.1720
  630TMC3    O1 9338   4.162   1.142  16.801 -0.0309  0.2542 -0.4284
  630TMC3    O2 9339   4.582   1.379  16.407 -0.5452 -0.1696  0.3381
  631MPD2     C 9340   2.100   1.659  14.901 -0.3397  0.0541  0.6456
  631MPD2    C1 9341   2.047   1.677  15.027 -0.0086  1.0456 -1.0271
  631MPD2    C2 9342   2.116   1.643  15.140  0.0898 -0.6538  0.6836
  631MPD2    C3 9343   2.227   1.567  15.135 -0.0877  0.5104  0.4955
  631MPD2    C4 9344   2.267   1.522  15.011  0.0244  0.2134 -0.0412
  631MPD2    C5 9345   2.201   1.571  14.897  0.1361  0.1199 -0.2222
  631MPD2     H 9346   2.082   1.686  15.234  0.3428  0.3929  0.3018
  631MPD2    H1 9347   2.344   1.447  14.994 -2.0279 -2.0416  0.6947
  631MPD2    H2 9348   2.066   1.704  14.808  0.5096  1.7060  1.1333
  631MPD2    H3 9349   2.245   1.552  14.799 -0.2820  0.0413 -0.3957
  631MPD2     N 9350   2.304   1.540  15.248  0.1707  0.3029  0.0962
  631MPD2    H5 9351   2.269   1.580  15.334  0.4660  0.8266 -0.0268
  631MPD2    N1 9352   1.937   1.762  15.022 -0.1516  0.4662 -0.1422
  631MPD2    H7 9353   1.920   1.822  14.942  0.5364 -0.0822 -0.7110
  632TMC3    C1 9354   1.815   1.928  15.128  0.1551  0.2176  0.1132
  632TMC3    C2 9355   1.811   1.966  15.255  0.0793  0.5435 -0.7438
  632TMC3    C3 9356   1.892   2.069  15.285 -0.4589  0.2773  0.2455
  632TMC3    C4 9357   1.862   2.009  15.030 -0.0830 -0.1634 -0.9331
  632TMC3    C5 9358   1.943   2.112  15.062  0.5450  0.3037  0.4990
  632TMC3    C6 9359   1.960   2.148  15.197  0.0655 -0.3416  0.0850
  632TMC3     C 9360   1.855   1.791  15.130 -0.1567  0.1857  0.0399
  632TMC3     O 9361   1.836   1.727  15.229  0.1061  0.4335 -0.2919
  632TMC3     H 9362   1.761   1.900  15.325 -1.9948  2.2746 -0.5908
  632TMC3    H1 9363   1.849   1.984  14.926 -1.2696 -1.0491 -0.5717
  632TMC3    H2 9364   2.036   2.218  15.229  0.6438 -1.9092  2.1216
  632TMC3    C7 9365   2.076   2.100  15.008 -0.2314 -0.2784  0.4014
  632TMC3    C8 9366   1.928   2.075  15.423 -0.5225  0.1771 -0.0382
  632TMC3    O1 9367   2.166   2.086  15.089 -0.4198 -0.2813  1.2042
  632TMC3    O2 9368   1.899   1.971  15.481  0.2482  0.3834  0.1721
  633MPD2     C 9369   1.802   4.003  17.148 -0.0413  0.2771  0.7079
  633MPD2    C1 9370   1.872   3.932  17.054 -0.4676  0.0077  0.0015
  633MPD2    C2 9371   1.896   3.796  17.075  0.8294 -0.2202 -0.2460
  633MPD2    C3 9372   1.839   3.735  17.187 -0.5371 -0.4041  0.1191
  633MPD2    C4 9373   1.758   3.804  17.272 -0.5314 -0.0313 -0.4749
  633MPD2    C5 9374   1.746   3.937  17.253 -0.1900  0.2152 -0.1883
  633MPD2     H 9375   1.947   3.737  17.000  1.5689 -0.8562  0.7535
  633MPD2    H1 9376   1.707   3.758  17.356  0.0879 -1.7886 -1.0623
  633MPD2    H2 9377   1.760   4.102  17.140  2.1025  1.2190  1.1622
  633MPD2    H3 9378   1.695   3.998  17.326  0.1015 -1.6029  1.5410
  633MPD2     N 9379   1.858   3.596  17.212  0.0699 -0.2113 -0.0094
  633MPD2    H5 9380   1.808   3.556  17.291  0.6449 -1.0612 -0.0837
  633MPD2    N1 9381   1.917   3.986  16.933  0.4509 -0.3968  0.2219
  633MPD2    H7 9382   1.984   3.934  16.877  0.2257 -0.5536  0.0997
  634TMC3    C1 9383   1.958   4.145  16.769  0.3461  0.3361 -0.3863
  634TMC3    C2 9384   2.045   4.054  16.711  0.4805 -0.2037 -0.1592
  634TMC3    C3 9385   2.076   4.076  16.578 -0.7233 -0.1032 -0.6231
  634TMC3    C4 9386   1.901   4.244  16.695 -0.2607 -0.7482  0.6180
  634TMC3    C5 9387   1.941   4.260  16.565  0.9299 -0.4587  0.3334
  634TMC3    C6 9388   2.038   4.184  16.507 -0.0926  0.5410  0.1519
  634TMC3     C 9389   1.882   4.112  16.893  0.5337 -0.8998  0.1256
  634TMC3     O 9390   1.801   4.189  16.942 -0.3547 -0.2383 -1.4182
  634TMC3     H 9391   2.094   3.972  16.763  0.2639  0.1446  0.5862
  634TMC3    H1 9392   1.821   4.300  16.740 -0.4007 -0.1354 -0.3889
  634TMC3    H2 9393   2.085   4.210  16.412  1.4886 -0.6392  0.6032
  634TMC3    C7 9394   1.882   4.366  16.483 -1.0387 -0.1726  0.3185
  634TMC3    C8 9395   2.086   3.948  16.503 -0.4600 -0.6153  0.3917
  634TMC3    O1 9396   1.915   4.360  16.364 -0.1409  0.0244 -0.0918
  634TMC3    O2 9397   2.073   3.846  16.564  0.3582  0.9274 -0.1261
  635TMC3    C1 9398   2.383   0.855  16.651  0.4596  0.4590 -0.4283
  635TMC3    C2 9399   2.401   0.719  16.629 -0.3439  0.4027  0.6356
  635TMC3    C3 9400   2.300   0.654  16.569 -0.2572  0.8148  0.7679
  635TMC3    C4 9401   2.281   0.925  16.595  0.3067 -0.1498  0.3661
  635TMC3    C5 9402   2.183   0.860  16.530  0.6543 -0.2198  0.2343
  635TMC3    C6 9403   2.191   0.721  16.515  0.1094  0.2066 -0.1632
  635TMC3     C 9404   2.441   0.913  16.770 -0.1082 -0.6611  0.5684
  635TMC3     O 9405   2.383   1.007  16.816  0.1570 -0.7066 -0.1029
  635TMC3     H 9406   2.477   0.661  16.680  1.5040  2.6084  0.4077
  635TMC3    H1 9407   2.275   1.031  16.615 -1.5689 -0.1140 -0.4574
  635TMC3    H2 9408   2.116   0.673  16.452 -0.3825  0.8601 -0.0754
  635TMC3    C7 9409   2.049   0.918  16.519  0.0499  0.2560  0.1859
  635TMC3    C8 9410   2.322   0.508  16.558 -0.0476  0.3119 -0.0854
  635TMC3    O1 9411   1.956   0.843  16.495 -0.0415  0.1097 -0.0654
  635TMC3    O2 9412   2.433   0.461  16.574 -0.0869 -0.0226 -0.0594
  636MPD2     C 9413   3.064   4.289  15.764 -0.2917 -0.1622 -0.7374
  636MPD2    C1 9414   3.131   4.321  15.877  0.2449 -0.3543  0.2595
  636MPD2    C2 9415   3.186   4.223  15.954  0.2189 -0.0042  0.4063
  636MPD2    C3 9416   3.182   4.092  15.920  0.1889 -0.1714 -0.0192
  636MPD2    C4 9417   3.109   4.059  15.806 -0.4852 -0.0320 -0.2243
  636MPD2    C5 9418   3.054   4.156  15.732 -0.8282 -0.4253  0.0464
  636MPD2     H 9419   3.224   4.254  16.051 -0.0214  2.8720 -0.4328
  636MPD2    H1 9420   3.088   3.959  15.770  0.0204  0.6574 -2.4669
  636MPD2    H2 9421   3.018   4.362  15.698 -0.4683  0.3675 -0.0384
  636MPD2    H3 9422   2.998   4.133  15.642 -0.7456  0.4229 -0.2215
  636MPD2     N 9423   3.228   4.000  16.013 -0.7718  0.7862  0.0456
  636MPD2    H5 9424   3.277   4.040  16.093  0.3128  2.2195 -1.3305
  636MPD2    N1 9425   3.152   4.459  15.918  0.0308  0.9189  0.1173
  636MPD2    H7 9426   3.227   4.473  15.986  0.5932 -2.8615  0.2833
  637TMC3    C1 9427   3.275   3.801  16.121 -0.8529  0.5326  0.7218
  637TMC3    C2 9428   3.270   3.884  16.232  0.1731  0.2255  0.0265
  637TMC3    C3 9429   3.385   3.905  16.300 -0.2116  0.6417 -0.7325
  637TMC3    C4 9430   3.383   3.730  16.086  0.2615 -0.2911 -0.4179
  637TMC3    C5 9431   3.497   3.761  16.155 -0.0323  0.3766  0.1147
  637TMC3    C6 9432   3.503   3.840  16.268 -0.2902  0.3688 -0.4066
  637TMC3     C 9433   3.223   3.867  16.001  0.3823  0.1727  0.3721
  637TMC3     O 9434   3.159   3.796  15.921 -0.1762  0.5258 -0.5847
  637TMC3     H 9435   3.176   3.931  16.260  1.6061  3.8672 -1.2874
  637TMC3    H1 9436   3.376   3.677  15.992  1.2903 -2.9534  1.0354
  637TMC3    H2 9437   3.600   3.868  16.307 -1.2648  1.9737  0.8679
  637TMC3    C7 9438   3.602   3.786  16.060  0.3729  0.8384 -0.2143
  637TMC3    C8 9439   3.393   4.047  16.322 -0.1622  0.4234  0.0918
  637TMC3    O1 9440   3.677   3.876  16.085 -0.0230 -0.4951  0.0333
  637TMC3    O2 9441   3.319   4.115  16.257 -0.1285  0.5631 -0.0769
  638MPD2     C 9442   2.984   3.106  14.875  0.3163 -0.1036  0.6145
  638MPD2    C1 9443   2.939   2.990  14.807 -0.0498  0.3095 -0.2189
  638MPD2    C2 9444   2.867   2.898  14.881 -0.0684 -0.3496  0.3878
  638MPD2    C3 9445   2.855   2.908  15.019  0.2037 -0.0594  0.1402
  638MPD2    C4 9446   2.909   3.017  15.082 -0.3131  0.0174 -0.6671
  638MPD2    C5 9447   2.961   3.123  15.010  0.3042 -0.1296 -0.2286
  638MPD2     H 9448   2.841   2.799  14.846 -2.5315  0.3773  0.2224
  638MPD2    H1 9449   2.918   3.031  15.189  0.5840  3.0666 -1.1575
  638MPD2    H2 9450   3.043   3.179  14.821  0.7164 -1.2146 -0.4559
  638MPD2    H3 9451   3.008   3.204  15.064  1.7817  0.0674 -1.7986
  638MPD2     N 9452   2.807   2.791  15.089 -0.3627  0.1824 -0.4527
  638MPD2    H5 9453   2.771   2.715  15.034 -1.3301  1.2101 -1.2285
  638MPD2    N1 9454   2.992   2.963  14.679 -0.6058  0.0394  0.7217
  638MPD2    H7 9455   3.062   3.029  14.647 -0.4632 -0.6448 -0.4059
  639TMC3    C1 9456   2.779   2.634  15.267 -0.2632 -0.9637 -0.1889
  639TMC3    C2 9457   2.668   2.590  15.200  0.0322  0.8099  0.0208
  639TMC3    C3 9458   2.646   2.453  15.206 -0.0199 -0.0458  0.1488
  639TMC3    C4 9459   2.879   2.554  15.315 -0.4897 -0.4637  0.2009
  639TMC3    C5 9460   2.847   2.418  15.327  0.4578  0.3763 -0.1408
  639TMC3    C6 9461   2.736   2.375  15.263 -0.6160  0.2078  0.3481
  639TMC3     C 9462   2.827   2.766  15.224  0.0489 -0.0311  0.0960
  639TMC3     O 9463   2.877   2.837  15.308  0.2354  0.2269  0.6083
  639TMC3     H 9464   2.597   2.659  15.155  1.1574  2.2603  0.4663
  639TMC3    H1 9465   2.964   2.588  15.373 -0.6375  1.3393 -0.6106
  639TMC3    H2 9466   2.729   2.267  15.251 -1.1328  0.0985  1.6644
  639TMC3    C7 9467   2.953   2.324  15.311  0.3709 -0.6841 -0.3930
  639TMC3    C8 9468   2.567   2.390  15.099 -0.9777 -1.0874 -0.4562
  639TMC3    O1 9469   2.941   2.208  15.342  0.5768 -0.1486  0.1337
  639TMC3    O2 9470   2.628   2.302  15.036  0.1911  0.1445 -0.4414
  640MPD2     C 9471   3.637   1.683   9.293 -0.1875 -0.3813  0.3585
  640MPD2    C1 9472   3.649   1.824   9.302 -0.2957  0.1230  0.7857
  640MPD2    C2 9473   3.554   1.891   9.383  0.1189  0.2962 -0.3889
  640MPD2    C3 9474   3.441   1.823   9.441  0.0505 -0.2306  0.3142
  640MPD2    C4 9475   3.440   1.685   9.422 -0.0858  0.0783  0.1675
  640MPD2    C5 9476   3.534   1.613   9.350  0.0957  0.2293  0.3284
  640MPD2     H 9477   3.573   1.997   9.396 -3.3144  0.6154  1.8786
  640MPD2    H1 9478   3.370   1.621   9.474  1.1733 -1.1631  0.3158
  640MPD2    H2 9479   3.706   1.620   9.237  0.4799  0.1387  0.5971
  640MPD2    H3 9480   3.525   1.505   9.342  1.5974  0.2044 -1.0736
  640MPD2     N 9481   3.348   1.876   9.537  0.3827 -0.8952 -0.3443
  640MPD2    H5 9482   3.278   1.811   9.572  1.2916 -0.9064  1.4564
  640MPD2    N1 9483   3.763   1.884   9.250  0.8228 -0.3927 -0.3959
  640MPD2    H7 9484   3.819   1.819   9.197  1.1903 -1.2597  1.0694
  641TMC3    C1 9485   3.908   2.048   9.157  0.2779 -0.0338  0.0378
  641TMC3    C2 9486   4.004   1.953   9.183 -0.1158 -0.2671 -0.5582
  641TMC3    C3 9487   4.127   1.990   9.149 -0.0278 -0.2363  0.3289
  641TMC3    C4 9488   3.926   2.172   9.099 -0.5889 -0.2618 -0.3149
  641TMC3    C5 9489   4.058   2.200   9.065  0.0132  0.5226 -0.0685
  641TMC3    C6 9490   4.155   2.111   9.095  0.0702 -0.5202 -0.2825
  641TMC3     C 9491   3.779   2.021   9.218  0.0290  0.3320 -0.1024
  641TMC3     O 9492   3.696   2.111   9.209  0.0388 -0.4069  0.1675
  641TMC3     H 9493   3.991   1.869   9.251 -1.9801 -0.3420 -0.9942
  641TMC3    H1 9494   3.842   2.238   9.081 -0.8895 -1.0359 -1.8254
  641TMC3    H2 9495   4.257   2.135   9.068  0.2722 -1.6367 -0.5118
  641TMC3    C7 9496   4.104   2.328   9.023 -0.3413 -0.1866 -0.3595
  641TMC3    C8 9497   4.237   1.894   9.190  0.7199  0.4379 -0.1899
  641TMC3    O1 9498   4.221   2.353   9.035 -0.4166  0.2243  0.0659
  641TMC3    O2 9499   4.342   1.951   9.223  0.1966  0.1761 -0.3583
  642TMC3    C1 9500   4.561   3.484  11.693  0.4521 -0.1849 -0.1048
  642TMC3    C2 9501   4.624   3.523  11.811 -0.0589  0.3508 -0.3635
  642TMC3    C3 9502   4.683   3.419  11.878 -1.1840  0.0576 -0.2969
  642TMC3    C4 9503   4.536   3.351  11.665  0.8443 -0.0576 -0.1709
  642TMC3    C5 9504   4.593   3.249  11.743  0.4771 -0.0905  0.3588
  642TMC3    C6 9505   4.678   3.283  11.845  0.0997 -0.4035 -0.4013
  642TMC3     C 9506   4.453   3.574  11.642 -0.2368 -0.4700  0.1930
  642TMC3     O 9507   4.479   3.633  11.537 -0.0869 -0.6440  0.2614
  642TMC3     H 9508   4.637   3.627  11.838  0.2902  0.2695 -0.2098
  642TMC3    H1 9509   4.458   3.337  11.591  0.9687  1.2138 -0.5599
  642TMC3    H2 9510   0.000   3.205  11.906 -0.0561 -0.7863 -0.7886
  642TMC3    C7 9511   4.519   3.121  11.733  0.1806  0.1280 -0.3664
  642TMC3    C8 9512   0.041   3.455  11.997  0.4045 -0.3454  0.2387
  642TMC3    O1 9513   4.462   3.093  11.630  0.2580 -0.5632  0.2714
  642TMC3    O2 9514   0.138   3.382  12.025  0.1817  0.3007  0.0247
  643TMC3    C1 9515   4.492   2.136   0.039 -0.1222 -0.4414 -0.2940
  643TMC3    C2 9516   4.399   2.236   0.029  0.5754  1.0795  0.2878
  643TMC3    C3 9517   4.269   2.189   0.048  0.5461 -0.0920 -0.3844
  643TMC3    C4 9518   4.469   2.007   0.085 -0.7117 -0.7534  0.5780
  643TMC3    C5 9519   4.340   1.971   0.109 -0.2321  0.5383  0.2027
  643TMC3    C6 9520   4.240   2.057   0.086 -0.1061  0.6135  0.0040
  643TMC3     C 9521   4.627   2.192   0.052  0.8797 -0.7254 -0.2672
  643TMC3     O 9522   4.650   2.288  17.667  0.4184  0.1621  0.0937
  643TMC3     H 9523   4.418   2.340   0.006 -0.8507  1.1189 -0.7017
  643TMC3    H1 9524   4.542   1.928   0.074  0.3464  0.3742 -0.3772
  643TMC3    H2 9525   4.134   2.035   0.096  0.3005 -0.6618  1.4404
  643TMC3    C7 9526   4.306   1.834   0.119 -0.1898  0.5532  0.1096
  643TMC3    C8 9527   4.152   2.274   0.032  0.6977  0.1143  0.0848
  643TMC3    O1 9528   4.220   1.805   0.201 -0.2025 -0.5998  0.2271
  643TMC3    O2 9529   4.045   2.237   0.080 -0.3976 -0.1012  0.1113
  644MPD2     C 9530   3.876   3.062   9.394  0.0484  0.3712 -0.2701
  644MPD2    C1 9531   3.823   2.947   9.343 -0.4799  0.3618  0.0757
  644MPD2    C2 9532   3.691   2.944   9.308 -0.2267 -0.1308  0.9160
  644MPD2    C3 9533   3.615   3.057   9.320 -0.5097  0.1156  0.0558
  644MPD2    C4 9534   3.668   3.173   9.368 -0.0864 -0.5859 -0.0484
  644MPD2    C5 9535   3.797   3.169   9.411 -0.5381 -0.4045 -1.1663
  644MPD2     H 9536   3.641   2.857   9.269 -2.3204  0.7366  1.6924
  644MPD2    H1 9537   3.608   3.263   9.375  1.9165  0.8410 -1.1932
  644MPD2    H2 9538   3.979   3.059   9.428 -0.2894  2.8400  0.9838
  644MPD2    H3 9539   3.841   3.262   9.443 -1.2164 -0.0975 -1.1185
  644MPD2     N 9540   3.479   3.046   9.276 -0.1265 -0.1633 -0.0458
  644MPD2    H5 9541   3.450   2.955   9.242 -1.7286  0.4771 -0.4025
  644MPD2    N1 9542   3.913   2.832   9.342  0.0904  0.1751 -0.3400
  644MPD2    H7 9543   4.011   2.847   9.364  0.3598 -2.5291  0.3533
  645TMC3    C1 9544   3.258   3.097   9.209  0.2378  0.0449  0.0501
  645TMC3    C2 9545   3.249   2.964   9.168  0.4747 -0.3290  0.3730
  645TMC3    C3 9546   3.132   2.919   9.124  0.4214  0.0872 -0.7951
  645TMC3    C4 9547   3.155   3.184   9.191  0.2458  0.3277  1.0738
  645TMC3    C5 9548   3.037   3.130   9.130 -0.4313  0.3297 -0.0298
  645TMC3    C6 9549   3.020   2.998   9.102  0.2902 -0.6508  0.3254
  645TMC3     C 9550   3.376   3.135   9.287  0.0992 -0.0571 -0.7451
  645TMC3     O 9551   3.382   3.243   9.339  0.2493  0.4886 -0.1616
  645TMC3     H 9552   3.334   2.898   9.164  0.3887 -0.1955 -3.0504
  645TMC3    H1 9553   3.179   3.284   9.223  1.4593  0.3962 -0.0673
  645TMC3    H2 9554   2.941   2.956   9.042 -1.7807  0.4312  2.2991
  645TMC3    C7 9555   2.913   3.203   9.129  0.3263  1.0189 -0.6786
  645TMC3    C8 9556   3.117   2.776   9.144  0.2332 -0.3762  0.2460
  645TMC3    O1 9557   2.816   3.131   9.128  0.0089  0.4618 -0.6046
  645TMC3    O2 9558   3.209   2.706   9.144  0.4636  0.0888  0.9821
  646MPD2     C 9559   2.934   1.756  14.576  0.0868 -0.4563  0.0702
  646MPD2    C1 9560   2.825   1.736  14.659 -0.8573  0.1010 -0.4746
  646MPD2    C2 9561   2.705   1.794  14.624  0.2029 -0.3773  0.8015
  646MPD2    C3 9562   2.698   1.876  14.512  0.0242 -0.1314 -0.5819
  646MPD2    C4 9563   2.820   1.901  14.441 -0.0721  0.3673  0.6334
  646MPD2    C5 9564   2.933   1.838  14.472  0.7569 -0.1471 -0.1532
  646MPD2     H 9565   2.619   1.769  14.684 -0.3505 -0.7717 -0.1457
  646MPD2    H1 9566   2.822   1.970  14.357  1.9819 -0.4115  0.0387
  646MPD2    H2 9567   3.027   1.708  14.603 -0.0209 -0.7397 -0.0654
  646MPD2    H3 9568   3.018   1.864  14.411 -0.6741  1.9097 -1.2598
  646MPD2     N 9569   2.574   1.917  14.463  0.8228  0.1647  0.0161
  646MPD2    H5 9570   2.491   1.889  14.515  0.1261 -0.4150 -1.3973
  646MPD2    N1 9571   2.858   1.650  14.766 -0.0198 -0.4037 -0.1697
  646MPD2    H7 9572   2.954   1.615  14.771 -0.0304 -0.3321  0.5392
  647TMC3    C1 9573   2.846   1.528  14.969 -0.6344 -0.1965 -1.0890
  647TMC3    C2 9574   2.779   1.452  15.058  0.5256 -0.2486 -0.8684
  647TMC3    C3 9575   2.845   1.392  15.163 -0.0225 -0.0484 -0.0859
  647TMC3    C4 9576   2.980   1.556  14.990  0.0756 -0.2566 -0.1017
  647TMC3    C5 9577   3.037   1.514  15.103  0.1304  0.4127 -0.7081
  647TMC3    C6 9578   2.972   1.431  15.188  0.6273 -0.6131  0.8407
  647TMC3     C 9579   2.775   1.603  14.865 -0.1079 -0.6611  0.2860
  647TMC3     O 9580   2.650   1.601  14.860 -0.0261 -0.1247  0.5950
  647TMC3     H 9581   2.676   1.425  15.040  1.1369 -3.3238  0.2092
  647TMC3    H1 9582   3.023   1.640  14.937  0.5728  1.0706  2.4370
  647TMC3    H2 9583   3.028   1.402  15.276 -1.4955 -3.1627  1.3483
  647TMC3    C7 9584   3.182   1.502  15.091  1.0651  0.0062 -0.8778
  647TMC3    C8 9585   2.835   1.244  15.153 -1.1407  0.4362 -0.2421
  647TMC3    O1 9586   3.216   1.480  14.976 -0.0278 -0.0040 -0.0524
  647TMC3    O2 9587   2.898   1.200  15.249  0.3723 -0.0353  0.7425
  648TMC3    C1 9588   2.434   3.984  15.927  0.7017 -0.2922  0.2349
  648TMC3    C2 9589   2.461   3.852  15.884 -0.0820  0.4042  0.2769
  648TMC3    C3 9590   2.436   3.811  15.756 -0.1155 -0.2365 -0.3151
  648TMC3    C4 9591   2.386   4.076  15.844 -0.6653 -0.1498 -0.6014
  648TMC3    C5 9592   2.345   4.026  15.722 -0.3774  0.3790 -0.2038
  648TMC3    C6 9593   2.357   3.900  15.682  0.1685 -0.0215  0.5572
  648TMC3     C 9594   2.433   4.018  16.072  0.0961  0.0276 -0.1671
  648TMC3     O 9595   2.419   4.138  16.099 -0.2275 -0.4834 -0.3993
  648TMC3     H 9596   2.525   3.787  15.943 -2.3703 -0.6451  1.5990
  648TMC3    H1 9597   2.377   4.179  15.876 -0.8179 -0.9541  1.9560
  648TMC3    H2 9598   2.315   3.864  15.589 -0.8979  1.1153  0.5978
  648TMC3    C7 9599   2.298   4.114  15.616 -0.1036 -0.8717  0.6241
  648TMC3    C8 9600   2.415   3.668  15.745  0.2421 -0.0764  0.0192
  648TMC3    O1 9601   2.298   4.063  15.505  0.4873 -0.6686 -0.5022
  648TMC3    O2 9602   2.344   3.609  15.827  0.1955  0.2165  0.3127
  649TMC3    C1 9603   1.460   0.418  12.928  0.4165  0.6791 -1.0036
  649TMC3    C2 9604   1.593   0.405  12.924  0.1736 -0.0118  0.3667
  649TMC3    C3 9605   1.645   0.288  12.978 -1.2429  0.6603  0.0572
  649TMC3    C4 9606   1.380   0.321  12.971  0.1000  1.2225  1.0189
  649TMC3    C5 9607   1.434   0.213  13.035 -0.1597  0.0416  0.2049
  649TMC3    C6 9608   1.568   0.187  13.033  0.1866  0.2178 -0.5402
  649TMC3     C 9609   1.395   0.519  12.845 -0.3821 -0.7897  0.5530
  649TMC3     O 9610   1.275   0.536  12.850  0.6622  0.5022 -0.1419
  649TMC3     H 9611   1.658   0.487  12.894 -2.8640  1.5046 -2.0418
  649TMC3    H1 9612   1.275   0.345  12.978  0.1705  1.8768 -0.1800
  649TMC3    H2 9613   1.610   0.102  13.086  0.3453  0.2852 -0.5583
  649TMC3    C7 9614   1.346   0.131  13.119 -0.0488 -0.1764 -0.3224
  649TMC3    C8 9615   1.790   0.253  12.986 -0.4620  0.0539 -0.1912
  649TMC3    O1 9616   1.224   0.143  13.101  0.0163  0.0437 -0.0820
  649TMC3    O2 9617   1.824   0.171  13.073  0.3997  0.0857  0.8539
  650TMC3    C1 9618   3.858   2.457  12.238 -0.7721 -0.4408 -0.6275
  650TMC3    C2 9619   3.884   2.581  12.291 -0.1986 -0.3125  0.1421
  650TMC3    C3 9620   3.927   2.679  12.207  0.0429  0.6389 -0.3659
  650TMC3    C4 9621   3.874   2.438  12.106  0.0994  0.1646  0.1996
  650TMC3    C5 9622   3.913   2.544  12.024 -0.3097 -0.9755 -0.1446
  650TMC3    C6 9623   3.944   2.662  12.073 -0.0197 -0.6159 -0.6091
  650TMC3     C 9624   3.834   2.344  12.336 -0.1239 -0.4424  0.2733
  650TMC3     O 9625   3.820   2.360  12.459  0.9877 -0.3640  0.1648
  650TMC3     H 9626   3.858   2.594  12.395  0.4795  1.8243  0.0451
  650TMC3    H1 9627   3.828   2.356  12.052 -0.1117 -0.5407  1.4316
  650TMC3    H2 9628   3.966   2.740  12.002 -1.7766  2.1458  1.9179
  650TMC3    C7 9629   3.825   2.550  11.906  0.0706  0.1915  0.7164
  650TMC3    C8 9630   3.857   2.808  12.220 -0.0929  0.3128 -0.5148
  650TMC3    O1 9631   3.800   2.451  11.838 -0.3313  0.7057  0.3288
  650TMC3    O2 9632   3.803   2.852  12.118  0.7857  0.2490  0.5072
  651MPD2     C 9633   2.765   3.928  10.139  0.6362 -0.3481  0.0624
  651MPD2    C1 9634   2.701   4.050  10.179  0.2912 -0.8022  0.7529
  651MPD2    C2 9635   2.766   4.168  10.155 -0.6790 -0.0840 -0.0676
  651MPD2    C3 9636   2.888   4.169  10.080  0.3049 -0.0269  0.5119
  651MPD2    C4 9637   2.944   4.050  10.036 -0.3081 -0.2078 -0.0888
  651MPD2    C5 9638   2.887   3.934  10.072 -0.4174 -0.4533 -0.3747
  651MPD2     H 9639   2.718   4.261  10.187  0.8429  0.9425 -0.7985
  651MPD2    H1 9640   3.041   4.057   9.987  0.9131 -1.6865  2.1524
  651MPD2    H2 9641   2.722   3.830  10.153 -0.4861  0.3296  1.3960
  651MPD2    H3 9642   2.941   3.843  10.049  0.3404 -0.0004 -0.3936
  651MPD2     N 9643   2.944   4.295  10.055 -0.1989 -0.0240  0.2019
  651MPD2    H5 9644   2.906   4.381  10.093  0.1735  0.2017  0.0711
  651MPD2    N1 9645   2.567   4.052  10.227 -0.0929  0.2735  0.0740
  651MPD2    H7 9646   2.533   4.143  10.257 -0.3281  0.8922 -2.0097
  652TMC3    C1 9647   3.276   4.586  10.056  0.4166 -0.8061 -0.0360
  652TMC3    C2 9648   3.235   4.477   9.999 -0.3087  0.6240  0.6281
  652TMC3    C3 9649   3.100   4.462   9.980 -1.1508 -0.2112  0.0859
  652TMC3    C4 9650   3.199   4.693  10.082 -0.3238 -0.1528  0.1914
  652TMC3    C5 9651   3.066   4.682  10.057 -0.7466 -0.6451  0.1403
  652TMC3    C6 9652   3.012   4.563  10.013  0.2761  0.4357  0.2506
  652TMC3     C 9653   3.415   4.600  10.092  0.5438  0.1031  0.8514
  652TMC3     O 9654   3.443   4.652  10.199 -0.0293  0.1780  0.3324
  652TMC3     H 9655   3.303   4.396   9.980  0.9917  1.3996  1.9919
  652TMC3    H1 9656   3.243   0.059  10.131 -0.0941  1.1724 -2.3870
  652TMC3    H2 9657   2.904   4.556  10.003  0.0378  2.9598  0.9451
  652TMC3    C7 9658   2.984   0.075  10.028  0.8211 -0.6925  0.0086
  652TMC3    C8 9659   3.059   4.320   9.975  0.3349 -0.4833  0.2594
  652TMC3    O1 9660   2.872   0.047   9.988 -0.0020 -0.3414  0.6202
  652TMC3    O2 9661   3.126   4.243   9.909 -0.0941  0.3873  0.1390
  653MPD2     C 9662   1.479   4.068  17.468  0.2054  0.5044  0.3980
  653MPD2    C1 9663   1.497   4.155  17.364 -0.0847 -0.5983 -0.2161
  653MPD2    C2 9664   1.468   4.124  17.234 -0.0461 -0.1180 -0.4264
  653MPD2    C3 9665   1.422   3.997  17.201  0.8256 -0.0035 -0.3057
  653MPD2    C4 9666   1.404   3.908  17.304  0.0152 -0.0112 -0.5106
  653MPD2    C5 9667   1.429   3.944  17.433 -0.6493 -0.2242 -0.0882
  653MPD2     H 9668   1.477   4.199  17.156 -0.5574  0.2678 -0.1151
  653MPD2    H1 9669   1.371   3.805  17.293  0.9564 -0.0841 -2.6191
  653MPD2    H2 9670   1.497   4.086  17.573 -1.7028 -0.6774  0.9205
  653MPD2    H3 9671   1.406   3.872  17.511 -1.7023  2.4745  2.1043
  653MPD2     N 9672   1.393   3.952  17.068 -0.5330 -0.3483 -0.1929
  653MPD2    H5 9673   1.396   4.023  16.996  0.4198  1.2500  1.4216
  653MPD2    N1 9674   1.536   4.291  17.382  0.5853  0.2295  0.1432
  653MPD2    H7 9675   1.549   4.340  17.294  0.7791  0.2841  0.2018
  654TMC3    C1 9676   1.293   3.819  16.904 -0.1023 -0.9275 -0.3818
  654TMC3    C2 9677   1.179   3.897  16.878  0.2272  0.0685 -0.0927
  654TMC3    C3 9678   1.092   3.860  16.780 -0.4614 -0.6912  0.8526
  654TMC3    C4 9679   1.305   3.702  16.835  0.2975  0.8473 -0.7303
  654TMC3    C5 9680   1.206   3.660  16.746  0.7460  0.4639  0.0044
  654TMC3    C6 9681   1.102   3.742  16.706 -0.1016 -0.3256 -0.1824
  654TMC3     C 9682   1.360   3.821  17.032 -0.2976  0.2517  0.2424
  654TMC3     O 9683   1.386   3.711  17.086  0.5139 -0.2922 -0.5110
  654TMC3     H 9684   1.158   3.987  16.934  0.2847  2.3125 -3.6362
  654TMC3    H1 9685   1.381   3.633  16.868 -0.3516  0.2649 -0.4506
  654TMC3    H2 9686   1.032   3.709  16.631 -2.0171  0.9928  1.0076
  654TMC3    C7 9687   1.217   3.538  16.670 -0.0225  0.0983  0.3634
  654TMC3    C8 9688   1.009   3.964  16.727  0.1352  0.4154  0.4542
  654TMC3    O1 9689   1.148   3.530  16.568  0.0909 -0.2986  0.0928
  654TMC3    O2 9690   0.965   4.056  16.797 -0.1411 -0.3947  0.2277
  655MPD2     C 9691   2.912   4.116  15.362 -0.3776 -0.8832 -0.8812
  655MPD2    C1 9692   2.796   4.149  15.292  0.2797 -1.0819  0.0081
  655MPD2    C2 9693   2.752   4.067  15.186  0.2100  0.1724 -0.5375
  655MPD2    C3 9694   2.821   3.951  15.151 -0.5976 -0.1119 -0.1010
  655MPD2    C4 9695   2.945   3.928  15.216  0.1572 -0.0559  0.3060
  655MPD2    C5 9696   2.988   4.007  15.320  0.2250  0.6304  0.2866
  655MPD2     H 9697   2.651   4.090  15.155  0.0247 -1.8583 -1.4374
  655MPD2    H1 9698   3.007   3.844  15.187 -1.3798 -1.2369  0.3915
  655MPD2    H2 9699   2.957   4.178  15.439  0.8946 -1.1462 -1.4115
  655MPD2    H3 9700   3.075   3.982  15.379  0.6892  0.4661 -0.4679
  655MPD2     N 9701   2.773   3.857  15.053 -0.2120  0.2521 -0.1288
  655MPD2    H5 9702   2.815   3.765  15.047  0.5483  0.5517  0.6641
  655MPD2    N1 9703   2.729   4.274  15.320 -0.0465  0.8137 -0.7226
  655MPD2    H7 9704   2.659   4.299  15.251 -1.6153 -0.7815  0.3209
  656TMC3    C1 9705   2.631   4.424  15.473 -0.2514 -0.6949  0.3093
  656TMC3    C2 9706   2.588   4.431  15.607 -0.7371  0.4831 -0.0495
  656TMC3    C3 9707   2.490   4.522  15.641  0.2843  0.5921 -0.2132
  656TMC3    C4 9708   2.583   4.503  15.376  0.2846  0.6733  0.4937
  656TMC3    C5 9709   2.476   4.579  15.410  0.3617 -0.1983  0.0319
  656TMC3    C6 9710   2.431   4.598  15.541  0.2348  0.7637  0.1737
  656TMC3     C 9711   2.727   4.318  15.446  0.7078 -0.4025  0.3950
  656TMC3     O 9712   2.772   4.265  15.543  0.0692 -0.3780 -0.2352
  656TMC3     H 9713   2.643   4.374  15.681 -0.2354  0.6908 -0.2646
  656TMC3    H1 9714   2.619   4.493  15.274  0.2286  0.5368  0.4869
  656TMC3    H2 9715   2.336   4.645  15.561 -0.3464 -1.0159  1.4888
  656TMC3    C7 9716   2.421   4.653  15.299 -0.8038  0.1155  0.1890
  656TMC3    C8 9717   2.417   4.506  15.769 -0.8141  0.2432  0.1343
  656TMC3    O1 9718   2.477   4.648  15.188 -0.0551  0.1242  0.6787
  656TMC3    O2 9719   2.422   4.397  15.819 -0.6668  0.1847 -0.1392
  657TMC3    C1 9720   1.691   3.174  14.603 -0.4369 -0.3964  0.0507
  657TMC3    C2 9721   1.640   3.087  14.697  0.2715  0.0114 -0.4194
  657TMC3    C3 9722   1.554   3.145  14.785  0.3041  0.5947  0.8233
  657TMC3    C4 9723   1.662   3.310  14.603  0.4361  0.0508  0.1918
  657TMC3    C5 9724   1.578   3.360  14.696  0.0920  0.9026  0.6146
  657TMC3    C6 9725   1.522   3.280  14.791 -0.5994 -0.5534 -0.1778
  657TMC3     C 9726   1.801   3.131  14.524 -0.4569 -0.1733 -0.3670
  657TMC3     O 9727   1.811   3.165  14.409  0.3872  0.1921 -0.2040
  657TMC3     H 9728   1.673   2.985  14.713 -1.3613 -0.4703 -0.1512
  657TMC3    H1 9729   1.709   3.368  14.524 -1.5518 -0.7483 -1.5731
  657TMC3    H2 9730   1.477   3.328  14.878  1.9465  0.6709  0.4476
  657TMC3    C7 9731   1.565   3.505  14.703  0.6270 -0.4213 -0.1912
  657TMC3    C8 9732   1.537   3.066  14.909 -0.7811  0.1744 -0.0358
  657TMC3    O1 9733   1.661   3.565  14.647  0.1888  0.2890  0.5470
  657TMC3    O2 9734   1.533   3.129  15.013 -0.1253  0.7820 -0.2129
  658MPD2     C 9735   3.191   3.577  14.584  0.4688  0.2776  0.3464
  658MPD2    C1 9736   3.082   3.654  14.558  0.2707 -0.2145 -0.1549
  658MPD2    C2 9737   3.093   3.753  14.459 -0.5161  0.4574 -0.0594
  658MPD2    C3 9738   3.212   3.783  14.402 -0.3575  0.0846  0.4188
  658MPD2    C4 9739   3.326   3.706  14.431 -0.0116 -0.7488  0.1778
  658MPD2    C5 9740   3.313   3.601  14.518  0.1941 -0.5168  0.8391
  658MPD2     H 9741   3.005   3.810  14.430 -0.2182 -0.2916 -2.4271
  658MPD2    H1 9742   3.422   3.727  14.385  0.6017 -1.4320  1.1428
  658MPD2    H2 9743   3.188   3.491  14.649  0.9799 -0.7448 -0.9852
  658MPD2    H3 9744   3.396   3.537  14.545 -0.6906 -1.8466  0.4800
  658MPD2     N 9745   3.213   3.893  14.310  0.3628  0.4148  0.0399
  658MPD2    H5 9746   3.124   3.934  14.284  0.2211  0.5829  0.7906
  658MPD2    N1 9747   2.962   3.630  14.632  0.6101 -0.1950 -0.1221
  658MPD2    H7 9748   2.973   3.566  14.710 -1.8526 -1.5365 -0.8782
  659TMC3    C1 9749   2.736   3.647  14.700  1.2382 -0.3832 -0.0403
  659TMC3    C2 9750   2.760   3.710  14.817 -0.6529 -0.2739  0.1986
  659TMC3    C3 9751   2.653   3.778  14.872  0.8396  0.1190 -0.4119
  659TMC3    C4 9752   2.615   3.639  14.649 -0.4238  0.2544 -0.1362
  659TMC3    C5 9753   2.518   3.719  14.698  0.1843  0.2336  0.4115
  659TMC3    C6 9754   2.529   3.790  14.814  0.9920 -0.0847  0.4548
  659TMC3     C 9755   2.834   3.657  14.593 -0.3453  0.1086  0.1997
  659TMC3     O 9756   2.798   3.693  14.480  0.5455 -0.2162  1.0769
  659TMC3     H 9757   2.865   3.724  14.843 -0.5860  1.1322 -0.8225
  659TMC3    H1 9758   2.604   3.586  14.554  2.8867  1.8664 -1.4190
  659TMC3    H2 9759   2.447   3.854  14.845  3.0375  2.4319  0.6356
  659TMC3    C7 9760   2.395   3.738  14.627  0.5522 -0.1821 -0.7776
  659TMC3    C8 9761   2.687   3.892  14.950  0.5184 -0.4332  0.0273
  659TMC3    O1 9762   2.333   3.842  14.643  0.2703  0.0964  0.6054
  659TMC3    O2 9763   2.637   3.996  14.916  0.0090  0.0802 -0.1049
  660MPD2     C 9764   0.769   3.183  12.483 -0.8032 -0.2150 -0.5802
  660MPD2    C1 9765   0.646   3.224  12.438 -0.4652 -0.0530 -0.7936
  660MPD2    C2 9766   0.532   3.194  12.508  0.5401  0.3903  0.0612
  660MPD2    C3 9767   0.540   3.126  12.626 -0.5296 -0.7569  0.4417
  660MPD2    C4 9768   0.666   3.091  12.675 -0.2439  0.3936  0.8722
  660MPD2    C5 9769   0.782   3.120  12.605  0.1878 -0.1188  0.4731
  660MPD2     H 9770   0.434   3.227  12.473  1.6926  0.7686 -2.7643
  660MPD2    H1 9771   0.683   3.050  12.774  0.1065  0.0915  0.6830
  660MPD2    H2 9772   0.861   3.214  12.434 -1.1529 -0.2813 -1.2774
  660MPD2    H3 9773   0.874   3.119  12.662  1.4768  0.8115 -1.6173
  660MPD2     N 9774   0.432   3.084  12.704  0.1083  0.3094  0.4793
  660MPD2    H5 9775   0.453   3.025  12.784 -1.5969 -0.0040  0.6832
  660MPD2    N1 9776   0.643   3.289  12.314  0.0387 -0.2076  0.2181
  660MPD2    H7 9777   0.734   3.307  12.274 -0.2810 -0.4022 -0.5994
  661TMC3    C1 9778   0.564   3.419  12.129  0.2020 -0.2729  0.2921
  661TMC3    C2 9779   0.646   3.358  12.035 -0.2439 -0.1165 -0.0612
  661TMC3    C3 9780   0.660   3.420  11.915 -0.0522  1.1694  0.1561
  661TMC3    C4 9781   0.487   3.527  12.100  0.2628  0.1255 -0.8267
  661TMC3    C5 9782   0.495   3.572  11.976  0.3245  0.6671 -0.5044
  661TMC3    C6 9783   0.585   3.533  11.883 -0.0873 -0.4245 -0.0571
  661TMC3     C 9784   0.536   3.358  12.261  0.2158 -0.2190  0.0436
  661TMC3     O 9785   0.425   3.374  12.307 -0.1654 -0.2717  0.0156
  661TMC3     H 9786   0.713   3.277  12.057 -2.5592 -2.7149 -2.6023
  661TMC3    H1 9787   0.410   3.570  12.163  1.8138 -0.1503  1.2695
  661TMC3    H2 9788   0.580   3.573  11.782  1.0742  1.4569  0.6353
  661TMC3    C7 9789   0.373   3.649  11.936  0.0539 -0.1110 -0.6175
  661TMC3    C8 9790   0.744   3.370  11.812 -0.0776  0.0498 -0.9208
  661TMC3    O1 9791   0.336   3.742  12.004 -0.3922 -0.5921 -0.1651
  661TMC3    O2 9792   0.772   3.452  11.728 -0.2142  0.3142  0.7442
  662MPD2     C 9793   1.255   2.085   0.402  1.0832 -0.0527 -0.2627
  662MPD2    C1 9794   1.187   2.066   0.280 -0.4536 -0.1089  0.2829
  662MPD2    C2 9795   1.142   2.175   0.210 -0.0817  0.1476  0.0043
  662MPD2    C3 9796   1.161   2.304   0.261 -0.1999  0.3478 -0.7619
  662MPD2    C4 9797   1.248   2.315   0.366 -0.0013  0.0313 -0.0661
  662MPD2    C5 9798   1.293   2.211   0.436 -0.0061  0.9915  0.0570
  662MPD2     H 9799   1.089   2.153   0.118 -0.6768 -0.5372  0.5161
  662MPD2    H1 9800   1.278   2.416   0.394 -0.7922 -0.1124  1.2945
  662MPD2    H2 9801   1.275   2.003   0.470  1.0313  1.3102  1.3825
  662MPD2    H3 9802   1.344   2.234   0.529 -0.1230  1.4424  0.0057
  662MPD2     N 9803   1.119   2.425   0.207  0.6101 -0.6401  0.0902
  662MPD2    H5 9804   1.148   2.513   0.249 -0.5549 -0.6264  0.8763
  662MPD2    N1 9805   1.143   1.934   0.239 -0.3703 -0.1759 -0.1061
  662MPD2    H7 9806   1.098   1.933   0.148 -3.2685  1.9793  1.2947
  663TMC3    C1 9807   1.111   1.709   0.231  0.0463 -0.0820  0.2132
  663TMC3    C2 9808   0.995   1.674   0.291 -0.2283  0.1455 -0.5573
  663TMC3    C3 9809   0.898   1.619   0.207  0.1159 -0.3484  0.3888
  663TMC3    C4 9810   1.143   1.694   0.104 -0.1424 -0.3651 -0.3960
  663TMC3    C5 9811   1.058   1.621   0.024 -0.4962 -0.0999 -0.7747
  663TMC3    C6 9812   0.940   1.574   0.082 -0.0451  0.0859  0.0272
  663TMC3     C 9813   1.173   1.820   0.299  0.7326 -0.0910 -0.2366
  663TMC3     O 9814   1.218   1.797   0.412 -0.5906 -0.2278  0.5008
  663TMC3     H 9815   0.955   1.709   0.386  1.5746 -0.1720  0.3201
  663TMC3    H1 9816   1.238   1.734   0.068 -0.1594  0.1816  0.1682
  663TMC3    H2 9817   0.864   1.535   0.015  1.0026 -0.1081 -1.0450
  663TMC3    C7 9818   1.124   1.543  17.603  0.0564  0.0511  0.3938
  663TMC3    C8 9819   0.784   1.702   0.196  0.0970 -0.2921 -0.2682
  663TMC3    O1 9820   1.217   1.610  17.563 -0.6217 -0.7357 -0.2116
  663TMC3    O2 9821   0.685   1.657   0.134 -0.0890  0.8404  0.0527
  664MPD2     C 9822   3.836   0.839   0.224  0.4025 -0.4363 -0.1755
  664MPD2    C1 9823   3.960   0.877   0.187  0.2153 -0.0677  0.4400
  664MPD2    C2 9824   4.064   0.851   0.278  0.0541 -0.3067  0.3587
  664MPD2    C3 9825   4.051   0.808   0.408  0.0617  0.1372 -0.0492
  664MPD2    C4 9826   3.920   0.779   0.443 -0.3343 -0.2614 -0.4386
  664MPD2    C5 9827   3.821   0.789   0.350  0.3949 -0.3884  0.6311
  664MPD2     H 9828   4.164   0.871   0.241  0.5223  1.1816  2.4601
  664MPD2    H1 9829   3.899   0.734   0.540  0.8220  0.5385  0.1876
  664MPD2    H2 9830   3.749   0.847   0.160  0.8211 -0.9326 -0.8091
  664MPD2    H3 9831   3.720   0.774   0.384  0.6058  0.4642  1.6295
  664MPD2     N 9832   4.163   0.801   0.491 -0.0342  0.5090 -0.5590
  664MPD2    H5 9833   4.251   0.823   0.445  0.0273  1.2372 -0.0834
  664MPD2    N1 9834   3.989   0.932   0.061  0.1018 -0.6617  0.3680
  664MPD2    H7 9835   4.084   0.964   0.042  0.0073 -0.4431  0.2654
  665TMC3    C1 9836   4.296   0.783   0.688 -0.1076 -0.7057 -0.7660
  665TMC3    C2 9837   4.309   0.742   0.822  0.1716 -0.1678  0.2713
  665TMC3    C3 9838   4.400   0.813   0.900  0.5883 -0.1989  0.5471
  665TMC3    C4 9839   4.358   0.897   0.650  0.4386  0.3250 -0.1225
  665TMC3    C5 9840   4.447   0.965   0.732  0.1908 -0.5142 -0.4852
  665TMC3    C6 9841   4.469   0.925   0.857 -0.3683 -0.2233 -0.0861
  665TMC3     C 9842   4.168   0.759   0.622  0.1626 -0.0051 -0.1628
  665TMC3     O 9843   4.081   0.700   0.682  0.4202  0.5035  0.8275
  665TMC3     H 9844   4.243   0.660   0.849  0.7772 -0.8662 -0.3622
  665TMC3    H1 9845   4.337   0.949   0.557 -1.0235 -0.0835 -0.0168
  665TMC3    H2 9846   4.528   0.975   0.933 -1.5509 -0.3606  0.9225
  665TMC3    C7 9847   4.498   1.090   0.673 -0.3465  0.0360 -0.2823
  665TMC3    C8 9848   4.385   0.790   1.044  0.0857 -0.6737  0.2657
  665TMC3    O1 9849   4.461   1.114   0.557 -0.2776  0.0453  0.4650
  665TMC3    O2 9850   4.293   0.717   1.077 -0.5599 -0.2339  0.1081
  666TMC3    C1 9851   3.681   0.944   9.700  0.2947 -0.2211 -0.2895
  666TMC3    C2 9852   3.817   0.964   9.730  0.6972  0.5112  0.1010
  666TMC3    C3 9853   3.855   1.089   9.761 -0.6811  0.6688  0.9997
  666TMC3    C4 9854   3.600   1.053   9.678  0.7381 -0.4477 -0.3088
  666TMC3    C5 9855   3.654   1.174   9.700  0.2628 -0.1599  0.0963
  666TMC3    C6 9856   3.781   1.195   9.738  0.2342 -0.0378  0.1049
  666TMC3     C 9857   3.630   0.806   9.714  0.1167 -0.2311 -0.2936
  666TMC3     O 9858   3.700   0.725   9.775  0.1421  0.2258  0.4720
  666TMC3     H 9859   3.882   0.878   9.744  1.0253  0.6440 -0.5634
  666TMC3    H1 9860   3.493   1.048   9.663  0.4337  0.7288  1.4912
  666TMC3    H2 9861   3.828   1.292   9.748  0.0440  0.1613 -0.9084
  666TMC3    C7 9862   3.564   1.280   9.731  0.5276 -0.1721  0.2974
  666TMC3    C8 9863   3.988   1.102   9.811 -0.9270  0.1491  0.1818
  666TMC3    O1 9864   3.456   1.245   9.769 -0.2820  0.3513 -0.3698
  666TMC3    O2 9865   4.079   1.064   9.742 -0.2514  0.2670  0.0299
  667MPD2     C 9866   4.336   1.220  14.369  0.8992  0.0578  0.3880
  667MPD2    C1 9867   4.308   1.121  14.465 -0.2365 -0.2058  0.2292
  667MPD2    C2 9868   4.184   1.057  14.476  0.5547  0.4726  0.0394
  667MPD2    C3 9869   4.086   1.091  14.387 -0.7165  0.2349 -0.6158
  667MPD2    C4 9870   4.106   1.191  14.289  0.3357 -0.2024 -0.2604
  667MPD2    C5 9871   4.229   1.238  14.282  0.4912  0.2198  0.0663
  667MPD2     H 9872   4.162   0.976  14.544 -1.4438 -0.0691 -1.2615
  667MPD2    H1 9873   4.034   1.204  14.208  0.8388  0.1163 -0.6596
  667MPD2    H2 9874   4.418   1.288  14.353 -1.6941  2.9329 -0.6778
  667MPD2    H3 9875   4.246   1.307  14.200  0.7641 -0.4835 -0.4701
  667MPD2     N 9876   3.957   1.041  14.387  0.7453 -0.3326  0.2429
  667MPD2    H5 9877   3.889   1.079  14.322 -1.7184 -2.1998  1.7200
  667MPD2    N1 9878   4.403   1.079  14.561 -0.5241 -0.4407  0.0388
  667MPD2    H7 9879   4.377   1.005  14.626 -1.4822 -0.5870 -0.5183
  668TMC3    C1 9880   4.602   1.076  14.681  0.4352 -0.5799 -0.1542
  668TMC3    C2 9881   0.003   1.132  14.701  0.0293 -0.0253 -0.0600
  668TMC3    C3 9882   0.071   1.094  14.817  0.0549  0.6695  0.3880
  668TMC3    C4 9883   4.536   1.003  14.776  0.7988 -0.5647  0.9784
  668TMC3    C5 9884   4.610   0.977  14.891  0.0525 -0.1637 -0.7889
  668TMC3    C6 9885   0.014   1.010  14.911  0.3424 -0.0086  0.1268
  668TMC3     C 9886   4.534   1.126  14.573 -0.6940 -0.3512  0.2718
  668TMC3     O 9887   4.597   1.205  14.501  0.6338 -0.3751 -0.4249
  668TMC3     H 9888   0.048   1.198  14.628 -0.0169 -1.9541 -1.8373
  668TMC3    H1 9889   4.440   0.955  14.767  0.3168  0.4857  0.5145
  668TMC3    H2 9890   0.055   0.989  15.009 -0.9018 -0.7289  0.4929
  668TMC3    C7 9891   4.531   0.936  15.006  0.4842 -0.1841 -0.2635
  668TMC3    C8 9892   0.210   1.147  14.845  0.4159  0.6941  0.4043
  668TMC3    O1 9893   4.595   0.875  15.087 -0.1556  0.1102 -0.2485
  668TMC3    O2 9894   0.260   1.102  14.947  0.4941 -0.9472  0.2822
  669TMC3    C1 9895   2.599   0.853  14.277 -0.3501 -0.3059  0.4774
  669TMC3    C2 9896   2.492   0.845  14.194  0.1771 -0.1539  0.1195
  669TMC3    C3 9897   2.469   0.955  14.111  0.1849  0.0471 -0.4244
  669TMC3    C4 9898   2.690   0.952  14.276  0.2754 -0.2745 -0.0623
  669TMC3    C5 9899   2.670   1.053  14.191 -0.1933 -0.0498  0.2603
  669TMC3    C6 9900   2.559   1.060  14.116 -0.1385 -0.5079 -0.0234
  669TMC3     C 9901   2.614   0.749  14.378  0.4670 -0.0741  0.3900
  669TMC3     O 9902   2.510   0.686  14.406 -0.4192  0.1074  0.0663
  669TMC3     H 9903   2.429   0.757  14.191 -0.6993  0.5202 -1.5261
  669TMC3    H1 9904   2.774   0.947  14.344  0.1172 -0.1406  0.1427
  669TMC3    H2 9905   2.533   1.147  14.056 -0.7769  0.4354  1.6337
  669TMC3    C7 9906   2.786   1.137  14.156  0.8256  0.3964  0.2006
  669TMC3    C8 9907   2.356   0.948  14.016 -0.0039  0.1418  0.0650
  669TMC3    O1 9908   2.875   1.117  14.238 -0.1215 -0.5061  0.1317
  669TMC3    O2 9909   2.282   0.849  14.042  0.1245 -0.0942 -0.3151
  670MPD2     C 9910   1.492   3.557  13.238 -0.4547 -0.5525 -0.4691
  670MPD2    C1 9911   1.534   3.584  13.363  0.2800 -0.3390  0.0516
  670MPD2    C2 9912   1.447   3.575  13.468  0.4688  0.6789 -0.3357
  670MPD2    C3 9913   1.319   3.538  13.451  0.6540  0.6040  0.5269
  670MPD2    C4 9914   1.275   3.511  13.321 -0.4993  0.0209  0.3586
  670MPD2    C5 9915   1.362   3.530  13.217 -0.4245 -0.0652 -0.3077
  670MPD2     H 9916   1.482   3.610  13.564  0.0823 -0.7361  0.3232
  670MPD2    H1 9917   1.170   3.494  13.303 -0.2894 -0.0586 -0.7893
  670MPD2    H2 9918   1.564   3.562  13.157 -1.6529  1.8262 -1.3579
  670MPD2    H3 9919   1.327   3.507  13.117 -0.9970  1.6162 -0.4941
  670MPD2     N 9920   1.233   3.542  13.567  0.1821 -0.7565 -0.6957
  670MPD2    H5 9921   1.277   3.579  13.651 -2.6866 -1.8352  1.2733
  670MPD2    N1 9922   1.663   3.632  13.389  0.2559 -0.1445 -0.4982
  670MPD2    H7 9923   1.686   3.652  13.486 -2.2422  0.3776 -0.0162
  671TMC3    C1 9924   1.046   3.525  13.713 -0.3881  0.8048 -0.5848
  671TMC3    C2 9925   1.143   3.495  13.806  0.4418 -0.6304  0.1717
  671TMC3    C3 9926   1.104   3.420  13.911 -0.1497  0.2937  0.5826
  671TMC3    C4 9927   0.913   3.493  13.721 -0.0436 -0.0601 -0.1001
  671TMC3    C5 9928   0.881   3.407  13.827  0.2628  0.2117  0.0081
  671TMC3    C6 9929   0.973   3.373  13.926  0.2322  0.5331 -0.6902
  671TMC3     C 9930   1.098   3.527  13.573  0.5682  0.2604  0.1541
  671TMC3     O 9931   1.015   3.496  13.487 -0.3178  0.0462  0.0771
  671TMC3     H 9932   1.230   3.561  13.810 -0.0806 -0.0287  1.5745
  671TMC3    H1 9933   0.847   3.511  13.637 -0.7066 -0.1774  0.3996
  671TMC3    H2 9934   0.944   3.322  14.017 -1.5627 -0.0246 -1.5648
  671TMC3    C7 9935   0.832   3.284  13.766 -0.2260 -0.3065 -0.7647
  671TMC3    C8 9936   1.205   3.324  13.938 -0.7313  0.2272 -0.1001
  671TMC3    O1 9937   0.751   3.290  13.675  0.4414  0.0569 -0.1849
  671TMC3    O2 9938   1.154   3.210  13.954  0.4848  0.1828  0.0457
  672MPD2     C 9939   2.049   3.958   0.172 -0.1122 -0.3996  1.0350
  672MPD2    C1 9940   2.043   4.070   0.249  0.3598 -0.2977 -0.6222
  672MPD2    C2 9941   1.951   4.075   0.350  0.0602  0.0641  0.0817
  672MPD2    C3 9942   1.874   3.958   0.375  0.3628  0.0525  0.6150
  672MPD2    C4 9943   1.879   3.848   0.288  0.4073  0.0550 -0.2853
  672MPD2    C5 9944   1.965   3.852   0.178  1.0102 -0.1958 -0.4720
  672MPD2     H 9945   1.937   4.164   0.411 -1.8332 -0.9530  1.1150
  672MPD2    H1 9946   1.825   3.757   0.311  0.1422  0.3531  0.2723
  672MPD2    H2 9947   2.117   3.954   0.087 -1.8673 -1.2283 -0.3240
  672MPD2    H3 9948   1.968   3.774   0.102  1.0976 -1.3210  0.6864
  672MPD2     N 9949   1.784   3.967   0.484  0.0752  0.0926  1.1533
  672MPD2    H5 9950   1.790   4.048   0.546  0.8576  0.6282  0.3838
  672MPD2    N1 9951   2.133   4.180   0.235 -0.2321 -0.1193  0.4023
  672MPD2    H7 9952   2.123   4.256   0.302 -3.4392 -2.4849  2.6371
  673TMC3    C1 9953   2.336   4.295   0.170 -0.2636 -0.0784  0.1038
  673TMC3    C2 9954   2.464   4.275   0.224 -0.5412  0.2407 -0.1159
  673TMC3    C3 9955   2.517   4.377   0.297  0.2803  0.1089  0.2686
  673TMC3    C4 9956   2.267   4.414   0.198  0.9179 -0.2396  0.1693
  673TMC3    C5 9957   2.328   4.507   0.276 -0.7201  0.0233  0.3301
  673TMC3    C6 9958   2.457   4.497   0.317  0.0326  0.2222 -0.3000
  673TMC3     C 9959   2.246   4.182   0.157 -0.2816 -0.0987 -0.0655
  673TMC3     O 9960   2.290   4.094   0.087  0.1134 -0.6717  1.0610
  673TMC3     H 9961   2.512   4.178   0.216  2.0894  1.5759 -0.7894
  673TMC3    H1 9962   2.171   4.421   0.149  1.4627  1.4964 -0.6435
  673TMC3    H2 9963   2.494   4.575   0.383  3.0664 -0.9664 -0.6059
  673TMC3    C7 9964   2.249   4.619   0.317  0.1485  0.1568 -0.1854
  673TMC3    C8 9965   2.645   4.352   0.355 -0.6040  0.3199  0.0568
  673TMC3    O1 9966   2.305   0.003   0.354 -0.4291 -0.4934 -0.8556
  673TMC3    O2 9967   2.725   4.437   0.381 -0.0643 -0.1540 -0.3310
  674MPD2     C 9968   1.258   4.040   0.552  0.2073 -0.0485 -0.4855
  674MPD2    C1 9969   1.334   3.936   0.493 -1.0372  0.0616 -0.6172
  674MPD2    C2 9970   1.342   3.813   0.559  0.4086 -0.8916 -0.1831
  674MPD2    C3 9971   1.272   3.792   0.671  1.1517 -0.1784  0.4479
  674MPD2    C4 9972   1.192   3.889   0.727 -1.0361  0.4354  0.3341
  674MPD2    C5 9973   1.195   4.013   0.670  0.1511 -0.3330 -0.5188
  674MPD2     H 9974   1.417   3.745   0.522 -0.3052 -1.6714 -0.2059
  674MPD2    H1 9975   1.129   3.873   0.814  0.6819  0.0187  1.5005
  674MPD2    H2 9976   1.254   4.143   0.518  1.9040 -0.0990 -0.8168
  674MPD2    H3 9977   1.129   4.087   0.714  0.4155  0.6279 -1.7198
  674MPD2     N 9978   1.275   3.657   0.710  0.3255  0.2293 -0.3274
  674MPD2    H5 9979   1.314   3.595   0.641  0.9783 -0.1811  0.4129
  674MPD2    N1 9980   1.413   3.947   0.373 -0.2214  0.3997  0.3798
  674MPD2    H7 9981   1.444   3.858   0.337  0.4069  1.5320 -1.8565
  675TMC3    C1 9982   1.538   4.020   0.212  0.0976  0.6726 -0.5214
  675TMC3    C2 9983   1.530   3.895   0.152  0.2618 -0.3005  0.3457
  675TMC3    C3 9984   1.621   3.865   0.054  0.0814 -0.1875  0.5993
  675TMC3    C4 9985   1.619   4.122   0.160 -0.6614 -0.8499  0.0328
  675TMC3    C5 9986   1.711   4.083   0.061  0.0062  0.2072 -0.0948
  675TMC3    C6 9987   1.705   3.958   0.011 -0.7210  0.3128 -0.4394
  675TMC3     C 9988   1.447   4.062   0.312 -0.1199  0.5222  0.2578
  675TMC3     O 9989   1.455   4.172   0.365 -0.1513 -0.0656 -0.3177
  675TMC3     H 9990   1.451   3.823   0.168  0.2655 -0.2673  0.5174
  675TMC3    H1 9991   1.617   4.219   0.208 -1.3567 -0.0768 -1.5625
  675TMC3    H2 9992   1.762   3.929  17.611  1.1173  1.0160  0.5363
  675TMC3    C7 9993   1.813   4.172   0.001 -0.4568 -0.0848 -0.2684
  675TMC3    C8 9994   1.645   3.722   0.034 -0.3326 -0.0449 -0.1238
  675TMC3    O1 9995   1.888   4.110  17.614  0.0847  0.3469 -0.1240
  675TMC3    O2 9996   1.693   3.692  17.613  0.1987 -0.0548 -0.0109
  676MPD2     C 9997   3.840   2.114  10.685 -0.1288  0.4906 -0.4637
  676MPD2    C1 9998   3.750   2.025  10.749  0.0803 -1.2173  0.7033
  676MPD2    C2 9999   3.752   1.892  10.717 -0.1496 -0.2314 -0.2230
  676MPD2    C310000   3.837   1.840  10.619  0.5968 -0.2010  0.7359
  676MPD2    C410001   3.935   1.924  10.570  0.5259 -0.6961  0.3152
  676MPD2    C510002   3.932   2.050  10.608  0.1119  0.0534 -0.4246
  676MPD2     H10003   3.678   1.826  10.762 -0.0508 -1.9211 -2.5261
  676MPD2    H110004   4.014   1.888  10.505 -1.5219 -0.3132 -2.3902
  676MPD2    H210005   3.856   2.219  10.702  1.6918  0.6994 -3.3058
  676MPD2    H310006   4.016   2.102  10.564  2.4024 -3.6591 -0.4370
  676MPD2     N10007   3.844   1.709  10.576 -0.0999  0.7342  0.0354
  676MPD2    H510008   3.917   1.681  10.511  1.0159  2.2538  0.6212
  676MPD2    N110009   3.679   2.068  10.863  0.2720 -0.0127  0.0862
  676MPD2    H710010   3.614   2.005  10.909 -2.3118  1.6564 -1.2649
  677TMC3    C110011   3.622   2.192  11.059  0.3243 -0.4379 -0.1981
  677TMC3    C210012   3.565   2.077  11.111 -0.8837 -0.2316 -0.6239
  677TMC3    C310013   3.477   2.090  11.220  0.6917  0.0051 -0.4669
  677TMC3    C410014   3.598   2.311  11.121 -0.1845  0.0810  0.2134
  677TMC3    C510015   3.493   2.322  11.214  0.5953  0.2001  0.1762
  677TMC3    C610016   3.429   2.207  11.256  0.0950 -0.7666 -0.4816
  677TMC3     C10017   3.703   2.189  10.931  0.0256 -0.1128  0.1566
  677TMC3     O10018   3.790   2.274  10.914 -0.2110 -0.2574 -0.3037
  677TMC3     H10019   3.596   1.979  11.077 -0.5841 -0.0408 -0.9053
  677TMC3    H110020   3.653   2.394  11.079  0.8551 -1.5487 -1.6281
  677TMC3    H210021   3.346   2.208  11.326  1.7971 -0.6512  1.5497
  677TMC3    C710022   3.469   2.451  11.283  1.2096 -0.6099  0.5116
  677TMC3    C810023   3.457   1.964  11.292 -0.2170  0.1512  0.7844
  677TMC3    O110024   3.387   2.443  11.376  0.4959  0.2941  0.6253
  677TMC3    O210025   3.433   1.867  11.225 -0.4029 -0.0696 -0.7690
  678MPD2     C10026   0.905   2.375   1.708 -0.7634  0.7631  0.0618
  678MPD2    C110027   0.957   2.271   1.642  0.5353  1.5184  0.3082
  678MPD2    C210028   0.866   2.176   1.594 -0.4055  0.2082  0.3830
  678MPD2    C310029   0.735   2.178   1.638 -0.1303 -0.2061  0.0990
  678MPD2    C410030   0.686   2.281   1.712  0.4171  1.0427 -0.0016
  678MPD2    C510031   0.774   2.378   1.748  0.0030  0.4347  0.3542
  678MPD2     H10032   0.901   2.109   1.516 -0.4519  1.2187 -0.5072
  678MPD2    H110033   0.584   2.282   1.748  0.1880  0.4397 -0.6138
  678MPD2    H210034   0.965   2.452   1.756 -1.6084  1.5391 -0.1233
  678MPD2    H310035   0.751   2.448   1.828  1.9783  1.0442  0.4022
  678MPD2     N10036   0.652   2.081   1.577  0.2701  0.4050  0.2911
  678MPD2    H510037   0.694   2.010   1.518 -0.1116 -0.3737  0.9717
  678MPD2    N110038   1.095   2.270   1.595 -0.4598  0.0163 -0.0569
  678MPD2    H710039   1.130   2.180   1.565 -1.3244 -0.2339 -0.3070
  679TMC3    C110040   1.486   2.249   1.458 -0.0553 -0.4219  0.9972
  679TMC3    C210041   1.362   2.254   1.522  0.2873  0.0893  0.1416
  679TMC3    C310042   1.286   2.368   1.497  0.1385  0.0444 -1.0945
  679TMC3    C410043   1.522   2.339   1.365  0.0936 -0.6916 -0.6614
  679TMC3    C510044   1.432   2.442   1.337 -0.0763  0.8130 -0.1822
  679TMC3    C610045   1.317   2.463   1.404  0.0652 -0.3480 -0.7003
  679TMC3     C10046   1.578   2.137   1.481  0.3199  0.0040 -0.0278
  679TMC3     O10047   1.703   2.158   1.487 -0.5384 -0.7195  0.0707
  679TMC3     H10048   1.339   2.190   1.607 -0.8812  0.9486  0.4683
  679TMC3    H110049   1.608   2.336   1.299  2.2258 -0.5142  2.0893
  679TMC3    H210050   1.260   2.550   1.376 -0.3031 -1.2648 -2.7849
  679TMC3    C710051   1.467   2.521   1.222  0.0199 -0.8020  0.3448
  679TMC3    C810052   1.163   2.386   1.567 -0.0469 -0.5269  0.1726
  679TMC3    O110053   1.581   2.570   1.208 -0.1885 -0.0596 -0.3425
  679TMC3    O210054   1.129   2.505   1.569 -0.9090 -0.1532 -0.7497
  680MPD2     C10055   0.537   0.480  13.422 -0.0357  0.5628  0.2635
  680MPD2    C110056   0.622   0.418  13.507  0.3032  0.6073 -0.3369
  680MPD2    C210057   0.699   0.484  13.599 -0.1016  0.3815 -0.4536
  680MPD2    C310058   0.702   0.625  13.599  0.1602  0.3269 -0.0590
  680MPD2    C410059   0.623   0.695  13.505  0.0827 -0.0543 -0.4561
  680MPD2    C510060   0.537   0.620  13.424  0.2031  0.5281 -0.0717
  680MPD2     H10061   0.773   0.433  13.659  0.6192 -1.4113 -2.8528
  680MPD2    H110062   0.628   0.802  13.491  1.5159  0.0733  0.9964
  680MPD2    H210063   0.476   0.429  13.348  0.7232  2.1221 -1.4286
  680MPD2    H310064   0.478   0.682  13.358  0.9272  0.3874 -0.8405
  680MPD2     N10065   0.781   0.712  13.677  0.0934 -0.3473  0.4083
  680MPD2    H510066   0.775   0.814  13.679  1.8106 -0.1575 -2.6445
  680MPD2    N110067   0.652   0.280  13.500  0.3410  0.2315 -0.6218
  680MPD2    H710068   0.740   0.247  13.539  1.0993 -0.1915 -2.6915
  681TMC3    C110069   0.619   0.046  13.481  0.3929 -0.0307 -0.4329
  681TMC3    C210070   0.530   4.700  13.562  0.0628  0.0674  0.8509
  681TMC3    C310071   0.581   4.616  13.652 -0.0013  0.3330 -0.2475
  681TMC3    C410072   0.756   0.022  13.489  0.1113 -0.1046  0.0659
  681TMC3    C510073   0.804   4.654  13.582  0.2436 -0.0520 -0.8535
  681TMC3    C610074   0.717   4.595  13.674  0.2023 -0.4241  0.1187
  681TMC3     C10075   0.571   0.184  13.451 -0.0736 -0.3344 -0.3098
  681TMC3     O10076   0.451   0.194  13.422  0.1371 -0.2475  0.6437
  681TMC3     H10077   0.423   4.717  13.552  0.3573  1.3213 -0.3020
  681TMC3    H110078   0.826   0.076  13.427 -1.4737 -1.0194 -2.5245
  681TMC3    H210079   0.744   4.514  13.741 -0.2818 -0.2062  0.5797
  681TMC3    C710080   0.943   4.609  13.576 -0.1940 -0.3447  0.3271
  681TMC3    C810081   0.503   4.619  13.774 -1.0282 -0.2486  0.9740
  681TMC3    O110082   0.971   4.527  13.663  0.1923  0.0063  0.0637
  681TMC3    O210083   0.381   4.599  13.764 -0.6475 -0.0109  0.1262
  682MPD2     C10084   3.005   2.178  10.548 -0.0667  0.5549  0.3246
  682MPD2    C110085   3.026   2.048  10.566 -0.3367  0.0497 -0.2427
  682MPD2    C210086   3.034   1.999  10.699  0.4192  0.1929  0.5099
  682MPD2    C310087   3.025   2.085  10.809 -0.1258 -0.1189  0.0726
  682MPD2    C410088   3.010   2.223  10.787 -0.1092  0.2352 -0.0457
  682MPD2    C510089   2.998   2.266  10.655  0.6148  0.1297  0.5383
  682MPD2     H10090   3.059   1.899  10.731  0.5507 -0.3372 -1.2463
  682MPD2    H110091   3.001   2.296  10.866  2.4760  1.0137 -0.4707
  682MPD2    H210092   2.979   2.212  10.448  2.3159 -0.0824 -0.4987
  682MPD2    H310093   2.965   2.363  10.619  1.5100 -0.0368 -0.7343
  682MPD2     N10094   3.043   2.029  10.941 -0.6785 -0.0975  0.3351
  682MPD2    H510095   3.049   1.929  10.952  1.9375  0.0251 -0.0412
  682MPD2    N110096   3.040   1.958  10.455  0.2462  0.2237  0.0053
  682MPD2    H710097   3.058   2.002  10.365  1.6703 -0.6654 -0.1417
  683TMC3    C110098   3.059   2.011  11.410 -1.3761 -0.4687 -0.4705
  683TMC3    C210099   3.029   1.878  11.412 -0.4961  0.1877  0.1706
  683TMC3    C310100   3.005   1.815  11.293 -0.1807  0.1578  0.8854
  683TMC3    C410101   3.075   2.084  11.296  0.1350  0.4571 -0.5677
  683TMC3    C510102   3.053   2.017  11.177 -0.3895 -0.1456 -0.4035
  683TMC3    C610103   3.012   1.885  11.174 -0.6670 -0.5870  0.1743
  683TMC3     C10104   3.086   2.074  11.540  0.0232  0.6229  0.6937
  683TMC3     O10105   3.106   2.194  11.531  0.2631  0.1361  0.2527
  683TMC3     H10106   3.018   1.818  11.501  3.6156 -1.4311 -0.3725
  683TMC3    H110107   3.089   2.191  11.295 -0.4862  0.5505  2.2400
  683TMC3    H210108   2.984   1.841  11.079  0.1444  0.0550 -0.3572
  683TMC3    C710109   3.049   2.101  11.056  0.1234 -0.0640  0.5611
  683TMC3    C810110   3.000   1.670  11.274  0.3363 -0.3958 -0.1671
  683TMC3    O110111   3.076   2.218  11.069  0.2513  0.1772  0.3116
  683TMC3    O210112   2.956   1.634  11.171  0.0377 -0.0764 -0.4382
  684MPD2     C10113   0.985   1.280  16.126  0.0853  0.5736  0.5700
  684MPD2    C110114   0.965   1.308  15.994 -0.1692 -0.2612  0.9076
  684MPD2    C210115   0.976   1.441  15.950 -1.2637 -0.0078  0.2871
  684MPD2    C310116   1.024   1.547  16.037 -0.3119 -0.2044 -0.3108
  684MPD2    C410117   1.039   1.512  16.167  0.0592 -0.8143  0.6624
  684MPD2    C510118   1.026   1.382  16.210 -0.1769 -0.6539 -0.3885
  684MPD2     H10119   0.967   1.456  15.843 -0.0956  1.3022  0.3713
  684MPD2    H110120   1.078   1.585  16.238 -1.6545  1.1347 -0.4013
  684MPD2    H210121   0.957   1.186  16.170 -1.5010  1.7786  2.1396
  684MPD2    H310122   1.035   1.361  16.316  1.6134  1.5510 -0.1051
  684MPD2     N10123   1.056   1.680  15.990 -0.0059  0.0342 -0.7098
  684MPD2    H510124   1.123   1.722  16.053  0.7942 -0.0980 -1.4795
  684MPD2    N110125   0.962   1.202  15.894 -0.1259  0.0080  0.5935
  684MPD2    H710126   0.955   1.233  15.798 -2.0368  2.1833  1.4545
  685TMC3    C110127   0.951   0.998  15.784 -0.1306 -0.2762  0.0520
  685TMC3    C210128   0.859   1.054  15.699  0.0743 -0.2869  0.3539
  685TMC3    C310129   0.879   1.024  15.566 -0.3890 -0.4976  0.8969
  685TMC3    C410130   1.054   0.919  15.738  0.2700  0.5087 -0.2334
  685TMC3    C510131   1.073   0.900  15.606 -0.3937 -0.3801 -0.5103
  685TMC3    C610132   0.985   0.952  15.515 -0.2022  0.5926  0.2399
  685TMC3     C10133   0.973   1.064  15.912  0.2753 -0.4552 -0.0300
  685TMC3     O10134   1.005   0.999  16.012 -0.5246 -0.1509  0.6381
  685TMC3     H10135   0.769   1.104  15.732  0.9786  0.9229  0.9940
  685TMC3    H110136   1.129   0.884  15.808 -0.3716  0.2965  0.3591
  685TMC3    H210137   0.995   0.946  15.407  0.0580 -1.7728  0.3844
  685TMC3    C710138   1.209   0.923  15.559  0.8311  0.9593 -0.9112
  685TMC3    C810139   0.773   1.065  15.468  0.6151 -0.1380 -0.1378
  685TMC3    O110140   1.224   0.921  15.437 -0.2199 -0.9101  0.6396
  685TMC3    O210141   0.800   1.046  15.354 -0.2215 -0.5764  0.5675
  686MPD2     C10142   2.775   1.453  16.007 -0.0265 -0.2139 -0.3685
  686MPD2    C110143   2.670   1.408  15.930 -0.2018  0.1254 -0.2817
  686MPD2    C210144   2.607   1.497  15.847  0.1608 -0.2258 -0.0729
  686MPD2    C310145   2.642   1.634  15.849 -0.2462  0.8720  0.0603
  686MPD2    C410146   2.740   1.672  15.941 -0.0361  0.3900  0.0000
  686MPD2    C510147   2.800   1.584  16.022 -0.0077 -0.4954  0.0752
  686MPD2     H10148   2.530   1.460  15.780 -0.5485  1.1009  0.0100
  686MPD2    H110149   2.775   1.774  15.950 -3.0240  1.4174  0.1925
  686MPD2    H210150   2.836   1.392  16.073 -1.2891 -0.3336  0.6779
  686MPD2    H310151   2.869   1.621  16.098  0.5912 -0.5565 -0.4337
  686MPD2     N10152   2.587   1.729  15.759  0.3934 -0.1589  0.0491
  686MPD2    H510153   2.641   1.813  15.739  1.8022 -1.6622 -2.4995
  686MPD2    N110154   2.637   1.274  15.943  0.4700 -0.2556 -0.9600
  686MPD2    H710155   2.681   1.222  16.018  0.3060  1.2016  0.1501
  687TMC3    C110156   2.559   1.690  15.526  0.3340  0.3644  0.4932
  687TMC3    C210157   2.476   1.637  15.428 -0.0304 -0.0375  0.1860
  687TMC3    C310158   2.512   1.527  15.353 -0.2742 -0.9173 -0.0317
  687TMC3    C410159   2.683   1.639  15.534 -0.0166 -0.4278 -0.5671
  687TMC3    C510160   2.706   1.517  15.471 -0.1396 -0.3181  0.5851
  687TMC3    C610161   2.622   1.463  15.378  0.7104 -0.0570 -0.1635
  687TMC3     C10162   2.503   1.685  15.658  0.9304 -0.1785 -0.6882
  687TMC3     O10163   2.400   1.620  15.664  0.3121  0.0025 -0.0489
  687TMC3     H10164   2.375   1.677  15.427  0.5465  1.4673  4.3382
  687TMC3    H110165   2.750   1.669  15.614 -0.0743  1.0127 -1.0474
  687TMC3    H210166   2.642   1.361  15.347 -1.6097  0.2367 -2.6535
  687TMC3    C710167   2.804   1.438  15.539  0.2381  0.3586  0.3458
  687TMC3    C810168   2.427   1.478  15.253 -0.2295 -0.4271 -0.0174
  687TMC3    O110169   2.912   1.482  15.567 -0.5476 -0.1303  0.9136
  687TMC3    O210170   2.472   1.401  15.170 -0.2074 -0.2167 -0.0330
  688MPD2     C10171   1.769   0.112  16.943 -0.4236 -0.2144  0.1403
  688MPD2    C110172   1.809   4.719  17.012  0.5959 -0.5886 -0.2605
  688MPD2    C210173   1.913   4.648  16.956  0.7458  0.5479  0.5238
  688MPD2    C310174   1.986   4.694  16.847 -0.3412 -0.1089  0.6082
  688MPD2    C410175   1.940   0.088  16.788  0.3781 -0.6263 -0.0315
  688MPD2    C510176   1.834   0.161  16.835 -0.5711 -0.2586 -1.6897
  688MPD2     H10177   1.939   4.551  16.998  1.3634  1.2948  1.8613
  688MPD2    H110178   1.991   0.119  16.698 -1.6229  1.2980 -0.5016
  688MPD2    H210179   1.678   0.163  16.973  0.1441 -0.2385  1.8791
  688MPD2    H310180   1.800   0.250  16.784 -2.5741 -0.2360 -0.3192
  688MPD2     N10181   2.096   4.625  16.800 -0.8108 -0.0553  0.3393
  688MPD2    H510182   2.158   4.671  16.734  0.3812  0.3421  1.7532
  688MPD2    N110183   1.743   4.669  17.127 -0.6181  0.0612  0.1009
  688MPD2    H710184   1.773   4.573  17.138  1.3479  0.6896  0.1568
  689TMC3    C110185   1.605   4.681  17.334  0.1541  0.0305 -0.2975
  689TMC3    C210186   1.584   0.045  17.441  0.0440 -0.2702 -0.5150
  689TMC3    C310187   1.585   4.710  17.568 -0.2841  0.6112  0.1442
  689TMC3    C410188   1.591   4.543  17.347  0.3906  0.1504 -0.1271
  689TMC3    C510189   1.588   4.493  17.476 -0.3185  0.4809 -0.2145
  689TMC3    C610190   1.578   4.574  17.587 -0.6312  0.2043  0.2405
  689TMC3     C10191   1.658   0.019  17.215  0.0980 -0.5700 -0.0994
  689TMC3     O10192   1.642   0.142  17.214  0.0121  0.2534 -0.3602
  689TMC3     H10193   1.570   0.150  17.419 -0.4574 -0.8463 -2.9351
  689TMC3    H110194   1.593   4.486  17.255  0.2073  0.6994 -0.4728
  689TMC3    H210195   1.569   4.532  17.686  1.5929 -0.4385  0.1714
  689TMC3    C710196   1.564   4.352  17.496 -0.3858  0.3669 -0.5339
  689TMC3    C810197   1.582   0.067  17.688  0.3064  0.0266  0.2141
  689TMC3    O110198   1.549   4.315  17.608  0.2134  0.0635 -0.5712
  689TMC3    O210199   1.524   0.016   0.092  0.6217 -0.2854 -0.2623
  690MPD2     C10200   4.135   1.787  15.841  0.0332  0.6110  0.3872
  690MPD2    C110201   4.025   1.798  15.758  0.4153 -0.5169 -0.6217
  690MPD2    C210202   4.049   1.863  15.642 -0.7846  0.3458  0.3442
  690MPD2    C310203   4.176   1.911  15.599  0.1972 -0.4250 -0.2827
  690MPD2    C410204   4.280   1.898  15.687  0.3391 -0.0358  0.2219
  690MPD2    C510205   4.253   1.835  15.805 -0.2426 -0.2947  0.4456
  690MPD2     H10206   3.975   1.877  15.563  1.7750  1.8545 -1.7596
  690MPD2    H110207   4.380   1.935  15.669 -0.0982  0.6409 -0.8350
  690MPD2    H210208   4.126   1.742  15.939 -0.7069  0.9786  0.4927
  690MPD2    H310209   4.329   1.825  15.881  2.6034  1.7880 -2.1215
  690MPD2     N10210   4.198   1.945  15.467 -0.1630  0.6629 -0.4976
  690MPD2    H510211   4.125   1.916  15.403 -1.8731  2.8347  0.4507
  690MPD2    N110212   3.893   1.754  15.792  0.0452  0.2433 -0.5340
  690MPD2    H710213   3.829   1.734  15.716  0.0652  1.6114 -0.9094
  691TMC3    C110214   3.740   1.613  15.905  0.0747  0.4316 -0.0464
  691TMC3    C210215   3.658   1.580  16.007  0.0989 -0.1188 -0.0276
  691TMC3    C310216   3.579   1.468  15.989 -0.0216 -0.6250 -0.7373
  691TMC3    C410217   3.743   1.534  15.790 -0.2754 -0.4239  0.7355
  691TMC3    C510218   3.659   1.426  15.778 -0.2978  0.5723  0.2594
  691TMC3    C610219   3.580   1.385  15.884  0.6441  0.6654 -0.1176
  691TMC3     C10220   3.860   1.698  15.917  0.3313  0.4818  0.4982
  691TMC3     O10221   3.910   1.712  16.028  0.2276 -0.6219  0.1236
  691TMC3     H10222   3.669   1.636  16.100  2.7437  1.2979 -1.1785
  691TMC3    H110223   3.818   1.544  15.712 -1.5168 -1.2000 -0.5607
  691TMC3    H210224   3.534   1.287  15.882 -0.8089  1.3496 -0.1100
  691TMC3    C710225   3.692   1.326  15.679 -0.0127 -0.9252 -0.3427
  691TMC3    C810226   3.451   1.482  16.046  0.2913  0.3974 -0.0804
  691TMC3    O110227   3.803   1.346  15.633  0.4958 -0.3386  0.4046
  691TMC3    O210228   3.377   1.387  16.065 -0.2460 -0.4009  0.5205
  692TMC3    C110229   0.917   2.963  15.748 -0.3560  0.8256 -0.6063
  692TMC3    C210230   1.030   2.950  15.818  0.7367  0.4130  0.4565
  692TMC3    C310231   1.096   2.832  15.810 -0.1568  1.1908 -0.4978
  692TMC3    C410232   0.856   2.854  15.687  0.4043 -0.1797  0.1711
  692TMC3    C510233   0.921   2.731  15.697  0.3967  0.6919 -0.3799
  692TMC3    C610234   1.039   2.722  15.761 -0.2934  0.0512  0.4594
  692TMC3     C10235   0.826   3.062  15.786  0.5990  0.5257  0.4700
  692TMC3     O10236   0.709   3.052  15.761 -0.2282 -0.5051 -0.4009
  692TMC3     H10237   1.094   3.037  15.812 -0.6788  1.4350  0.1776
  692TMC3    H110238   0.771   2.862  15.621 -0.1550 -0.3949  0.8652
  692TMC3    H210239   1.079   2.625  15.787 -1.2634 -1.3593 -3.1770
  692TMC3    C710240   0.859   2.623  15.628  0.3165  1.5068 -0.0964
  692TMC3    C810241   1.164   2.800  15.939  0.1112 -0.8118  0.0915
  692TMC3    O110242   0.737   2.623  15.631 -0.0123  1.0385 -0.3358
  692TMC3    O210243   1.207   2.687  15.964 -0.1651 -0.1457 -0.1815
  693MPD2     C10244   0.177   1.027  10.827 -0.4249  0.0015  0.4288
  693MPD2    C110245   0.106   0.968  10.714  0.2103  0.1662  0.0045
  693MPD2    C210246   0.146   0.843  10.672  0.5073 -0.3440 -0.3942
  693MPD2    C310247   0.251   0.776  10.738 -0.8390  0.1816 -0.1092
  693MPD2    C410248   0.328   0.841  10.835 -0.3231  0.6844 -0.6473
  693MPD2    C510249   0.292   0.972  10.877  0.3629  0.7204 -0.6381
  693MPD2     H10250   0.090   0.794  10.593 -0.1932  0.4875 -0.4222
  693MPD2    H110251   0.421   0.801  10.876 -1.4744 -0.0110  1.2606
  693MPD2    H210252   0.158   1.132  10.846 -1.3533  0.4231 -2.7604
  693MPD2    H310253   0.359   1.028  10.941 -0.2760  0.0569  0.6168
  693MPD2     N10254   0.302   0.649  10.706 -0.3728 -0.3649 -0.0746
  693MPD2    H510255   0.362   0.605  10.775 -1.2282 -0.8410  0.3728
  693MPD2    N110256   4.713   1.040  10.664 -0.1036 -0.4376  0.1486
  693MPD2    H710257   4.673   1.117  10.716 -0.3799  0.6556 -1.7033
  694TMC3    C110258   4.488   1.032  10.583  0.2460 -0.1890  0.1221
  694TMC3    C210259   4.402   0.952  10.522 -0.2530 -0.2300 -0.3809
  694TMC3    C310260   4.295   0.912  10.594 -0.2010 -0.8948 -0.0724
  694TMC3    C410261   4.454   1.091  10.706  0.1878 -0.1940  0.1254
  694TMC3    C510262   4.337   1.058  10.774 -0.0340 -0.6175 -0.0621
  694TMC3    C610263   4.258   0.961  10.719  0.1451  0.0152  0.1602
  694TMC3     C10264   4.630   0.989  10.566  0.2781  0.3645 -1.0534
  694TMC3     O10265   4.646   0.902  10.484  0.1019 -0.2444  0.6393
  694TMC3     H10266   4.442   0.908  10.431 -0.0065 -0.6726 -0.0570
  694TMC3    H110267   4.520   1.168  10.745  0.4854 -0.6261  0.4844
  694TMC3    H210268   4.174   0.912  10.766  0.1490 -0.9242 -0.8022
  694TMC3    C710269   4.362   1.022  10.909 -0.4017 -0.2647 -0.0300
  694TMC3    C810270   4.193   0.845  10.522 -0.4432  0.2580  0.1658
  694TMC3    O110271   4.378   1.115  10.988 -0.5592  0.0495  0.2797
  694TMC3    O210272   4.102   0.792  10.576 -0.0917 -0.0618 -0.2830
  695MPD2     C10273   1.127   2.292  13.493  0.6295 -0.3864 -0.3572
  695MPD2    C110274   1.146   2.432  13.491  0.3386  0.7947  0.4543
  695MPD2    C210275   1.064   2.524  13.424  0.6867 -0.6765  0.1447
  695MPD2    C310276   0.959   2.471  13.351 -0.1797 -0.6760  0.2886
  695MPD2    C410277   0.937   2.332  13.349  0.0181 -0.1237 -0.2603
  695MPD2    C510278   1.021   2.248  13.421  0.4780 -0.6286 -0.0727
  695MPD2     H10279   1.084   2.631  13.427  2.3178 -0.9962  0.5933
  695MPD2    H110280   0.861   2.274  13.298 -0.8344 -2.2777  3.4540
  695MPD2    H210281   1.193   2.224  13.546 -0.2625 -0.0270  1.2055
  695MPD2    H310282   1.006   2.140  13.421  0.1372 -0.5802 -0.2647
  695MPD2     N10283   0.880   2.570  13.283  0.1242 -0.1756  0.3651
  695MPD2    H510284   0.909   2.667  13.292  1.5167 -0.7940  2.7503
  695MPD2    N110285   1.237   2.497  13.577  0.2348  0.0550 -0.4819
  695MPD2    H710286   1.252   2.597  13.564  3.1769 -0.3754 -0.2859
  696TMC3    C110287   0.679   2.666  13.210  0.0072 -0.3931  1.0703
  696TMC3    C210288   0.600   2.703  13.307  0.7651 -0.7409 -0.7156
  696TMC3    C310289   0.556   2.829  13.305 -0.0242 -0.1468 -0.2736
  696TMC3    C410290   0.725   2.749  13.113  0.6542  0.6739 -0.3387
  696TMC3    C510291   0.662   2.871  13.103 -0.3539  0.3429 -0.0701
  696TMC3    C610292   0.566   2.912  13.197 -0.3078  0.1516  0.2595
  696TMC3     C10293   0.758   2.544  13.235  0.1261  0.7123  0.3458
  696TMC3     O10294   0.700   2.440  13.248  0.5368 -0.5225 -0.0874
  696TMC3     H10295   0.578   2.641  13.393 -0.9729  1.4790  0.4376
  696TMC3    H110296   0.809   2.730  13.046 -1.7592  0.8923 -3.4150
  696TMC3    H210297   0.515   3.007  13.188 -0.4280  0.0234 -0.3805
  696TMC3    C710298   0.744   2.982  13.051 -0.0963  0.3273 -0.1641
  696TMC3    C810299   0.614   2.904  13.416  0.0525  0.6212  0.6626
  696TMC3    O110300   0.843   2.959  12.981  0.2962 -0.0469  0.9973
  696TMC3    O210301   0.611   3.026  13.408 -0.7698  0.1393 -0.4212
  697MPD2     C10302   0.696   4.587  15.955  0.4800  0.3343  0.1384
  697MPD2    C110303   0.719   4.541  15.823  0.2761  1.3911  0.7150
  697MPD2    C210304   0.743   4.635  15.725 -0.1611  0.3353 -0.5609
  697MPD2    C310305   0.745   0.051  15.748 -0.1556 -0.4942  0.4190
  697MPD2    C410306   0.721   0.096  15.877 -0.3848 -0.1071  0.5145
  697MPD2    C510307   0.700   0.002  15.974 -0.5749 -0.5920  0.5014
  697MPD2     H10308   0.785   4.601  15.631 -3.0490  1.2283 -2.2061
  697MPD2    H110309   0.735   0.199  15.906  1.4349 -0.1863 -0.0949
  697MPD2    H210310   0.669   4.519  16.035 -0.6729  1.2625  0.5337
  697MPD2    H310311   0.679   0.032  16.076 -0.0111 -0.0669  0.4596
  697MPD2     N10312   0.776   0.130  15.636  0.1296  0.6822 -0.0482
  697MPD2    H510313   0.797   0.091  15.545 -1.4644 -0.1232 -0.0808
  697MPD2    N110314   0.733   4.405  15.783 -0.2641  0.2328  0.0417
  697MPD2    H710315   0.760   4.379  15.689  0.6715  2.6845 -0.3770
  698TMC3    C110316   0.874   0.312  15.525  0.3166 -0.3754  0.2571
  698TMC3    C210317   0.975   0.408  15.528  0.2772  0.2404 -0.5252
  698TMC3    C310318   1.042   0.445  15.412 -0.8555  0.3679  0.0119
  698TMC3    C410319   0.833   0.263  15.405 -0.4045 -0.2356 -0.2310
  698TMC3    C510320   0.898   0.306  15.291  0.3763 -0.6600 -0.8821
  698TMC3    C610321   1.002   0.395  15.292 -0.1839 -0.0649  0.8527
  698TMC3     C10322   0.814   0.264  15.649  0.7201  0.3260 -0.5465
  698TMC3     O10323   0.820   0.342  15.744 -0.2020 -0.4510 -0.5435
  698TMC3     H10324   1.020   0.431  15.623  0.5892 -0.0039 -0.6126
  698TMC3    H110325   0.754   0.190  15.390 -0.9877  0.1852  0.7657
  698TMC3    H210326   1.047   0.424  15.197  0.1118  1.2324  1.3907
  698TMC3    C710327   0.864   0.248  15.160 -0.3670  0.1291 -0.3622
  698TMC3    C810328   1.168   0.514  15.423  0.4639  0.2216 -0.5580
  698TMC3    O110329   0.748   0.205  15.157 -0.1861  0.1524 -0.0312
  698TMC3    O210330   1.190   0.552  15.535  0.1581  0.1141 -0.3706
  699TMC3    C110331   0.219   3.029  12.785 -0.3332 -0.4957  0.2660
  699TMC3    C210332   0.292   2.950  12.869 -0.3359 -0.0990  0.6667
  699TMC3    C310333   0.212   2.900  12.967  0.2058 -0.0461 -0.3686
  699TMC3    C410334   0.087   3.058  12.798  0.0119 -0.3009  0.2732
  699TMC3    C510335   0.016   3.000  12.901 -0.7103 -0.0247  0.0568
  699TMC3    C610336   0.078   2.911  12.981  0.9893  0.5004  0.2283
  699TMC3     C10337   0.298   3.108  12.691 -0.2402 -0.7262  0.3512
  699TMC3     O10338   0.242   3.188  12.618  0.6658 -0.0488 -0.7490
  699TMC3     H10339   0.400   2.939  12.870 -0.4004 -0.7429  0.8457
  699TMC3    H110340   0.033   3.123  12.731  2.2353  1.4946  0.2381
  699TMC3    H210341   0.025   2.870  13.066 -1.0113  1.3316 -0.6339
  699TMC3    C710342   4.623   3.078  12.957  0.0942  0.0427 -0.2773
  699TMC3    C810343   0.266   2.790  13.049  0.8869  0.0965 -0.0737
  699TMC3    O110344   4.604   3.068  13.078  0.4913  0.0863  0.0549
  699TMC3    O210345   0.213   2.781  13.159  0.4375 -0.6368 -0.0825
  700TMC3    C110346   4.241   0.185  17.222  0.1646  0.1488 -0.2419
  700TMC3    C210347   4.301   0.071  17.186  0.2626 -0.2835 -0.4238
  700TMC3    C310348   4.425   0.043  17.236  0.7373  0.3485 -0.1135
  700TMC3    C410349   4.297   0.263  17.318  0.3497 -0.3125  0.6822
  700TMC3    C510350   4.415   0.224  17.370 -0.3281 -0.4451  0.7982
  700TMC3    C610351   4.483   0.116  17.329  0.5282 -0.4712  0.0117
  700TMC3     C10352   4.185   0.255  17.108  0.2058 -0.5507 -0.1761
  700TMC3     O10353   4.089   0.194  17.058 -0.0275 -0.2936  0.3189
  700TMC3     H10354   4.261   0.016  17.101  0.8354 -0.9813 -0.2325
  700TMC3    H110355   4.266   0.366  17.321 -0.5862 -0.6105  1.1158
  700TMC3    H210356   4.587   0.101  17.358  0.3414  0.4380  1.1132
  700TMC3    C710357   4.484   0.323  17.449  0.3739  0.2254 -0.2490
  700TMC3    C810358   4.512   4.683  17.150 -0.9641  0.3092 -0.5944
  700TMC3    O110359   4.604   0.318  17.434  0.5309  0.1517 -0.0792
  700TMC3    O210360   4.635   4.693  17.159 -0.3918 -0.0115 -0.3665
  701TMC3    C110361   4.075   3.870  15.482  0.4317 -0.1197  0.1432
  701TMC3    C210362   4.138   3.790  15.389 -0.0853  0.1873 -0.4578
  701TMC3    C310363   4.260   3.742  15.423 -0.2154 -0.5950 -0.2760
  701TMC3    C410364   4.121   3.906  15.604  0.7254  0.4454 -0.3134
  701TMC3    C510365   4.243   3.850  15.633  0.0880 -0.2096  0.2633
  701TMC3    C610366   4.312   3.766  15.545 -0.0624 -0.4788 -0.7179
  701TMC3     C10367   3.958   3.949  15.440 -0.9376  0.1754 -0.6331
  701TMC3     O10368   3.956   4.066  15.475 -0.6944 -0.0551 -0.1209
  701TMC3     H10369   4.086   3.780  15.294  0.3330 -0.6911 -0.6007
  701TMC3    H110370   4.070   3.984  15.660 -1.0516  0.3227 -1.7787
  701TMC3    H210371   4.403   3.718  15.579 -0.3978  0.7116  1.8698
  701TMC3    C710372   4.320   3.924  15.736 -0.3315  0.5630 -0.3044
  701TMC3    C810373   4.328   3.633  15.348 -0.3497 -0.5308 -0.5247
  701TMC3    O110374   4.438   3.929  15.743  0.8795  0.3156 -0.4109
  701TMC3    O210375   4.427   3.575  15.406 -0.1012  0.1229 -0.3793
  702MPD2     C10376   4.344   1.293  10.349  0.3034  0.4807  0.1039
  702MPD2    C110377   4.254   1.392  10.326  0.2667  0.6208  0.1154
  702MPD2    C210378   4.293   1.513  10.264 -0.6177 -0.7420  0.1780
  702MPD2    C310379   4.413   1.520  10.201  0.6620 -0.2235 -0.0691
  702MPD2    C410380   4.511   1.420  10.229 -0.7329 -0.3210  0.6760
  702MPD2    C510381   4.475   1.310  10.304 -0.0648 -0.1895  0.0376
  702MPD2     H10382   4.232   1.601  10.252  1.3021  0.6254  0.4590
  702MPD2    H110383   4.608   1.436  10.184  0.3836 -0.6720  3.0038
  702MPD2    H210384   4.319   1.205  10.407 -1.0038  0.8809  0.1543
  702MPD2    H310385   4.548   1.234  10.330  0.2261 -1.0292 -3.2054
  702MPD2     N10386   4.435   1.644  10.135 -0.5529  0.4233 -0.5957
  702MPD2    H510387   4.361   1.714  10.139 -2.9979 -2.0460 -2.0920
  702MPD2    N110388   4.124   1.382  10.391 -1.2370 -0.4032  0.0093
  702MPD2    H710389   4.065   1.462  10.367 -0.6499  0.8940  2.9164
  703TMC3    C110390   4.534   1.815  10.005  0.4094  0.6955  0.2356
  703TMC3    C210391   4.411   1.867   9.972  0.4566 -0.0871 -0.8328
  703TMC3    C310392   4.402   1.991   9.911 -0.3758 -0.1507  0.5519
  703TMC3    C410393   4.644   1.889   9.988  0.1663 -0.5275  0.0529
  703TMC3    C510394   4.632   2.024   9.952  0.0036  0.0415  0.1840
  703TMC3    C610395   4.515   2.077   9.916  0.4288 -0.9398 -0.6276
  703TMC3     C10396   4.552   1.684  10.070 -0.4037  0.8718  0.4367
  703TMC3     O10397   4.667   1.638  10.075 -0.2228 -0.2759 -0.4146
  703TMC3     H10398   4.323   1.803   9.964  0.0632 -0.0241  2.9263
  703TMC3    H110399   0.020   1.848  10.014  1.9370  1.8130 -2.8086
  703TMC3    H210400   4.521   2.180   9.881 -0.3839 -0.6537  0.0663
  703TMC3    C710401   0.027   2.113   9.953 -0.2256  0.1118 -0.3062
  703TMC3    C810402   4.272   2.050   9.888 -0.0303  0.4515  0.0592
  703TMC3    O110403   0.015   2.232   9.920  0.3398 -0.4831  0.6152
  703TMC3    O210404   4.268   2.165   9.849  0.3622 -0.4945 -0.5807
  704TMC3    C110405   1.783   4.381  12.463 -0.0078  0.5540  0.5518
  704TMC3    C210406   1.879   4.370  12.363  0.4861  0.5001 -0.1646
  704TMC3    C310407   2.000   4.328  12.404 -0.2089 -0.2716  0.1385
  704TMC3    C410408   1.813   4.370  12.597  0.4961 -0.5537 -0.3429
  704TMC3    C510409   1.936   4.329  12.631  0.5112  0.7766  0.7471
  704TMC3    C610410   2.025   4.286  12.533 -0.3221 -0.8221 -0.1737
  704TMC3     C10411   1.640   4.358  12.423  0.6361 -0.5134  0.0580
  704TMC3     O10412   1.550   4.356  12.506  0.2945  0.3470  0.2056
  704TMC3     H10413   1.856   4.380  12.257 -1.3891  1.2843  0.3180
  704TMC3    H110414   1.741   4.392  12.674  1.2508 -1.5671  0.6412
  704TMC3    H210415   2.117   4.232  12.556 -1.0309 -1.6492  0.7090
  704TMC3    C710416   1.934   4.239  12.744  0.9477 -0.6433  0.0458
  704TMC3    C810417   2.085   4.292  12.292 -0.0517 -0.5500 -0.5658
  704TMC3    O110418   1.867   4.278  12.840  0.1064 -0.1335  0.4128
  704TMC3    O210419   2.034   4.261  12.183 -0.1637 -0.3496 -0.2087
  705MPD2     C10420   1.170   2.203  16.105  0.9850  0.8770  0.3391
  705MPD2    C110421   1.192   2.339  16.107  0.2096  0.4220  0.2006
  705MPD2    C210422   1.126   2.412  16.207  0.3184  0.1151 -0.5782
  705MPD2    C310423   1.020   2.354  16.277  0.1529  0.1008 -0.0106
  705MPD2    C410424   0.996   2.222  16.268  0.3506  0.2768  0.9544
  705MPD2    C510425   1.072   2.149  16.181 -0.3961  0.5628 -0.0515
  705MPD2     H10426   1.135   2.520  16.207 -1.1652  0.2534  1.6139
  705MPD2    H110427   0.924   2.165  16.326  1.9079 -1.7271  0.9177
  705MPD2    H210428   1.221   2.134  16.038 -2.8548  0.6316 -2.3366
  705MPD2    H310429   1.071   2.041  16.179  0.3604  0.5807 -1.6272
  705MPD2     N10430   0.925   2.417  16.358  1.0054 -0.5708 -0.0066
  705MPD2    H510431   0.851   2.358  16.394 -1.6926  1.9145 -1.5165
  705MPD2    N110432   1.277   2.404  16.011 -0.5902  0.3980  0.6501
  705MPD2    H710433   1.292   2.502  16.033 -0.5643  0.2247  1.3757
  706TMC3    C110434   1.550   2.416  15.626  0.9412  0.3907  0.3494
  706TMC3    C210435   1.613   2.527  15.671  0.6652  0.0536  0.5981
  706TMC3    C310436   1.557   2.600  15.774 -0.3300 -0.4133  0.7327
  706TMC3    C410437   1.447   2.363  15.691 -0.3453  0.1451 -0.3337
  706TMC3    C510438   1.399   2.425  15.804 -0.0475 -0.0976 -1.2910
  706TMC3    C610439   1.458   2.537  15.848 -0.1706 -0.3934  0.6885
  706TMC3     C10440   1.597   2.355  15.498  0.4931  0.2239  0.4043
  706TMC3     O10441   1.701   2.398  15.453  0.3133  0.4114 -0.1941
  706TMC3     H10442   1.692   2.569  15.609  1.5540 -0.0793  1.6484
  706TMC3    H110443   1.413   2.263  15.665 -0.1825 -0.1450  0.5309
  706TMC3    H210444   1.422   2.582  15.940  0.7214 -1.6763  1.6599
  706TMC3    C710445   1.307   2.345  15.887 -1.1997 -0.4231  0.3807
  706TMC3    C810446   1.561   2.746  15.754  0.2472 -0.1461 -0.3752
  706TMC3    O110447   1.253   2.246  15.835  0.0043  0.5161  0.3982
  706TMC3    O210448   1.604   2.792  15.648  0.1649  0.1517 -0.6970
  707TMC3    C110449   3.665   1.536   1.830  0.0502 -0.5228  0.0619
  707TMC3    C210450   3.675   1.435   1.919 -0.6023  0.4352  0.3545
  707TMC3    C310451   3.586   1.420   2.020 -0.1144 -0.6124 -0.0677
  707TMC3    C410452   3.564   1.627   1.837 -0.5909  0.1042  0.2442
  707TMC3    C510453   3.476   1.622   1.942 -0.1900  0.5150 -0.5183
  707TMC3    C610454   3.495   1.526   2.033  0.4609  0.2883  0.2210
  707TMC3     C10455   3.756   1.536   1.720  0.0130  0.1318 -0.0517
  707TMC3     O10456   3.851   1.459   1.728 -0.1542  0.3627  0.3685
  707TMC3     H10457   3.772   1.387   1.912  0.1193  1.8704  0.5051
  707TMC3    H110458   3.549   1.708   1.766  0.9454  0.0662 -0.1240
  707TMC3    H210459   3.430   1.522   2.120  1.7824  1.9834  1.2955
  707TMC3    C710460   3.381   1.730   1.978  0.4620  0.1904 -0.7730
  707TMC3    C810461   3.578   1.301   2.095 -0.3297  0.8197  0.4653
  707TMC3    O110462   3.300   1.712   2.062 -0.0755  0.4624 -0.3238
  707TMC3    O210463   3.534   1.315   2.205  0.1898  0.4052  0.2711
  708MPD2     C10464   0.195   1.052  13.259 -0.3929 -0.2224  0.1541
  708MPD2    C110465   0.088   1.142  13.238 -0.4049 -0.1368 -0.3671
  708MPD2    C210466   4.708   1.135  13.331 -0.0979 -0.0686  1.1957
  708MPD2    C310467   4.704   1.043  13.429  0.4117 -0.2473  0.4008
  708MPD2    C410468   0.082   0.951  13.444  0.1888 -0.6719  0.2259
  708MPD2    C510469   0.195   0.961  13.363 -0.0085 -0.6471 -0.4635
  708MPD2     H10470   4.636   1.215  13.324 -1.6238 -1.3902  1.9227
  708MPD2    H110471   0.098   0.894  13.535 -1.6255  2.0549  2.2617
  708MPD2    H210472   0.281   1.062  13.195  0.7617  1.0920  1.9071
  708MPD2    H310473   0.275   0.889  13.380  2.6079  1.6830 -2.9863
  708MPD2     N10474   4.597   1.047  13.524  0.3704  0.3257  0.3779
  708MPD2    H510475   4.593   0.993  13.609  0.3827 -0.0970  0.1107
  708MPD2    N110476   0.075   1.241  13.140 -0.2885 -0.0130  0.0528
  708MPD2    H710477   4.706   1.288  13.138  0.0756  0.7147  0.9573
  709TMC3    C110478   0.118   1.361  12.949  0.1005 -0.0302 -0.2589
  709TMC3    C210479   0.083   1.314  12.824  0.1256 -0.1016 -0.5999
  709TMC3    C310480   4.693   1.367  12.760 -0.4809  0.0746  0.6962
  709TMC3    C410481   0.056   1.463  13.009 -0.2828 -0.4955 -0.2358
  709TMC3    C510482   4.667   1.517  12.945 -0.1750 -0.1402 -0.3281
  709TMC3    C610483   4.623   1.468  12.820 -0.5080 -0.1098 -0.2427
  709TMC3     C10484   0.162   1.260  13.037  0.3466 -0.5078  0.4506
  709TMC3     O10485   0.261   1.192  13.007  0.3615 -0.4408 -0.1740
  709TMC3     H10486   0.147   1.245  12.770  1.2898  2.1433 -2.0780
  709TMC3    H110487   0.097   1.510  13.098 -1.0504 -3.3047  1.6231
  709TMC3    H210488   4.533   1.503  12.771 -0.0102  2.5983  0.7694
  709TMC3    C710489   4.559   1.503  13.041  0.1331 -0.5600  0.1753
  709TMC3    C810490   4.712   1.393  12.613  0.2010 -0.0356 -0.3041
  709TMC3    O110491   4.591   1.448  13.146  0.0101 -0.4344 -0.1059
  709TMC3    O210492   0.102   1.386  12.570 -0.1633  0.9014  0.3255
  710TMC3    C110493   0.856   2.744   0.468  0.3878 -0.5143 -0.1421
  710TMC3    C210494   0.800   2.646   0.390 -0.0840  0.4030  0.2526
  710TMC3    C310495   0.833   2.515   0.412 -0.6506 -0.2095 -0.1831
  710TMC3    C410496   0.950   2.706   0.561 -0.1907  0.3552 -0.7735
  710TMC3    C510497   0.985   2.576   0.571 -0.7724 -0.8862 -0.4269
  710TMC3    C610498   0.924   2.473   0.501 -0.0049  0.0104  0.1845
  710TMC3     C10499   0.783   2.865   0.494  0.0403 -0.1805  0.4315
  710TMC3     O10500   0.794   2.908   0.608 -0.1005 -0.3426 -0.4867
  710TMC3     H10501   0.707   2.675   0.344 -0.0088 -0.8958 -0.6884
  710TMC3    H110502   0.975   2.785   0.631 -1.1459  2.4447 -2.7883
  710TMC3    H210503   0.942   2.370   0.531 -0.2382  0.4270  1.7358
  710TMC3    C710504   1.079   2.549   0.687  0.0064  1.3352 -0.8875
  710TMC3    C810505   0.735   2.418   0.365 -0.6473  0.3832  0.0679
  710TMC3    O110506   1.092   2.440   0.736  0.1219 -0.5912 -0.5793
  710TMC3    O210507   0.619   2.462   0.349 -0.0429  0.6249 -0.2193
  711TMC3    C110508   0.356   3.319  14.504  0.0559  0.8019  0.4923
  711TMC3    C210509   0.311   3.404  14.601  0.1458  0.3180 -0.0591
  711TMC3    C310510   0.390   3.500  14.650  0.4282  0.9624 -0.5725
  711TMC3    C410511   0.495   3.323  14.477  0.1885 -0.2661  0.7001
  711TMC3    C510512   0.576   3.411  14.542 -0.4601 -0.1929 -0.0501
  711TMC3    C610513   0.520   3.508  14.620 -0.2065 -0.0920 -0.6597
  711TMC3     C10514   0.273   3.224  14.435 -0.6529 -0.1398  0.0130
  711TMC3     O10515   0.150   3.250  14.438 -0.1475 -0.2810 -0.3500
  711TMC3     H10516   0.211   3.382  14.636  0.3809 -0.7790 -0.0765
  711TMC3    H110517   0.543   3.255  14.408  0.2156 -0.2153  0.6682
  711TMC3    H210518   0.580   3.588  14.662  0.8801 -1.3036  0.0905
  711TMC3    C710519   0.689   3.353  14.617 -0.1380 -0.1191 -0.3275
  711TMC3    C810520   0.385   3.532  14.793  0.8464 -0.0148 -0.5626
  711TMC3    O110521   0.710   3.401  14.724 -0.2962 -0.1738 -0.0919
  711TMC3    O210522   0.277   3.563  14.831  0.5932 -0.0182  0.0905
  712MPD2     C10523   1.977   4.207  13.274  0.2681 -0.7738 -0.3495
  712MPD2    C110524   1.885   4.253  13.362  0.3378  0.5436  0.2811
  712MPD2    C210525   1.919   4.360  13.449  0.9024 -0.2616  0.3498
  712MPD2    C310526   2.045   4.420  13.439  0.2799  0.0713 -0.9541
  712MPD2    C410527   2.131   4.378  13.341 -0.3610 -0.3681 -0.3868
  712MPD2    C510528   2.105   4.264  13.268 -0.1562 -0.1051 -1.1547
  712MPD2     H10529   1.849   4.388  13.527 -0.4226  0.3864 -1.0784
  712MPD2    H110530   2.225   4.426  13.316 -0.3811 -0.3516 -0.4299
  712MPD2    H210531   1.959   4.119  13.214 -1.0397 -0.3123 -0.6298
  712MPD2    H310532   2.186   4.223  13.209 -0.6968 -2.0927 -0.5205
  712MPD2     N10533   2.093   4.518  13.524 -0.2063  0.2172  0.7214
  712MPD2    H510534   2.164   4.581  13.488  2.1832 -2.4411  0.7974
  712MPD2    N110535   1.760   4.199  13.372 -0.1569 -0.4272  0.6239
  712MPD2    H710536   1.701   4.235  13.446  1.9761  1.9874  1.1707
  713TMC3    C110537   2.093   4.687  13.688  0.3047 -0.2381  0.4454
  713TMC3    C210538   2.216   0.004  13.644 -0.1297 -1.1959  0.4320
  713TMC3    C310539   2.242   0.137  13.632  0.0396 -0.3925 -0.1499
  713TMC3    C410540   1.998   0.059  13.734  0.5356  0.3321  0.6092
  713TMC3    C510541   2.035   0.193  13.724 -0.0532  0.1713 -0.2286
  713TMC3    C610542   2.153   0.237  13.677  0.6714  0.0647 -0.8206
  713TMC3     C10543   2.036   4.565  13.638 -0.3372 -0.5439 -0.1947
  713TMC3     O10544   1.942   4.519  13.705  0.3195  0.7538  0.1610
  713TMC3     H10545   2.291   4.652  13.618 -1.8162 -2.8763  0.2936
  713TMC3    H110546   1.908   0.032  13.789 -0.7144  1.2336 -0.9725
  713TMC3    H210547   2.187   0.339  13.664  2.3099 -0.5577 -1.3824
  713TMC3    C710548   1.949   0.292  13.793  0.8197  0.0468  0.1485
  713TMC3    C810549   2.348   0.175  13.551 -0.3470 -0.4797 -0.7542
  713TMC3    O110550   2.011   0.376  13.853 -0.6285  0.3741 -0.0431
  713TMC3    O210551   2.453   0.112  13.566  0.2214  0.2499  0.1424
  714MPD2     C10552   3.948   2.885   0.984  0.5807  0.4528 -0.5974
  714MPD2    C110553   4.067   2.837   0.928  0.1511 -0.0542 -0.5296
  714MPD2    C210554   4.071   2.832   0.792 -0.1524  0.1745 -0.3969
  714MPD2    C310555   3.962   2.859   0.715 -0.3037 -0.9925  0.2116
  714MPD2    C410556   3.846   2.910   0.773 -0.3828  0.1364  0.2721
  714MPD2    C510557   3.837   2.916   0.908  0.0003 -0.2005 -0.5814
  714MPD2     H10558   4.160   2.802   0.738  1.6881  1.6010  1.8685
  714MPD2    H110559   3.771   2.949   0.705 -1.4007 -1.5626  0.4234
  714MPD2    H210560   3.932   2.884   1.092 -1.3256 -0.6494 -0.8837
  714MPD2    H310561   3.746   2.956   0.952 -0.2512 -0.6495 -0.6983
  714MPD2     N10562   3.968   2.847   0.573  0.0206 -0.1170  0.2198
  714MPD2    H510563   4.053   2.817   0.527  1.3055  1.8878  1.3049
  714MPD2    N110564   4.168   2.814   1.023  0.4957 -0.2190 -0.3240
  714MPD2    H710565   4.146   2.826   1.121  0.1465 -1.5638 -0.2383
  715TMC3    C110566   4.374   2.719   1.104  0.2327  0.3321  0.2361
  715TMC3    C210567   4.463   2.620   1.080  0.3717  0.2125  0.2751
  715TMC3    C310568   4.558   2.589   1.177 -0.6126 -0.0467  0.3771
  715TMC3    C410569   4.369   2.784   1.223 -0.3397 -0.3916 -0.0495
  715TMC3    C510570   4.463   2.755   1.317 -0.5369  0.4838 -0.3020
  715TMC3    C610571   4.556   2.655   1.295 -0.0118 -0.2006  0.1536
  715TMC3     C10572   4.286   2.750   0.993 -0.0619 -0.0395  0.2088
  715TMC3     O10573   4.321   2.715   0.881  0.2674 -0.5576 -0.5440
  715TMC3     H10574   4.471   2.589   0.976  2.2048  0.6008  0.3005
  715TMC3    H110575   4.289   2.854   1.246 -0.1668  0.0334 -0.7483
  715TMC3    H210576   4.624   2.629   1.376  0.0023  0.4459  0.3496
  715TMC3    C710577   4.458   2.825   1.443 -0.2203 -0.0320  0.4701
  715TMC3    C810578   4.678   2.507   1.129 -0.0334  0.6821 -0.5039
  715TMC3    O110579   4.561   2.832   1.504 -0.2063 -0.2871 -0.4618
  715TMC3    O210580   4.672   2.468   1.012 -0.0046  0.3186  1.0897
  716MPD2     C10581   4.405   1.656   9.247  0.2780 -0.2778 -0.8879
  716MPD2    C110582   4.284   1.654   9.186  0.1957 -0.1508  0.1485
  716MPD2    C210583   4.238   1.535   9.132  0.1502  0.3786  0.4093
  716MPD2    C310584   4.302   1.418   9.153 -0.2913  0.1411  0.2814
  716MPD2    C410585   4.419   1.415   9.231  0.8463  0.9027  0.0996
  716MPD2    C510586   4.471   1.539   9.270 -0.2972 -0.5937 -0.3179
  716MPD2     H10587   4.146   1.538   9.075  0.1369  0.1533  0.4186
  716MPD2    H110588   4.477   1.327   9.258 -1.1818 -0.1978  0.9138
  716MPD2    H210589   4.445   1.744   9.296 -0.1837 -0.1886 -0.6750
  716MPD2    H310590   4.555   1.545   9.339 -0.1921  0.4345 -0.5267
  716MPD2     N10591   4.246   1.309   9.088 -0.1903  0.6449  0.2318
  716MPD2    H510592   4.171   1.333   9.025  0.0724  0.4278 -0.1651
  716MPD2    N110593   4.199   1.762   9.172 -0.8086 -0.6668 -0.2670
  716MPD2    H710594   4.109   1.739   9.132 -0.7454  0.2090 -0.9204
  717TMC3    C110595   4.224   1.086   8.997  0.3883 -0.1297  0.0836
  717TMC3    C210596   4.123   1.142   8.927 -0.1954 -1.0465 -0.2313
  717TMC3    C310597   4.011   1.063   8.904  0.2673 -0.0383  0.1999
  717TMC3    C410598   4.219   0.964   9.047  0.1527 -0.3793 -0.0059
  717TMC3    C510599   4.113   0.888   9.035  0.1751 -0.6574  0.9516
  717TMC3    C610600   4.000   0.936   8.966 -0.7156  0.0807  0.2595
  717TMC3     C10601   4.303   1.184   9.078 -0.3137 -0.2890  0.5096
  717TMC3     O10602   4.390   1.140   9.151  0.4603  0.3577  0.2815
  717TMC3     H10603   4.153   1.235   8.879 -0.8850  0.4735  2.2560
  717TMC3    H110604   4.310   0.922   9.089 -1.0881 -1.8842  1.1795
  717TMC3    H210605   3.913   0.872   8.961  0.2109 -1.2491  0.8605
  717TMC3    C710606   4.099   0.758   9.103 -0.3636  0.0364 -0.1101
  717TMC3    C810607   3.893   1.145   8.865  0.8426  0.0919  0.1156
  717TMC3    O110608   4.002   0.689   9.067 -0.1483  0.1572 -0.1741
  717TMC3    O210609   3.922   1.262   8.855 -0.3055 -0.6634 -0.3706
  718MPD2     C10610   3.763   4.563  12.742  1.1101  0.4052 -0.7212
  718MPD2    C110611   3.753   4.687  12.806 -0.5938 -0.1322  0.0372
  718MPD2    C210612   3.635   4.719  12.863 -0.0978  0.7089 -0.2295
  718MPD2    C310613   3.526   4.639  12.840  0.5437 -0.5725 -0.5393
  718MPD2    C410614   3.537   4.517  12.774  0.1682 -0.5658  0.5319
  718MPD2    C510615   3.659   4.478  12.729 -0.5345 -0.6490  0.3400
  718MPD2     H10616   3.618   0.093  12.912  4.4279  0.8993  0.9570
  718MPD2    H110617   3.458   4.443  12.769 -0.3809  0.1137 -0.9121
  718MPD2    H210618   3.856   4.545  12.689  1.7993 -0.0013  0.6413
  718MPD2    H310619   3.669   4.377  12.691  5.6093  0.4821 -1.1146
  718MPD2     N10620   3.403   4.690  12.892 -0.3936  0.3655 -0.4094
  718MPD2    H510621   3.400   0.056  12.944  0.1038 -0.7600  1.5307
  718MPD2    N110622   3.869   0.044  12.792 -0.1136  0.0968 -0.3280
  718MPD2    H710623   3.952   0.005  12.749  0.6059  1.2333  0.0022
  719TMC3    C110624   3.937   0.256  12.728 -0.3651  0.4398  0.3748
  719TMC3    C210625   3.907   0.391  12.742  0.9805  0.6340  0.4621
  719TMC3    C310626   3.900   0.477  12.633 -0.3488  0.6223 -0.2845
  719TMC3    C410627   3.961   0.208  12.606  0.6320 -0.3773 -0.7387
  719TMC3    C510628   3.973   0.294  12.504  0.0023 -0.4839  0.3169
  719TMC3    C610629   3.943   0.431  12.509 -0.1839 -0.5513  0.1869
  719TMC3     C10630   3.876   0.172  12.833 -0.2305  0.3335  0.2732
  719TMC3     O10631   3.811   0.232  12.914  0.2362 -0.1544  0.8635
  719TMC3     H10632   3.910   0.434  12.842  0.6568 -0.1398  0.8097
  719TMC3    H110633   3.997   0.109  12.579 -1.0973 -1.7958  2.2778
  719TMC3    H210634   3.938   0.500  12.425 -1.3192  0.4873  1.1045
  719TMC3    C710635   3.978   0.241  12.372  0.1425  0.7631  0.2641
  719TMC3    C810636   3.766   0.544  12.650 -0.7924 -0.1590 -0.2522
  719TMC3    O110637   4.013   0.316  12.280 -0.1422  0.2877 -0.0258
  719TMC3    O210638   3.714   0.541  12.758  0.2544  0.1271 -0.3794
  720MPD2     C10639   1.453   1.826  13.863  0.6407 -0.4942  0.0070
  720MPD2    C110640   1.559   1.866  13.784  0.0390 -0.5692  0.0157
  720MPD2    C210641   1.691   1.845  13.822 -0.0618  0.2003  0.4982
  720MPD2    C310642   1.717   1.778  13.953 -0.7224 -0.2156  0.3507
  720MPD2    C410643   1.613   1.743  14.032  0.4328 -0.2557  0.6730
  720MPD2    C510644   1.480   1.754  13.981 -0.4984  0.3660 -0.3116
  720MPD2     H10645   1.772   1.862  13.753 -0.6176 -1.1875 -0.4982
  720MPD2    H110646   1.618   1.673  14.115 -2.9670 -0.3230  0.8128
  720MPD2    H210647   1.352   1.833  13.823  0.5519  2.6585  0.7648
  720MPD2    H310648   1.397   1.702  14.028  0.8619 -2.5048 -1.0458
  720MPD2     N10649   1.848   1.763  13.999 -0.0516 -0.5832  0.1145
  720MPD2    H510650   1.922   1.800  13.941 -1.0620  0.4282 -0.5280
  720MPD2    N110651   1.546   1.936  13.665  0.4522 -0.3605  0.7468
  720MPD2    H710652   1.630   1.953  13.610 -0.6937 -2.3395 -1.6222
  721TMC3    C110653   2.022   1.718  14.128 -0.0402  0.0945  0.3941
  721TMC3    C210654   2.075   1.717  14.255 -0.4683 -0.6029  0.9105
  721TMC3    C310655   2.204   1.707  14.263  0.5210 -0.0875 -0.4191
  721TMC3    C410656   2.102   1.726  14.013  0.0779  0.2130 -0.0417
  721TMC3    C510657   2.235   1.725  14.039  0.6071 -0.1692 -0.0757
  721TMC3    C610658   2.290   1.713  14.163  0.4567 -0.3952  0.1482
  721TMC3     C10659   1.883   1.721  14.122  0.1289 -0.4381 -0.0930
  721TMC3     O10660   1.821   1.687  14.218  0.4532 -0.4945 -0.1125
  721TMC3     H10661   2.014   1.718  14.345 -0.8289  2.0266  0.6491
  721TMC3    H110662   2.066   1.703  13.914 -2.0749  2.7765  0.1339
  721TMC3    H210663   2.396   1.716  14.184  0.7548 -1.1264 -1.2554
  721TMC3    C710664   2.324   1.778  13.943 -0.3527  0.4564  0.6930
  721TMC3    C810665   2.266   1.749  14.387  0.3907  1.0955 -0.4421
  721TMC3    O110666   2.435   1.726  13.939  0.4764  0.0599  0.2740
  721TMC3    O210667   2.382   1.723  14.408 -0.2869  0.2770  0.2911
  722MPD2     C10668   0.874   0.244  13.176  0.1381 -0.1076 -0.2714
  722MPD2    C110669   0.843   0.375  13.195  0.8096 -0.2153 -0.1296
  722MPD2    C210670   0.725   0.416  13.150 -0.2367 -0.4428  0.1136
  722MPD2    C310671   0.634   0.331  13.091 -0.1068 -0.2661 -0.3046
  722MPD2    C410672   0.660   0.194  13.092 -0.0388 -0.3384  0.1592
  722MPD2    C510673   0.788   0.155  13.116  0.7365 -0.3874 -0.3637
  722MPD2     H10674   0.696   0.519  13.169  2.0175 -0.0461  1.3989
  722MPD2    H110675   0.592   0.118  13.057 -0.9481  1.2202 -1.4466
  722MPD2    H210676   0.974   0.214  13.207 -0.0506  0.0990  0.5601
  722MPD2    H310677   0.819   0.052  13.104  0.5831 -0.3834 -0.7938
  722MPD2     N10678   0.513   0.377  13.029  0.5183  0.2004  0.0088
  722MPD2    H510679   0.494   0.474  13.009 -0.4267  0.5489  2.5590
  722MPD2    N110680   0.923   0.468  13.272 -0.2902 -0.2794 -0.0027
  722MPD2    H710681   0.892   0.565  13.268  1.5898  0.2490 -1.7685
  723TMC3    C110682   0.331   0.351  12.890  0.1449  0.0923 -0.5815
  723TMC3    C210683   0.211   0.290  12.874 -0.3616  0.5673  0.2980
  723TMC3    C310684   0.157   0.291  12.743 -0.4560  0.0000  0.4644
  723TMC3    C410685   0.394   0.421  12.787  0.1000 -0.5076 -0.4510
  723TMC3    C510686   0.326   0.432  12.668  1.5009  0.0072  0.5134
  723TMC3    C610687   0.210   0.366  12.641  0.1802 -0.4894  0.2701
  723TMC3     C10688   0.407   0.296  12.998 -0.2190  0.3715 -0.2035
  723TMC3     O10689   0.374   0.193  13.050  0.1368  0.8970 -0.7117
  723TMC3     H10690   0.165   0.217  12.940 -1.2181  0.3379 -0.5623
  723TMC3    H110691   0.487   0.471  12.807 -1.5262  2.3175  0.0675
  723TMC3    H210692   0.158   0.384  12.548  0.0525 -0.9358  0.2573
  723TMC3    C710693   0.376   0.530  12.575  0.0154 -0.2636 -0.0820
  723TMC3    C810694   0.056   0.193  12.708 -0.4860  0.2533 -0.5419
  723TMC3    O110695   0.368   0.499  12.459 -0.1672  0.0098 -0.2088
  723TMC3    O210696   4.710   0.158  12.802  0.1884 -0.4455 -0.3864
  724TMC3    C110697   4.197   4.372   9.179  0.6699  0.6909 -0.1089
  724TMC3    C210698   4.217   4.471   9.089 -0.5043  0.4907 -0.1232
  724TMC3    C310699   4.347   4.511   9.056  0.5255  0.1740  0.5341
  724TMC3    C410700   4.299   4.280   9.207  0.1634 -0.3387 -0.3301
  724TMC3    C510701   4.425   4.313   9.170  0.1170 -0.4861  0.0837
  724TMC3    C610702   4.454   4.425   9.093 -0.3227  0.1470  0.1267
  724TMC3     C10703   4.060   4.327   9.199  0.2133  0.1156  0.0361
  724TMC3     O10704   3.972   4.380   9.132 -0.0720 -0.1757  0.2829
  724TMC3     H10705   4.139   4.543   9.069 -0.9599 -0.3328 -1.3371
  724TMC3    H110706   4.287   4.186   9.260 -0.6050  0.5700  1.1437
  724TMC3    H210707   4.557   4.436   9.061  0.0385  2.5234  2.0663
  724TMC3    C710708   4.540   4.232   9.202 -0.6423 -0.0474 -0.1287
  724TMC3    C810709   4.362   4.639   8.993  0.4180 -0.1429 -0.2022
  724TMC3    O110710   4.648   4.264   9.154  0.7005  0.7420 -0.1872
  724TMC3    O210711   4.289   0.011   9.015 -0.0996 -0.8474 -0.1453
  725TMC3    C110712   2.310   2.127  13.139  0.5673  0.1123  0.2936
  725TMC3    C210713   2.209   2.164  13.064 -0.1969  0.2275  0.0643
  725TMC3    C310714   2.120   2.069  13.026 -0.0044  0.8327  0.2898
  725TMC3    C410715   2.334   1.999  13.174 -0.0223 -0.5480  0.7260
  725TMC3    C510716   2.254   1.904  13.124 -0.3185 -0.0403 -0.3752
  725TMC3    C610717   2.137   1.937  13.056 -0.0004  0.2071 -1.1098
  725TMC3     C10718   2.432   2.191  13.097 -0.5586  0.0230  0.4630
  725TMC3     O10719   2.437   2.317  13.091 -0.1304 -0.7418  0.2212
  725TMC3     H10720   2.177   2.267  13.062 -0.3954  0.1733  0.4218
  725TMC3    H110721   2.415   1.979  13.244  1.5223 -0.8295 -1.1360
  725TMC3    H210722   2.077   1.856  13.016 -0.9702  1.1286 -1.5272
  725TMC3    C710723   2.322   1.784  13.075 -0.7328 -0.0200 -0.6110
  725TMC3    C810724   2.014   2.093  12.931  0.6449 -0.7235  0.2442
  725TMC3    O110725   2.293   1.733  12.964  0.1293  0.0924  0.4466
  725TMC3    O210726   1.915   2.017  12.934 -0.7069  0.9052 -0.4183
  726MPD2     C10727   0.251   3.699   9.918  0.9755  0.0967 -0.5209
  726MPD2    C110728   0.241   3.791  10.019 -0.2706  0.4659 -0.2277
  726MPD2    C210729   0.147   3.771  10.121  0.0889 -0.4470  0.3425
  726MPD2    C310730   0.048   3.673  10.106 -0.9120 -0.1572  0.6905
  726MPD2    C410731   0.050   3.599   9.985  0.3990  0.1906 -0.1357
  726MPD2    C510732   0.154   3.608   9.897 -0.2823 -0.2677 -0.6625
  726MPD2     H10733   0.144   3.825  10.215 -1.9519 -2.5080  1.4728
  726MPD2    H110734   4.689   3.532   9.965 -0.6401  1.1799  0.7776
  726MPD2    H210735   0.332   3.715   9.848  0.7823  3.9942  0.1382
  726MPD2    H310736   0.135   3.563   9.800 -2.7406  0.3390 -0.4713
  726MPD2     N10737   4.658   3.642  10.192 -0.1383  0.5081 -0.3586
  726MPD2    H510738   4.586   3.575  10.166 -1.3705  1.1370  1.4287
  726MPD2    N110739   0.339   3.892  10.026  0.4887  0.8475  0.1933
  726MPD2    H710740   0.356   3.936  10.116 -1.5588  0.4178  0.7677
  727TMC3    C110741   0.502   4.048   9.967  0.2662 -0.2620 -0.1535
  727TMC3    C210742   0.590   4.029  10.076 -0.5526  0.2387 -0.0027
  727TMC3    C310743   0.666   4.136  10.108  0.1239 -0.1070  0.8276
  727TMC3    C410744   0.491   4.173   9.905  0.7490 -0.2461  0.0222
  727TMC3    C510745   0.567   4.276   9.947  0.3278  0.2984  0.3577
  727TMC3    C610746   0.653   4.261  10.053 -0.6726 -0.2152  0.5289
  727TMC3     C10747   0.426   3.935   9.923  0.6124 -0.0664  0.5830
  727TMC3     O10748   0.429   3.912   9.801  0.6475  0.1749 -0.2000
  727TMC3     H10749   0.601   3.928  10.115 -2.2131  0.5484  1.2721
  727TMC3    H110750   0.424   4.177   9.819 -0.0906  2.4189  0.7922
  727TMC3    H210751   0.731   4.332  10.078 -0.6722 -0.1404  0.3105
  727TMC3    C710752   0.525   4.404   9.890 -0.0005 -0.5999  0.0120
  727TMC3    C810753   0.781   4.116  10.197 -0.1827 -0.4027 -0.1664
  727TMC3    O110754   0.428   4.401   9.816 -0.4888  0.0219  0.2538
  727TMC3    O210755   0.865   4.206  10.209  0.0937  0.6004 -0.6542
  728TMC3    C110756   4.325   1.988  15.265  0.8218  0.0493  0.0167
  728TMC3    C210757   4.448   1.953  15.211  0.0495 -0.5024 -0.7640
  728TMC3    C310758   4.466   1.968  15.073 -0.5990  0.6876 -0.2935
  728TMC3    C410759   4.219   2.019  15.173 -0.1227  0.7476  0.0373
  728TMC3    C510760   4.242   2.035  15.045 -1.0099  0.0106  0.6363
  728TMC3    C610761   4.369   2.010  14.990  0.1893 -0.5324  0.2619
  728TMC3     C10762   4.318   1.991  15.416  0.0053  0.3970 -0.3697
  728TMC3     O10763   4.419   2.033  15.473  0.0838  0.2463  0.2310
  728TMC3     H10764   4.524   1.931  15.285  0.1174  3.7863  0.4319
  728TMC3    H110765   4.118   2.036  15.209  0.7667  0.7396  2.5981
  728TMC3    H210766   4.388   2.019  14.883 -0.0772  0.5558  0.3099
  728TMC3    C710767   4.139   2.095  14.968 -0.1867  0.4801  0.2336
  728TMC3    C810768   4.585   1.913  15.015 -0.5212 -0.2866  0.0486
  728TMC3    O110769   4.029   2.057  14.993 -0.2975  0.3042 -0.0783
  728TMC3    O210770   4.606   1.926  14.894 -0.5427  0.5182  0.2196
  729MPD2     C10771   1.634   3.449  16.595  0.1846  0.2307  0.9339
  729MPD2    C110772   1.718   3.344  16.612 -0.8108  0.8121  0.0479
  729MPD2    C210773   1.741   3.284  16.739 -0.4927  0.2343  0.1992
  729MPD2    C310774   1.693   3.340  16.855 -0.4748  0.3397  0.2048
  729MPD2    C410775   1.633   3.467  16.838  0.3422 -0.4972 -0.3329
  729MPD2    C510776   1.592   3.508  16.709 -0.5943 -0.6578 -0.1012
  729MPD2     H10777   1.795   3.191  16.750 -0.2446  0.2497 -0.8929
  729MPD2    H110778   1.603   3.524  16.925 -0.8830 -0.0623 -1.0450
  729MPD2    H210779   1.612   3.498  16.501  1.3827  0.6193  0.8573
  729MPD2    H310780   1.543   3.602  16.688  0.5725  0.5742  2.7132
  729MPD2     N10781   1.716   3.302  16.993 -0.5570 -0.1132  0.8269
  729MPD2    H510782   1.691   3.376  17.058  0.6405  0.3336  0.7701
  729MPD2    N110783   1.762   3.284  16.486 -0.4462 -0.2259 -0.8882
  729MPD2    H710784   1.737   3.328  16.398 -1.6702 -1.2380 -1.0545
  730TMC3    C110785   1.837   3.194  17.164 -0.1478  0.2754 -0.2028
  730TMC3    C210786   1.957   3.118  17.162 -0.3324 -1.0941  0.6192
  730TMC3    C310787   2.066   3.193  17.184 -0.2832  0.4897  0.3779
  730TMC3    C410788   1.828   3.323  17.210  0.2425 -0.8174 -0.2893
  730TMC3    C510789   1.946   3.389  17.227  0.1293 -0.8945  0.9209
  730TMC3    C610790   2.061   3.318  17.228 -0.4954  0.6047  0.3747
  730TMC3     C10791   1.777   3.184  17.032 -0.4190 -0.2486 -0.6531
  730TMC3     O10792   1.798   3.094  16.953 -0.2603 -0.0211 -0.2609
  730TMC3     H10793   1.960   3.022  17.112  1.5926 -0.1566 -1.0778
  730TMC3    H110794   1.737   3.379  17.226  0.5286 -0.7980  1.2607
  730TMC3    H210795   2.152   3.374  17.240 -0.4237  0.3891  0.8481
  730TMC3    C710796   1.958   3.518  17.168 -0.8412  0.2397 -0.6355
  730TMC3    C810797   2.176   3.170  17.096  0.1577  0.1307  0.1779
  730TMC3    O110798   2.062   3.552  17.113 -0.7748  0.2920  0.0845
  730TMC3    O210799   2.228   3.059  17.086  0.1563  0.6630 -0.7545
  731MPD2     C10800   2.016   2.049  12.032  0.6120  0.4711  0.6052
  731MPD2    C110801   1.925   1.970  11.963 -0.8887  0.2286  0.2012
  731MPD2    C210802   1.792   1.979  11.995  0.4353 -1.3317 -0.9542
  731MPD2    C310803   1.741   2.066  12.095  0.4577 -0.0452 -0.2962
  731MPD2    C410804   1.835   2.131  12.169  0.4650  0.0648 -0.0870
  731MPD2    C510805   1.967   2.124  12.137  0.4165  0.3184  0.7128
  731MPD2     H10806   1.721   1.931  11.928 -1.7581  2.0159 -1.0369
  731MPD2    H110807   1.817   2.191  12.257 -1.1668 -0.1954 -0.2437
  731MPD2    H210808   2.123   2.050  12.017  0.7361 -0.4366  1.4715
  731MPD2    H310809   2.027   2.175  12.212  1.3722 -0.2479  0.3333
  731MPD2     N10810   1.609   2.062  12.128 -0.1473  0.1711 -0.3042
  731MPD2    H510811   1.548   1.998  12.077  0.0000 -0.6953  0.6075
  731MPD2    N110812   1.981   1.884  11.868  0.0015 -0.0159 -0.5153
  731MPD2    H710813   2.080   1.899  11.850  0.3756 -1.2495  0.5185
  732TMC3    C110814   1.990   1.726  11.692  0.2589 -0.3372 -0.1012
  732TMC3    C210815   1.903   1.673  11.599  0.4894 -0.1336 -0.0459
  732TMC3    C310816   1.952   1.562  11.535  0.2187 -0.2210  0.2175
  732TMC3    C410817   2.100   1.663  11.736 -0.4543 -0.7710  0.7592
  732TMC3    C510818   2.129   1.535  11.684 -0.3562  0.6646  0.0539
  732TMC3    C610819   2.059   1.491  11.576  0.1404  0.0935 -0.2819
  732TMC3     C10820   1.917   1.797  11.791 -0.1555 -0.1909 -0.4025
  732TMC3     O10821   1.798   1.767  11.782  0.4241 -0.0572  0.0588
  732TMC3     H10822   1.819   1.724  11.553 -1.5100 -0.7391  2.9117
  732TMC3    H110823   2.155   1.710  11.816  1.5436  0.6436 -1.4587
  732TMC3    H210824   2.086   1.404  11.517 -0.6509 -0.7427  0.5895
  732TMC3    C710825   2.266   1.493  11.682 -0.1679 -0.0012 -0.0850
  732TMC3    C810826   1.844   1.476  11.485 -0.1005 -0.0931  1.1388
  732TMC3    O110827   2.301   1.444  11.569 -0.0999 -0.0820 -0.2039
  732TMC3    O210828   1.877   1.378  11.418  0.4319 -0.2795  0.1645
  733TMC3    C110829   2.956   0.054  12.810  0.1092  0.5017 -0.0898
  733TMC3    C210830   3.050   4.700  12.872 -0.6787  0.0028  0.2209
  733TMC3    C310831   3.178   0.027  12.878 -0.6146  0.6517 -0.5322
  733TMC3    C410832   2.985   0.171  12.743 -0.4271  0.0500  0.9653
  733TMC3    C510833   3.114   0.213  12.751 -0.0241  0.6275 -0.1665
  733TMC3    C610834   3.217   0.142  12.817  0.9338  0.1957  0.8516
  733TMC3     C10835   2.825   0.001  12.781 -0.2720  0.2231 -0.7450
  733TMC3     O10836   2.765   0.047  12.682  0.2566  0.6030 -0.4074
  733TMC3     H10837   3.035   4.601  12.914 -2.2375 -0.0519 -0.4652
  733TMC3    H110838   2.912   0.235  12.695  0.1316 -0.5267 -0.6653
  733TMC3    H210839   3.322   0.166  12.810  0.7780  0.9965  1.3260
  733TMC3    C710840   3.144   0.325  12.666  0.2288  0.1589  0.7947
  733TMC3    C810841   3.281   4.644  12.860 -0.8839  0.8301  0.2827
  733TMC3    O110842   3.061   0.369  12.591 -0.3762 -0.1499  0.6212
  733TMC3    O210843   3.259   4.564  12.770  0.2484  0.0939 -0.0792
  734MPD2     C10844   0.284   2.337  11.914  0.2202 -0.3714 -0.8828
  734MPD2    C110845   0.158   2.379  11.896  0.2783  0.1042  0.2321
  734MPD2    C210846   0.148   2.483  11.797 -0.1508 -0.6555 -0.4622
  734MPD2    C310847   0.250   2.522  11.717 -0.8516  0.1447 -0.6112
  734MPD2    C410848   0.379   2.476  11.733  0.3552 -0.0148  0.7524
  734MPD2    C510849   0.393   2.389  11.840  0.3869 -0.0860  0.4306
  734MPD2     H10850   0.047   2.520  11.781 -0.0029 -0.8619 -1.8015
  734MPD2    H110851   0.466   2.506  11.676  1.4675  0.8652  2.9076
  734MPD2    H210852   0.300   2.258  11.986  0.2084 -0.9001 -1.4564
  734MPD2    H310853   0.490   2.353  11.870 -0.3968 -3.2231 -0.7491
  734MPD2     N10854   0.210   2.612  11.615  0.1352 -0.7540 -0.0742
  734MPD2    H510855   0.115   2.646  11.621  0.8849  1.5038 -0.9957
  734MPD2    N110856   0.050   2.329  11.973  0.2929  0.1601 -0.2708
  734MPD2    H710857   0.080   2.271  12.051 -1.5860 -0.0274  0.3058
  735TMC3    C110858   4.534   2.277  12.021 -0.4959 -0.1601  0.8854
  735TMC3    C210859   4.409   2.289  11.959  0.2118 -0.0411 -0.0583
  735TMC3    C310860   4.347   2.173  11.925  0.5467  0.0315 -0.1596
  735TMC3    C410861   4.583   2.149  12.059 -0.2241 -0.1156 -0.0174
  735TMC3    C510862   4.511   2.038  12.037  0.3975  0.2407  0.5240
  735TMC3    C610863   4.395   2.048  11.961 -0.1692 -0.5274 -0.0318
  735TMC3     C10864   4.641   2.355  11.939 -0.4270 -0.2579  0.2682
  735TMC3     O10865   4.581   2.405  11.839  0.2971  0.2164  0.2772
  735TMC3     H10866   4.370   2.386  11.930  2.3871  1.1998  1.1691
  735TMC3    H110867   4.675   2.139  12.115 -0.6367  0.1620  0.7012
  735TMC3    H210868   4.340   1.959  11.931  1.1267 -1.6476  0.9217
  735TMC3    C710869   4.577   1.913  12.043  0.2970  0.0623  0.2366
  735TMC3    C810870   4.288   2.178  11.792  1.0279 -0.0179  0.0554
  735TMC3    O110871   4.505   1.811  12.041  0.1538 -0.4615 -0.0787
  735TMC3    O210872   4.195   2.101  11.763  0.1946 -0.2498 -0.1062
  736MPD2     C10873   0.048   1.699  11.941 -0.1611  0.2879 -0.0644
  736MPD2    C110874   0.083   1.824  11.982 -0.5800 -0.2267  0.7786
  736MPD2    C210875   0.218   1.847  12.012 -0.1419 -0.3193 -0.6388
  736MPD2    C310876   0.320   1.758  11.961 -0.3459  0.3136  0.1312
  736MPD2    C410877   0.276   1.633  11.924 -0.5503  0.4523  0.0308
  736MPD2    C510878   0.146   1.610  11.922 -0.6101 -0.7738 -0.6611
  736MPD2     H10879   0.245   1.942  12.058 -0.6776 -0.7441  0.5502
  736MPD2    H110880   0.336   1.551  11.886 -0.3968  0.1456  0.9381
  736MPD2    H210881   4.664   1.677  11.927 -0.4839  1.7902  0.0421
  736MPD2    H310882   0.117   1.510  11.891 -1.2503 -1.4270  2.0334
  736MPD2     N10883   0.450   1.794  11.932  0.2316 -0.1245 -0.1779
  736MPD2    H510884   0.500   1.723  11.880  0.0344 -1.6960  1.8054
  736MPD2    N110885   4.709   1.925  12.014  0.1913 -0.1522  0.0629
  736MPD2    H710886   0.028   2.016  12.033 -0.2725  0.0227  0.2178
  737TMC3    C110887   0.634   1.930  11.899 -0.3258  0.1571 -0.1395
  737TMC3    C210888   0.648   2.052  11.841  0.6641 -0.3988  0.4886
  737TMC3    C310889   0.712   2.052  11.719  0.0150 -0.4833 -0.2456
  737TMC3    C410890   0.688   1.820  11.855 -0.0767  0.4631  0.1120
  737TMC3    C510891   0.759   1.828  11.737  0.0831 -0.6979 -0.5932
  737TMC3    C610892   0.772   1.943  11.664 -0.4631 -0.3801  0.2224
  737TMC3     C10893   0.502   1.918  11.948 -0.1503  0.1070 -0.0279
  737TMC3     O10894   0.452   2.023  11.998  0.3937 -0.3426 -0.4210
  737TMC3     H10895   0.603   2.143  11.877 -2.5433 -1.7967 -0.0359
  737TMC3    H110896   0.677   1.734  11.920  0.7709  0.0311 -0.3054
  737TMC3    H210897   0.832   1.954  11.574  0.3434 -1.2571  0.6469
  737TMC3    C710898   0.790   1.701  11.681  0.1909  0.6428  0.2116
  737TMC3    C810899   0.698   2.173  11.646  0.2511 -0.2768 -0.5746
  737TMC3    O110900   0.752   1.599  11.738 -0.8586  0.0437 -0.2977
  737TMC3    O210901   0.632   2.260  11.700 -0.5311  0.2271 -0.0536
  738MPD2     C10902   1.421   0.658  15.420  0.4822  0.1638  0.5501
  738MPD2    C110903   1.369   0.600  15.306  0.8226 -0.1874 -0.0038
  738MPD2    C210904   1.437   0.608  15.182  0.1109 -0.1255  0.4513
  738MPD2    C310905   1.558   0.678  15.178 -0.6963 -0.3545 -1.0901
  738MPD2    C410906   1.616   0.725  15.294  0.2136 -0.1213 -0.1852
  738MPD2    C510907   1.551   0.715  15.408  0.2525 -0.0559  0.1849
  738MPD2     H10908   1.392   0.559  15.097  0.8241 -1.8120  1.0384
  738MPD2    H110909   1.720   0.754  15.292  0.1926 -0.0651 -0.4310
  738MPD2    H210910   1.377   0.674  15.518 -2.5333  0.2496 -0.8280
  738MPD2    H310911   1.600   0.759  15.494 -1.2797 -0.7355  1.4047
  738MPD2     N10912   1.614   0.700  15.050  0.3379  0.4423  0.2763
  738MPD2    H510913   1.706   0.744  15.049  0.5702 -0.0960 -2.1001
  738MPD2    N110914   1.245   0.535  15.305  0.8134  1.0002  0.2747
  738MPD2    H710915   1.221   0.477  15.225 -0.2253  2.5035 -0.5006
  739TMC3    C110916   1.641   0.729  14.820  0.1128  0.2557 -0.4498
  739TMC3    C210917   1.579   0.731  14.696 -0.3709  0.2256  0.4183
  739TMC3    C310918   1.633   0.807  14.599  0.4720  0.3301 -0.4852
  739TMC3    C410919   1.761   0.789  14.842 -0.4785 -0.5463  0.2947
  739TMC3    C510920   1.804   0.878  14.742  0.0202  0.1879 -1.7741
  739TMC3    C610921   1.746   0.886  14.617 -0.0699 -0.6210 -0.4433
  739TMC3     C10922   1.551   0.695  14.930 -0.6268  0.3873 -0.7627
  739TMC3     O10923   1.428   0.704  14.907 -0.5370 -0.0853 -0.0189
  739TMC3     H10924   1.482   0.688  14.675 -1.3330  1.8389  1.6759
  739TMC3    H110925   1.817   0.784  14.934  0.0973 -3.7089 -0.2287
  739TMC3    H210926   1.789   0.937  14.531  2.2165 -0.4021  0.8125
  739TMC3    C710927   1.931   0.948  14.763 -0.7149  0.0085  0.0933
  739TMC3    C810928   1.574   0.801  14.466 -0.1722 -0.2659 -0.0435
  739TMC3    O110929   2.005   0.904  14.852  0.4389  0.7346 -0.9443
  739TMC3    O210930   1.451   0.806  14.468 -0.2686  0.0222 -0.7246
  740TMC3    C110931   1.635   2.168  14.164 -0.1575 -0.2638  0.1350
  740TMC3    C210932   1.702   2.170  14.282 -0.2027  0.1007  0.5381
  740TMC3    C310933   1.833   2.129  14.284  0.2267 -0.3942  0.1891
  740TMC3    C410934   1.702   2.133  14.043 -0.5257 -0.5811 -0.1593
  740TMC3    C510935   1.833   2.107  14.050  0.1722  0.1287 -0.3108
  740TMC3    C610936   1.904   2.099  14.167 -0.0362  0.1205  0.6315
  740TMC3     C10937   1.490   2.173  14.159 -0.1993  0.0563 -0.4742
  740TMC3     O10938   1.435   2.187  14.050 -0.6635 -0.0872 -0.4000
  740TMC3     H10939   1.651   2.205  14.371 -0.7353 -0.5433  0.4873
  740TMC3    H110940   1.644   2.116  13.954 -0.1463 -2.0888 -0.1214
  740TMC3    H210941   2.005   2.062  14.177 -0.9846 -2.0471  2.1513
  740TMC3    C710942   1.911   2.091  13.927 -0.6481  0.1688 -0.2758
  740TMC3    C810943   1.860   2.035  14.393  0.6585 -0.1235 -0.5531
  740TMC3    O110944   2.012   2.024  13.944  0.7018  0.5493  0.0499
  740TMC3    O210945   1.968   1.973  14.381 -0.0247  0.1263  0.1241
  741TMC3    C110946   1.527   1.225  14.319  0.5068 -0.3367  1.3494
  741TMC3    C210947   1.404   1.171  14.282 -0.1038  0.5637  0.2368
  741TMC3    C310948   1.333   1.102  14.377  0.2630 -0.6680  0.3387
  741TMC3    C410949   1.578   1.198  14.436  0.4183 -1.1208  0.5907
  741TMC3    C510950   1.501   1.142  14.536  1.2567 -0.1686  0.3030
  741TMC3    C610951   1.381   1.081  14.506  0.2805 -0.5314 -0.4749
  741TMC3     C10952   1.617   1.280  14.220 -0.1122  0.2589 -0.0427
  741TMC3     O10953   1.736   1.283  14.255 -0.3936 -0.1118  0.0457
  741TMC3     H10954   1.363   1.180  14.183 -1.5972 -1.9597  0.6200
  741TMC3    H110955   1.676   1.239  14.457  0.0826  0.0141 -0.0905
  741TMC3    H210956   1.319   1.031  14.580 -0.4248 -0.0593 -0.7439
  741TMC3    C710957   1.560   1.155  14.670 -0.1139 -0.4655 -1.3879
  741TMC3    C810958   1.206   1.037  14.337 -0.2479  0.3803  0.1225
  741TMC3    O110959   1.675   1.190  14.678  0.0120 -0.3037 -0.4997
  741TMC3    O210960   1.132   1.098  14.260  0.2477 -0.2429 -0.0143
  742TMC3    C110961   1.205   4.587  15.143  0.2282 -0.1458 -0.5019
  742TMC3    C210962   1.100   4.511  15.096 -0.1335  0.0155  0.0926
  742TMC3    C310963   1.121   4.429  14.986  0.0712 -0.2351 -0.3328
  742TMC3    C410964   1.329   4.585  15.079 -0.3458  0.2274 -0.7487
  742TMC3    C510965   1.341   4.502  14.970  0.2466 -0.2075  0.2350
  742TMC3    C610966   1.241   4.420  14.928 -0.2389  0.1019  0.2176
  742TMC3     C10967   1.207   4.653  15.267 -0.1559 -0.0255 -0.6108
  742TMC3     O10968   1.271   0.033  15.280 -0.2118 -0.7291 -0.5950
  742TMC3     H10969   1.005   4.500  15.147 -0.8300 -1.2056 -1.4504
  742TMC3    H110970   1.412   4.634  15.129 -1.1531 -0.7565  1.5222
  742TMC3    H210971   1.249   4.361  14.838 -1.8203  0.2823 -0.0271
  742TMC3    C710972   1.474   4.462  14.935 -0.2561  0.0163 -0.4413
  742TMC3    C810973   1.006   4.375  14.913  0.0906  0.0882 -0.0795
  742TMC3    O110974   1.475   4.356  14.877  0.5309  0.0195 -0.3093
  742TMC3    O210975   1.031   4.284  14.834  0.2025 -0.1894 -0.0175
  743MPD2     C10976   4.425   0.385   2.229  0.2652 -0.3391 -1.1267
  743MPD2    C110977   4.459   0.466   2.120 -0.0539  0.3240  0.2499
  743MPD2    C210978   4.590   0.516   2.112  0.1738  0.0702 -0.2337
  743MPD2    C310979   4.685   0.480   2.205 -0.7752 -0.7884  0.9467
  743MPD2    C410980   4.649   0.396   2.307  0.0431 -0.1621 -0.2702
  743MPD2    C510981   4.523   0.345   2.312 -0.5449 -0.0188 -0.1240
  743MPD2     H10982   4.622   0.575   2.027  1.7047 -0.5097 -0.0499
  743MPD2    H110983   4.717   0.355   2.382 -0.0290 -0.1122 -0.1775
  743MPD2    H210984   4.331   0.332   2.233 -0.2521  0.5352 -1.6601
  743MPD2    H310985   4.485   0.279   2.389  0.8801  0.8296  1.3274
  743MPD2     N10986   0.091   0.537   2.192  0.4751  0.4300  0.1120
  743MPD2    H510987   0.112   0.584   2.105 -2.5778  2.7282  0.5586
  743MPD2    N110988   4.371   0.505   2.023 -0.0388  0.3574  0.1812
  743MPD2    H710989   4.423   0.547   1.947 -0.9873  1.8401  0.3365
  744TMC3    C110990   4.168   0.559   1.915  0.0357 -0.1253  0.2478
  744TMC3    C210991   4.041   0.598   1.942 -0.2562  0.1056 -0.4377
  744TMC3    C310992   3.983   0.666   1.838  0.3091 -0.4270 -0.2554
  744TMC3    C410993   4.237   0.578   1.797  0.0239 -0.2084  0.4716
  744TMC3    C510994   4.171   0.639   1.698 -0.6441 -0.3712 -0.1233
  744TMC3    C610995   4.038   0.672   1.712 -0.5442  0.2977  0.1643
  744TMC3     C10996   4.239   0.489   2.021  0.7463 -0.2581  0.3248
  744TMC3     O10997   4.175   0.441   2.115 -0.1758  0.6550 -0.0215
  744TMC3     H10998   4.001   0.580   2.041  0.1665  0.5225 -0.1887
  744TMC3    H110999   4.334   0.533   1.777  1.2397  1.7192  2.0887
  744TMC3    H211000   3.980   0.713   1.630 -0.4011  0.8088  0.3184
  744TMC3    C711001   4.236   0.668   1.574  0.1105 -0.0756 -0.4101
  744TMC3    C811002   3.874   0.764   1.860  0.2594  1.0892 -0.1548
  744TMC3    O111003   4.161   0.704   1.484  0.0093 -0.2782  0.0063
  744TMC3    O211004   3.865   0.848   1.774  0.1564 -0.2474  0.0417
  745TMC3    C111005   1.554   4.166  13.274  0.2858  0.1974  0.4023
  745TMC3    C211006   1.493   4.167  13.397  0.7751  0.1723 -0.5127
  745TMC3    C311007   1.365   4.214  13.394 -0.7150 -0.5012  0.9798
  745TMC3    C411008   1.496   4.222  13.160  0.3807  0.2026  0.6592
  745TMC3    C511009   1.376   4.284  13.168  0.7187 -0.0000 -0.8643
  745TMC3    C611010   1.308   4.273  13.284 -0.3802  0.6450 -0.6738
  745TMC3     C11011   1.700   4.148  13.265 -0.2683 -0.8268  0.0609
  745TMC3     O11012   1.743   4.136  13.152  0.0731 -0.4273  0.2472
  745TMC3     H11013   1.528   4.103  13.477  0.9471  1.1158  0.1551
  745TMC3    H111014   1.555   4.219  13.069  1.1615  0.8837  1.1435
  745TMC3    H211015   1.215   4.326  13.303 -0.4990 -0.0554  0.6800
  745TMC3    C711016   1.326   4.382  13.076  0.3781 -0.0379  0.2495
  745TMC3    C811017   1.292   4.239  13.519  0.0465 -0.5839 -0.2825
  745TMC3    O111018   1.209   4.407  13.081  0.6628  0.1359 -0.1254
  745TMC3    O211019   1.169   4.256  13.512 -0.5017 -0.6613  0.0926
  746TMC3    C111020   3.794   1.478  10.571 -0.2443  0.2811  0.0895
  746TMC3    C211021   3.922   1.445  10.548  0.5203  0.5123  0.0414
  746TMC3    C311022   3.951   1.317  10.534  0.3813 -0.0553  0.6478
  746TMC3    C411023   3.689   1.384  10.574 -0.0075 -0.0883 -0.2880
  746TMC3    C511024   3.724   1.247  10.569  0.2289  0.2808 -0.6868
  746TMC3    C611025   3.856   1.218  10.542 -0.6536  0.4068  0.6347
  746TMC3     C11026   3.766   1.607  10.630  0.3393  0.0134 -0.1036
  746TMC3     O11027   3.662   1.607  10.695 -0.2006 -0.1319 -0.3323
  746TMC3     H11028   3.998   1.522  10.549  0.4770  0.5558  0.0090
  746TMC3    H111029   3.584   1.407  10.583 -0.5018 -1.9505 -1.2858
  746TMC3    H211030   3.899   1.118  10.543  0.1575  0.7520 -0.5593
  746TMC3    C711031   3.621   1.156  10.581  0.3295 -0.2302 -0.3650
  746TMC3    C811032   4.076   1.282  10.474  0.1368 -0.7803 -0.0048
  746TMC3    O111033   3.515   1.177  10.522 -0.0519  0.3391  0.9263
  746TMC3    O211034   4.118   1.168  10.489  0.6941 -0.0650 -0.0846
  747TMC3    C111035   1.433   1.557  10.860 -0.2697 -0.5943 -0.7254
  747TMC3    C211036   1.309   1.532  10.915 -0.2668  0.1820 -0.7835
  747TMC3    C311037   1.287   1.567  11.040  0.0137 -0.0538 -0.6668
  747TMC3    C411038   1.531   1.621  10.939  0.1548  0.0820  0.5504
  747TMC3    C511039   1.501   1.649  11.069  0.5297 -0.4122 -0.1715
  747TMC3    C611040   1.379   1.619  11.121  0.1380 -0.5826 -0.0472
  747TMC3     C11041   1.417   1.623  10.737  0.0917 -1.0509 -0.2804
  747TMC3     O11042   1.475   1.727  10.728 -0.4466  0.0144 -0.4120
  747TMC3     H11043   1.238   1.464  10.870 -0.2956 -0.4472  0.2214
  747TMC3    H111044   1.632   1.638  10.902  0.2376  2.6758  1.9879
  747TMC3    H211045   1.364   1.639  11.227 -0.7693  1.7699 -0.6140
  747TMC3    C711046   1.598   1.727  11.140 -0.0670 -0.0447 -0.4039
  747TMC3    C811047   1.178   1.494  11.103 -0.0229  0.5488  0.5512
  747TMC3    O111048   1.559   1.813  11.218 -0.1083  0.6203 -0.1029
  747TMC3    O211049   1.148   1.381  11.059  0.0453  0.7829 -0.6429
  748MPD2     C11050   3.394   2.697   0.829  0.0737  0.5214  0.3566
  748MPD2    C111051   3.352   2.584   0.900 -0.1017 -0.0487 -0.6726
  748MPD2    C211052   3.438   2.472   0.890 -0.0732 -0.5441 -0.2887
  748MPD2    C311053   3.563   2.478   0.840  0.9479  0.5424 -0.2973
  748MPD2    C411054   3.604   2.592   0.771 -0.1175 -0.3829 -0.1086
  748MPD2    C511055   3.517   2.700   0.767 -0.3714  0.5556 -0.0672
  748MPD2     H11056   3.410   2.382   0.942 -1.0206 -0.7825 -1.2043
  748MPD2    H111057   3.700   2.603   0.721 -0.4486 -0.1060 -0.6852
  748MPD2    H211058   3.331   2.784   0.842  0.0327  0.2663  1.9249
  748MPD2    H311059   3.553   2.795   0.728  3.3334 -0.0157  1.9279
  748MPD2     N11060   3.641   2.365   0.847 -0.2514  0.0740 -0.0442
  748MPD2    H511061   3.611   2.279   0.892  1.5981 -1.6437 -2.0845
  748MPD2    N111062   3.234   2.592   0.983  0.1532  0.8992  0.5929
  748MPD2    H711063   3.186   2.681   0.987 -1.5390 -0.0428  1.2561
  749TMC3    C111064   3.841   2.235   0.826 -0.1188 -0.0469 -0.5071
  749TMC3    C211065   3.827   2.194   0.957  0.3427 -0.2024  0.4666
  749TMC3    C311066   3.910   2.102   1.002  0.1605  0.0979  0.6192
  749TMC3    C411067   3.927   2.173   0.743 -0.1331  0.4801  1.1419
  749TMC3    C511068   4.004   2.071   0.785  0.3772 -0.4809 -0.7750
  749TMC3    C611069   3.990   2.032   0.920  0.7672 -0.0299 -0.7011
  749TMC3     C11070   3.764   2.346   0.779 -0.2426 -0.3209  0.4086
  749TMC3     O11071   3.817   2.410   0.688 -0.1412 -0.7262 -0.3802
  749TMC3     H11072   3.757   2.243   1.024  0.1412 -1.0225  0.8572
  749TMC3    H111073   3.931   2.205   0.639 -3.9824 -0.3112  0.7474
  749TMC3    H211074   4.038   1.939   0.946 -0.2863 -0.0489  1.1993
  749TMC3    C711075   4.136   2.098   0.746 -0.7850 -0.0459 -0.1000
  749TMC3    C811076   3.948   2.115   1.138 -0.1113  0.6012 -0.3847
  749TMC3    O111077   4.156   2.215   0.713 -0.2139 -0.2357  0.8822
  749TMC3    O211078   3.894   2.186   1.220  0.1899  0.7628  0.7812
  750MPD2     C11079   3.698   3.372  11.004  0.6368 -0.0415 -0.0828
  750MPD2    C111080   3.603   3.282  10.978 -0.5016  0.1571  0.6422
  750MPD2    C211081   3.631   3.179  10.886 -0.2301  0.5607  0.2894
  750MPD2    C311082   3.762   3.156  10.841 -0.2328 -0.0255 -0.3932
  750MPD2    C411083   3.859   3.246  10.883 -0.0263 -0.0568 -0.1571
  750MPD2    C511084   3.827   3.349  10.968 -0.0617 -0.2100 -0.0631
  750MPD2     H11085   3.547   3.114  10.865 -0.5082  1.9633 -2.8685
  750MPD2    H111086   3.958   3.231  10.841 -0.2395  0.3813 -0.8260
  750MPD2    H211087   3.669   3.469  11.043  0.0224  0.7357 -2.4477
  750MPD2    H311088   3.900   3.427  10.982  0.5013 -0.4492 -1.6185
  750MPD2     N11089   3.799   3.047  10.753  0.2545 -0.1004  0.6899
  750MPD2    H511090   3.899   3.031  10.739  0.5678  2.5423  0.0075
  750MPD2    N111091   3.474   3.327  11.018 -0.2061 -0.1762 -0.0274
  750MPD2    H711092   3.475   3.414  11.069  0.7566 -0.7893  1.0135
  751TMC3    C111093   3.780   2.838  10.646  0.6265 -0.5100 -0.5555
  751TMC3    C211094   3.705   2.732  10.674  0.2073  0.2633 -0.4614
  751TMC3    C311095   3.774   2.611  10.675 -0.1554  0.0386  0.1597
  751TMC3    C411096   3.913   2.830  10.617 -0.4451 -0.3151 -0.4215
  751TMC3    C511097   3.974   2.708  10.619  0.0097 -0.2168  0.0685
  751TMC3    C611098   3.907   2.594  10.654 -0.1668  0.4701  0.2294
  751TMC3     C11099   3.718   2.963  10.692  0.3956  0.2951  0.3127
  751TMC3     O11100   3.597   2.975  10.682 -0.5877  0.7643 -0.1707
  751TMC3     H11101   3.598   2.734  10.692  0.1100  0.2969 -1.0269
  751TMC3    H111102   3.962   2.920  10.580  2.0335 -0.3543  2.7894
  751TMC3    H211103   3.961   2.501  10.661 -0.7226  0.1952  0.8104
  751TMC3    C711104   4.078   2.694  10.515 -0.4194 -0.5408  0.2651
  751TMC3    C811105   3.698   2.491  10.648 -0.5375  0.6379  0.2444
  751TMC3    O111106   4.142   2.793  10.487 -0.2399 -0.5995 -0.2051
  751TMC3    O211107   3.749   2.420  10.564  0.4755 -0.2454  0.1896
  752TMC3    C111108   2.456   2.688  17.081  0.4991  0.7318  0.4077
  752TMC3    C211109   2.513   2.584  17.157 -0.1763  0.0081 -0.1111
  752TMC3    C311110   2.440   2.532  17.258 -0.0530  0.2188 -0.5434
  752TMC3    C411111   2.332   2.741  17.113  0.8497 -0.2546 -0.1099
  752TMC3    C511112   2.271   2.689  17.225 -0.8530  0.3084  0.6839
  752TMC3    C611113   2.318   2.574  17.289 -0.0158  0.4142 -0.5507
  752TMC3     C11114   2.519   2.733  16.956 -0.3534  0.3515 -0.5026
  752TMC3     O11115   2.640   2.706  16.956  0.0238  0.2057 -0.3316
  752TMC3     H11116   2.612   2.544  17.135 -0.5125  0.6270 -2.6672
  752TMC3    H111117   2.291   2.820  17.052 -1.6073 -2.7030 -1.6531
  752TMC3    H211118   2.256   2.529  17.365 -1.8682 -0.4181 -2.5695
  752TMC3    C711119   2.129   2.733  17.248  0.1689  0.0241  0.0732
  752TMC3    C811120   2.499   2.414  17.324  0.1609  0.0600 -0.4012
  752TMC3    O111121   2.066   2.772  17.151 -0.6728  0.6757 -0.0281
  752TMC3    O211122   2.615   2.390  17.295 -1.0433 -0.8172  0.1639
  753TMC3    C111123   0.160   4.497  13.515  0.1142  0.0476  0.1690
  753TMC3    C211124   0.157   4.443  13.638  0.0637  0.2560  0.6346
  753TMC3    C311125   0.167   4.305  13.645  0.0532  0.6448 -0.1335
  753TMC3    C411126   0.177   4.430  13.395 -1.2778 -0.7026  0.1567
  753TMC3    C511127   0.197   4.291  13.411  0.1369 -0.5691 -0.1008
  753TMC3    C611128   0.194   4.227  13.532  0.2398 -0.1753  0.3861
  753TMC3     C11129   0.158   4.639  13.503 -0.3415  0.6913 -0.1060
  753TMC3     O11130   0.202   4.687  13.401 -0.0177  1.0865  0.5291
  753TMC3     H11131   0.147   4.498  13.730 -0.2563  0.1575  0.6588
  753TMC3    H111132   0.189   4.485  13.303 -2.0312 -1.4925 -0.4043
  753TMC3    H211133   0.218   4.123  13.549 -0.0018 -0.3098 -0.1098
  753TMC3    C711134   0.252   4.218  13.298 -0.9852 -0.0434  0.5804
  753TMC3    C811135   0.142   4.242  13.779  0.2346  0.0498  1.1311
  753TMC3    O111136   0.289   4.104  13.319 -0.0491  0.1763 -0.2074
  753TMC3    O211137   0.083   4.137  13.776  1.1228  0.5874  0.1047
  754MPD2     C11138   3.778   2.902  12.899  0.1261 -0.4075 -0.5450
  754MPD2    C111139   3.736   2.765  12.894  0.3210 -0.3642 -0.3739
  754MPD2    C211140   3.599   2.742  12.890  0.8275 -0.0477  1.3826
  754MPD2    C311141   3.511   2.850  12.907 -0.5635  0.1654 -0.0990
  754MPD2    C411142   3.554   2.978  12.920 -1.1024 -0.5428  0.7567
  754MPD2    C511143   3.687   3.000  12.924 -0.2014  1.0962 -0.3410
  754MPD2     H11144   3.554   2.645  12.871  2.5661 -0.2296 -1.7077
  754MPD2    H111145   3.485   3.058  12.945  0.6194  1.6212 -1.4717
  754MPD2    H211146   3.882   2.931  12.896 -0.7967  2.7996 -1.7340
  754MPD2    H311147   3.736   3.096  12.937 -2.1420  2.4098 -2.8130
  754MPD2     N11148   3.370   2.832  12.917  0.0814 -0.0676  0.0495
  754MPD2    H511149   3.315   2.918  12.923 -0.7935 -0.8152  2.6228
  754MPD2    N111150   3.835   2.668  12.896  0.3448 -0.1822  0.4625
  754MPD2    H711151   3.927   2.705  12.875  0.6143  0.3274  2.4752
  755MPD2     C11152   3.012   3.478  13.284 -0.3186  0.4976  0.2996
  755MPD2    C111153   2.934   3.384  13.352  0.4331  0.0065  0.0687
  755MPD2    C211154   2.954   3.243  13.323  0.6062  0.5317  0.1014
  755MPD2    C311155   3.041   3.212  13.221  0.3273 -1.7233 -0.3419
  755MPD2    C411156   3.110   3.309  13.164  0.3213 -0.2455 -0.2821
  755MPD2    C511157   3.098   3.438  13.188  0.6350  0.1906 -0.1567
  755MPD2     H11158   2.893   3.166  13.370  1.3684 -0.7959 -1.0735
  755MPD2    H111159   3.169   3.277  13.079 -0.4163  0.7733 -1.1753
  755MPD2    H211160   3.008   3.583  13.313 -0.4185  0.7072 -0.4732
  755MPD2    H311161   3.160   3.505  13.130 -0.6867  1.6965  0.1518
  755MPD2     N11162   3.056   3.082  13.165 -0.3142 -0.1488  0.1150
  755MPD2    H511163   3.133   3.062  13.103 -0.7358  1.0503 -0.7906
  755MPD2    N111164   2.848   3.418  13.458 -0.1528  0.1250  0.4863
  755MPD2    H711165   2.812   3.349  13.523 -1.1487 -0.4651 -0.6826
  756MPD2     C11166   3.619   3.620   9.379 -0.0551 -0.4509 -0.2343
  756MPD2    C111167   3.551   3.575   9.496  0.0270  1.2207 -0.5646
  756MPD2    C211168   3.409   3.576   9.490  0.1720 -0.1485  0.2746
  756MPD2    C311169   3.331   3.636   9.390  0.1265 -0.4556  0.1854
  756MPD2    C411170   3.403   3.671   9.276  0.1152  0.3966  0.0907
  756MPD2    C511171   3.541   3.675   9.280  0.0036 -0.2524 -0.1542
  756MPD2     H11172   3.353   3.541   9.577 -0.3515 -1.7417 -0.7084
  756MPD2    H111173   3.360   3.701   9.181  0.0953  0.7054  0.1975
  756MPD2    H211174   3.726   3.626   9.366 -0.1905  2.0170 -0.1074
  756MPD2    H311175   3.601   3.714   9.199 -2.9674  1.0679 -1.7463
  756MPD2     N11176   3.195   3.637   9.409 -0.0461 -0.0320 -0.3041
  756MPD2    H511177   3.152   3.588   9.487 -0.8978  0.7994 -0.2671
  756MPD2    N111178   3.621   3.536   9.609  0.3837  0.5713 -0.1960
  756MPD2    H711179   3.563   3.507   9.687  2.1309  1.6380  1.5068
  757MPD2     C11180   2.825   2.871   9.515  0.2039 -0.0725  0.0466
  757MPD2    C111181   2.954   2.925   9.506  0.4325  0.2305 -0.1306
  757MPD2    C211182   2.962   3.065   9.498  0.1270 -0.3876 -0.1206
  757MPD2    C311183   2.850   3.145   9.496  0.1440  0.0159  0.0128
  757MPD2    C411184   2.726   3.081   9.493 -0.1672 -0.0050  0.0436
  757MPD2    C511185   2.717   2.952   9.505 -0.6220  0.5464  0.4492
  757MPD2     H11186   3.059   3.112   9.484  0.6649 -0.8670  2.0062
  757MPD2    H111187   2.630   3.129   9.479  0.1683  0.4378 -0.7458
  757MPD2    H211188   2.800   2.765   9.520 -2.0318  0.3621 -1.6352
  757MPD2    H311189   2.620   2.908   9.487  0.7587 -3.0046  1.6511
  757MPD2     N11190   2.866   3.289   9.474  0.3578 -0.1427 -0.1541
  757MPD2    H511191   2.963   3.317   9.487  0.3978  0.2225 -1.2848
  757MPD2    N111192   3.068   2.841   9.505 -0.2494  0.6323  0.3907
  757MPD2    H711193   3.062   2.740   9.501  0.4123  0.6434 -0.9599
  758MPD2     C11194   3.403   2.501  15.876  0.0188  0.0683 -0.5302
  758MPD2    C111195   3.500   2.479  15.967  0.4308  0.1037  0.6780
  758MPD2    C211196   3.488   2.518  16.101 -0.1831 -0.4246 -0.0882
  758MPD2    C311197   3.374   2.583  16.150  0.4002 -0.5734 -0.8822
  758MPD2    C411198   3.285   2.624  16.047 -0.0176  0.8201 -0.3060
  758MPD2    C511199   3.300   2.581  15.916  0.6749  0.6844 -0.2640
  758MPD2     H11200   3.557   2.472  16.170 -0.5592 -1.6434 -0.5208
  758MPD2    H111201   3.202   2.693  16.057  1.8290  3.2076 -1.3730
  758MPD2    H211202   3.409   2.465  15.774  1.9853 -1.9987  0.3197
  758MPD2    H311203   3.237   2.626  15.841 -1.2360  1.4786  1.8111
  758MPD2     N11204   3.346   2.615  16.284 -0.5456  0.1863  0.2029
  758MPD2    H511205   3.262   2.671  16.295 -0.1655  0.7915  0.0277
  758MPD2    N111206   3.617   2.420  15.912 -0.4640  0.1758 -0.2005
  758MPD2    H711207   3.619   2.405  15.812  0.8253  1.3005 -0.3419
  759MPD2     C11208   1.859   1.695   9.714  0.1539 -0.1742 -0.0255
  759MPD2    C111209   1.946   1.595   9.677  0.2138  0.6501 -1.0054
  759MPD2    C211210   2.070   1.629   9.613 -0.4104  0.7801  0.4412
  759MPD2    C311211   2.100   1.758   9.572  0.1021  0.6020  0.1989
  759MPD2    C411212   2.014   1.859   9.608 -0.2499 -0.2456 -0.6095
  759MPD2    C511213   1.900   1.824   9.677 -0.0916  0.0526  0.1135
  759MPD2     H11214   2.145   1.553   9.597 -0.7577  0.9812 -2.0982
  759MPD2    H111215   2.034   1.960   9.576  2.5256 -0.7512 -0.4796
  759MPD2    H211216   1.764   1.672   9.761  0.0127 -2.0620 -1.2694
  759MPD2    H311217   1.839   1.911   9.698 -1.2818 -0.5283 -0.9187
  759MPD2     N11218   2.212   1.772   9.491 -0.1056 -0.0875  0.0896
  759MPD2    H511219   2.262   1.684   9.485  1.1134  0.7529 -1.8367
  759MPD2    N111220   1.909   1.465   9.708 -0.9099 -0.4127  0.1912
  759MPD2    H711221   1.819   1.459   9.755 -1.5946  2.0672 -0.8079
  760MPD2     C11222   1.830   2.778  11.461 -0.6004  0.1646  0.6714
  760MPD2    C111223   1.942   2.840  11.513  0.2344  0.0388  0.5395
  760MPD2    C211224   1.983   2.804  11.642  0.4163  0.2428 -0.2948
  760MPD2    C311225   1.901   2.730  11.726 -1.0140  0.1881  0.1827
  760MPD2    C411226   1.783   2.679  11.676 -0.5285 -0.2412  0.0908
  760MPD2    C511227   1.755   2.706  11.543  0.4512  0.1597  0.4369
  760MPD2     H11228   2.073   2.851  11.681  1.0099  0.1460 -1.5438
  760MPD2    H111229   1.711   2.634  11.744  2.0460 -2.8345  1.1252
  760MPD2    H211230   1.785   2.789  11.363 -0.9671  3.2157  1.1571
  760MPD2    H311231   1.660   2.659  11.518 -1.4154  2.8918  2.3322
  760MPD2     N11232   1.937   2.700  11.862 -0.4716 -0.4840  0.2425
  760MPD2    H511233   1.877   2.633  11.909  0.2328 -0.6262  0.9442
  760MPD2    N111234   2.025   2.923  11.429 -0.1376 -0.0631  0.0252
  760MPD2    H711235   2.101   2.975  11.474 -1.1843  1.0462  0.5151
  761MPD2     C11236   3.363   2.149  10.780 -0.0256  0.1709  0.0830
  761MPD2    C111237   3.429   2.159  10.660 -0.2436  0.2197 -0.0769
  761MPD2    C211238   3.504   2.272  10.634 -0.3166 -0.0396 -0.2855
  761MPD2    C311239   3.503   2.370  10.734  0.0265 -0.1375 -0.9050
  761MPD2    C411240   3.424   2.367  10.844 -0.3215  0.1352 -0.3556
  761MPD2    C511241   3.360   2.252  10.868  1.2308  0.1196 -0.5416
  761MPD2     H11242   3.568   2.276  10.546 -0.2340  0.2744 -0.2093
  761MPD2    H111243   3.413   2.450  10.913  0.0502  1.4673 -1.8858
  761MPD2    H211244   3.293   2.069  10.801 -0.6840  0.6655 -0.2300
  761MPD2    H311245   3.302   2.245  10.960  2.1590 -0.2688  0.0140
  761MPD2     N11246   3.582   2.484  10.726 -0.4651  0.3232  0.0400
  761MPD2    H511247   3.574   2.548  10.804 -0.3074  0.3734  0.0144
  761MPD2    N111248   3.414   2.049  10.569 -0.1884  0.9819 -0.5232
  761MPD2    H711249   3.384   1.962  10.611 -1.5295  2.4598  1.5918
  762MPD2     C11250   3.760   2.075   9.890  0.3631 -0.1806 -0.0452
  762MPD2    C111251   3.801   1.961   9.959 -1.4208  0.0137  0.5250
  762MPD2    C211252   3.935   1.916   9.952 -0.3609 -0.5703 -0.2884
  762MPD2    C311253   4.026   1.997   9.888  0.2508 -0.3336 -0.1420
  762MPD2    C411254   3.987   2.113   9.824 -0.2311  0.9335 -0.0916
  762MPD2    C511255   3.858   2.146   9.816  0.2549  0.2074 -0.2472
  762MPD2     H11256   3.967   1.824   9.999 -0.1691 -0.1057  0.5100
  762MPD2    H111257   4.060   2.174   9.772 -0.1251  1.7122  0.9781
  762MPD2    H211258   3.657   2.106   9.880  0.9188  2.9326  3.5354
  762MPD2    H311259   3.824   2.228   9.754 -1.1596 -0.9554 -1.0144
  762MPD2     N11260   4.166   1.967   9.908 -0.6571  0.0391  0.0701
  762MPD2    H511261   4.180   1.878   9.955  0.5045  0.3509  0.2992
  762MPD2    N111262   3.699   1.896  10.040 -0.1278 -0.0764 -0.0146
  762MPD2    H711263   3.610   1.944  10.038  2.0928  4.0312 -1.3775
  763MPD2     C11264   0.781   2.442  15.915 -0.2157 -0.4940  0.1573
  763MPD2    C111265   0.654   2.489  15.926  0.4797 -0.2558 -0.0284
  763MPD2    C211266   0.630   2.601  15.997 -0.5472  0.3605  0.5554
  763MPD2    C311267   0.736   2.662  16.067  0.0127 -0.1019  0.7057
  763MPD2    C411268   0.862   2.607  16.048 -0.4310  0.1813  0.7661
  763MPD2    C511269   0.884   2.506  15.968 -0.6004  0.0573 -0.5092
  763MPD2     H11270   0.529   2.640  15.999 -0.7373 -0.0196 -1.4946
  763MPD2    H111271   0.944   2.653  16.103 -0.0513  0.1751  0.2037
  763MPD2    H211272   0.806   2.344  15.875  1.2736 -0.2704  0.5186
  763MPD2    H311273   0.984   2.467  15.969 -2.2984 -4.2582  0.8824
  763MPD2     N11274   0.733   2.771  16.159 -1.0632  0.3168  0.0629
  763MPD2    H511275   0.822   2.811  16.186 -1.2755 -0.0482  1.2774
  763MPD2    N111276   0.545   2.437  15.847  0.0076 -0.2531 -0.0550
  763MPD2    H711277   0.465   2.498  15.834 -0.1079 -0.8777 -2.2016
  764MPD2     C11278   3.857   4.275  16.912 -0.3778 -0.0541  0.0632
  764MPD2    C111279   3.728   4.227  16.925  0.4956  0.0782 -0.3500
  764MPD2    C211280   3.708   4.122  17.012 -0.1828 -0.3421  0.0552
  764MPD2    C311281   3.813   4.063  17.086  0.3131  0.2311  1.1582
  764MPD2    C411282   3.933   4.111  17.066 -0.5960 -0.4001 -0.0852
  764MPD2    C511283   3.954   4.221  16.988  0.4266 -0.4406 -0.0677
  764MPD2     H11284   3.607   4.084  17.019 -1.0531  1.8925 -0.3788
  764MPD2    H111285   4.016   4.075  17.125 -1.2612 -1.4308  0.2181
  764MPD2    H211286   3.895   4.357  16.852 -1.1627  0.0641 -0.2691
  764MPD2    H311287   4.058   4.249  16.978 -0.0433 -0.2648 -4.4629
  764MPD2     N11288   3.779   3.946  17.159 -0.0402  0.0548 -0.5064
  764MPD2    H511289   3.680   3.937  17.178 -0.1557  0.2474 -1.0184
  764MPD2    N111290   3.620   4.266  16.849 -0.3439  0.0419  0.0856
  764MPD2    H711291   3.536   4.214  16.872 -0.4543  0.4274  0.5518
  765MPD2     C11292   3.051   1.771  16.195  0.4282  0.2104  0.2294
  765MPD2    C111293   3.111   1.836  16.093 -0.7089  0.0359  0.3945
  765MPD2    C211294   3.235   1.796  16.046 -0.0654  0.0867 -0.1563
  765MPD2    C311295   3.291   1.672  16.092  0.2793  1.0618  0.2196
  765MPD2    C411296   3.224   1.610  16.192  0.3468  0.1805 -0.5538
  765MPD2    C511297   3.105   1.663  16.243 -0.2071 -0.7016 -0.0267
  765MPD2     H11298   3.291   1.854  15.974  0.7309 -2.3996 -1.5341
  765MPD2    H111299   3.261   1.521  16.242 -2.0779 -0.4474  0.1175
  765MPD2    H211300   2.954   1.806  16.228 -0.2883 -2.9530  1.4900
  765MPD2    H311301   3.066   1.602  16.324  1.7942 -0.0579  1.4220
  765MPD2     N11302   3.409   1.614  16.033 -0.7558 -0.1614 -0.1295
  765MPD2    H511303   3.463   1.665  15.963  0.3052  0.6663  1.2927
  765MPD2    N111304   3.040   1.950  16.048 -0.2434  0.4434 -0.1073
  765MPD2    H711305   2.953   1.974  16.094 -0.9946 -0.1484 -1.2465
  766MPD2     C11306   2.431   2.299  15.539 -0.2643 -0.3256 -0.1894
  766MPD2    C111307   2.517   2.192  15.570 -0.7911 -0.2324 -0.4278
  766MPD2    C211308   2.555   2.106  15.471 -0.6823  0.2310 -0.1543
  766MPD2    C311309   2.491   2.109  15.348 -0.0148  0.1474  0.4334
  766MPD2    C411310   2.408   2.218  15.324  0.0473 -0.5475  0.1382
  766MPD2    C511311   2.374   2.311  15.419  0.2718 -0.2475  0.2972
  766MPD2     H11312   2.634   2.032  15.483 -0.3990  0.3452 -1.3244
  766MPD2    H111313   2.353   2.215  15.231  1.0215  3.2032 -0.5275
  766MPD2    H211314   2.406   2.378  15.609 -0.5141 -1.1498  0.6424
  766MPD2    H311315   2.306   2.393  15.398  1.9371  0.8386 -0.8915
  766MPD2     N11316   2.533   2.044  15.231 -0.8981  0.2134 -0.4382
  766MPD2    H511317   2.506   2.095  15.147 -2.5601  0.2722  0.1381
  766MPD2    N111318   2.586   2.196  15.689  0.2396 -0.5371  0.5239
  766MPD2    H711319   2.569   2.277  15.747 -1.8921 -0.6381  0.0145
  767MPD2     C11320   2.210   2.460  15.007  0.2445 -0.3140  0.6927
  767MPD2    C111321   2.341   2.415  14.985  0.5778 -0.2062  0.5419
  767MPD2    C211322   2.367   2.335  14.879  0.0635  0.8207  0.3416
  767MPD2    C311323   2.273   2.314  14.776  0.0829 -0.5074 -0.3569
  767MPD2    C411324   2.148   2.362  14.801 -0.1584  0.6665 -0.1707
  767MPD2    C511325   2.113   2.421  14.921 -0.4177 -0.6840 -0.1829
  767MPD2     H11326   2.468   2.298  14.861 -0.2064  1.2528 -2.0473
  767MPD2    H111327   2.065   2.338  14.736 -0.6544  0.8702  0.3876
  767MPD2    H211328   2.179   2.513  15.096  0.6012 -2.8390  2.3077
  767MPD2    H311329   2.008   2.441  14.936 -0.1891  0.4602 -0.0578
  767MPD2     N11330   2.300   2.255  14.654  0.1893 -0.0746 -0.7674
  767MPD2    H511331   2.389   2.206  14.654  0.4402  0.3708  1.5804
  767MPD2    N111332   2.439   2.442  15.091 -0.6070 -0.2959  0.3847
  767MPD2    H711333   2.418   2.508  15.166  0.1199  0.3281  0.0336
  768MPD2     C11334   3.546   0.774  10.337  0.3156  0.1863  0.3186
  768MPD2    C111335   3.513   0.675  10.432  0.1359 -0.6499  0.1953
  768MPD2    C211336   3.585   0.660  10.552  0.6329  0.4285  0.2941
  768MPD2    C311337   3.702   0.736  10.561 -0.5626 -1.3774 -0.2531
  768MPD2    C411338   3.739   0.828  10.465  0.1361 -0.3368  0.2973
  768MPD2    C511339   3.661   0.844  10.359 -0.1935 -0.1738  0.1962
  768MPD2     H11340   3.549   0.588  10.624 -1.3354  0.6089 -0.4940
  768MPD2    H111341   3.836   0.875  10.472 -0.4329  0.7804  0.6756
  768MPD2    H211342   3.500   0.799  10.242  2.2150 -0.8173 -0.8411
  768MPD2    H311343   3.694   0.906  10.276  0.0300  0.9118  1.1048
  768MPD2     N11344   3.799   0.717  10.660  0.0467 -0.1834  0.0849
  768MPD2    H511345   3.884   0.772  10.661 -0.6851  0.9608 -0.4154
  768MPD2    N111346   3.392   0.604  10.427  0.2619  0.0701  0.5971
  768MPD2    H711347   3.358   0.575  10.518 -3.7950  2.9812  0.0239
  769MPD2     C11348   4.348   3.300  14.946  0.1211 -0.2524  0.2171
  769MPD2    C111349   4.277   3.409  14.909  0.7036 -0.1414  0.1482
  769MPD2    C211350   4.258   3.519  14.994 -0.3057 -0.2218  0.4028
  769MPD2    C311351   4.316   3.511  15.120  0.4975  0.2282 -0.1391
  769MPD2    C411352   4.392   3.403  15.152 -0.1615  0.2694  0.7513
  769MPD2    C511353   4.407   3.301  15.062 -0.3796  0.1941 -0.8443
  769MPD2     H11354   4.189   3.600  14.973 -1.2475 -1.3478 -0.8585
  769MPD2    H111355   4.434   3.390  15.251 -1.4232 -1.1551  1.0932
  769MPD2    H211356   4.369   3.216  14.880 -1.5714 -0.1730 -0.4098
  769MPD2    H311357   4.465   3.213  15.083  0.0142  0.6337 -0.0934
  769MPD2     N11358   4.285   3.620  15.219 -0.1787  0.2174 -0.2720
  769MPD2    H511359   4.230   3.698  15.185 -1.3510 -1.2414 -1.7100
  769MPD2    N111360   4.216   3.394  14.782  0.0172 -0.4337  0.1304
  769MPD2    H711361   4.234   3.307  14.732  0.7139 -1.1624  1.6580
  770MPD2     C11362   3.426   3.081  14.826 -0.6853  0.1701  0.1470
  770MPD2    C111363   3.558   3.042  14.819 -0.0473  0.0405  0.0630
  770MPD2    C211364   3.646   3.116  14.743 -0.8839  0.0243 -0.0191
  770MPD2    C311365   3.612   3.231  14.675 -0.8520  0.0230  0.2337
  770MPD2    C411366   3.484   3.281  14.692  0.0565 -0.4527 -0.3613
  770MPD2    C511367   3.394   3.205  14.769  0.0039  0.1306 -0.1784
  770MPD2     H11368   3.746   3.081  14.722 -1.5382 -1.4766 -0.6164
  770MPD2    H111369   3.450   3.369  14.638 -2.4554 -0.4109  1.3047
  770MPD2    H211370   3.356   3.014  14.875  2.3543 -3.0212  0.1545
  770MPD2    H311371   3.290   3.233  14.779  0.1543  0.6078  0.0468
  770MPD2     N11372   3.720   3.297  14.607  0.7601 -0.4388  0.1243
  770MPD2    H511373   3.808   3.252  14.628  0.6858 -0.0185  1.3413
  770MPD2    N111374   3.596   2.916  14.880  0.2116  0.5855 -0.1237
  770MPD2    H711375   3.522   2.851  14.907  0.1147  0.8335  0.2075
  771MPD2     C11376   0.286   1.573  13.498 -0.4164  0.4196  0.4662
  771MPD2    C111377   0.254   1.651  13.392 -0.6062  0.0198 -0.3811
  771MPD2    C211378   0.308   1.613  13.272  0.5509  0.2720  1.1226
  771MPD2    C311379   0.379   1.499  13.259 -0.4576  0.8112 -0.3912
  771MPD2    C411380   0.413   1.423  13.368  0.1102  0.3358  0.5488
  771MPD2    C511381   0.368   1.464  13.487  0.6248 -0.1608  0.7125
  771MPD2     H11382   0.285   1.667  13.181  4.3617 -1.4488 -0.8553
  771MPD2    H111383   0.484   1.342  13.355 -1.2783 -0.8790  0.5460
  771MPD2    H211384   0.246   1.595  13.597 -0.6108  0.9419  0.2722
  771MPD2    H311385   0.397   1.413  13.578  3.1277 -2.2135 -1.2115
  771MPD2     N11386   0.438   1.480  13.137 -0.8200 -0.0096 -0.4271
  771MPD2    H511387   0.412   1.548  13.067 -2.7715 -0.2329  0.0856
  771MPD2    N111388   0.180   1.772  13.405  0.3707 -0.4899 -0.4764
  771MPD2    H711389   0.153   1.815  13.317  1.6492  1.2434 -0.0058
  772MPD2     C11390   4.263   2.267  13.392 -0.3534  0.4481  0.8346
  772MPD2    C111391   4.323   2.179  13.478 -0.9018 -0.2650 -0.1184
  772MPD2    C211392   4.251   2.126  13.579  0.2637  0.2122  0.5624
  772MPD2    C311393   4.114   2.158  13.599  0.1609  0.5029  0.5377
  772MPD2    C411394   4.062   2.264  13.528 -0.6518  0.1625  0.3322
  772MPD2    C511395   4.134   2.306  13.421  0.1636 -0.2701  0.1821
  772MPD2     H11396   4.298   2.049  13.639 -1.0051  0.9655  2.5023
  772MPD2    H111397   3.960   2.297  13.544 -0.9222 -0.8572  0.7186
  772MPD2    H211398   4.307   2.332  13.317  0.4980 -1.3413 -0.2001
  772MPD2    H311399   4.086   2.377  13.355  0.1171 -1.9417 -1.6130
  772MPD2     N11400   4.023   2.093  13.683 -0.2869  0.0106  0.3647
  772MPD2    H511401   3.927   2.126  13.684 -0.1195  0.4850  1.0642
  772MPD2    N111402   4.454   2.123  13.457 -0.1202  0.2651  0.0668
  772MPD2    H711403   4.481   2.056  13.528  0.3803  0.0661 -0.3152
  773MPD2     C11404   0.030   3.173  17.290 -0.0191  0.3886  0.3107
  773MPD2    C111405   4.681   3.051  17.310 -0.0888 -0.5530  0.3520
  773MPD2    C211406   0.023   2.933  17.350 -0.4122  0.0828  0.0159
  773MPD2    C311407   0.155   2.928  17.381 -0.2395 -0.4713 -0.8820
  773MPD2    C411408   0.225   3.042  17.348 -0.0413 -0.8714 -0.3910
  773MPD2    C511409   0.163   3.160  17.307  0.3980  0.0868 -0.0078
  773MPD2     H11410   4.692   2.838  17.348 -0.0687 -0.1013 -0.2911
  773MPD2    H111411   0.333   3.053  17.359 -0.2889  1.0249  0.1628
  773MPD2    H211412   4.718   3.272  17.259  0.1916  0.5119  0.4748
  773MPD2    H311413   0.223   3.251  17.306  0.1958  0.2143 -0.7078
  773MPD2     N11414   0.214   2.803  17.414  0.2449  0.1446 -0.7438
  773MPD2    H511415   0.149   2.725  17.423 -0.0527  0.7500  2.0715
  773MPD2    N111416   4.537   3.050  17.302  0.7969 -0.3169  0.0773
  773MPD2    H711417   4.493   2.959  17.308 -2.1682  1.1483  0.5638
  774MPD2     C11418   3.122   1.832  12.902  0.4730  0.1452 -0.0536
  774MPD2    C111419   3.143   1.860  13.040  0.5936  0.3654 -0.0065
  774MPD2    C211420   3.233   1.963  13.068  0.1868 -0.1651  0.2628
  774MPD2    C311421   3.312   2.028  12.972 -0.1913 -0.8819 -0.1892
  774MPD2    C411422   3.289   1.999  12.840  0.3680  0.3464  0.9293
  774MPD2    C511423   3.193   1.905  12.809  0.2288 -0.4613  0.0866
  774MPD2     H11424   3.240   1.987  13.173 -1.6469 -0.1516  0.3872
  774MPD2    H111425   3.344   2.038  12.755  1.3902 -2.3997  0.3171
  774MPD2    H211426   3.054   1.756  12.866  0.6810 -0.6809  1.3086
  774MPD2    H311427   3.180   1.876  12.705  1.2718 -0.7644  0.0345
  774MPD2     N11428   3.412   2.124  13.015 -0.4079  0.4392 -0.2145
  774MPD2    H511429   3.419   2.145  13.114 -0.5983 -0.3625 -0.0253
  774MPD2    N111430   3.058   1.812  13.142  0.2171  0.5454 -0.4047
  774MPD2    H711431   3.074   1.835  13.239  0.4686 -1.7184  0.0807
  775MPD2     C11432   0.215   3.457  15.786 -0.1678  0.2699  0.6763
  775MPD2    C111433   0.186   3.585  15.838  0.1466 -0.4320  0.5247
  775MPD2    C211434   0.285   3.681  15.828  0.5625  0.4322  0.2528
  775MPD2    C311435   0.409   3.661  15.763  0.7801 -0.3377  0.2487
  775MPD2    C411436   0.426   3.537  15.698  0.0861  0.5076 -0.4900
  775MPD2    C511437   0.334   3.440  15.715  0.4938  0.4691 -0.3996
  775MPD2     H11438   0.275   3.771  15.887 -0.3892  0.9645 -0.7122
  775MPD2    H111439   0.503   3.526  15.622  0.5558 -0.8487  0.1785
  775MPD2    H211440   0.144   3.375  15.792  0.5588 -0.5312 -1.9449
  775MPD2    H311441   0.333   3.344  15.665  0.6880 -0.3240  1.1231
  775MPD2     N11442   0.514   3.753  15.744  0.1101 -0.0229  0.7081
  775MPD2    H511443   0.604   3.726  15.705 -0.3773 -0.1386 -0.3488
  775MPD2    N111444   0.069   3.593  15.909  0.3085  0.7277  0.3061
  775MPD2    H711445   0.022   3.504  15.917  0.6090  0.5905  0.5403
  776MPD2     C11446   2.843   3.896  10.889  0.0865  0.1755 -0.1741
  776MPD2    C111447   2.949   3.876  10.975  0.5050  0.0107  0.3504
  776MPD2    C211448   3.023   3.981  11.021 -1.0416  0.2730  0.3083
  776MPD2    C311449   2.994   4.111  10.983  0.5850 -0.1259  0.2985
  776MPD2    C411450   2.880   4.137  10.904  0.1251 -0.3016  0.0026
  776MPD2    C511451   2.807   4.026  10.856 -0.7588  0.5416 -0.3610
  776MPD2     H11452   3.104   3.958  11.089  2.6965  0.7273 -3.9367
  776MPD2    H111453   2.858   4.238  10.869  0.4565 -0.2068  0.0669
  776MPD2    H211454   2.770   3.823  10.855  0.0274 -0.3555  1.0989
  776MPD2    H311455   2.721   4.037  10.792  0.0106 -1.0273 -1.6631
  776MPD2     N11456   3.078   4.226  11.017  0.0300 -0.0620  0.5455
  776MPD2    H511457   3.047   4.317  10.987 -2.4905 -1.3634 -0.7618
  776MPD2    N111458   2.981   3.738  11.006  0.2379 -0.4008  0.2646
  776MPD2    H711459   2.926   3.663  10.964  0.7659 -0.9332  0.5288
  777MPD2     C11460   0.029   1.532   0.736 -0.3400  0.3319 -0.5924
  777MPD2    C111461   0.015   1.467   0.858 -0.6945  0.0980  0.8942
  777MPD2    C211462   4.671   1.345   0.868  0.8332  0.5217 -0.5601
  777MPD2    C311463   4.626   1.290   0.748  0.8416 -0.8297 -0.5235
  777MPD2    C411464   4.650   1.344   0.628 -0.3389  0.2097  0.2519
  777MPD2    C511465   4.707   1.464   0.626 -0.2693 -0.7528 -0.5511
  777MPD2     H11466   4.651   1.294   0.961  0.4677  0.4179 -0.6954
  777MPD2    H111467   4.614   1.306   0.533  0.9546 -0.5989  0.0850
  777MPD2    H211468   0.084   1.624   0.725 -2.0476  1.3076 -0.9588
  777MPD2    H311469   4.711   1.523   0.535 -0.6433  1.3951  0.8174
  777MPD2     N11470   4.554   1.168   0.766  0.2146 -0.2276 -0.0081
  777MPD2    H511471   4.550   1.138   0.863  0.5517  1.7011  0.6049
  777MPD2    N111472   0.054   1.543   0.971  0.0958  0.0051 -0.2154
  777MPD2    H711473   0.057   1.645   0.968 -1.4718  0.1143  2.4015
  778MPD2     C11474   0.425   1.339  14.844  0.1614  0.5481  0.0504
  778MPD2    C111475   0.379   1.287  14.722 -0.1111 -0.3615  0.4202
  778MPD2    C211476   0.435   1.335  14.601  0.5738 -0.4838  0.0730
  778MPD2    C311477   0.528   1.438  14.597  0.4037  0.8482 -0.4876
  778MPD2    C411478   0.546   1.502  14.720 -0.0579  0.5656 -0.2151
  778MPD2    C511479   0.504   1.455  14.839  0.2531 -0.6460 -0.2030
  778MPD2     H11480   0.401   1.288  14.509  1.0215 -2.4474  0.9037
  778MPD2    H111481   0.601   1.595  14.715  0.0957  0.5707  1.5169
  778MPD2    H211482   0.387   1.305  14.940  2.2150  1.5900  1.2291
  778MPD2    H311483   0.510   1.514  14.929  0.6855 -0.6225 -0.2475
  778MPD2     N11484   0.590   1.468  14.472 -0.2451  0.1891 -0.3113
  778MPD2    H511485   0.572   1.413  14.388  2.2263 -0.5182 -0.3981
  778MPD2    N111486   0.275   1.194  14.729 -0.2693  0.4204 -0.0401
  778MPD2    H711487   0.234   1.176  14.638 -1.4600  0.1452  0.5435
  779MPD2     C11488   0.089   0.347  14.535 -0.0233 -0.1755  0.5504
  779MPD2    C111489   0.227   0.330  14.511  0.4145  0.1858  0.0655
  779MPD2    C211490   0.297   0.435  14.451 -0.3898  0.0251  0.0686
  779MPD2    C311491   0.229   0.544  14.399 -0.9306  1.1212 -0.0941
  779MPD2    C411492   0.091   0.549  14.411  0.2683  0.1664 -0.1385
  779MPD2    C511493   0.020   0.456  14.475 -0.8461 -0.0612 -0.5661
  779MPD2     H11494   0.402   0.426  14.423 -0.6647 -0.7386 -0.7161
  779MPD2    H111495   0.028   0.627  14.370  1.3044  1.5083  0.8307
  779MPD2    H211496   0.036   0.279  14.601 -0.2321  0.7970  1.3799
  779MPD2    H311497   4.634   0.466  14.481 -0.8490 -1.7053  1.9347
  779MPD2     N11498   0.308   0.637  14.323 -0.0835  0.5021  0.4261
  779MPD2    H511499   0.405   0.608  14.312 -0.1570 -0.1115  1.3669
  779MPD2    N111500   0.304   0.224  14.566  0.7574  0.3047 -0.8724
  779MPD2    H711501   0.404   0.241  14.558  1.0118 -0.6404  0.2792
  780MPD2     C11502   4.356   0.075   0.942  0.1259  0.2849  0.1250
  780MPD2    C111503   4.381   0.002   0.831 -0.5162  0.7979 -0.9536
  780MPD2    C211504   4.396   0.071   0.705  0.2185 -0.6436  0.2537
  780MPD2    C311505   4.391   0.205   0.700  0.5264  0.0555 -0.3192
  780MPD2    C411506   4.359   0.269   0.816  0.1481 -0.0250 -0.3674
  780MPD2    C511507   4.333   0.209   0.943 -0.1841  0.0986 -0.8950
  780MPD2     H11508   4.422   0.015   0.616  0.8757  0.1634 -0.0691
  780MPD2    H111509   4.336   0.375   0.813  1.0858  0.1936  0.2224
  780MPD2    H211510   4.344   0.026   1.038  1.2023  1.9367  1.1011
  780MPD2    H311511   4.304   0.269   1.028 -1.5140  0.9433 -1.9411
  780MPD2     N11512   4.401   0.263   0.576 -0.6297 -0.1584  1.1578
  780MPD2    H511513   4.425   0.196   0.504  0.1929  1.4925 -0.0991
  780MPD2    N111514   4.388   4.579   0.850 -0.1014 -0.0956 -0.0809
  780MPD2    H711515   4.411   4.535   0.938 -3.2023  1.3516  1.4559
  781MPD2     C11516   1.299   2.439  11.728 -0.1148 -0.2306  0.2876
  781MPD2    C111517   1.393   2.439  11.832 -1.0851 -0.2196  0.4146
  781MPD2    C211518   1.517   2.381  11.818  0.0795 -0.5717 -0.2909
  781MPD2    C311519   1.560   2.361  11.688  0.5300 -0.4098 -0.2892
  781MPD2    C411520   1.470   2.369  11.583  0.5477  0.1005 -1.0934
  781MPD2    C511521   1.339   2.406  11.605 -0.0351 -0.5987  0.2328
  781MPD2     H11522   1.583   2.374  11.903  0.6647 -1.2940 -0.8042
  781MPD2    H111523   1.477   2.328  11.483  0.8973 -2.1834 -0.1383
  781MPD2    H211524   1.202   2.486  11.733  0.0985 -0.0282  2.4942
  781MPD2    H311525   1.263   2.405  11.528 -0.6942 -0.0668  0.8819
  781MPD2     N11526   1.690   2.320  11.659 -0.0964  0.5501 -0.0223
  781MPD2    H511527   1.705   2.276  11.568 -0.4448  0.3922 -0.0033
  781MPD2    N111528   1.364   2.494  11.959 -0.2886  0.3162 -0.2915
  781MPD2    H711529   1.436   2.470  12.027 -0.2004  1.2449 -0.0511
  782MPD2     C11530   4.049   3.131   9.969  0.2412 -0.2630 -0.6235
  782MPD2    C111531   4.186   3.132   9.993 -0.5826  0.0460  0.0620
  782MPD2    C211532   4.236   3.230  10.068 -0.4724 -0.3478  0.0145
  782MPD2    C311533   4.162   3.326  10.119 -0.3971 -0.3729 -0.3239
  782MPD2    C411534   4.025   3.335  10.095  0.3466 -0.4526  0.7142
  782MPD2    C511535   3.972   3.231  10.017  0.0761  0.3299 -0.4489
  782MPD2     H11536   4.340   3.232  10.097 -0.2034 -2.2739 -0.8003
  782MPD2    H111537   3.972   3.419  10.138  1.4008  1.0220 -0.8751
  782MPD2    H211538   4.000   3.056   9.909  0.7596 -0.7645 -0.4197
  782MPD2    H311539   3.868   3.241   9.986  0.5348 -0.1408 -2.1426
  782MPD2     N11540   4.231   3.415  10.199 -0.2852  0.6621  0.5747
  782MPD2    H511541   4.324   3.388  10.230  0.9447  3.2740 -0.8484
  782MPD2    N111542   4.276   3.039   9.939 -0.1596  0.6023  0.4451
  782MPD2    H711543   4.235   2.951   9.909 -2.1888  1.1314  1.6928
  783MPD2     C11544   4.115   2.389  10.323  0.0834  0.5090 -0.2778
  783MPD2    C111545   4.134   2.525  10.358 -0.9047 -0.2110  1.0170
  783MPD2    C211546   4.220   2.605  10.281  0.9142 -0.4713  0.0034
  783MPD2    C311547   4.284   2.552  10.170  0.2514 -0.2823  0.2843
  783MPD2    C411548   4.256   2.421  10.131 -0.0228  0.3731  0.2795
  783MPD2    C511549   4.172   2.343  10.211 -0.3633 -0.7495  0.5841
  783MPD2     H11550   4.229   2.713  10.294  1.3639 -0.5762  0.5564
  783MPD2    H111551   4.295   2.376  10.040 -0.2153  0.9598 -0.0950
  783MPD2    H211552   4.047   2.332  10.386  0.0674 -0.3030 -1.0448
  783MPD2    H311553   4.154   2.241  10.178 -1.2964 -0.3140 -0.2435
  783MPD2     N11554   4.364   2.635  10.096  0.0601 -0.6629  0.7772
  783MPD2    H511555   4.369   2.732  10.126  0.7985 -0.4061 -0.1713
  783MPD2    N111556   4.063   2.576  10.466 -0.1780 -0.7380 -0.3542
  783MPD2    H711557   4.000   2.515  10.517  0.5028 -1.1728 -0.0353
  784MPD2     C11558   2.899   4.017   0.654  0.1821  0.3828 -0.8010
  784MPD2    C111559   2.764   3.982   0.636  0.0070  0.4412 -0.2794
  784MPD2    C211560   2.685   4.042   0.543  0.1569 -0.1790  0.5540
  784MPD2    C311561   2.730   4.149   0.479 -0.0901  0.1723  0.1744
  784MPD2    C411562   2.857   4.188   0.495  0.2415  0.4723 -0.5397
  784MPD2    C511563   2.943   4.126   0.581 -0.6652 -0.1482  0.4701
  784MPD2     H11564   2.581   4.019   0.521 -0.3803  1.3112  1.5556
  784MPD2    H111565   2.894   4.275   0.442  1.3901  0.8681  0.9144
  784MPD2    H211566   2.962   3.973   0.731 -0.9493  0.2240  0.0306
  784MPD2    H311567   3.043   4.167   0.596 -0.6233  1.2817 -3.7061
  784MPD2     N11568   2.635   4.223   0.408 -0.2206 -0.1454  0.4803
  784MPD2    H511569   2.539   4.193   0.394 -0.3708  0.9100 -0.7764
  784MPD2    N111570   2.707   3.876   0.707  0.2480 -0.0159  0.3942
  784MPD2    H711571   2.610   3.854   0.684  0.5127 -1.3775  0.5708
  785MPD2     C11572   2.007   2.071  10.797  0.8511 -0.1221  0.0957
  785MPD2    C111573   1.939   2.093  10.681 -0.5484  0.2025  0.0618
  785MPD2    C211574   1.871   1.980  10.632  0.0671  0.0908 -0.3024
  785MPD2    C311575   1.882   1.854  10.685  0.1841  0.1721 -0.1220
  785MPD2    C411576   1.963   1.838  10.796  0.0670 -0.4530 -0.7177
  785MPD2    C511577   2.015   1.949  10.854 -1.0552 -1.1483 -0.3285
  785MPD2     H11578   1.805   1.993  10.547 -0.5073 -2.5786 -0.2691
  785MPD2    H111579   1.983   1.746  10.849 -0.7220  0.5591  1.3403
  785MPD2    H211580   2.059   2.150  10.850 -0.0904  1.5679 -1.5411
  785MPD2    H311581   2.071   1.928  10.944  0.8837  3.3740 -0.4913
  785MPD2     N11582   1.830   1.743  10.615 -0.7591 -0.0362  0.2479
  785MPD2    H511583   1.772   1.768  10.536  1.3081  1.3335 -0.8236
  785MPD2    N111584   1.930   2.224  10.624 -0.0357  0.1652  0.7285
  785MPD2    H711585   1.977   2.303  10.667 -1.3178  0.4223  1.6551
  786MPD2     C11586   0.517   4.307  14.760  0.0298  0.3103  0.5430
  786MPD2    C111587   0.636   4.281  14.699  0.4773 -0.0587 -0.5164
  786MPD2    C211588   0.753   4.323  14.749  0.3109  0.8303  0.6280
  786MPD2    C311589   0.758   4.393  14.868  0.5641 -0.3209  0.2376
  786MPD2    C411590   0.644   4.433  14.925  0.8252  0.0778  0.1008
  786MPD2    C511591   0.524   4.386  14.871 -0.3038 -0.4306  0.0726
  786MPD2     H11592   0.844   4.311  14.690 -0.6564 -0.2128 -0.6650
  786MPD2    H111593   0.639   4.497  15.012  3.1354 -0.6480  0.7386
  786MPD2    H211594   0.418   4.276  14.728 -0.0126  1.7196 -0.7164
  786MPD2    H311595   0.428   4.415  14.913 -0.0396  0.7265 -0.1392
  786MPD2     N11596   0.881   4.431  14.935 -0.5124 -0.2439  0.8570
  786MPD2    H511597   0.869   4.495  15.013 -2.9253  0.2781  0.0715
  786MPD2    N111598   0.640   4.198  14.582 -0.2874 -0.8006  0.6913
  786MPD2    H711599   0.730   4.174  14.541 -0.9821 -2.5541  0.1674
  787MPD2     C11600   0.840   3.681  14.769  0.6646  0.7035 -0.1787
  787MPD2    C111601   0.859   3.675  14.633 -0.6717 -1.1137 -0.2275
  787MPD2    C211602   0.950   3.588  14.577  0.5288 -0.0449  0.1460
  787MPD2    C311603   1.027   3.510  14.655  0.8835 -0.3527  0.3909
  787MPD2    C411604   1.020   3.523  14.795  0.2078 -0.0217 -0.0325
  787MPD2    C511605   0.921   3.606  14.849 -0.4343 -0.4103  0.3585
  787MPD2     H11606   0.958   3.577  14.469 -1.0391 -1.2323  0.1612
  787MPD2    H111607   1.076   3.460  14.863 -0.2323  1.0875  1.3453
  787MPD2    H211608   0.774   3.754  14.814  0.7867  0.8076 -0.1677
  787MPD2    H311609   0.896   3.601  14.954  1.5271  0.0435  0.8446
  787MPD2     N11610   1.112   3.418  14.592  0.1539 -0.6024  0.1485
  787MPD2    H511611   1.090   3.386  14.498  1.2000 -1.1031  0.0760
  787MPD2    N111612   0.785   3.758  14.551 -0.1149  0.1925  0.7165
  787MPD2    H711613   0.724   3.822  14.601  0.2987  2.3158 -1.4913
  788MPD2     C11614   2.645   2.070   0.844  0.5823  0.3776  0.1205
  788MPD2    C111615   2.530   2.039   0.770  1.1949  0.2993  0.2157
  788MPD2    C211616   2.468   2.141   0.707  0.0030  0.0926 -0.6162
  788MPD2    C311617   2.503   2.279   0.732  0.1874 -0.1009 -0.9438
  788MPD2    C411618   2.616   2.297   0.800 -0.2403  0.6513  0.4723
  788MPD2    C511619   2.692   2.196   0.856  0.3805 -0.8544 -0.4054
  788MPD2     H11620   2.381   2.113   0.648  1.1128  1.0029 -2.7199
  788MPD2    H111621   2.647   2.397   0.824  0.9380  0.4275 -0.1110
  788MPD2    H211622   2.691   1.985   0.892  0.0434  0.9270  1.6191
  788MPD2    H311623   2.780   2.219   0.916 -1.2174 -2.1275  2.4064
  788MPD2     N11624   2.440   2.388   0.662 -0.0149 -0.9944 -0.4329
  788MPD2    H511625   2.479   2.479   0.681  1.8176 -2.0848  1.0764
  788MPD2    N111626   2.478   1.913   0.743 -0.5659 -0.2153  0.5027
  788MPD2    H711627   2.387   1.915   0.699 -0.3335  2.5659  0.1758
  789MPD2     C11628   3.292   2.229  16.874  0.5933 -0.7055 -0.2355
  789MPD2    C111629   3.286   2.274  16.736  0.2475 -0.6922 -0.2013
  789MPD2    C211630   3.162   2.324  16.684  0.4166  0.1663 -0.3193
  789MPD2    C311631   3.053   2.334  16.768  0.7929 -0.1131 -0.3760
  789MPD2    C411632   3.068   2.293  16.899  0.2542 -0.4859 -0.0117
  789MPD2    C511633   3.184   2.239  16.956  0.4908 -0.8823 -0.8836
  789MPD2     H11634   3.168   2.353  16.580 -0.7069 -0.7229 -0.6438
  789MPD2    H111635   2.979   2.291  16.962  0.8629 -0.9904  0.8342
  789MPD2    H211636   3.386   2.203  16.921  0.7303  0.8404  0.3668
  789MPD2    H311637   3.197   2.216  17.061  2.7738  1.3217 -0.6893
  789MPD2     N11638   2.928   2.389  16.746 -0.1960 -0.0647 -0.3886
  789MPD2    H511639   2.870   2.400  16.829  0.9444  0.4492  0.3250
  789MPD2    N111640   3.397   2.266  16.656  0.1487 -0.4069  0.1151
  789MPD2    H711641   3.403   2.291  16.558  4.4375  0.0212  0.4650
  790MPD2     C11642   4.670   3.954  13.371  0.1203 -0.6752  0.7156
  790MPD2    C111643   4.535   3.948  13.372  0.0752 -0.0212  0.6611
  790MPD2    C211644   4.469   3.931  13.255 -0.3956 -0.0210  0.4546
  790MPD2    C311645   4.537   3.924  13.135 -0.4443  0.6543 -0.1642
  790MPD2    C411646   4.675   3.933  13.126 -0.2173  0.0151 -0.0874
  790MPD2    C511647   0.018   3.948  13.250  0.1913  0.2722  0.2520
  790MPD2     H11648   4.361   3.933  13.265 -0.3755  0.1454  0.6260
  790MPD2    H111649   0.004   3.942  13.031  0.7610 -0.7053  0.3631
  790MPD2    H211650   0.015   3.955  13.456  0.0567 -3.1044  0.7887
  790MPD2    H311651   0.126   3.953  13.255  0.1027  0.9208  1.5897
  790MPD2     N11652   4.456   3.913  13.022  0.1717 -0.0877 -0.7261
  790MPD2    H511653   4.359   3.929  13.048  0.7098 -1.4883  2.2464
  790MPD2    N111654   4.476   3.940  13.500  0.0295 -0.2706 -0.1566
  790MPD2    H711655   4.542   3.921  13.574 -2.1502  0.6733  2.0152
  791MPD2     C11656   3.732   4.105  12.689  0.8075  0.4439 -0.3593
  791MPD2    C111657   3.788   3.991  12.741  0.0208  0.0473  0.4520
  791MPD2    C211658   3.705   3.897  12.811  0.5841  0.2323 -0.4673
  791MPD2    C311659   3.570   3.911  12.815 -0.3745  0.0938  0.0758
  791MPD2    C411660   3.516   4.031  12.767  0.3642  0.7358 -0.0322
  791MPD2    C511661   3.598   4.122  12.709  0.8599 -0.3551 -1.1387
  791MPD2     H11662   3.740   3.804  12.856 -1.5255  0.6594  2.0343
  791MPD2    H111663   3.410   4.052  12.773 -0.0892 -1.7279  0.5017
  791MPD2    H211664   3.781   4.180  12.628 -2.0466  1.8069 -0.9994
  791MPD2    H311665   3.549   4.214  12.681  3.6736  1.8391  1.0786
  791MPD2     N11666   3.489   3.805  12.862  0.5718 -0.6156  0.9510
  791MPD2    H511667   3.543   3.727  12.897  0.6311 -1.5119 -1.1357
  791MPD2    N111668   3.925   3.974  12.722  0.0720 -0.4830  0.1240
  791MPD2    H711669   3.972   4.034  12.655 -0.2938 -2.3973 -1.8874
  792MPD2     C11670   3.410   4.477  10.705 -0.3766  0.1451  0.3406
  792MPD2    C111671   3.513   4.395  10.734 -0.9915  0.5667  0.4182
  792MPD2    C211672   3.483   4.269  10.765  0.7598  0.1557 -0.1055
  792MPD2    C311673   3.356   4.216  10.769 -0.4966  0.6147  0.1794
  792MPD2    C411674   3.256   4.292  10.714  0.0095 -0.4719 -0.0129
  792MPD2    C511675   3.286   4.429  10.699  0.0351 -0.5384  0.2605
  792MPD2     H11676   3.565   4.200  10.784  0.3034 -0.6140 -0.8852
  792MPD2    H111677   3.157   4.249  10.699  0.6327 -2.1686  0.6829
  792MPD2    H211678   3.430   4.577  10.670  0.3056 -0.6766 -1.5978
  792MPD2    H311679   3.210   4.498  10.664 -1.9556 -1.6967  2.2800
  792MPD2     N11680   3.322   4.082  10.799 -0.4789  0.3752  0.1170
  792MPD2    H511681   3.229   4.061  10.764  0.5994 -3.6811 -0.3151
  792MPD2    N111682   3.649   4.435  10.707 -0.1227 -0.6585 -0.1090
  792MPD2    H711683   3.654   4.516  10.647  0.5814 -0.4060  0.2906
  793MPD2     C11684   3.353   3.437  10.150 -0.2920 -0.5955  0.1275
  793MPD2    C111685   3.455   3.533  10.171 -0.0106  0.0406  0.0293
  793MPD2    C211686   3.451   3.606  10.285  0.0540 -0.0272  0.1471
  793MPD2    C311687   3.346   3.596  10.370 -0.1455  0.3043  0.0074
  793MPD2    C411688   3.243   3.507  10.344  0.0468 -0.3136 -0.0790
  793MPD2    C511689   3.247   3.430  10.234 -0.5817 -0.5082  0.1014
  793MPD2     H11690   3.532   3.675  10.307 -0.8752  0.8444  0.8257
  793MPD2    H111691   3.155   3.485  10.404 -0.4450  0.8913 -0.3540
  793MPD2    H211692   3.359   3.377  10.060 -1.1026  0.0997 -0.3806
  793MPD2    H311693   3.182   3.344  10.224 -0.2430 -0.8901  1.1465
  793MPD2     N11694   3.345   3.664  10.493  0.8506 -0.2934 -0.5977
  793MPD2    H511695   3.432   3.693  10.536  0.5474  0.1013 -0.2495
  793MPD2    N111696   3.565   3.530  10.081 -0.3992 -0.2541  0.7398
  793MPD2    H711697   3.569   3.468  10.001  0.7765 -0.7423  1.1822
  794MPD2     C11698   3.897   3.530  16.970 -0.5761 -0.4782 -0.1222
  794MPD2    C111699   3.839   3.409  17.008  0.0429 -0.2608  0.2203
  794MPD2    C211700   3.716   3.368  16.964 -0.4510  0.5348 -0.7886
  794MPD2    C311701   3.639   3.470  16.901  0.3672 -0.0311 -0.0410
  794MPD2    C411702   3.697   3.587  16.874 -0.8507  0.0086  0.2949
  794MPD2    C511703   3.826   3.618  16.902  0.1159 -0.0943 -0.1307
  794MPD2     H11704   3.679   3.274  17.002 -0.1003  0.5456 -0.4202
  794MPD2    H111705   3.641   3.664  16.821  0.7545  2.4272  2.1050
  794MPD2    H211706   3.995   3.560  17.006 -0.1400 -2.5287  0.4458
  794MPD2    H311707   3.857   3.719  16.879  0.4061 -0.2456 -0.4168
  794MPD2     N11708   3.507   3.449  16.864 -0.0238 -0.0829  0.0402
  794MPD2    H511709   3.459   3.535  16.842  0.7074  0.6213  1.1982
  794MPD2    N111710   3.915   3.314  17.091 -0.1780  0.0118 -0.5562
  794MPD2    H711711   3.881   3.222  17.114 -1.6690  0.8310  0.5171
  795MPD2     C11712   1.541   0.554  13.879 -0.0559  0.0259 -0.0898
  795MPD2    C111713   1.520   0.480  13.767 -0.4187  0.1816  0.1925
  795MPD2    C211714   1.597   0.368  13.755 -0.6095 -1.0739  0.2911
  795MPD2    C311715   1.711   0.352  13.829 -0.8144 -0.3495 -0.7380
  795MPD2    C411716   1.734   0.427  13.940  0.1673  0.5655 -0.3397
  795MPD2    C511717   1.644   0.531  13.967  0.0188 -0.0008 -0.9677
  795MPD2     H11718   1.596   0.310  13.664  0.1637 -2.3845  1.1187
  795MPD2    H111719   1.823   0.412  13.999  0.1090  2.2287  0.1801
  795MPD2    H211720   1.488   0.644  13.909 -0.0542 -0.4031  1.2288
  795MPD2    H311721   1.645   0.590  14.058  0.6075 -1.9070  0.2481
  795MPD2     N11722   1.812   0.269  13.779  0.5663 -0.6387  0.5550
  795MPD2    H511723   1.785   0.187  13.725  1.8969 -0.9560  0.3695
  795MPD2    N111724   1.422   0.518  13.669  0.3327  0.3544 -0.4115
  795MPD2    H711725   1.406   0.448  13.597 -1.0398  0.7929 -0.5345
  796MPD2     C11726   0.836   2.150  15.439 -0.2172  0.1626 -0.4034
  796MPD2    C111727   0.960   2.168  15.496  0.5524  0.0528  0.8982
  796MPD2    C211728   0.993   2.289  15.546  0.1082  0.0407 -1.1492
  796MPD2    C311729   0.904   2.398  15.525 -0.3378  0.1815  0.4058
  796MPD2    C411730   0.788   2.379  15.464  0.5365 -0.0142 -0.5120
  796MPD2    C511731   0.753   2.252  15.428 -0.1291 -0.3643 -0.2594
  796MPD2     H11732   1.084   2.304  15.603 -1.8316 -0.8511  2.2034
  796MPD2    H111733   0.718   2.458  15.438  0.6968  0.4855  0.5957
  796MPD2    H211734   0.810   2.051  15.403 -1.2962  0.5287 -0.6167
  796MPD2    H311735   0.653   2.230  15.392  0.2013  0.5934 -1.7769
  796MPD2     N11736   0.941   2.521  15.586  0.3075  0.4076  0.0068
  796MPD2    H511737   1.040   2.539  15.595  0.6170 -1.1897 -0.0750
  796MPD2    N111738   1.041   2.056  15.521  0.5278  0.7778  0.3830
  796MPD2    H711739   0.994   1.969  15.499  0.3871  1.3896 -1.6993
  797MPD2     C11740   1.349   1.839  16.974 -0.0588  0.0866 -0.3747
  797MPD2    C111741   1.373   1.963  17.028  0.2542 -0.7131 -0.0103
  797MPD2    C211742   1.354   2.073  16.947  0.6101 -1.3717  0.9864
  797MPD2    C311743   1.297   2.068  16.820 -0.1123  0.2255  0.4031
  797MPD2    C411744   1.269   1.939  16.774  0.9724  0.0320 -0.6954
  797MPD2    C511745   1.307   1.829  16.848 -0.2542  0.7516  0.4428
  797MPD2     H11746   1.398   2.165  16.984 -1.6352 -0.6542  1.8738
  797MPD2    H111747   1.225   1.925  16.676 -1.0890  0.6114  0.1475
  797MPD2    H211748   1.346   1.751  17.038 -2.6843 -1.3599 -2.5072
  797MPD2    H311749   1.287   1.726  16.820 -0.2225  0.5327  1.2133
  797MPD2     N11750   1.268   2.190  16.749 -0.5802 -0.4323  0.3545
  797MPD2    H511751   1.319   2.268  16.790 -1.2365 -1.2376  2.7502
  797MPD2    N111752   1.433   1.978  17.154 -0.2037  0.0246  0.0653
  797MPD2    H711753   1.446   2.075  17.182  0.8673  0.1287 -0.7988
  798MPD2     C11754   1.223   2.594  17.100  0.0913 -0.1090  0.4256
  798MPD2    C111755   1.337   2.549  17.038 -0.3408 -0.3713  0.3371
  798MPD2    C211756   1.418   2.458  17.106  1.0503  0.2777  0.3870
  798MPD2    C311757   1.391   2.422  17.241 -0.2834 -0.0211  0.1651
  798MPD2    C411758   1.277   2.467  17.299  0.4026  0.1414  0.4445
  798MPD2    C511759   1.196   2.556  17.232 -0.0508 -0.5675  0.5715
  798MPD2     H11760   1.505   2.417  17.057  0.4437  1.1919 -1.4792
  798MPD2    H111761   1.240   2.435  17.396 -0.0567  0.7136  0.4554
  798MPD2    H211762   1.150   2.657  17.050  1.2998  1.0833  0.1585
  798MPD2    H311763   1.101   2.586  17.276 -0.1775 -1.8971  1.2027
  798MPD2     N11764   1.467   2.326  17.309 -0.1975  0.1126  0.5108
  798MPD2    H511765   1.422   2.284  17.390  1.3616 -0.6376  0.9922
  798MPD2    N111766   1.336   2.565  16.901  0.0935 -0.5406  0.0581
  798MPD2    H711767   1.259   2.609  16.852  0.4392 -0.7974 -0.7293
  799MPD2     C11768   0.736   3.274  14.209  0.0034 -0.0218 -0.1582
  799MPD2    C111769   0.672   3.230  14.094 -0.5322  0.5615 -0.1771
  799MPD2    C211770   0.601   3.318  14.015  0.3130 -0.8601  0.0915
  799MPD2    C311771   0.607   3.452  14.041 -0.0600 -0.1943  0.6917
  799MPD2    C411772   0.664   3.496  14.158  0.4589 -0.1939 -0.0480
  799MPD2    C511773   0.731   3.407  14.238 -0.1543  0.3284 -0.5568
  799MPD2     H11774   0.559   3.271  13.927  0.7932  0.4246 -0.8287
  799MPD2    H111775   0.671   3.600  14.186  0.5274 -0.6590  1.6460
  799MPD2    H211776   0.798   3.206  14.266  1.1345 -0.6425 -2.0971
  799MPD2    H311777   0.794   3.446  14.317  0.8872 -0.2527 -1.1053
  799MPD2     N11778   0.538   3.549  13.962 -0.0102  0.3338  0.1854
  799MPD2    H511779   0.552   3.647  13.981 -0.1975  0.6666 -1.3977
  799MPD2    N111780   0.677   3.095  14.045 -0.6199  0.2251  0.4168
  799MPD2    H711781   0.605   3.064  13.980 -0.7647 -0.9433  1.1546
  800MPD2     C11782   1.307   4.417  14.003 -0.3353 -0.2197  0.0555
  800MPD2    C111783   1.434   4.399  13.954  0.6484  0.5482  0.2523
  800MPD2    C211784   1.443   4.343  13.831  0.4591  0.5435  0.0321
  800MPD2    C311785   1.339   4.300  13.753 -0.3696  0.4500  0.4820
  800MPD2    C411786   1.211   4.319  13.803 -0.4706  0.5636 -0.4063
  800MPD2    C511787   1.207   4.368  13.929 -0.3062  0.1623 -0.1060
  800MPD2     H11788   1.539   4.320  13.788 -0.4990 -2.3638 -0.5214
  800MPD2    H111789   1.121   4.293  13.748 -0.9279 -1.6719  1.4347
  800MPD2    H211790   1.281   4.454  14.102 -1.1912 -1.3466  0.2463
  800MPD2    H311791   1.110   4.381  13.974 -0.1922 -1.8646  0.7414
  800MPD2     N11792   1.376   4.245  13.627 -0.5272  1.0070  0.3952
  800MPD2    H511793   1.476   4.234  13.615 -0.3133  2.3364  0.9287
  800MPD2    N111794   1.546   4.435  14.041 -0.5188 -0.1001 -0.4547
  800MPD2    H711795   1.532   4.487  14.127  1.9227 -1.1859  0.6180
  801MPD2     C11796   1.651   0.326  14.371  0.3015  0.0746 -0.2284
  801MPD2    C111797   1.588   0.201  14.371  0.2528  0.2242 -0.1878
  801MPD2    C211798   1.446   0.200  14.408  0.1047 -0.0003 -0.1876
  801MPD2    C311799   1.381   0.317  14.455  0.1189 -0.2291 -0.1070
  801MPD2    C411800   1.457   0.428  14.465  0.7501 -0.2426  0.5643
  801MPD2    C511801   1.591   0.435  14.426  0.1869  0.0189  0.2530
  801MPD2     H11802   1.391   0.108  14.393  1.8035 -0.9655 -0.5164
  801MPD2    H111803   1.407   0.519  14.497  1.8294  0.4447  0.2761
  801MPD2    H211804   1.755   0.346  14.347  0.8228 -2.5765 -0.1246
  801MPD2    H311805   1.641   0.531  14.422  2.1415 -1.0232 -0.5846
  801MPD2     N11806   1.245   0.323  14.499  0.1926  0.4307  0.3827
  801MPD2    H511807   1.212   0.404  14.551 -0.8264  1.8444 -2.4188
  801MPD2    N111808   1.655   0.084  14.323 -0.4257 -0.4689  0.0940
  801MPD2    H711809   1.608   4.715  14.318 -0.0111 -0.6827  0.0826
  802MPD2     C11810   0.256   0.339  16.893 -0.2354 -0.3666 -0.3377
  802MPD2    C111811   0.365   0.313  16.975  0.2605  0.2904  0.1912
  802MPD2    C211812   0.452   0.214  16.943 -1.3922 -0.0712 -0.9394
  802MPD2    C311813   0.423   0.118  16.848  0.2866  0.0745 -0.0635
  802MPD2    C411814   0.303   0.135  16.782 -0.7105 -0.1463  1.2975
  802MPD2    C511815   0.223   0.241  16.803  0.6942  0.6876  0.6851
  802MPD2     H11816   0.532   0.196  17.014 -2.9298 -2.3160  0.1878
  802MPD2    H111817   0.270   0.055  16.716 -0.0534 -0.3268  1.1935
  802MPD2    H211818   0.185   0.420  16.908 -0.4969 -0.5174 -0.7615
  802MPD2    H311819   0.134   0.252  16.743  2.7395  1.4661 -2.2274
  802MPD2     N11820   0.520   0.015  16.818  0.4187 -0.4107 -0.3819
  802MPD2    H511821   0.593   0.004  16.888  1.3948 -0.6288 -1.4392
  802MPD2    N111822   0.404   0.407  17.075  0.4452 -0.0270 -0.5811
  802MPD2    H711823   0.497   0.395  17.113  0.6392  1.0230 -0.7317
  803MPD2     C11824   1.993   3.470  11.823 -0.3574  0.3735 -0.4187
  803MPD2    C111825   2.103   3.526  11.882  0.6761  0.1589  0.0683
  803MPD2    C211826   2.126   3.508  12.017 -0.6648  0.3822 -0.4238
  803MPD2    C311827   2.047   3.427  12.095 -0.0726 -0.6653  0.0017
  803MPD2    C411828   1.940   3.367  12.036  0.2582 -0.1213 -0.9366
  803MPD2    C511829   1.909   3.390  11.902  0.8846 -0.0967  0.6232
  803MPD2     H11830   2.219   3.548  12.056 -1.0031  1.1351 -0.3848
  803MPD2    H111831   1.874   3.301  12.092  2.5545 -1.8159 -0.2615
  803MPD2    H211832   1.976   3.476  11.716  0.8932 -0.0086 -0.6401
  803MPD2    H311833   1.830   3.332  11.857  0.9765 -1.1380  1.7800
  803MPD2     N11834   2.081   3.386  12.228  0.3518 -0.2328 -0.2803
  803MPD2    H511835   2.004   3.343  12.279  2.9562 -2.8024  1.4605
  803MPD2    N111836   2.202   3.602  11.809  0.1378  0.0153  0.3688
  803MPD2    H711837   2.266   3.650  11.870  0.1277  1.5294 -0.8132
  804MPD2     C11838   1.371   0.300  16.595 -0.6200  0.4313 -0.3448
  804MPD2    C111839   1.414   0.267  16.718  0.1776 -0.7994  0.2514
  804MPD2    C211840   1.471   0.365  16.794 -0.1879  0.0329  0.0573
  804MPD2    C311841   1.508   0.486  16.742  0.2630  0.0407 -0.5066
  804MPD2    C411842   1.470   0.512  16.613  0.2796  0.1559 -0.4499
  804MPD2    C511843   1.400   0.423  16.533 -0.2082  0.5034  0.3913
  804MPD2     H11844   1.509   0.349  16.895  0.7268  0.3850 -0.2249
  804MPD2    H111845   1.478   0.613  16.574  1.1098  1.2952  2.6707
  804MPD2    H211846   1.306   0.238  16.534 -0.5229  0.1318 -0.1428
  804MPD2    H311847   1.357   0.449  16.437 -1.9538  0.5522  1.1752
  804MPD2     N11848   1.592   0.565  16.818 -0.3779 -0.1353  0.2938
  804MPD2    H511849   1.605   0.547  16.917  0.5180 -2.3464 -0.2394
  804MPD2    N111850   1.367   0.155  16.789  0.5079  0.0632  0.1685
  804MPD2    H711851   1.379   0.161  16.889 -3.3810 -1.0129  0.7065
  805MPD2     C11852   0.441   3.612  15.080 -0.3986  0.0018  0.2638
  805MPD2    C111853   0.519   3.529  15.001  0.2947  0.9779  1.0048
  805MPD2    C211854   0.643   3.493  15.044  0.0679 -0.0617 -0.0034
  805MPD2    C311855   0.689   3.518  15.174 -0.3988  0.7367  0.1423
  805MPD2    C411856   0.611   3.600  15.249  0.4375 -0.2548  0.2523
  805MPD2    C511857   0.486   3.641  15.208 -0.4033 -0.1748  0.1883
  805MPD2     H11858   0.707   3.435  14.978 -1.2988 -0.3670 -1.0452
  805MPD2    H111859   0.643   3.638  15.346 -0.7129  0.4750  0.3303
  805MPD2    H211860   0.345   3.658  15.059 -0.0002  0.2633 -0.9710
  805MPD2    H311861   0.438   3.713  15.273 -0.6378  1.8911 -2.3108
  805MPD2     N11862   0.818   3.476  15.214 -0.4735  0.0768 -0.0800
  805MPD2    H511863   0.870   3.426  15.142  0.7494  0.4722  0.5246
  805MPD2    N111864   0.493   3.488  14.868  0.2079  0.8942  0.4596
  805MPD2    H711865   0.573   3.449  14.819  0.4980 -0.3888  1.9135
  806MPD2     C11866   1.846   3.300   0.220  0.1103  0.4022 -0.5462
  806MPD2    C111867   1.797   3.376   0.329 -0.0774  0.0457  0.5784
  806MPD2    C211868   1.724   3.489   0.300  0.3781  0.6352  0.2007
  806MPD2    C311869   1.706   3.524   0.170 -0.7756 -0.0551  0.4812
  806MPD2    C411870   1.745   3.446   0.056  0.0690  0.4715  0.2917
  806MPD2    C511871   1.816   3.339   0.093 -0.3619 -0.3223  0.4553
  806MPD2     H11872   1.693   3.561   0.374 -1.0782 -2.8313  2.9660
  806MPD2    H111873   1.728   3.461  17.638  1.7050 -1.4392 -0.2426
  806MPD2    H211874   1.901   3.208   0.232 -1.2472 -0.6735 -2.6645
  806MPD2    H311875   1.852   3.278   0.011  1.6665 -1.1174  1.9444
  806MPD2     N11876   1.647   3.654   0.155 -0.1659 -0.2097  0.4089
  806MPD2    H511877   1.627   3.705   0.240 -1.4568 -0.8549  0.4883
  806MPD2    N111878   1.822   3.331   0.460 -0.0334 -0.3983 -0.3772
  806MPD2    H711879   1.875   3.247   0.478  2.6634  1.4806  0.4490
  807MPD2     C11880   1.450   3.177   1.194  0.1803 -0.5268  0.1726
  807MPD2    C111881   1.583   3.138   1.195 -0.2228 -0.1070  0.4877
  807MPD2    C211882   1.619   3.031   1.278  0.9891 -0.6443  0.0319
  807MPD2    C311883   1.528   2.960   1.352  0.0325 -0.1583  0.1051
  807MPD2    C411884   1.392   2.997   1.341 -0.1805  1.1720  0.2308
  807MPD2    C511885   1.360   3.103   1.262  0.2951 -0.0957  0.3993
  807MPD2     H11886   1.723   2.999   1.277  1.5236  1.1299 -1.0018
  807MPD2    H111887   1.315   2.934   1.384 -0.5209 -0.7905 -3.2722
  807MPD2    H211888   1.414   3.254   1.127 -0.3273 -1.9000 -1.1496
  807MPD2    H311889   1.256   3.135   1.257 -0.1475 -1.4827  0.5201
  807MPD2     N11890   1.575   2.854   1.436  0.8322  0.1424  0.3462
  807MPD2    H511891   1.675   2.839   1.444  0.9572  0.8295  0.0804
  807MPD2    N111892   1.684   3.187   1.109  0.3151 -0.1827 -0.4749
  807MPD2    H711893   1.781   3.161   1.126  0.4379  1.6648  1.5551
  808MPD2     C11894   0.674   0.639   8.762 -0.2043 -0.1589 -0.0570
  808MPD2    C111895   0.751   0.527   8.763 -0.5036 -0.0897  0.1950
  808MPD2    C211896   0.887   0.528   8.780 -0.1418  0.2732  0.7285
  808MPD2    C311897   0.950   0.642   8.818  0.4493  0.2354  0.2854
  808MPD2    C411898   0.870   0.754   8.831  0.1421  0.7644  0.7845
  808MPD2    C511899   0.739   0.754   8.797  0.0225 -0.1775  0.1013
  808MPD2     H11900   0.932   0.429   8.779  0.5636  0.5969  0.3056
  808MPD2    H111901   0.920   0.847   8.856  1.6137  0.6517 -1.7007
  808MPD2    H211902   0.569   0.646   8.734 -0.0052  1.5472 -0.4021
  808MPD2    H311903   0.687   0.849   8.791 -2.1359 -1.3826 -0.6585
  808MPD2     N11904   1.093   0.653   8.843 -0.0143  0.5122 -0.0834
  808MPD2    H511905   1.121   0.749   8.863  2.6553 -0.5713  1.2974
  808MPD2    N111906   0.688   0.404   8.740  0.3052 -0.0384  0.3049
  808MPD2    H711907   0.740   0.317   8.749 -1.6455 -1.6111 -3.4464
  809MPD2     C11908   1.945   0.288   8.456  0.3756  0.0415 -0.6104
  809MPD2    C111909   1.970   0.401   8.534 -0.4033  0.1146  0.5101
  809MPD2    C211910   1.886   0.439   8.630  0.1979  0.2471 -0.3193
  809MPD2    C311911   1.765   0.369   8.652  0.1205 -0.3022 -0.1716
  809MPD2    C411912   1.744   0.251   8.583 -0.0940  0.2228  0.7401
  809MPD2    C511913   1.833   0.216   8.485 -0.1524  0.0407  0.2358
  809MPD2     H11914   1.906   0.533   8.681 -1.3493  1.2413 -1.5668
  809MPD2    H111915   1.652   0.197   8.606  1.1950 -2.2386  0.1187
  809MPD2    H211916   2.003   0.261   8.368 -2.4227 -1.7317 -1.9289
  809MPD2    H311917   1.804   0.140   8.413  1.0301  0.2432 -0.4511
  809MPD2     N11918   1.668   0.413   8.740  0.4774  0.1483 -0.4525
  809MPD2    H511919   1.583   0.357   8.748  0.9404 -0.2377  1.6981
  809MPD2    N111920   2.089   0.476   8.517  0.2886  0.0769  0.1573
  809MPD2    H711921   2.097   0.561   8.571  3.0187  0.0430 -0.1890
  810MPD2     C11922   1.377   4.337   9.762  0.1675  0.6063  0.1587
  810MPD2    C111923   1.341   4.209   9.798  0.8092  0.0265  1.0477
  810MPD2    C211924   1.384   4.162   9.917  0.9758  0.4607  0.2998
  810MPD2    C311925   1.464   4.232   9.999  0.4709  0.5542  0.5489
  810MPD2    C411926   1.523   4.350   9.955  0.0010  0.2075  0.0769
  810MPD2    C511927   1.465   4.406   9.842 -0.2053  0.4455 -0.2165
  810MPD2     H11928   1.358   4.059   9.939 -0.6012  0.8164  0.1518
  810MPD2    H111929   1.584   4.415  10.017  2.3663 -1.2494 -0.7547
  810MPD2    H211930   1.357   4.381   9.664  1.3626  1.3009  0.2327
  810MPD2    H311931   1.493   4.506   9.809  1.9986 -0.0415  0.1398
  810MPD2     N11932   1.492   4.170  10.122  0.0645 -0.0433  0.2673
  810MPD2    H511933   1.435   4.088  10.143  1.4175 -0.7826  1.0106
  810MPD2    N111934   1.235   4.142   9.731 -0.2517  0.4607  0.4283
  810MPD2    H711935   1.182   4.204   9.670  0.4363  2.3636  1.7317
  811MPD2     C11936   0.435   4.117   9.504  0.1559  0.4154  0.7219
  811MPD2    C111937   0.542   4.193   9.545  0.2906 -0.0528 -0.4269
  811MPD2    C211938   0.536   4.336   9.528  0.0233 -0.3177 -0.0298
  811MPD2    C311939   0.414   4.393   9.486  1.0066 -0.1913  0.4373
  811MPD2    C411940   0.307   4.310   9.460 -0.4481 -1.1520 -0.6549
  811MPD2    C511941   0.318   4.175   9.467 -0.7258 -0.5239  0.6084
  811MPD2     H11942   0.617   4.400   9.560  0.1819 -0.4455 -0.1777
  811MPD2    H111943   0.218   4.357   9.419 -1.3384  0.1367  2.8104
  811MPD2    H211944   0.429   4.009   9.507  0.3216  0.3700 -0.6283
  811MPD2    H311945   0.225   4.119   9.463  0.1506 -1.9693  0.4761
  811MPD2     N11946   0.404   4.539   9.481 -0.1628  0.0436  0.2809
  811MPD2    H511947   0.489   4.595   9.485 -1.2612  1.7504 -0.3790
  811MPD2    N111948   0.652   4.119   9.589 -0.3173  0.3834 -0.2443
  811MPD2    H711949   0.645   4.017   9.584 -0.2003  0.2330  2.6180
  812MPD2     C11950   3.739   3.963  12.307 -0.3606  0.9796  0.0002
  812MPD2    C111951   3.849   3.923  12.239 -0.0493  0.1033  0.0595
  812MPD2    C211952   3.919   3.819  12.293 -0.6787  0.7601  0.8280
  812MPD2    C311953   3.877   3.758  12.409 -0.5473  0.6631  0.5906
  812MPD2    C411954   3.765   3.796  12.471 -0.5661 -0.5002 -0.3192
  812MPD2    C511955   3.694   3.898  12.421  0.2325  0.2596 -0.0773
  812MPD2     H11956   4.007   3.779  12.244 -0.9100 -0.3577  1.3186
  812MPD2    H111957   3.717   3.752  12.558 -0.2958 -1.5263 -0.6830
  812MPD2    H211958   3.680   4.050  12.280  1.0104  1.2981 -2.0421
  812MPD2    H311959   3.602   3.932  12.467  0.5538  2.3341 -0.9689
  812MPD2     N11960   3.963   3.656  12.454  0.5261  0.4454  0.2149
  812MPD2    H511961   4.054   3.645  12.411 -0.1976 -3.2797 -0.3959
  812MPD2    N111962   3.890   3.988  12.116  0.2304  0.0622  0.4400
  812MPD2    H711963   3.833   4.068  12.091 -0.1575  0.0043  1.1120
  813MPD2     C11964   3.705   0.991  12.370 -0.1541  0.3291 -0.4780
  813MPD2    C111965   3.663   1.119  12.360  0.1364 -0.2654 -1.6916
  813MPD2    C211966   3.570   1.166  12.444 -0.4636 -0.3194 -0.0964
  813MPD2    C311967   3.514   1.095  12.552 -0.0357  0.3775 -0.0720
  813MPD2    C411968   3.566   0.967  12.562 -0.1264  0.4360  0.2495
  813MPD2    C511969   3.653   0.914  12.474  0.4155 -0.2137 -0.3366
  813MPD2     H11970   3.537   1.269  12.436 -1.3669 -0.6695 -0.7561
  813MPD2    H111971   3.538   0.893  12.637 -3.2822  2.0541  0.6367
  813MPD2    H211972   3.779   0.955  12.300 -1.0487 -0.6698 -0.9142
  813MPD2    H311973   3.695   0.816  12.495 -1.0672 -1.2422 -2.1998
  813MPD2     N11974   3.411   1.149  12.637  0.6209  0.4595  0.4867
  813MPD2    H511975   3.386   1.248  12.630  0.2268  0.2881 -0.6231
  813MPD2    N111976   3.726   1.194  12.261 -0.3195  0.4082  0.2127
  813MPD2    H711977   3.800   1.141  12.215 -0.7024 -0.0311  0.1063
  814MPD2     C11978   4.319   2.680  11.917  0.0373  0.1130 -0.9590
  814MPD2    C111979   4.285   2.746  11.806  0.3224  0.8869 -1.0672
  814MPD2    C211980   4.341   2.877  11.790  0.0304  0.2361 -0.4434
  814MPD2    C311981   4.435   2.932  11.876  0.1251 -0.0670  0.2839
  814MPD2    C411982   4.469   2.867  11.992  0.2307 -0.0623  0.1106
  814MPD2    C511983   4.407   2.745  12.014 -0.2025  0.0763  0.8055
  814MPD2     H11984   4.321   2.932  11.698  0.3527  0.2552 -0.5029
  814MPD2    H111985   4.539   2.903  12.067  0.0858 -2.4971  1.4178
  814MPD2    H211986   4.283   2.579  11.932 -0.6199  0.5294  0.3224
  814MPD2    H311987   4.432   2.698  12.109  1.8959  0.7922  0.6147
  814MPD2     N11988   4.505   3.056  11.852 -0.1860  0.1054  0.0541
  814MPD2    H511989   4.567   3.096  11.922 -2.2898  2.8968  0.3288
  814MPD2    N111990   4.210   2.692  11.701 -0.0389  0.4911 -0.1948
  814MPD2    H711991   4.188   2.749  11.620 -0.6626  1.6579  0.7929
  815MPD2     C11992   0.232   0.216  11.904  0.1475 -0.7279 -0.2869
  815MPD2    C111993   0.177   0.265  11.789  1.2818  0.3127  0.0422
  815MPD2    C211994   0.045   0.236  11.769  0.0152 -0.2258  0.0832
  815MPD2    C311995   4.694   0.136  11.844 -1.0650 -0.9641  0.5933
  815MPD2    C411996   0.040   0.065  11.944  0.1656 -0.8891 -0.2532
  815MPD2    C511997   0.169   0.118  11.972  0.6461  0.4928 -0.0989
  815MPD2     H11998   0.007   0.285  11.680 -0.1301  0.2485  0.4094
  815MPD2    H111999   0.001   4.704  12.002 -1.1237  0.6273  1.0563
  815MPD2    H212000   0.332   0.251  11.926 -0.6687 -0.4597  3.0835
  815MPD2    H312001   0.211   0.081  12.065  0.1054 -0.6055 -0.2902
  815MPD2     N12002   4.554   0.109  11.803  0.2790 -0.3494  0.4215
  815MPD2    H512003   4.531   0.155  11.716 -2.5612 -0.6744  1.0033
  815MPD2    N112004   0.254   0.346  11.710 -0.1990 -0.7304 -0.7774
  815MPD2    H712005   0.355   0.349  11.726 -0.6259  2.0478  1.2744
  816MPD2     C12006   4.373   4.395  16.973 -0.4073 -0.3412 -0.0077
  816MPD2    C112007   4.468   4.493  16.999 -0.3143  0.2336  0.1955
  816MPD2    C212008   4.589   4.485  16.932 -0.3910 -0.2208 -0.7043
  816MPD2    C312009   4.626   4.380  16.857 -0.1829  0.4060 -0.3104
  816MPD2    C412010   4.536   4.278  16.847 -0.2662  0.0931 -0.2851
  816MPD2    C512011   4.412   4.283  16.900 -0.8462  0.0299  0.6409
  816MPD2     H12012   4.661   4.565  16.948  2.4594 -3.4589  2.6905
  816MPD2    H112013   4.560   4.189  16.790 -0.2244  1.0824 -1.8035
  816MPD2    H212014   4.275   4.377  17.018 -0.5835 -2.6276 -1.3219
  816MPD2    H312015   4.352   4.194  16.892 -0.8604 -0.0150  1.2613
  816MPD2     N12016   0.025   4.387  16.778 -0.2134  0.3413 -0.1814
  816MPD2    H512017   0.080   4.471  16.791  1.5222 -0.8688  0.2503
  816MPD2    N112018   4.435   4.584  17.096  0.5639 -0.0812  0.3352
  816MPD2    H712019   4.342   4.577  17.137 -0.3202  0.2028 -1.6128
  817MPD2     C12020   4.119   1.787   9.581  0.4609 -0.1762 -0.4432
  817MPD2    C112021   4.238   1.852   9.565 -0.7521  0.1289  0.8527
  817MPD2    C212022   4.226   1.988   9.534  0.3362  0.3668  0.1952
  817MPD2    C312023   4.105   2.053   9.513 -0.3584  0.6419 -0.3365
  817MPD2    C412024   3.990   1.985   9.537  1.2072 -0.0474 -0.0847
  817MPD2    C512025   3.998   1.850   9.574 -0.0938 -0.9096 -0.4533
  817MPD2     H12026   4.318   2.042   9.511 -0.7632  2.5826  0.9697
  817MPD2    H112027   3.894   2.032   9.522  1.5829  1.0503  0.9837
  817MPD2    H212028   4.109   1.680   9.598 -2.7800  0.5912  2.5148
  817MPD2    H312029   3.908   1.793   9.596 -1.1416  1.3041  0.9263
  817MPD2     N12030   4.113   2.188   9.465 -0.0305 -0.2350  0.4749
  817MPD2    H512031   4.204   2.223   9.441 -0.7311  0.0300 -1.7798
  817MPD2    N112032   4.368   1.799   9.584  0.5844 -0.3762  0.2795
  817MPD2    H712033   4.449   1.846   9.545 -1.0829  1.3392 -1.1079
  818MPD2     C12034   3.436   1.769   9.854  0.4969  0.5596 -0.0068
  818MPD2    C112035   3.380   1.649   9.885  0.5907 -0.9621 -0.1300
  818MPD2    C212036   3.434   1.531   9.835 -0.0456 -0.8667  0.4532
  818MPD2    C312037   3.545   1.529   9.763 -0.1655 -0.0655 -0.0885
  818MPD2    C412038   3.599   1.648   9.724 -0.0899  0.1102 -0.7818
  818MPD2    C512039   3.548   1.770   9.767  0.0997  0.3115 -0.4119
  818MPD2     H12040   3.399   1.435   9.871 -2.0430  0.2812  1.5427
  818MPD2    H112041   3.692   1.653   9.667  0.8373  0.4971  0.7830
  818MPD2    H212042   3.391   1.865   9.879 -2.9262 -0.1956 -3.1535
  818MPD2    H312043   3.594   1.855   9.719 -1.0813  0.2968 -1.5973
  818MPD2     N12044   3.613   1.410   9.713  0.2352 -0.4549 -0.1052
  818MPD2    H512045   3.679   1.430   9.639  0.5631 -0.7240  0.1132
  818MPD2    N112046   3.274   1.637   9.977  0.1842 -0.8412 -0.2158
  818MPD2    H712047   3.246   1.543  10.005 -3.1024  0.8593  2.2395
  819MPD2     C12048   1.642   3.229  15.283 -0.2376 -0.4062 -0.6793
  819MPD2    C112049   1.559   3.131  15.341  0.2629  0.3751  0.1459
  819MPD2    C212050   1.604   3.066  15.450  0.0827  0.8155  0.2129
  819MPD2    C312051   1.725   3.097  15.515 -0.2498  0.4240 -0.5063
  819MPD2    C412052   1.804   3.198  15.462  0.2878 -0.0959  0.1951
  819MPD2    C512053   1.762   3.262  15.348  0.6594 -0.1196 -0.0076
  819MPD2     H12054   1.563   2.974  15.487 -0.5301  1.3824  0.9390
  819MPD2    H112055   1.901   3.224  15.503  1.4878 -1.5370 -1.6912
  819MPD2    H212056   1.621   3.287  15.194 -1.1768  0.3558  0.0366
  819MPD2    H312057   1.835   3.335  15.315  2.2354 -1.2205  1.0461
  819MPD2     N12058   1.754   3.020  15.629  0.3948  0.0318 -0.3911
  819MPD2    H512059   1.703   2.932  15.637  2.4250 -1.1072 -0.0052
  819MPD2    N112060   1.442   3.108  15.273  0.0687  0.0340 -0.2615
  819MPD2    H712061   1.428   3.131  15.175 -0.5050 -0.5704 -0.3195
  820MPD2     C12062   0.897   3.057  14.525  0.4612 -0.4949 -0.1289
  820MPD2    C112063   0.843   3.156  14.604  0.1185 -0.2866  1.1150
  820MPD2    C212064   0.896   3.167  14.728 -0.0279 -0.1071  0.4279
  820MPD2    C312065   0.989   3.078  14.782 -0.0147 -0.0766 -0.1186
  820MPD2    C412066   1.038   2.982  14.696  0.3900 -0.1751  0.3277
  820MPD2    C512067   0.988   2.970  14.570 -0.2559  0.4730  0.3676
  820MPD2     H12068   0.874   3.252  14.792 -0.9351  0.0404 -0.0892
  820MPD2    H112069   1.115   2.913  14.728 -0.2993 -0.7901  0.6461
  820MPD2    H212070   0.867   3.054  14.421  0.1148  0.2219 -0.0499
  820MPD2    H312071   1.029   2.897  14.501  1.2792  0.9887  0.7373
  820MPD2     N12072   1.051   3.091  14.904 -0.6454 -0.3639 -0.9437
  820MPD2    H512073   1.118   3.020  14.931 -1.1609 -0.1323  0.9638
  820MPD2    N112074   0.736   3.237  14.556  0.2289 -0.0269 -0.0451
  820MPD2    H712075   0.694   3.207  14.469  0.1574 -0.5378  0.1682
  821MPD2     C12076   1.303   4.592  12.857  0.0274 -0.0308  0.5192
  821MPD2    C112077   1.419   4.532  12.903  0.2563  0.5331 -0.0094
  821MPD2    C212078   1.539   4.572  12.850 -0.1676  0.4714 -0.5866
  821MPD2    C312079   1.555   4.664  12.752 -0.4494  0.6728  0.5122
  821MPD2    C412080   1.440   0.007  12.711 -0.4622 -0.4850 -0.3087
  821MPD2    C512081   1.319   4.691  12.767  0.2721  0.4686 -0.5262
  821MPD2     H12082   1.631   4.539  12.896  0.4145  1.7760 -0.8227
  821MPD2    H112083   1.447   0.074  12.626  1.3936 -1.4008 -0.8776
  821MPD2    H212084   1.203   4.577  12.896  0.3872  0.3770  1.5977
  821MPD2    H312085   1.225   0.012  12.734 -0.1034 -1.5914 -2.0814
  821MPD2     N12086   1.678   4.717  12.700 -0.2304 -0.1735  0.3123
  821MPD2    H512087   1.667   0.076  12.640  2.1283  0.0054  0.0965
  821MPD2    N112088   1.429   4.434  13.012  1.5405  0.0170  0.6575
  821MPD2    H712089   1.521   4.398  13.034  1.1420 -1.9706 -1.0603
  822MPD2     C12090   2.175   4.333  15.458 -0.2473  0.3416  0.0065
  822MPD2    C112091   2.175   4.328  15.588 -0.1919  0.4172 -0.0115
  822MPD2    C212092   2.107   4.426  15.652 -0.5553 -0.6593 -0.0148
  822MPD2    C312093   2.031   4.529  15.590  0.1459  0.2143  0.0945
  822MPD2    C412094   2.016   4.520  15.454 -0.3681 -0.7239 -0.2063
  822MPD2    C512095   2.099   4.428  15.385 -0.0538  0.4316  0.5585
  822MPD2     H12096   2.103   4.421  15.760  1.1892  0.0592  0.0874
  822MPD2    H112097   1.958   4.597  15.405  2.2861  0.5622 -1.3430
  822MPD2    H212098   2.240   4.262  15.409 -0.8322  1.9236 -2.9985
  822MPD2    H312099   2.097   4.420  15.277 -1.7435 -1.0693  0.6971
  822MPD2     N12100   1.945   4.610  15.684  0.0596  0.2029  0.2780
  822MPD2    H512101   1.972   4.602  15.782 -0.7161  0.1276  0.4867
  822MPD2    N112102   2.236   4.223  15.662 -0.1101  0.4722 -0.6859
  822MPD2    H712103   2.225   4.234  15.762 -1.0605  1.1658 -0.8673
  823MPD2     C12104   1.661   0.105  16.453  0.2977  0.0686  0.5597
  823MPD2    C112105   1.689   0.017  16.343  0.1926  0.2827  0.0334
  823MPD2    C212106   1.743   4.616  16.387 -0.3117  0.1789 -0.7161
  823MPD2    C312107   1.747   4.575  16.516  0.3748 -0.1880 -0.3074
  823MPD2    C412108   1.685   4.654  16.613 -0.3733  0.0705  0.4825
  823MPD2    C512109   1.660   0.059  16.583 -0.4320  0.3278  0.1076
  823MPD2     H12110   1.788   4.554  16.310 -0.8808 -0.8956 -0.1831
  823MPD2    H112111   1.681   4.628  16.719 -1.5071  1.0315  0.6729
  823MPD2    H212112   1.623   0.206  16.443  1.0157  0.1951 -0.9444
  823MPD2    H312113   1.636   0.123  16.668 -2.6609 -0.7206  0.2670
  823MPD2     N12114   1.806   4.455  16.559 -0.6104  0.6635 -0.0605
  823MPD2    H512115   1.799   4.444  16.660  3.8182 -3.8933 -0.2788
  823MPD2    N112116   1.690   0.068  16.210  0.6107 -0.1386 -0.5337
  823MPD2    H712117   1.656   0.163  16.198 -1.8410 -1.2247 -2.5177
  824MPD2     C12118   2.477   3.376  15.708 -0.0424 -0.1054  0.2666
  824MPD2    C112119   2.553   3.480  15.665 -0.0070 -0.2478  0.1227
  824MPD2    C212120   2.672   3.453  15.603  0.1823  0.3112 -0.4909
  824MPD2    C312121   2.712   3.318  15.580  0.2510  0.1242  0.3472
  824MPD2    C412122   2.629   3.213  15.623 -0.4737 -0.2158 -0.0858
  824MPD2    C512123   2.517   3.242  15.695  0.1570  0.0230  0.5390
  824MPD2     H12124   2.739   3.532  15.570  1.7909 -0.7686  0.1949
  824MPD2    H112125   2.655   3.108  15.613  3.1234  0.5010  1.8651
  824MPD2    H212126   2.382   3.394  15.758  0.6600 -2.3815  2.4055
  824MPD2    H312127   2.459   3.159  15.734  1.2197 -0.9031  0.1338
  824MPD2     N12128   2.846   3.293  15.527 -0.6714  0.0379 -0.2174
  824MPD2    H512129   2.908   3.374  15.519 -1.4212  0.7382  1.1675
  824MPD2    N112130   2.516   3.615  15.674 -0.6570  0.2356 -0.1691
  824MPD2    H712131   2.580   3.683  15.633 -1.6989  0.8158 -0.8228
  825MPD2     C12132   3.536   3.397  15.001  0.4998 -0.3047  0.0883
  825MPD2    C112133   3.413   3.429  15.049 -0.3527 -0.2915  0.7753
  825MPD2    C212134   3.348   3.546  14.998 -0.5371 -0.0761  0.0905
  825MPD2    C312135   3.415   3.623  14.912  0.2785 -0.2161 -0.5779
  825MPD2    C412136   3.545   3.588  14.872 -0.0138  0.5393  0.9556
  825MPD2    C512137   3.598   3.475  14.911  0.3997 -0.0495 -0.4618
  825MPD2     H12138   3.245   3.570  15.021 -0.6311 -0.6165  0.2363
  825MPD2    H112139   3.601   3.663  14.817 -0.6669  0.8809  0.7486
  825MPD2    H212140   3.589   3.316  15.049  0.7926 -0.4088 -0.4165
  825MPD2    H312141   3.701   3.461  14.880 -0.0589 -3.0270 -0.6398
  825MPD2     N12142   3.361   3.752  14.864  0.1379  0.0768 -0.2977
  825MPD2    H512143   3.412   3.793  14.787 -0.1389  1.4355  0.2384
  825MPD2    N112144   3.352   3.342  15.146  0.1759  0.1486 -0.2356
  825MPD2    H712145   3.388   3.247  15.157  0.6081  0.5460  1.8920
  826MPD2     C12146   3.158   3.664  13.595  0.0009  0.1471  0.3784
  826MPD2    C112147   3.205   3.706  13.475 -0.2567 -0.9875  0.4633
  826MPD2    C212148   3.140   3.813  13.412  0.2101 -0.2987  0.4011
  826MPD2    C312149   3.030   3.879  13.469  0.2550 -0.0212 -0.9142
  826MPD2    C412150   2.989   3.826  13.584 -0.3031  1.4221 -0.4643
  826MPD2    C512151   3.060   3.735  13.653  0.2848 -0.4419  0.5429
  826MPD2     H12152   3.170   3.852  13.315  0.3017 -1.9972 -0.2514
  826MPD2    H112153   2.904   3.865  13.639 -0.7504 -0.0383 -0.0974
  826MPD2    H212154   3.206   3.585  13.650 -0.5571  0.9560  2.0244
  826MPD2    H312155   3.023   3.707  13.751  0.0336 -0.4226  0.4541
  826MPD2     N12156   2.956   3.985  13.415  0.0176  0.2973 -0.1016
  826MPD2    H512157   2.875   4.018  13.466  1.3271  1.6422  1.1282
  826MPD2    N112158   3.304   3.625  13.413  0.6271  0.1224  0.1714
  826MPD2    H712159   3.347   3.550  13.467 -1.0968 -0.2275  1.0504
  827MPD2     C12160   3.618   0.090   9.834 -0.6071 -0.4857 -0.1272
  827MPD2    C112161   3.525   0.163   9.903  0.7948 -0.0852  0.0647
  827MPD2    C212162   3.395   0.148   9.854 -0.3021 -0.5839 -0.0748
  827MPD2    C312163   3.366   0.090   9.731  0.5570  0.1190  0.3198
  827MPD2    C412164   3.465   0.017   9.667  0.2595 -0.0556 -0.0590
  827MPD2    C512165   3.589   0.011   9.729 -0.2169 -0.0225 -0.4113
  827MPD2     H12166   3.312   0.204   9.897  0.5834  1.6829 -1.3102
  827MPD2    H112167   3.445   4.670   9.585 -0.7163  1.5995 -1.1930
  827MPD2    H212168   3.722   0.080   9.863 -0.1269  1.1766 -1.2715
  827MPD2    H312169   3.658   4.657   9.693 -0.0878  0.6087 -1.4902
  827MPD2     N12170   3.236   0.097   9.687 -0.6356 -0.0094  0.3241
  827MPD2    H512171   3.160   0.132   9.744 -1.1509  2.1437 -1.6773
  827MPD2    N112172   3.557   0.231  10.020  0.0091 -0.4396  0.0389
  827MPD2    H712173   3.656   0.236  10.045  0.2346  0.9202 -1.1445
  828MPD2     C12174   2.060   4.650  12.311  0.3980  0.1307 -0.5510
  828MPD2    C112175   2.024   4.644  12.176  0.1721  0.2263 -0.4598
  828MPD2    C212176   2.121   4.613  12.084 -0.2192 -0.2170  0.2124
  828MPD2    C312177   2.250   4.587  12.118  0.2332 -0.0511 -0.6601
  828MPD2    C412178   2.292   4.606  12.251  0.2142 -0.1923  0.0856
  828MPD2    C512179   2.196   4.629  12.348 -0.4540 -0.4948  0.5207
  828MPD2     H12180   2.086   4.614  11.982  1.2648  0.6474 -0.2727
  828MPD2    H112181   2.395   4.596  12.281  0.2146 -2.7124 -0.6781
  828MPD2    H212182   1.994   4.681  12.391 -0.2026 -0.4562 -0.8130
  828MPD2    H312183   2.215   4.636  12.455 -1.3947 -0.1269  0.6601
  828MPD2     N12184   2.347   4.542  12.029 -0.0959  0.4873 -0.5116
  828MPD2    H512185   2.442   4.525  12.060 -0.6923  0.0830  1.1260
  828MPD2    N112186   1.894   4.653  12.119  0.1544 -0.1536  0.6380
  828MPD2    H712187   1.886   4.661  12.019 -1.4592  0.3788  0.7950
  829MPD2     C12188   1.656   4.331  11.421 -0.5877  0.0765 -0.0820
  829MPD2    C112189   1.548   4.416  11.452  0.3588 -0.1196 -0.1557
  829MPD2    C212190   1.526   4.447  11.584  0.7366 -0.1396  0.4727
  829MPD2    C312191   1.594   4.395  11.689  0.9309  0.3072  0.0842
  829MPD2    C412192   1.704   4.314  11.659  0.7220 -0.0922 -0.3258
  829MPD2    C512193   1.730   4.287  11.526  0.8859  0.1175 -0.3708
  829MPD2     H12194   1.449   4.521  11.608  0.3850  0.6427 -3.0779
  829MPD2    H112195   1.762   4.273  11.740  3.5276  1.1798 -1.6993
  829MPD2    H212196   1.667   4.300  11.318  0.5436  1.6590 -0.4383
  829MPD2    H312197   1.812   4.219  11.505  0.3663 -0.0190 -1.9573
  829MPD2     N12198   1.583   4.438  11.825 -0.8053 -0.4541 -0.8292
  829MPD2    H512199   1.645   4.398  11.894  1.3545  0.6887 -2.1194
  829MPD2    N112200   1.476   4.457  11.338 -0.0533 -0.6881 -0.5939
  829MPD2    H712201   1.509   4.412  11.253  0.3404  0.5224 -1.0925
  830MPD2     C12202   2.515   2.711  15.743 -0.2230  0.7062  0.2141
  830MPD2    C112203   2.408   2.741  15.657  1.0760 -0.1153 -0.0460
  830MPD2    C212204   2.431   2.799  15.535  0.3490  0.1449  0.2349
  830MPD2    C312205   2.560   2.835  15.496 -0.3190  0.7082 -0.0709
  830MPD2    C412206   2.664   2.810  15.580 -0.0463  0.4488 -0.5042
  830MPD2    C512207   2.642   2.748  15.700  0.0651  0.8199 -0.4156
  830MPD2     H12208   2.349   2.811  15.465  1.3291 -1.4923 -1.2192
  830MPD2    H112209   2.766   2.819  15.544  0.2342  1.3946  0.5084
  830MPD2    H212210   2.511   2.654  15.835 -1.1050  0.5374  0.0683
  830MPD2    H312211   2.732   2.721  15.755 -1.3387 -0.9456  1.0663
  830MPD2     N12212   2.583   2.912  15.373 -0.2055  0.5363  0.1970
  830MPD2    H512213   2.677   2.949  15.364 -0.0621  0.0561 -0.2514
  830MPD2    N112214   2.280   2.696  15.702 -0.2975 -0.0941  0.2168
  830MPD2    H712215   2.282   2.675  15.801 -0.5221  0.5992  0.3682
  831MPD2     C12216   2.211   0.016  15.974  0.2767 -0.9942 -0.4288
  831MPD2    C112217   2.257   4.620  15.920  0.6043  0.1527  0.1417
  831MPD2    C212218   2.196   4.501  15.968  0.6203 -0.3115  0.8162
  831MPD2    C312219   2.082   4.498  16.049  0.4913 -0.1575  0.7984
  831MPD2    C412220   2.056   4.617  16.116 -0.2540 -0.1711  0.7191
  831MPD2    C512221   2.121   0.011  16.077  0.2573 -0.2860 -0.1968
  831MPD2     H12222   2.219   4.409  15.915 -0.0638  1.6689 -2.9484
  831MPD2    H112223   1.981   4.620  16.194  0.3261  0.7123  1.2428
  831MPD2    H212224   2.257   0.109  15.941 -0.6742 -0.4465 -0.2114
  831MPD2    H312225   2.096   0.109  16.117 -0.9812 -0.2253 -1.1320
  831MPD2     N12226   2.001   4.383  16.062 -0.1906 -0.4293 -0.6499
  831MPD2    H512227   1.916   4.403  16.113  2.0110  0.7128  2.6465
  831MPD2    N112228   2.356   4.617  15.820 -0.4494  0.4981 -0.1959
  831MPD2    H712229   2.381   4.709  15.785 -0.3890  0.5484 -0.0233
  832MPD2     C12230   0.769   0.378  16.798  0.1062  0.3395 -0.1007
  832MPD2    C112231   0.730   0.502  16.848 -0.9827  0.6903  0.5369
  832MPD2    C212232   0.618   0.564  16.793  0.9408  0.0311 -0.2322
  832MPD2    C312233   0.530   0.497  16.703  0.0158  0.4960 -0.5700
  832MPD2    C412234   0.574   0.374  16.655 -1.2653  0.6474  0.2058
  832MPD2    C512235   0.687   0.324  16.704  0.3294  0.2768  0.5565
  832MPD2     H12236   0.591   0.661  16.832 -0.8864 -0.1630 -1.0363
  832MPD2    H112237   0.518   0.316  16.584 -1.0975  1.6027 -0.7027
  832MPD2    H212238   0.847   0.315  16.837  0.5679  1.5249  0.8679
  832MPD2    H312239   0.713   0.228  16.661 -0.7596 -0.1904  0.9480
  832MPD2     N12240   0.407   0.557  16.670 -0.1099 -0.3008 -0.3357
  832MPD2    H512241   0.354   0.513  16.595 -0.7396  0.6087 -0.4206
  832MPD2    N112242   0.803   0.557  16.956  0.3670 -0.4311  0.3762
  832MPD2    H712243   0.862   0.487  16.999  0.7406  0.0241  0.6023
  833MPD2     C12244   2.652   2.673  12.737 -0.4036 -0.0376 -0.5681
  833MPD2    C112245   2.726   2.770  12.669  0.1037  0.1519  0.0601
  833MPD2    C212246   2.847   2.738  12.606 -0.0492  0.1151  0.1080
  833MPD2    C312247   2.899   2.611  12.610 -0.3937 -0.4238 -0.2213
  833MPD2    C412248   2.825   2.517  12.675  0.1672 -0.8274  0.2609
  833MPD2    C512249   2.705   2.548  12.730 -0.0979  0.2800  0.2222
  833MPD2     H12250   2.904   2.815  12.555 -0.1631 -0.6297 -1.1537
  833MPD2    H112251   2.862   2.416  12.656  1.0617 -0.4410 -0.0559
  833MPD2    H212252   2.550   2.695  12.764 -1.0904 -0.6974 -2.6701
  833MPD2    H312253   2.650   2.466  12.775  0.1311 -0.0738 -0.1433
  833MPD2     N12254   3.011   2.576  12.533  0.3999  0.4349 -1.0509
  833MPD2    H512255   3.009   2.478  12.509  0.5138  0.7633 -2.3764
  833MPD2    N112256   2.648   2.889  12.637 -0.5563 -0.2653  0.0750
  833MPD2    H712257   2.549   2.883  12.655 -0.5117  1.0963  0.7697
  834MPD2     C12258   3.088   1.911  11.874  0.0047 -0.8716 -0.1682
  834MPD2    C112259   3.102   2.019  11.789  0.2703  0.1242  0.1050
  834MPD2    C212260   3.132   2.141  11.846 -0.5610 -0.0374 -0.0154
  834MPD2    C312261   3.123   2.150  11.984  0.0621 -0.3107 -0.1931
  834MPD2    C412262   3.104   2.043  12.065  0.6297  0.2039  1.0308
  834MPD2    C512263   3.095   1.921  12.007  0.1458 -0.1318 -0.9802
  834MPD2     H12264   3.152   2.230  11.787  0.0717 -0.9988 -1.2597
  834MPD2    H112265   3.100   2.046  12.173  0.1834  0.8132  0.9995
  834MPD2    H212266   3.079   1.812  11.831  0.3557 -1.1862  0.4778
  834MPD2    H312267   3.096   1.829  12.065 -1.5252  1.0762  0.9331
  834MPD2     N12268   3.133   2.284  12.028 -0.5921  0.1384  0.0249
  834MPD2    H512269   3.187   2.354  11.979 -0.8311 -0.3568 -0.9469
  834MPD2    N112270   3.081   1.995  11.650  0.6974  0.2820 -0.5535
  834MPD2    H712271   3.042   1.904  11.628  1.9304 -0.2118 -0.6959
  835MPD2     C12272   2.603   0.166  10.586 -0.2980 -0.2153 -0.0033
  835MPD2    C112273   2.467   0.140  10.581  0.1240  0.8557 -0.1084
  835MPD2    C212274   2.414   0.059  10.678 -0.3181  0.2654 -0.3711
  835MPD2    C312275   2.492   4.720  10.773 -0.5468 -0.2321  0.8430
  835MPD2    C412276   2.626   0.028  10.775 -0.0556 -0.9249 -0.3690
  835MPD2    C512277   2.683   0.105  10.682  0.0371 -0.0475  0.0527
  835MPD2     H12278   2.309   0.034  10.674 -0.4873  1.0322 -0.7315
  835MPD2    H112279   2.699   0.001  10.850 -1.3283 -1.9864  0.4977
  835MPD2    H212280   2.657   0.218  10.507  0.1779  1.7809  1.6381
  835MPD2    H312281   2.790   0.126  10.682  0.2591 -1.1671  0.6893
  835MPD2     N12282   2.442   4.629  10.874 -0.1792 -0.9484 -0.1133
  835MPD2    H512283   2.514   4.578  10.923  0.5422 -1.2926 -1.5445
  835MPD2    N112284   2.388   0.195  10.476 -0.1622 -0.1839  0.3793
  835MPD2    H712285   2.293   0.165  10.457  0.0081 -1.5580  1.7117
  836MPD2     C12286   1.759   4.706  11.021  0.1529 -0.3645 -0.1144
  836MPD2    C112287   1.805   4.622  11.122 -0.8203 -0.0552 -0.7572
  836MPD2    C212288   1.766   4.642  11.252 -0.1271  0.9034  0.2350
  836MPD2    C312289   1.674   0.025  11.277  0.3878 -0.1510  0.9666
  836MPD2    C412290   1.610   0.089  11.172 -0.2412  1.0718  0.1912
  836MPD2    C512291   1.657   0.067  11.043  0.4052 -0.3732  0.2505
  836MPD2     H12292   1.807   4.591  11.338  0.5673  1.4137  0.2163
  836MPD2    H112293   1.531   0.162  11.190 -1.4781 -0.3090  0.3867
  836MPD2    H212294   1.801   4.695  10.922 -0.5389  1.0270 -0.5621
  836MPD2    H312295   1.619   0.119  10.956 -0.2387 -1.4237 -0.0885
  836MPD2     N12296   1.642   0.068  11.409 -0.2999 -0.6902 -0.7507
  836MPD2    H512297   1.575   0.144  11.413  0.0063 -0.4373 -0.4735
  836MPD2    N112298   1.913   4.532  11.088 -0.3184 -0.2946  0.1793
  836MPD2    H712299   1.955   4.528  10.996  0.8754  1.2198  0.6616
  837MPD2     C12300   0.734   0.450   9.597  0.0491  0.3652  0.5825
  837MPD2    C112301   0.652   0.494   9.499  0.2359 -0.0857 -0.7599
  837MPD2    C212302   0.620   0.626   9.486  0.0731  0.5372  0.3471
  837MPD2    C312303   0.675   0.714   9.573  0.7594  0.6372 -0.6861
  837MPD2    C412304   0.767   0.675   9.668 -0.4624 -0.5109  0.5767
  837MPD2    C512305   0.810   0.548   9.664 -0.1676  0.6538  0.5238
  837MPD2     H12306   0.546   0.654   9.411  1.3784 -3.9430 -2.5676
  837MPD2    H112307   0.822   0.747   9.728  0.0776 -1.1288  0.8289
  837MPD2    H212308   0.772   0.349   9.603 -0.1275  0.2575 -0.1536
  837MPD2    H312309   0.897   0.525   9.723 -1.8683  1.0055  3.1855
  837MPD2     N12310   0.628   0.845   9.557 -0.4268  0.4296  0.6807
  837MPD2    H512311   0.586   0.868   9.467  0.9617 -1.1795 -0.3756
  837MPD2    N112312   0.568   0.407   9.424  0.3594  0.0100  0.0426
  837MPD2    H712313   0.504   0.453   9.360 -0.5970 -0.4547  0.6814
  838MPD2     C12314   3.724   3.609  11.558  0.3107 -0.2533 -0.2081
  838MPD2    C112315   3.755   3.477  11.595 -0.1289 -0.0777  0.8049
  838MPD2    C212316   3.683   3.425  11.700  0.0168 -0.4017  0.1166
  838MPD2    C312317   3.590   3.497  11.772  0.6032  0.7301  1.2188
  838MPD2    C412318   3.571   3.627  11.734 -0.6524 -0.0734  0.1457
  838MPD2    C512319   3.629   3.675  11.620  0.8122  0.1259 -0.0065
  838MPD2     H12320   3.696   3.321  11.727  1.4353  0.0748  1.2366
  838MPD2    H112321   3.496   3.685  11.786  1.7736  1.9122  1.4474
  838MPD2    H212322   3.784   3.659  11.483  0.2517  0.4519  0.2072
  838MPD2    H312323   3.607   3.773  11.579  1.1424 -0.2215 -1.0364
  838MPD2     N12324   3.517   3.429  11.871  0.3177  0.2345  0.1146
  838MPD2    H512325   3.530   3.328  11.868 -0.8008  0.0527  1.4286
  838MPD2    N112326   3.853   3.402  11.537  0.2657 -0.5488 -0.8876
  838MPD2    H712327   3.858   3.308  11.575 -2.8569 -0.2323  0.2529
  839MPD2     C12328   3.426   2.727  11.347  0.0389 -0.7816 -0.6248
  839MPD2    C112329   3.548   2.682  11.295  0.9265 -0.6859 -0.2403
  839MPD2    C212330   3.649   2.771  11.279 -0.0451 -0.0383 -0.0858
  839MPD2    C312331   3.633   2.905  11.324  0.4693 -0.7034 -0.2090
  839MPD2    C412332   3.512   2.951  11.374 -0.1764  0.2446 -0.2609
  839MPD2    C512333   3.415   2.857  11.401 -0.4890  0.3245  0.2701
  839MPD2     H12334   3.739   2.732  11.234  0.1429 -0.3064  0.5233
  839MPD2    H112335   3.498   3.052  11.410 -2.1732 -0.1446  0.0826
  839MPD2    H212336   3.342   2.659  11.340 -2.0429  1.9746 -2.4533
  839MPD2    H312337   3.320   2.896  11.437 -1.7087 -1.5467 -0.9684
  839MPD2     N12338   3.736   3.001  11.305 -0.5579  0.0105  0.8154
  839MPD2    H512339   3.709   3.094  11.334  1.4282  0.1630  2.1528
  839MPD2    N112340   3.561   2.550  11.257 -0.1932  0.4028 -0.1165
  839MPD2    H712341   3.640   2.531  11.195  0.3589 -0.0056  0.7111
  840MPD2     C12342   3.944   0.744  10.076 -0.1131  0.3385 -0.1082
  840MPD2    C112343   3.941   0.683  10.195 -0.6142  0.2274  0.3185
  840MPD2    C212344   4.020   0.729  10.298  0.1132  0.1663  0.4122
  840MPD2    C312345   4.104   0.832  10.283  0.0940  0.3283  0.1057
  840MPD2    C412346   4.114   0.892  10.158 -0.0670  0.4643 -0.7543
  840MPD2    C512347   4.034   0.847  10.060  0.5663 -0.7430  0.0726
  840MPD2     H12348   4.023   0.676  10.392 -1.4550 -0.7553 -0.0506
  840MPD2    H112349   4.175   0.981  10.148  0.3412  0.2201 -0.4425
  840MPD2    H212350   3.899   0.713   9.982 -1.4004  1.6429  0.0757
  840MPD2    H312351   4.053   0.886   9.960 -0.2232 -0.2814  0.0991
  840MPD2     N12352   4.201   0.864  10.383 -0.2053 -0.0143 -0.0057
  840MPD2    H512353   4.276   0.924  10.350  1.4160 -0.7772  2.3065
  840MPD2    N112354   3.845   0.582  10.210 -1.1064 -0.7729  0.2993
  840MPD2    H712355   3.775   0.573  10.137  0.6855  2.8829 -1.8284
  841MPD2     C12356   3.787   0.075  14.580 -0.1464  0.4953  0.3972
  841MPD2    C112357   3.758   0.082  14.446 -0.5696 -0.3789  0.3452
  841MPD2    C212358   3.728   0.206  14.391  0.0829  0.7739 -0.4242
  841MPD2    C312359   3.717   0.325  14.467  0.1037 -0.3172 -0.5402
  841MPD2    C412360   3.750   0.312  14.603  0.3201 -0.6549 -0.1886
  841MPD2    C512361   3.776   0.194  14.653  0.3972  0.3131  0.0288
  841MPD2     H12362   3.703   0.206  14.285 -1.7123 -0.0168  0.0185
  841MPD2    H112363   3.766   0.394  14.672  0.2069 -1.7300  1.1036
  841MPD2    H212364   3.791   4.702  14.634 -1.8521  1.7552  2.7158
  841MPD2    H312365   3.784   0.185  14.760 -1.9125 -2.5876 -0.0370
  841MPD2     N12366   3.663   0.445  14.413 -0.1361 -0.0052  0.3353
  841MPD2    H512367   3.652   0.448  14.312  0.6033 -1.2552  0.2194
  841MPD2    N112368   3.757   4.688  14.365  0.4231 -0.3955  0.5125
  841MPD2    H712369   3.741   4.706  14.266  0.2084  1.1584  0.8367
  842MPD2     C12370   4.524   0.976  16.930 -0.5141 -0.1218  0.0697
  842MPD2    C112371   4.429   1.070  16.911 -0.4255 -0.1264  0.0530
  842MPD2    C212372   4.349   1.110  17.015  0.3788 -0.0002 -1.1390
  842MPD2    C312373   4.364   1.050  17.139 -0.4408  0.4980  0.3757
  842MPD2    C412374   4.464   0.958  17.160  0.0073  0.0244  0.0171
  842MPD2    C512375   4.540   0.926  17.054 -0.9828 -0.6259  0.4827
  842MPD2     H12376   4.295   1.203  17.003  1.7472  1.0848  1.0754
  842MPD2    H112377   4.482   0.901  17.250 -0.1457  2.8471  1.8458
  842MPD2    H212378   4.594   0.960  16.849  1.5900 -1.0750  2.0620
  842MPD2    H312379   4.631   0.870  17.075 -0.8330  0.4208  2.7031
  842MPD2     N12380   4.274   1.087  17.242  0.1089  0.3452  0.0251
  842MPD2    H512381   4.201   1.152  17.215 -0.4891 -0.4641 -0.2922
  842MPD2    N112382   4.406   1.129  16.782 -0.3276  0.0932  0.3209
  842MPD2    H712383   4.469   1.126  16.703  0.9699  0.3257  1.3401
  843MPD2     C12384   1.303   1.181  17.666 -0.6477  0.0860 -0.4807
  843MPD2    C112385   1.294   1.283   0.070  0.2424  0.6514  1.1200
  843MPD2    C212386   1.401   1.373   0.085  0.2398  0.2807  0.0962
  843MPD2    C312387   1.523   1.352   0.021 -0.0315 -0.3961  0.2827
  843MPD2    C412388   1.529   1.249  17.620  0.5852 -0.5001 -0.0128
  843MPD2    C512389   1.423   1.165  17.597 -0.0571 -0.1738  0.9252
  843MPD2     H12390   1.395   1.463   0.146  2.0868 -0.8166  1.8729
  843MPD2    H112391   1.614   1.240  17.553 -0.4464  0.1124 -1.3965
  843MPD2    H212392   1.225   1.115  17.629  1.4069 -2.7431  0.2640
  843MPD2    H312393   1.423   1.098  17.512 -1.6771  2.6736 -1.3333
  843MPD2     N12394   1.629   1.437   0.046  0.0502  0.5836 -0.1665
  843MPD2    H512395   1.601   1.503   0.118 -2.3922 -1.4578  0.7232
  843MPD2    N112396   1.165   1.291   0.140  0.1404 -0.0253  0.1601
  843MPD2    H712397   1.096   1.223   0.108 -1.3719  1.9445 -0.7716
  844MPD2     C12398   0.411   0.748  16.274 -0.1030 -0.6825 -0.3214
  844MPD2    C112399   0.485   0.646  16.215 -0.5574  0.8893 -0.3051
  844MPD2    C212400   0.600   0.607  16.285  0.0723  0.1103 -0.3489
  844MPD2    C312401   0.644   0.674  16.399 -0.0549 -0.1790  0.6811
  844MPD2    C412402   0.572   0.780  16.448  0.3790  0.2831 -0.7214
  844MPD2    C512403   0.462   0.809  16.388  0.6213  0.2051  0.1290
  844MPD2     H12404   0.667   0.537  16.236 -0.1155  0.5754 -1.2635
  844MPD2    H112405   0.601   0.843  16.532 -0.4124 -0.2512 -0.0544
  844MPD2    H212406   0.322   0.796  16.235  0.1473  1.2080  1.4148
  844MPD2    H312407   0.411   0.892  16.436  2.7873  0.0058  2.7925
  844MPD2     N12408   0.772   0.647  16.463  0.7544  0.2167 -0.6967
  844MPD2    H512409   0.816   0.558  16.441  0.5038 -0.1729  0.3940
  844MPD2    N112410   0.455   0.597  16.090 -0.3499  0.1071  0.3182
  844MPD2    H712411   0.511   0.526  16.045 -0.5479  1.2312 -1.7021
  845MPD2     C12412   1.409   1.316  16.906  0.7962 -0.1028 -0.3939
  845MPD2    C112413   1.273   1.306  16.911 -0.8783  0.4844  0.6271
  845MPD2    C212414   1.207   1.187  16.873 -1.1601  0.5415 -0.1995
  845MPD2    C312415   1.282   1.075  16.837 -0.1387 -0.5574 -0.0563
  845MPD2    C412416   1.420   1.085  16.846  0.4407  0.0381 -0.2019
  845MPD2    C512417   1.485   1.201  16.876 -0.4546  0.3027 -0.1512
  845MPD2     H12418   1.101   1.180  16.848 -0.8075  0.1711 -1.5795
  845MPD2    H112419   1.476   0.998  16.813 -0.3650 -0.1694 -1.0282
  845MPD2    H212420   1.451   1.412  16.936  1.8475 -0.5731 -0.3744
  845MPD2    H312421   1.593   1.204  16.876 -0.4361 -0.4727  1.4128
  845MPD2     N12422   1.209   0.967  16.784  0.2816 -0.6925 -0.9759
  845MPD2    H512423   1.108   0.973  16.781  0.2823  0.2981  0.8747
  845MPD2    N112424   1.194   1.419  16.941 -0.3670  0.7946 -0.6482
  845MPD2    H712425   1.241   1.509  16.951  2.2307 -0.5705 -0.4934
  846MPD2     C12426   1.967   2.105  13.430 -0.4672  0.0156  0.7162
  846MPD2    C112427   1.885   2.207  13.464  0.3582 -0.1428 -0.5931
  846MPD2    C212428   1.844   2.219  13.598  0.1714  0.4634  0.0098
  846MPD2    C312429   1.892   2.136  13.693 -0.5796  0.0931  0.2584
  846MPD2    C412430   1.979   2.037  13.652  0.9036  1.0223 -0.2748
  846MPD2    C512431   2.015   2.021  13.519 -0.5523 -0.5500  0.1712
  846MPD2     H12432   1.777   2.301  13.622  0.8784  1.0825 -0.1697
  846MPD2    H112433   2.007   1.954  13.716  0.1122  0.9948  0.0390
  846MPD2    H212434   2.010   2.090  13.331 -0.9246  0.8226  0.3918
  846MPD2    H312435   2.078   1.939  13.486 -1.6671 -1.0734 -0.6602
  846MPD2     N12436   1.849   2.149  13.826  0.7685 -0.4768 -0.0800
  846MPD2    H512437   1.785   2.223  13.853  0.8940 -0.4000  0.0089
  846MPD2    N112438   1.857   2.318  13.383  0.6421 -0.2451  0.0798
  846MPD2    H712439   1.783   2.382  13.409  1.4690 -0.3656  2.6742
  847MPD2     C12440   2.106   2.983  13.897  0.4417  0.3236  0.6717
  847MPD2    C112441   2.198   3.045  13.977 -0.8357 -0.1448 -0.9796
  847MPD2    C212442   2.262   2.963  14.064 -0.2882 -0.0281  0.5050
  847MPD2    C312443   2.233   2.829  14.076 -0.7610  0.1126 -0.4368
  847MPD2    C412444   2.138   2.776  13.996  0.3085  0.2679 -0.6822
  847MPD2    C512445   2.082   2.850  13.901  0.0391  0.2556 -0.5677
  847MPD2     H12446   2.326   3.002  14.142  0.3106  0.9286 -0.4792
  847MPD2    H112447   2.108   2.672  14.000  0.6942  0.1566 -0.6893
  847MPD2    H212448   2.055   3.037  13.818  1.8901  1.1082  0.2769
  847MPD2    H312449   2.010   2.813  13.829  0.4868 -0.3402 -0.7081
  847MPD2     N12450   2.307   2.757  14.169  0.3378  0.2630 -0.2707
  847MPD2    H512451   2.392   2.799  14.205  0.7921 -0.0497 -0.9778
  847MPD2    N112452   2.239   3.179  13.970 -0.0777  1.0821  0.4491
  847MPD2    H712453   2.294   3.207  14.051  1.6990  0.8124 -0.6534
  848MPD2     C12454   0.027   1.296  16.678  0.1373  0.8170  0.0626
  848MPD2    C112455   0.127   1.237  16.598 -0.1411  0.5409  0.0341
  848MPD2    C212456   0.234   1.316  16.546  0.2597  0.8112 -0.4093
  848MPD2    C312457   0.226   1.452  16.553  0.8760  0.6155  0.9541
  848MPD2    C412458   0.120   1.508  16.623  0.6461 -0.0183  0.3073
  848MPD2    C512459   0.035   1.432  16.698  0.9817 -0.2412 -0.3230
  848MPD2     H12460   0.311   1.278  16.480 -0.5536 -1.1255 -0.2523
  848MPD2    H112461   0.108   1.614  16.643 -0.0979 -0.8399  4.2067
  848MPD2    H212462   4.676   1.237  16.733  2.1402 -0.6766  1.0912
  848MPD2    H312463   4.697   1.481  16.774  0.3333 -0.2651 -0.8197
  848MPD2     N12464   0.323   1.537  16.498  0.0726 -0.2784  0.1171
  848MPD2    H512465   0.310   1.634  16.524  2.3221  0.0894 -0.1580
  848MPD2    N112466   0.126   1.102  16.580  0.1436 -0.8001 -0.1114
  848MPD2    H712467   0.207   1.051  16.546 -0.3855 -0.9888 -1.0794
  849MPD2     C12468   4.200   1.567  13.030 -0.3231  0.7830  0.3478
  849MPD2    C112469   4.320   1.510  13.068 -0.6823 -0.3531  0.4379
  849MPD2    C212470   4.324   1.438  13.187  0.4662  0.2492  0.2265
  849MPD2    C312471   4.219   1.439  13.276  0.1244 -0.3862 -0.3378
  849MPD2    C412472   4.098   1.491  13.230  0.5751  0.5083 -0.0549
  849MPD2    C512473   4.088   1.546  13.108 -0.2751 -0.1260  0.1336
  849MPD2     H12474   4.414   1.397  13.232 -0.8987 -3.3301 -0.3024
  849MPD2    H112475   4.008   1.508  13.289  0.0363  3.0164 -1.5942
  849MPD2    H212476   4.192   1.610  12.931 -0.0773  3.1380  1.3503
  849MPD2    H312477   3.997   1.590  13.070 -0.2618 -0.2864 -0.0847
  849MPD2     N12478   4.227   1.365  13.395 -0.0121  0.3471 -0.4182
  849MPD2    H512479   4.315   1.316  13.413  0.4263 -0.1030 -3.8139
  849MPD2    N112480   4.433   1.528  12.994 -0.3761  0.0369  0.8790
  849MPD2    H712481   4.423   1.580  12.907  4.1891  1.1540  0.9834
  850MPD2     C12482   1.944   3.541  14.511 -0.6690 -0.0918  0.5641
  850MPD2    C112483   1.974   3.673  14.548  0.2011 -0.8902  0.2602
  850MPD2    C212484   2.109   3.706  14.566  0.1907 -0.2927  0.3690
  850MPD2    C312485   2.207   3.609  14.538  0.1267  0.7698 -0.0202
  850MPD2    C412486   2.173   3.487  14.484  0.5836  0.2056  0.2857
  850MPD2    C512487   2.044   3.457  14.469  0.0594 -0.1240  0.0059
  850MPD2     H12488   2.134   3.810  14.584 -1.5958  0.2445 -0.2400
  850MPD2    H112489   2.251   3.414  14.464 -0.6036 -0.8742 -0.3165
  850MPD2    H212490   1.843   3.508  14.491  0.0874 -0.2505 -2.8901
  850MPD2    H312491   2.024   3.356  14.436  2.2204  0.2709 -2.5735
  850MPD2     N12492   2.345   3.625  14.566 -0.6593 -0.5776 -0.2892
  850MPD2    H512493   2.409   3.547  14.561  0.0860 -0.0210  0.6546
  850MPD2    N112494   1.865   3.757  14.578  0.1767  0.4525  1.0889
  850MPD2    H712495   1.776   3.726  14.542  0.8533  1.2516 -1.2481
  851MPD2     C12496   2.449   3.837  15.236 -0.0172  0.2462  0.1591
  851MPD2    C112497   2.378   3.768  15.141 -0.0658  0.1972  0.0707
  851MPD2    C212498   2.402   3.632  15.110  0.4565 -0.3817  0.2241
  851MPD2    C312499   2.515   3.576  15.162  0.3239 -0.5862 -1.1364
  851MPD2    C412500   2.586   3.636  15.271  0.2577 -0.0357  0.1450
  851MPD2    C512501   2.552   3.770  15.304  0.1903 -0.0803 -0.4123
  851MPD2     H12502   2.348   3.582  15.030 -0.8160  0.6043  0.4700
  851MPD2    H112503   2.684   3.594  15.291  0.1387 -0.7688 -0.8040
  851MPD2    H212504   2.421   3.940  15.250  1.5765  0.4354  1.8513
  851MPD2    H312505   2.612   3.829  15.371  1.0137  0.2844 -1.4690
  851MPD2     N12506   2.556   3.456  15.102 -0.1116  0.1270 -0.2041
  851MPD2    H512507   2.502   3.426  15.022  0.1982 -1.5727  0.2279
  851MPD2    N112508   2.266   3.826  15.073  0.7334 -0.0436 -0.1259
  851MPD2    H712509   2.247   3.923  15.097  0.0076 -0.8213  2.5230
  852MPD2     C12510   2.192   1.358  10.017 -0.7901  0.2140  0.6607
  852MPD2    C112511   2.136   1.484  10.033 -0.5189  0.5052  0.0398
  852MPD2    C212512   2.184   1.591   9.956  0.3665  0.1132  0.1512
  852MPD2    C312513   2.279   1.576   9.866 -0.1981  0.2521 -0.3934
  852MPD2    C412514   2.327   1.453   9.841  0.1773 -0.4455 -0.3158
  852MPD2    C512515   2.286   1.344   9.912 -0.2188  0.0288 -0.2247
  852MPD2     H12516   2.132   1.686   9.965  4.3370  2.2364  0.5034
  852MPD2    H112517   2.411   1.437   9.774 -0.3013  0.6089 -1.1596
  852MPD2    H212518   2.159   1.269  10.070 -2.1354  0.5508  0.3864
  852MPD2    H312519   2.337   1.250   9.894  0.6971 -0.0808  2.9806
  852MPD2     N12520   2.339   1.688   9.805  0.1208 -0.1454  0.3315
  852MPD2    H512521   2.319   1.773   9.858  0.0986 -1.3292  2.1966
  852MPD2    N112522   2.026   1.510  10.115  0.6967  0.0481  0.5203
  852MPD2    H712523   1.976   1.598  10.103 -2.2869 -1.7629 -0.1713
  853MPD2     C12524   3.857   1.963  11.677 -0.2612 -1.1620  0.5385
  853MPD2    C112525   3.753   1.884  11.730  0.1045 -0.8106  0.0852
  853MPD2    C212526   3.687   1.797  11.652 -0.3887 -0.2897 -0.6913
  853MPD2    C312527   3.738   1.770  11.526 -0.3036  0.3350  0.0316
  853MPD2    C412528   3.840   1.847  11.479  0.7466 -0.2869 -1.3144
  853MPD2    C512529   3.898   1.946  11.551 -0.2021 -0.5532  0.1665
  853MPD2     H12530   3.596   1.750  11.688 -0.6874 -0.1453 -1.2603
  853MPD2    H112531   3.870   1.843  11.375 -1.4514  0.2067 -1.9679
  853MPD2    H212532   3.912   2.031  11.741 -0.3654 -1.5341  1.0265
  853MPD2    H312533   3.972   2.011  11.506 -0.3820  0.4487  1.3241
  853MPD2     N12534   3.680   1.682  11.434  0.0366 -0.0926  0.6318
  853MPD2    H512535   3.726   1.672  11.344 -0.4849 -1.9514  0.5691
  853MPD2    N112536   3.702   1.919  11.856  0.3177 -0.8691 -0.6138
  853MPD2    H712537   3.745   2.001  11.898 -0.1761 -1.0148  0.1693
  854MPD2     C12538   0.521   1.848  13.274 -0.1206  0.5635 -0.0465
  854MPD2    C112539   0.557   1.829  13.144  0.1394  0.4867 -0.3820
  854MPD2    C212540   0.672   1.759  13.120  0.2164  0.3696  0.4094
  854MPD2    C312541   0.740   1.694  13.223 -0.2819  0.2007  0.0706
  854MPD2    C412542   0.707   1.717  13.354 -0.7554 -0.5581  0.2815
  854MPD2    C512543   0.589   1.780  13.381  0.2860  0.2525 -0.4275
  854MPD2     H12544   0.710   1.737  13.021 -1.2918  0.4806 -0.1979
  854MPD2    H112545   0.764   1.670  13.433 -1.2127  0.3422  1.1368
  854MPD2    H212546   0.427   1.891  13.305 -0.1484 -0.2659  1.0266
  854MPD2    H312547   0.552   1.783  13.483  1.2080  1.2722 -0.1157
  854MPD2     N12548   0.859   1.621  13.195 -0.3034 -0.3671 -0.5455
  854MPD2    H512549   0.913   1.588  13.274  0.3935  1.1880 -0.3680
  854MPD2    N112550   0.486   1.900  13.037  0.1616 -0.0547  0.0876
  854MPD2    H712551   0.403   1.948  13.070 -0.0981  0.8835 -1.8782
  855MPD2     C12552   1.041   1.436  13.796  0.1826 -0.0979 -0.4246
  855MPD2    C112553   1.094   1.327  13.730 -0.6098 -0.3844  0.2722
  855MPD2    C212554   1.175   1.355  13.621 -0.1315  0.2251 -0.1465
  855MPD2    C312555   1.198   1.481  13.576 -0.1896  0.2092 -0.3688
  855MPD2    C412556   1.147   1.592  13.654  0.2016 -0.1025 -0.3371
  855MPD2    C512557   1.078   1.561  13.769 -0.9623 -0.2822 -0.6421
  855MPD2     H12558   1.219   1.268  13.574 -1.1164 -1.0175  1.2084
  855MPD2    H112559   1.181   1.693  13.634  0.1348 -0.3593 -1.7244
  855MPD2    H212560   0.975   1.419  13.881 -0.6703  3.6730 -0.3334
  855MPD2    H312561   1.057   1.644  13.835  3.0880 -0.6591  1.1557
  855MPD2     N12562   1.245   1.509  13.447 -0.4203 -0.2005  0.1514
  855MPD2    H512563   1.230   1.602  13.412  2.0228  0.6125  1.2558
  855MPD2    N112564   1.080   1.194  13.767 -0.1704 -0.9484 -0.6561
  855MPD2    H712565   1.155   1.132  13.737  0.9126 -1.0105  2.2248
  856MPD2     C12566   2.724   2.324  13.466  0.8605 -0.7013  0.6376
  856MPD2    C112567   2.753   2.349  13.602  0.1541 -0.3367  0.5880
  856MPD2    C212568   2.691   2.444  13.678 -0.0291 -0.1930  0.3028
  856MPD2    C312569   2.604   2.538  13.618  1.4429  0.0643  0.1061
  856MPD2    C412570   2.578   2.522  13.487 -0.3881  0.0366  1.2626
  856MPD2    C512571   2.634   2.419  13.409 -0.0862  0.4369  0.3243
  856MPD2     H12572   2.734   2.465  13.775  3.0356 -0.7837 -0.9189
  856MPD2    H112573   2.512   2.587  13.431 -0.4742 -0.7338  0.4702
  856MPD2    H212574   2.775   2.250  13.404  1.1637 -0.4842  0.6255
  856MPD2    H312575   2.601   2.409  13.307  0.0142  0.9672  0.2432
  856MPD2     N12576   2.557   2.661  13.680  0.0411  0.5253 -0.7026
  856MPD2    H512577   2.526   2.737  13.621  0.4965  0.8584 -0.5153
  856MPD2    N112578   2.845   2.275  13.679  0.2776 -0.1768  0.4551
  856MPD2    H712579   2.841   2.291  13.779  2.8370 -0.9994  0.7049
  857MPD2     C12580   4.600   4.515  12.462  0.1157 -0.1301  0.2698
  857MPD2    C112581   4.700   4.566  12.385 -0.6910  0.1691 -0.5812
  857MPD2    C212582   0.039   4.690  12.424  0.2915  0.1878  0.3466
  857MPD2    C312583   4.711   0.033  12.532  0.5755  0.8357  0.2742
  857MPD2    C412584   4.598   4.705  12.601 -0.5604 -0.9880  0.1274
  857MPD2    C512585   4.540   4.587  12.561  0.1067  0.0334 -0.6934
  857MPD2     H12586   0.134   4.717  12.380 -0.7452  1.4810 -1.0867
  857MPD2    H112587   4.560   0.031  12.691  0.6528 -0.3076  0.2849
  857MPD2    H212588   4.550   4.420  12.442 -2.2015  0.9323  1.0156
  857MPD2    H312589   4.465   4.536  12.620  1.0294 -0.0951  0.3595
  857MPD2     N12590   0.064   0.147  12.579  0.1094  0.1253  0.0844
  857MPD2    H512591   0.149   0.171  12.530  1.5338  0.1706  2.5443
  857MPD2    N112592   0.035   4.486  12.284 -0.1501 -0.1316  0.8566
  857MPD2    H712593   4.721   4.392  12.269  0.9949 -0.5439  0.7449
  858MPD2     C12594   0.400   3.416  16.608 -0.0327 -0.1599  0.5609
  858MPD2    C112595   0.533   3.395  16.586 -0.4858 -0.1555 -0.0815
  858MPD2    C212596   0.627   3.457  16.669  0.4754 -0.5243  0.2262
  858MPD2    C312597   0.586   3.541  16.773  0.3234 -0.3916 -0.0309
  858MPD2    C412598   0.449   3.563  16.791 -0.3809  0.0581  0.1001
  858MPD2    C512599   0.355   3.502  16.713  0.1894 -0.4826 -0.1473
  858MPD2     H12600   0.733   3.437  16.658  0.8142  1.3968  0.0119
  858MPD2    H112601   0.408   3.625  16.870 -0.8700 -1.0077  0.6722
  858MPD2    H212602   0.320   3.364  16.556 -0.7098  1.5250 -0.0981
  858MPD2    H312603   0.252   3.529  16.730  0.2822 -1.9920  2.7011
  858MPD2     N12604   0.669   3.595  16.872 -0.0747 -0.4331  0.2670
  858MPD2    H512605   0.620   3.639  16.949  0.8571 -0.0884  0.6649
  858MPD2    N112606   0.584   3.314  16.482  0.1110  0.0908 -0.1239
  858MPD2    H712607   0.684   3.299  16.471 -0.0772 -0.7319 -0.6849
  859MPD2     C12608   3.862   0.612  15.025 -0.2645  0.3656 -0.1481
  859MPD2    C112609   3.918   0.660  14.912 -0.4940 -0.2216 -0.1269
  859MPD2    C212610   3.977   0.565  14.828  0.1404  0.3847 -0.5883
  859MPD2    C312611   3.992   0.431  14.864  0.1866  0.3116 -0.0469
  859MPD2    C412612   3.928   0.385  14.972 -0.3996 -0.4865 -0.5190
  859MPD2    C512613   3.873   0.477  15.055 -0.2262 -0.4174 -0.3569
  859MPD2     H12614   4.023   0.607  14.740 -1.1202  1.8116 -0.5675
  859MPD2    H112615   3.912   0.281  14.998 -0.5917 -0.7174 -1.5599
  859MPD2    H212616   3.829   0.685  15.098  3.2795 -0.8937  2.6852
  859MPD2    H312617   3.829   0.431  15.143 -0.7559  2.0353  0.6643
  859MPD2     N12618   4.062   0.337  14.776  0.3183  0.2381 -0.2344
  859MPD2    H512619   4.057   0.239  14.801  1.4061 -0.7348 -3.9038
  859MPD2    N112620   3.922   0.797  14.864  0.0228 -0.4960  0.2511
  859MPD2    H712621   3.966   0.812  14.774  1.7407 -1.1204  0.9918
  860MPD2     C12622   1.582   1.348  11.415  0.0860 -0.2436 -0.5218
  860MPD2    C112623   1.601   1.438  11.522 -0.1032 -0.1511 -0.2980
  860MPD2    C212624   1.498   1.478  11.598  0.0821 -0.1742 -0.2640
  860MPD2    C312625   1.375   1.423  11.585 -0.7513 -0.3362 -0.5230
  860MPD2    C412626   1.352   1.337  11.481 -0.4817  0.4305 -0.1253
  860MPD2    C512627   1.455   1.307  11.398 -0.3257 -0.3850 -0.2432
  860MPD2     H12628   1.522   1.540  11.684 -1.7325 -0.2221  0.2824
  860MPD2    H112629   1.259   1.286  11.462 -0.3764 -0.3763  1.5332
  860MPD2    H212630   1.653   1.302  11.346  1.4205  0.8176  0.1324
  860MPD2    H312631   1.444   1.243  11.311 -0.6786 -0.1526 -0.3660
  860MPD2     N12632   1.272   1.464  11.677 -0.6039 -0.4113  0.5862
  860MPD2    H512633   1.290   1.533  11.749 -0.7318 -0.0616  0.2856
  860MPD2    N112634   1.728   1.499  11.552 -0.3063 -0.3711 -0.4237
  860MPD2    H712635   1.736   1.564  11.629  1.0003 -1.1301  0.0850
  861MPD2     C12636   0.174   3.978  10.796  0.2132  0.0890  1.3649
  861MPD2    C112637   0.172   4.099  10.866 -0.2931  0.1236  0.6357
  861MPD2    C212638   0.102   4.206  10.823  0.5483  0.8374 -0.0406
  861MPD2    C312639   0.044   4.202  10.697  0.2942 -0.0932  0.4348
  861MPD2    C412640   0.043   4.088  10.624  0.8724 -0.3510 -0.8506
  861MPD2    C512641   0.095   3.973  10.685 -0.1228 -0.1981  0.7857
  861MPD2     H12642   0.098   4.303  10.871 -0.0963  1.0747 -0.5596
  861MPD2    H112643   4.717   4.067  10.529  1.4326  0.2275 -1.2531
  861MPD2    H212644   0.212   3.884  10.834  0.7533 -0.5144 -0.6570
  861MPD2    H312645   0.092   3.886  10.620  0.5132  0.3336  0.0488
  861MPD2     N12646   4.710   4.319  10.644  0.3662  0.1240 -0.6735
  861MPD2    H512647   4.712   4.401  10.703  0.6768 -0.6307  0.3516
  861MPD2    N112648   0.242   4.113  10.986 -0.0605 -0.1879  0.2239
  861MPD2    H712649   0.248   4.201  11.034  2.0246 -0.1379 -0.1348
  862MPD2     C12650   0.039   0.099   9.971 -0.1989 -0.0866  0.2319
  862MPD2    C112651   4.704   4.701  10.012 -0.4708 -0.5587 -0.3268
  862MPD2    C212652   4.687   4.601   9.921 -0.3075  0.7130  0.6315
  862MPD2    C312653   0.001   4.620   9.787  0.4755  0.3450 -0.4100
  862MPD2    C412654   0.066   0.015   9.749 -0.7849  0.3881 -0.2543
  862MPD2    C512655   0.075   0.115   9.844  0.2705 -0.0320 -0.6464
  862MPD2     H12656   4.630   4.515   9.954  2.3123 -1.3620 -0.2358
  862MPD2    H112657   0.088   0.046   9.647 -2.3603  3.9785  0.4801
  862MPD2    H212658   0.080   0.171  10.041  0.9367 -0.5379  0.0306
  862MPD2    H312659   0.111   0.213   9.814 -1.0106 -0.1794 -2.7007
  862MPD2     N12660   4.712   4.523   9.681 -0.9350  0.8605  0.1637
  862MPD2    H512661   0.053   4.532   9.601  1.7008 -0.6405  2.0297
  862MPD2    N112662   4.667   4.673  10.147  0.0957 -0.0243  0.5205
  862MPD2    H712663   4.644   4.577  10.169  1.0819 -0.1093  1.1801
  863MPD2     C12664   3.383   2.427  17.153 -0.2598 -0.4807  0.1234
  863MPD2    C112665   3.475   2.479  17.071  0.2076  0.0423 -0.4215
  863MPD2    C212666   3.606   2.473  17.117 -0.9065 -0.3831  0.6806
  863MPD2    C312667   3.642   2.408  17.226  0.5509  0.3522 -0.3029
  863MPD2    C412668   3.543   2.356  17.306  0.8660 -0.2935 -0.6342
  863MPD2    C512669   3.412   2.375  17.278 -0.0111 -0.0037 -0.3282
  863MPD2     H12670   3.687   2.497  17.050  0.4465  0.9277  2.7846
  863MPD2    H112671   3.578   2.309  17.397  0.4135  0.2754 -0.1617
  863MPD2    H212672   3.280   2.429  17.117  0.0866 -0.0801 -0.8395
  863MPD2    H312673   3.334   2.336  17.342  2.3447 -0.6461  2.1896
  863MPD2     N12674   3.779   2.376  17.251  0.3819 -0.6667 -0.5222
  863MPD2    H512675   3.798   2.312  17.327  0.0363 -0.5539 -0.3393
  863MPD2    N112676   3.440   2.531  16.956 -0.7471 -0.4648 -0.0450
  863MPD2    H712677   3.341   2.539  16.938 -0.6833  3.1295  1.1984
  864MPD2     C12678   3.508   3.778  16.615  0.2209  0.2419  0.2295
  864MPD2    C112679   3.606   3.702  16.561 -0.6526 -0.1568  0.1131
  864MPD2    C212680   3.735   3.743  16.579  0.2768 -0.1110 -0.2868
  864MPD2    C312681   3.766   3.857  16.647  0.2385  0.3885 -0.4548
  864MPD2    C412682   3.667   3.929  16.710  0.0366 -0.8739  0.1469
  864MPD2    C512683   3.538   3.887  16.689  0.3749  0.5972  0.1061
  864MPD2     H12684   3.809   3.685  16.526 -0.6476 -1.5190 -0.0547
  864MPD2    H112685   3.686   4.011  16.778 -0.2382  0.6874 -1.6705
  864MPD2    H212686   3.402   3.754  16.619  0.4198 -0.2362  2.6026
  864MPD2    H312687   3.460   3.932  16.749 -0.0652  1.3563 -1.0135
  864MPD2     N12688   3.897   3.905  16.665  0.9111 -0.2045 -0.1294
  864MPD2    H512689   3.914   3.997  16.703 -0.3618  0.0492 -0.1840
  864MPD2    N112690   3.583   3.579  16.501  0.2277  0.1753 -0.3945
  864MPD2    H712691   3.664   3.527  16.470 -0.9241 -2.1762  0.5183
  865MPD2     C12692   4.578   4.271  16.225  0.3818  0.1209 -0.3532
  865MPD2    C112693   4.490   4.169  16.256  0.3880  0.2021 -0.5053
  865MPD2    C212694   4.408   4.185  16.367  0.5403 -0.2575 -0.6689
  865MPD2    C312695   4.411   4.304  16.442  0.0729 -0.5709 -0.9564
  865MPD2    C412696   4.499   4.402  16.405 -0.5458 -0.0109 -0.5829
  865MPD2    C512697   4.580   4.389  16.298  0.0548 -0.0284  0.4457
  865MPD2     H12698   4.328   4.116  16.391  1.0782 -0.4677  0.5438
  865MPD2    H112699   4.503   4.500  16.452 -0.2855 -0.0183 -0.5923
  865MPD2    H212700   4.654   4.263  16.149  0.7343  0.4082 -0.0304
  865MPD2    H312701   4.638   4.472  16.261 -2.9195  1.3225 -1.2120
  865MPD2     N12702   4.340   4.330  16.562  0.1491  0.7144  0.1218
  865MPD2    H512703   4.343   4.420  16.607  0.5170 -0.6311  2.8036
  865MPD2    N112704   4.497   4.049  16.183  0.0145  0.2027  0.4714
  865MPD2    H712705   4.570   4.043  16.112 -0.1309 -1.9159  0.4881
  866MPD2     C12706   0.951   4.464  11.313  0.2200  0.3958  0.4662
  866MPD2    C112707   0.924   4.408  11.192  0.2734  0.0457 -0.2247
  866MPD2    C212708   0.805   4.450  11.132 -0.7652 -0.5503 -0.2625
  866MPD2    C312709   0.715   4.533  11.199  0.4466 -0.3815 -0.1933
  866MPD2    C412710   0.744   4.572  11.326 -0.4154 -0.0587  0.6017
  866MPD2    C512711   0.859   4.537  11.381 -0.2554 -0.0404 -0.2872
  866MPD2     H12712   0.773   4.412  11.036 -0.1176 -3.2087  0.5853
  866MPD2    H112713   0.671   4.637  11.372  1.9586  3.4154 -0.6107
  866MPD2    H212714   1.036   4.439  11.376  0.5459 -1.5124 -0.7347
  866MPD2    H312715   0.878   4.571  11.482 -0.3367 -0.7052 -0.0498
  866MPD2     N12716   0.602   4.581  11.137  0.3028 -0.0513  0.1558
  866MPD2    H512717   0.534   4.627  11.197  1.3508  0.5097  0.9127
  866MPD2    N112718   1.015   4.320  11.129  0.1830 -0.9324  0.1869
  866MPD2    H712719   1.093   4.276  11.178  1.0362 -0.0381 -0.3762
  867MPD2     C12720   2.905   3.770  16.410 -0.2523 -0.4144 -1.0734
  867MPD2    C112721   2.992   3.766  16.520 -0.3567  0.7753 -0.0642
  867MPD2    C212722   3.054   3.887  16.561 -0.3750  0.3730  0.3209
  867MPD2    C312723   3.042   3.996  16.479  0.2681  0.2507 -0.9401
  867MPD2    C412724   2.960   3.999  16.369 -0.2609  1.3925  0.3964
  867MPD2    C512725   2.890   3.884  16.338 -0.4223 -0.2876  0.3675
  867MPD2     H12726   3.119   3.888  16.648  2.4900 -0.1752 -1.8419
  867MPD2    H112727   2.954   4.086  16.305  1.7292 -0.8086 -2.7677
  867MPD2    H212728   2.855   3.682  16.370  1.2438 -1.5656 -0.4439
  867MPD2    H312729   2.819   3.889  16.256  2.8996  0.3809 -2.5332
  867MPD2     N12730   3.118   4.112  16.515  0.1440 -0.0254 -0.0199
  867MPD2    H512731   3.116   4.187  16.447 -0.6940  0.9503  1.0869
  867MPD2    N112732   3.029   3.637  16.574  0.1040 -0.2044  0.3188
  867MPD2    H712733   2.977   3.565  16.526  0.1478  0.4727 -0.7311
  868MPD2     C12734   4.309   3.149  12.776  0.3106  0.1837  0.2298
  868MPD2    C112735   4.395   3.155  12.883  0.2756 -0.2139 -0.0103
  868MPD2    C212736   4.351   3.194  13.010 -0.2595 -0.0042 -0.3822
  868MPD2    C312737   4.223   3.219  13.032  0.8132 -0.1825  0.5888
  868MPD2    C412738   4.135   3.212  12.924 -0.0395  0.2271  0.2343
  868MPD2    C512739   4.179   3.188  12.794  0.4830 -1.4266  0.1709
  868MPD2     H12740   4.417   3.207  13.095  0.5456  1.8866 -1.3043
  868MPD2    H112741   4.034   3.253  12.928 -1.1569 -2.7365  2.3695
  868MPD2    H212742   4.338   3.122  12.675  1.0025  1.5948  0.0552
  868MPD2    H312743   4.105   3.194  12.716  1.0462 -1.2710 -0.3530
  868MPD2     N12744   4.184   3.248  13.165  0.0339 -0.5228 -0.2102
  868MPD2    H512745   4.255   3.231  13.234 -0.8408  2.2785  1.3839
  868MPD2    N112746   4.526   3.121  12.863  0.0639 -0.5216  0.0765
  868MPD2    H712747   4.553   3.104  12.766 -2.5688 -6.9029  0.4869
  869MPD2     C12748   1.511   0.862   1.983 -0.3037  0.3145  0.2950
  869MPD2    C112749   1.378   0.860   1.944  1.2880  0.1582 -0.2372
  869MPD2    C212750   1.330   0.944   1.851 -0.6137 -0.1896  0.2428
  869MPD2    C312751   1.417   1.027   1.782 -0.1910 -0.2088  0.2168
  869MPD2    C412752   1.553   1.039   1.819 -1.0029 -0.6294 -0.1397
  869MPD2    C512753   1.596   0.954   1.924 -0.0563 -0.2459  0.4742
  869MPD2     H12754   1.229   0.932   1.814  0.1747 -1.4478 -1.5145
  869MPD2    H112755   1.627   1.094   1.762 -2.7715  0.4456 -1.4120
  869MPD2    H212756   1.548   0.809   2.070  0.5728  2.4711  1.2290
  869MPD2    H312757   1.696   0.967   1.965  0.1762  2.7201 -0.9789
  869MPD2     N12758   1.380   1.103   1.669  0.2418  0.8046  0.4558
  869MPD2    H512759   1.453   1.166   1.641 -1.5522  1.2753 -3.1008
  869MPD2    N112760   1.298   0.776   2.019  0.0341 -0.0574 -0.2340
  869MPD2    H712761   1.350   0.697   2.058 -1.1543 -1.6687 -1.8973
  870MPD2     C12762   0.380   4.621   1.591  0.5725  0.0467 -0.0017
  870MPD2    C112763   0.507   4.657   1.560 -0.0654  0.5715  0.1323
  870MPD2    C212764   0.534   4.678   1.429  0.5511 -0.6135 -0.5536
  870MPD2    C312765   0.428   4.693   1.336 -0.2405 -0.2300 -0.3439
  870MPD2    C412766   0.295   4.667   1.376 -0.1143 -0.4723  0.3111
  870MPD2    C512767   0.276   4.613   1.505 -0.1262  0.7129  0.3046
  870MPD2     H12768   0.636   4.709   1.408  0.3890 -0.5771 -1.2720
  870MPD2    H112769   0.217   4.656   1.301 -1.6103 -0.6667  1.8982
  870MPD2    H212770   0.340   4.590   1.687 -0.0702  0.3784 -0.1676
  870MPD2    H312771   0.177   4.573   1.519  0.7349 -1.5649 -0.0746
  870MPD2     N12772   0.454   0.010   1.200  0.0026 -0.5132 -0.1980
  870MPD2    H512773   0.553   0.010   1.176 -0.1880  0.0422 -1.0064
  870MPD2    N112774   0.603   4.654   1.662 -0.2227 -0.1184  0.2863
  870MPD2    H712775   0.571   4.622   1.753 -1.1680 -0.4922 -0.1764
  871MPD2     C12776   2.114   3.913  16.139  0.0495 -0.4471 -0.0444
  871MPD2    C112777   2.087   3.875  16.267  0.4104  0.0578 -0.2444
  871MPD2    C212778   2.046   3.745  16.287 -0.1316  0.1963  0.1146
  871MPD2    C312779   2.051   3.650  16.189 -0.5948  0.2106 -0.0835
  871MPD2    C412780   2.084   3.685  16.059 -0.2251 -1.0755 -0.2673
  871MPD2    C512781   2.122   3.816  16.037  0.6207  0.2122  0.3441
  871MPD2     H12782   2.000   3.714  16.380  2.2021  0.0763  1.2325
  871MPD2    H112783   2.096   3.623  15.970  0.8169 -1.2945  0.0298
  871MPD2    H212784   2.133   4.016  16.111 -2.2604 -0.1648 -0.6098
  871MPD2    H312785   2.149   3.854  15.939 -4.2762 -1.6361 -1.7195
  871MPD2     N12786   2.023   3.514  16.219  0.5654  0.0730 -0.6777
  871MPD2    H512787   2.011   3.487  16.316 -0.3891 -1.2346 -1.1640
  871MPD2    N112788   2.094   3.971  16.371 -0.5196 -0.4329 -0.4499
  871MPD2    H712789   2.122   4.066  16.350  2.4104 -0.6460  2.5500
  872MPD2     C12790   2.442   2.092  13.560  0.5610 -0.4589 -0.6887
  872MPD2    C112791   2.505   1.979  13.606  0.6080  0.3916  0.5599
  872MPD2    C212792   2.461   1.912  13.718 -0.0035 -0.2948 -0.3472
  872MPD2    C312793   2.341   1.958  13.773  0.1692  0.2130 -0.0086
  872MPD2    C412794   2.284   2.072  13.731  0.5606 -0.5237  0.3560
  872MPD2    C512795   2.335   2.144  13.626 -0.0770  0.0021 -0.2854
  872MPD2     H12796   2.501   1.817  13.755 -1.0210 -0.3962  0.5104
  872MPD2    H112797   2.198   2.122  13.775  0.6232  0.9408 -1.1513
  872MPD2    H212798   2.480   2.161  13.486 -1.3925  0.4811 -0.7955
  872MPD2    H312799   2.291   2.234  13.584  0.5488 -0.2744 -1.5277
  872MPD2     N12800   2.274   1.896  13.884  0.1330 -0.5368  0.1484
  872MPD2    H512801   2.177   1.917  13.906  0.0945 -1.0467  0.4772
  872MPD2    N112802   2.630   1.939  13.566  0.9426 -0.1482  0.1146
  872MPD2    H712803   2.678   1.879  13.633  2.6529 -1.5654 -2.3583
  873MPD2     C12804   0.809   1.504   1.489  0.3994 -0.1086  0.1274
  873MPD2    C112805   0.704   1.501   1.403 -0.2432  0.1640 -1.0778
  873MPD2    C212806   0.665   1.386   1.339  0.3799  0.4606 -1.0433
  873MPD2    C312807   0.734   1.270   1.363 -0.3869 -0.1373  0.0326
  873MPD2    C412808   0.832   1.269   1.460  0.1501 -0.2477  0.0653
  873MPD2    C512809   0.868   1.384   1.517  0.1498  0.0348 -0.3058
  873MPD2     H12810   0.577   1.388   1.275 -0.6595  1.9172  0.4351
  873MPD2    H112811   0.902   1.187   1.470  1.2318  0.8481  1.4260
  873MPD2    H212812   0.856   1.590   1.536 -0.7708 -0.1601  1.3847
  873MPD2    H312813   0.953   1.386   1.584 -0.1430 -1.8786  0.1065
  873MPD2     N12814   0.704   1.153   1.297  0.2964  0.0978  0.0606
  873MPD2    H512815   0.756   1.071   1.325  0.7169  1.1204  2.2606
  873MPD2    N112816   0.635   1.629   1.402  0.2556 -0.1584 -0.2215
  873MPD2    H712817   0.668   1.693   1.474 -1.5910 -1.4637  1.7961
  874MPD2     C12818   4.480   1.603  16.063 -0.2247  0.0917 -0.3204
  874MPD2    C112819   4.526   1.549  16.179 -0.6977 -0.1391 -0.3566
  874MPD2    C212820   4.666   1.571  16.205  0.0957  0.3734  0.0556
  874MPD2    C312821   0.021   1.647  16.119 -0.0197 -0.5431  0.0444
  874MPD2    C412822   4.699   1.685  15.994 -0.2407  0.0182 -0.1035
  874MPD2    C512823   4.566   1.653  15.967  0.2014  0.0898 -0.1931
  874MPD2     H12824   4.699   1.545  16.306 -0.7696 -0.4884  0.1195
  874MPD2    H112825   0.040   1.738  15.922  2.4561 -1.5678  1.0808
  874MPD2    H212826   4.375   1.585  16.043 -0.0903  1.7791 -2.5709
  874MPD2    H312827   4.530   1.686  15.870 -0.3751  2.1321  0.7253
  874MPD2     N12828   0.150   1.684  16.166  0.7940 -0.1930 -0.4576
  874MPD2    H512829   0.177   1.639  16.252  0.0724 -1.5106 -0.9057
  874MPD2    N112830   4.433   1.477  16.258 -0.6777 -0.6930 -0.0517
  874MPD2    H712831   4.337   1.479  16.223 -1.4382 -0.9715  2.0615
  875MPD2     C12832   0.977   4.721  14.740 -0.1862  0.1580  0.4282
  875MPD2    C112833   0.854   0.041  14.786  1.0542 -0.0850 -0.4619
  875MPD2    C212834   0.858   0.122  14.898  0.4637 -0.0223 -0.2033
  875MPD2    C312835   0.976   0.149  14.964 -0.5270 -0.1436 -0.3439
  875MPD2    C412836   1.099   0.114  14.910 -0.4475  0.3514  0.1107
  875MPD2    C512837   1.094   0.039  14.801 -0.2814  0.2342 -0.3570
  875MPD2     H12838   0.765   0.170  14.925 -1.3249 -2.3237 -2.3027
  875MPD2    H112839   1.189   0.118  14.970 -0.1681 -1.0475 -0.2130
  875MPD2    H212840   0.988   4.658  14.653  1.3287  2.6525 -1.1527
  875MPD2    H312841   1.187   4.721  14.762  0.0733 -0.2574  0.9589
  875MPD2     N12842   0.974   0.222  15.081 -0.9589  0.6251 -0.1578
  875MPD2    H512843   1.060   0.254  15.125 -0.1983 -1.1971 -0.3371
  875MPD2    N112844   0.726   0.011  14.732 -0.1409 -0.7277  0.1663
  875MPD2    H712845   0.644   0.050  14.777  0.2774  2.1643 -1.6041
  876MPD2     C12846   4.126   1.433  15.677  0.4716 -0.3558 -0.2007
  876MPD2    C112847   4.242   1.385  15.613  0.4344  0.2495  0.2119
  876MPD2    C212848   4.328   1.304  15.688  0.2074  0.4842  0.0209
  876MPD2    C312849   4.301   1.267  15.821 -0.2855 -0.0482 -0.5066
  876MPD2    C412850   4.187   1.327  15.877  0.7263  0.5363  0.8618
  876MPD2    C512851   4.102   1.402  15.804 -0.1386 -0.4172 -0.3358
  876MPD2     H12852   4.414   1.257  15.642 -0.1539  1.1292 -1.3195
  876MPD2    H112853   4.158   1.298  15.977 -0.1552  1.1211  0.7801
  876MPD2    H212854   4.052   1.500  15.635 -0.2477 -1.8767 -1.3289
  876MPD2    H312855   4.012   1.444  15.846  0.6224  0.4925  0.3779
  876MPD2     N12856   4.391   1.182  15.886  0.4936 -0.3935 -0.3379
  876MPD2    H512857   4.470   1.146  15.834  0.0312 -1.8525 -0.0141
  876MPD2    N112858   4.255   1.417  15.473 -0.2952 -0.0112 -0.1837
  876MPD2    H712859   4.177   1.457  15.422  0.5560  0.3831 -1.1653
  877MPD2     C12860   4.037   1.758  14.820  0.0039  0.4080  0.8066
  877MPD2    C112861   4.175   1.770  14.813  0.2843  0.5258  0.0153
  877MPD2    C212862   4.240   1.831  14.707  0.2837  0.1421 -0.1781
  877MPD2    C312863   4.156   1.900  14.620 -0.2160 -0.3584  0.0780
  877MPD2    C412864   4.015   1.900  14.632 -0.2312 -0.1378  0.4958
  877MPD2    C512865   3.956   1.826  14.735  0.4572  0.2387 -0.0111
  877MPD2     H12866   4.347   1.834  14.693  0.5380  0.6490  1.9685
  877MPD2    H112867   3.952   1.971  14.580  0.4092 -1.4474 -2.0222
  877MPD2    H212868   3.991   1.706  14.903 -1.6621 -0.1497 -0.4739
  877MPD2    H312869   3.849   1.817  14.745  0.2279  1.2518 -1.4487
  877MPD2     N12870   4.215   1.981  14.519 -0.0793  0.7119 -0.1400
  877MPD2    H512871   4.146   2.030  14.463 -1.1282 -0.1330  0.4346
  877MPD2    N112872   4.260   1.704  14.904 -0.5923  0.4646  0.1935
  877MPD2    H712873   4.356   1.687  14.876 -0.3315 -0.1892  1.4917
  878MPD2     C12874   4.518   1.514  12.149  0.4378 -0.3979 -0.5761
  878MPD2    C112875   4.419   1.439  12.216  0.1735 -0.1364  0.0951
  878MPD2    C212876   4.453   1.398  12.344 -0.3896 -0.3111 -0.1443
  878MPD2    C312877   4.581   1.403  12.401  0.0984 -1.2128 -0.0590
  878MPD2    C412878   4.677   1.444  12.314 -0.3790 -0.0232  0.4798
  878MPD2    C512879   4.650   1.503  12.194 -0.6851  0.3716  0.2845
  878MPD2     H12880   4.369   1.362  12.403 -0.1628 -0.6899 -0.0549
  878MPD2    H112881   0.055   1.462  12.354 -1.0887  1.5435  1.5205
  878MPD2    H212882   4.497   1.554  12.050  0.4196  1.9804  0.4099
  878MPD2    H312883   0.000   1.558  12.135 -1.4524  1.9593  0.8313
  878MPD2     N12884   4.599   1.379  12.545  0.1190 -0.5467 -0.5176
  878MPD2    H512885   4.514   1.366  12.600 -0.8955 -1.9919 -2.4289
  878MPD2    N112886   4.290   1.439  12.160  0.2236 -0.1891  0.4241
  878MPD2    H712887   4.275   1.515  12.094  0.8242  0.4213  0.9863
  879MPD2     C12888   4.560   2.455  16.771  0.5156  0.2076  0.1152
  879MPD2    C112889   4.641   2.354  16.812  1.1950 -0.2524 -0.2613
  879MPD2    C212890   4.588   2.225  16.822  0.3138 -0.3280 -0.4885
  879MPD2    C312891   4.468   2.191  16.761  0.3245 -0.1084 -0.0383
  879MPD2    C412892   4.385   2.292  16.722 -0.3645  0.1290 -0.0680
  879MPD2    C512893   4.433   2.421  16.731  0.2030 -0.0042 -0.0012
  879MPD2     H12894   4.654   2.145  16.852  0.4491 -0.0728 -0.0999
  879MPD2    H112895   4.288   2.273  16.678 -0.1552 -0.8263 -0.1245
  879MPD2    H212896   4.590   2.559  16.778  0.8414  0.0779  0.6750
  879MPD2    H312897   4.366   2.502  16.705 -2.3518 -1.5873  1.5800
  879MPD2     N12898   4.428   2.065  16.728  0.3226 -0.1560 -0.6553
  879MPD2    H512899   4.352   2.048  16.664  0.2393  2.6259 -1.2888
  879MPD2    N112900   0.049   2.386  16.856 -0.0712  0.3580 -0.2924
  879MPD2    H712901   0.077   2.483  16.842 -0.2424  0.4848  0.2211
  880MPD2     C12902   1.792   0.093   0.438  0.3101 -0.1808 -0.1081
  880MPD2    C112903   1.770   4.681   0.404 -0.1487  0.4486  0.1816
  880MPD2    C212904   1.884   4.605   0.378 -0.5850  0.0542  0.5542
  880MPD2    C312905   2.010   4.662   0.373 -0.1837 -0.2644  0.4026
  880MPD2    C412906   2.028   0.075   0.390  0.1561 -0.0385  0.4085
  880MPD2    C512907   1.917   0.145   0.421 -0.1947 -0.2795 -0.3027
  880MPD2     H12908   1.881   4.505   0.336  0.3956  0.4021 -0.3423
  880MPD2    H112909   2.120   0.133   0.384  0.3290 -0.4614 -0.9681
  880MPD2    H212910   1.711   0.161   0.460 -0.9710 -1.2052 -1.6884
  880MPD2    H312911   1.937   0.251   0.413 -1.9960  0.1315  0.5636
  880MPD2     N12912   2.117   4.583   0.320  0.4710  0.1234  0.2745
  880MPD2    H512913   2.103   4.484   0.306  0.0113 -0.1265  2.3994
  880MPD2    N112914   1.636   4.640   0.378 -0.0612 -1.0020 -0.1772
  880MPD2    H712915   1.567   4.714   0.390  0.8384 -0.2845  0.5670
  881MPD2     C12916   1.242   0.158  17.358 -0.1293  0.1859 -0.4543
  881MPD2    C112917   1.231   0.016  17.346 -0.2441  0.8799 -0.1475
  881MPD2    C212918   1.229   4.659  17.453 -0.1125  0.2219  0.6989
  881MPD2    C312919   1.223   4.714  17.577  0.2547  0.7562  0.1416
  881MPD2    C412920   1.214   0.129  17.593 -0.2560 -0.4499  0.2790
  881MPD2    C512921   1.224   0.207  17.482  0.3947  0.0743  0.1022
  881MPD2     H12922   1.236   4.551  17.444  1.7597  0.4805 -0.8065
  881MPD2    H112923   1.196   0.179  17.687  0.7068 -0.5200  0.4983
  881MPD2    H212924   1.237   0.228  17.276 -0.2762  1.7828  0.9006
  881MPD2    H312925   1.193   0.311  17.485 -0.2706 -0.0515 -2.0197
  881MPD2     N12926   1.233   4.645   0.011 -0.2827 -0.9293 -0.2590
  881MPD2    H512927   1.257   4.708   0.086  1.7353  0.1786 -1.8068
  881MPD2    N112928   1.248   4.701  17.215 -0.3013  0.6235 -0.0748
  881MPD2    H712929   1.232   0.054  17.148 -0.1865  0.7908  0.0834
  882MPD2     C12930   4.203   1.685  13.998  0.1706 -0.5841  0.4642
  882MPD2    C112931   4.141   1.782  14.062 -0.3450 -0.7942 -0.1188
  882MPD2    C212932   4.006   1.763  14.099  0.3594  0.7717 -0.3359
  882MPD2    C312933   3.942   1.641  14.078  0.1462  0.0724 -0.1261
  882MPD2    C412934   4.013   1.537  14.029 -0.4274  0.4619 -0.6040
  882MPD2    C512935   4.149   1.558  13.989 -0.0919  0.5453  0.0275
  882MPD2     H12936   3.957   1.843  14.153 -1.2328  0.5654 -1.4668
  882MPD2    H112937   3.964   1.445  14.000 -0.0563 -0.7274  2.5923
  882MPD2    H212938   4.309   1.694  13.975 -0.3819 -1.7181 -2.5649
  882MPD2    H312939   4.207   1.474  13.954 -0.0905 -0.4271  2.3662
  882MPD2     N12940   3.815   1.610  14.118  0.2048  0.7462 -0.4198
  882MPD2    H512941   3.780   1.521  14.083  3.5591 -0.2407 -1.3117
  882MPD2    N112942   4.211   1.902  14.083 -0.1174 -0.1743  0.0735
  882MPD2    H712943   4.308   1.901  14.053  0.7421  0.5137  2.8105
  883MPD2     C12944   1.954   2.044  16.670 -0.0643 -0.0588  0.4633
  883MPD2    C112945   2.022   2.018  16.553 -0.0073 -0.1779  0.4965
  883MPD2    C212946   2.157   2.020  16.547  0.3201 -0.1261 -0.3145
  883MPD2    C312947   2.233   2.041  16.659  0.4265 -0.6743  0.0142
  883MPD2    C412948   2.163   2.071  16.773  0.7928 -0.7508 -0.3146
  883MPD2    C512949   2.024   2.072  16.775  0.5491 -0.4866 -0.2258
  883MPD2     H12950   2.212   2.002  16.455  0.0619  1.9346 -0.8765
  883MPD2    H112951   2.213   2.084  16.868  0.5006  2.0770 -0.5447
  883MPD2    H212952   1.847   2.035  16.678 -0.1809 -1.5574 -2.8121
  883MPD2    H312953   1.969   2.082  16.868  0.8420 -0.8279 -0.0149
  883MPD2     N12954   2.377   2.032  16.647  0.7440  0.6055  0.8715
  883MPD2    H512955   2.416   2.004  16.558 -0.2288  2.9775 -0.3000
  883MPD2    N112956   1.960   1.982  16.428 -0.6336  0.2614 -0.0807
  883MPD2    H712957   2.015   1.971  16.344  1.2413  0.5248  1.1103
  884MPD2     C12958   3.400   2.223  15.095  0.0250 -0.0253 -0.1449
  884MPD2    C112959   3.370   2.357  15.075 -0.1488 -0.3068 -0.3642
  884MPD2    C212960   3.259   2.411  15.132 -0.4976  0.1079  0.4950
  884MPD2    C312961   3.174   2.331  15.205 -0.1166  0.2128  0.4111
  884MPD2    C412962   3.199   2.198  15.218  0.2377  0.1230 -0.4645
  884MPD2    C512963   3.320   2.147  15.173 -0.0896  0.3219 -0.4158
  884MPD2     H12964   3.239   2.517  15.117  1.0228  0.3214 -0.0562
  884MPD2    H112965   3.121   2.137  15.262  1.3693 -0.1818  1.1166
  884MPD2    H212966   3.491   2.178  15.058 -0.3798  0.2475 -1.4616
  884MPD2    H312967   3.348   2.044  15.189 -0.9905  0.5641  2.8138
  884MPD2     N12968   3.056   2.395  15.254 -0.3495  0.3533  0.3956
  884MPD2    H512969   3.043   2.494  15.236  3.3585  1.2268  2.4035
  884MPD2    N112970   3.454   2.448  15.006  0.0958 -0.1613 -0.4480
  884MPD2    H712971   3.444   2.546  15.029 -0.1813 -0.4339  0.5956
  885MPD2     C12972   1.428   2.740   0.083 -0.2365 -0.0278  0.0348
  885MPD2    C112973   1.497   2.632   0.039 -0.5390  0.3469  0.0359
  885MPD2    C212974   1.536   2.613  17.587  0.0833 -0.2807  0.3597
  885MPD2    C312975   1.488   2.707  17.496  0.1254 -0.0837 -0.0058
  885MPD2    C412976   1.415   2.817  17.545 -0.6074  0.0216 -0.0596
  885MPD2    C512977   1.391   2.835  17.678 -0.3263 -0.3233  0.2265
  885MPD2     H12978   1.597   2.530  17.556  0.2335 -0.0067 -0.0723
  885MPD2    H112979   1.374   2.896  17.483 -0.7578 -0.2540 -0.3078
  885MPD2    H212980   1.403   2.769   0.184 -2.8390 -0.1613 -0.5609
  885MPD2    H312981   1.328   2.921   0.010 -0.1437 -0.1022 -0.1592
  885MPD2     N12982   1.533   2.692  17.358  0.3631  0.1880  0.4389
  885MPD2    H512983   1.578   2.604  17.334  0.0949  0.4211 -0.9132
  885MPD2    N112984   1.540   2.547   0.145  0.0255  0.0063 -0.2790
  885MPD2    H712985   1.533   2.577   0.242 -0.7435  0.1575 -0.3808
  886MPD2     C12986   2.758   0.786  14.982 -0.8416  0.2716  0.1164
  886MPD2    C112987   2.818   0.825  15.093 -0.2831  0.3591  1.1970
  886MPD2    C212988   2.810   0.957  15.128  0.0206 -0.2758 -0.3955
  886MPD2    C312989   2.762   1.049  15.029 -0.2530  0.0403 -0.5050
  886MPD2    C412990   2.695   1.004  14.917  0.3941  0.1789 -0.1965
  886MPD2    C512991   2.698   0.868  14.894  0.2016  0.6816 -0.2548
  886MPD2     H12992   2.845   0.972  15.230 -0.5338  1.9029 -0.5209
  886MPD2    H112993   2.653   1.072  14.843 -0.4677  0.5979  0.6792
  886MPD2    H212994   2.779   0.685  14.948 -0.9472  0.4018 -0.3296
  886MPD2    H312995   2.676   0.835  14.793  1.7636 -0.4349 -0.2291
  886MPD2     N12996   2.774   1.192  15.047  0.2801 -0.2848  0.1388
  886MPD2    H512997   2.738   1.261  14.982 -1.0019  1.4502  2.6720
  886MPD2    N112998   2.910   0.744  15.168 -0.0551  0.0715  0.5649
  886MPD2    H712999   2.969   0.794  15.235 -1.2236  1.1117  0.8204
  887MPD2     C13000   3.571   1.012  15.294 -0.0185 -0.5658  0.2849
  887MPD2    C113001   3.465   1.011  15.386 -0.3662  0.6386 -0.8334
  887MPD2    C213002   3.480   1.094  15.495  0.1740  0.2058 -0.0729
  887MPD2    C313003   3.593   1.171  15.519 -0.2350 -0.8396 -0.4341
  887MPD2    C413004   3.695   1.171  15.425 -0.4790 -0.7594  0.1780
  887MPD2    C513005   3.684   1.086  15.314 -0.3205 -0.4164  0.4103
  887MPD2     H13006   3.402   1.080  15.568 -0.0367 -1.0210 -0.5296
  887MPD2    H113007   3.787   1.228  15.431 -2.2624  2.2835 -0.8684
  887MPD2    H213008   3.579   0.943  15.211  0.9449 -1.9847  1.5504
  887MPD2    H313009   3.760   1.098  15.238  0.4464 -0.5558  1.1512
  887MPD2     N13010   3.588   1.247  15.638  0.0810  0.0121 -0.1255
  887MPD2    H513011   3.502   1.239  15.691 -0.1120  1.0123 -0.2984
  887MPD2    N113012   3.359   0.917  15.376  0.1146 -0.7042  0.3163
  887MPD2    H713013   3.300   0.902  15.458  0.9662 -1.0193  0.8763
  888MPD2     C13014   0.745   1.007  14.498 -0.8728  0.9449 -0.0804
  888MPD2    C113015   0.699   1.037  14.624 -0.2230 -0.3024  0.0170
  888MPD2    C213016   0.743   1.150  14.692  1.1697 -0.5124  0.1406
  888MPD2    C313017   0.831   1.240  14.630  0.8359  0.0951  0.1055
  888MPD2    C413018   0.867   1.212  14.499  0.1454 -0.3556 -0.4199
  888MPD2    C513019   0.819   1.097  14.430 -0.5717 -0.3417 -0.6609
  888MPD2     H13020   0.711   1.162  14.795 -0.5764  2.0956 -0.6961
  888MPD2    H113021   0.935   1.277  14.444  0.4484  1.6353  2.2455
  888MPD2    H213022   0.705   0.925  14.440  0.3553  1.4161 -1.6046
  888MPD2    H313023   0.848   1.089  14.326  1.2777 -1.5975 -0.0540
  888MPD2     N13024   0.874   1.348  14.711  0.1241  0.4657 -0.0240
  888MPD2    H513025   0.832   1.366  14.802 -0.9511  1.3107 -0.6837
  888MPD2    N113026   0.599   0.968  14.692  0.2324 -0.2689  0.3337
  888MPD2    H713027   0.580   0.997  14.787  2.3016 -0.2291  0.7246
  889MPD2     C13028   0.531   0.759  12.453 -0.0961 -0.2307 -0.5702
  889MPD2    C113029   0.509   0.742  12.589  0.2855 -0.3709  0.1231
  889MPD2    C213030   0.519   0.852  12.661 -0.2796 -0.0011  0.8661
  889MPD2    C313031   0.547   0.977  12.615  0.5050 -0.1093 -0.0726
  889MPD2    C413032   0.566   0.993  12.481 -0.1053 -0.3807 -0.1704
  889MPD2    C513033   0.553   0.888  12.399 -0.2436 -0.4771  0.7291
  889MPD2     H13034   0.484   0.836  12.762  1.4132 -0.7954  1.3149
  889MPD2    H113035   0.573   1.089  12.430 -0.0029 -1.1753 -1.6540
  889MPD2    H213036   0.504   0.684  12.380  1.2784 -0.7576 -0.5436
  889MPD2    H313037   0.545   0.913  12.294 -0.9686  0.1148  0.9268
  889MPD2     N13038   0.537   1.083  12.709  0.0033 -0.0501 -0.3438
  889MPD2    H513039   0.537   1.060  12.808  0.9892  1.4638  0.0106
  889MPD2    N113040   0.423   0.640  12.642  0.1766  0.2435  0.2948
  889MPD2    H713041   0.404   0.649  12.741  0.2263  0.3749  0.2923
  890MPD2     C13042   3.971   2.330  14.558 -0.1861 -0.4052  0.3566
  890MPD2    C113043   4.101   2.363  14.560  0.5361  0.0742 -0.1118
  890MPD2    C213044   4.173   2.311  14.667 -0.0291 -0.1645  0.0467
  890MPD2    C313045   4.114   2.218  14.751  0.0964  0.1741  0.0572
  890MPD2    C413046   3.976   2.185  14.745 -0.4835 -0.5894  0.3113
  890MPD2    C513047   3.905   2.249  14.645  0.1138  0.3650 -0.1718
  890MPD2     H13048   4.277   2.339  14.678 -0.3736  1.9065 -1.9266
  890MPD2    H113049   3.921   2.123  14.815 -1.6328  1.1860  0.9858
  890MPD2    H213050   3.906   2.380  14.488  0.0185  0.8648  1.0731
  890MPD2    H313051   3.798   2.233  14.642  0.4629 -2.0247 -0.2556
  890MPD2     N13052   4.183   2.158  14.854  0.2691 -0.1197  0.3707
  890MPD2    H513053   4.283   2.175  14.853  0.6847 -2.4903  3.8983
  890MPD2    N113054   4.157   2.451  14.459  0.4076 -0.6599  0.4232
  890MPD2    H713055   4.091   2.506  14.406 -0.7431 -1.1264  1.3605
  891MPD2     C13056   2.315   0.979  16.201  0.9913  0.2947 -0.4148
  891MPD2    C113057   2.270   1.097  16.259 -0.1987  0.3215 -0.0446
  891MPD2    C213058   2.343   1.156  16.355 -0.0999  0.7197 -0.3079
  891MPD2    C313059   2.466   1.108  16.401  0.1737  0.1471 -0.5878
  891MPD2    C413060   2.508   0.989  16.346  0.2371 -0.7440 -0.2148
  891MPD2    C513061   2.426   0.921  16.256 -0.0261  0.3825 -0.3712
  891MPD2     H13062   2.319   1.248  16.408 -0.4106 -0.2403  1.2186
  891MPD2    H113063   2.593   0.931  16.381 -0.4718 -0.0176  2.7175
  891MPD2    H213064   2.253   0.916  16.138 -1.2494  3.0967 -1.0122
  891MPD2    H313065   2.446   0.816  16.239  0.4452  0.1202  1.7728
  891MPD2     N13066   2.542   1.178  16.497 -0.2137  0.1070  0.3161
  891MPD2    H513067   2.493   1.254  16.544  0.2098  1.2877 -1.1495
  891MPD2    N113068   2.146   1.147  16.225 -0.4076 -0.0281 -0.1099
  891MPD2    H713069   2.093   1.105  16.149  0.5440 -2.1702  0.4349
  892MPD2     C13070   3.333   1.820  14.975  0.2516  0.4420 -0.0215
  892MPD2    C113071   3.239   1.824  14.876  0.2715 -0.0867 -0.0409
  892MPD2    C213072   3.274   1.787  14.752 -0.0872 -0.3133  0.3153
  892MPD2    C313073   3.403   1.738  14.720 -0.6078  0.1793 -0.4221
  892MPD2    C413074   3.497   1.743  14.821 -0.4563  0.9177 -0.0163
  892MPD2    C513075   3.463   1.788  14.943 -1.0523 -0.1261 -0.3211
  892MPD2     H13076   3.196   1.782  14.677  2.8457 -1.4411 -2.6520
  892MPD2    H113077   3.600   1.718  14.801 -0.4651  0.5432  0.4184
  892MPD2    H213078   3.318   1.842  15.080  0.2308 -0.9081  0.2674
  892MPD2    H313079   3.535   1.792  15.024 -1.9571  2.0298  0.3958
  892MPD2     N13080   3.443   1.700  14.592  0.6726  0.2295 -0.5735
  892MPD2    H513081   3.540   1.671  14.579  0.8348  0.1465  0.8358
  892MPD2    N113082   3.108   1.866  14.902  0.2717  0.0174 -0.3451
  892MPD2    H713083   3.050   1.882  14.820 -1.8779 -1.5137  0.8719
  893MPD2     C13084   4.524   0.411   1.208 -0.4882 -0.7685 -0.4833
  893MPD2    C113085   4.578   0.337   1.315  0.4222 -0.2804  0.7335
  893MPD2    C213086   4.493   0.302   1.422  0.3782  0.2511 -1.1695
  893MPD2    C313087   4.362   0.327   1.429 -0.6477 -0.0574  0.1946
  893MPD2    C413088   4.309   0.393   1.318  0.3253 -0.0518 -0.4021
  893MPD2    C513089   4.389   0.435   1.219 -0.5514  0.3806 -0.5945
  893MPD2     H13090   4.537   0.255   1.509 -3.0024 -1.0083 -0.1573
  893MPD2    H113091   4.201   0.399   1.313  0.0327 -1.6719  4.1487
  893MPD2    H213092   4.592   0.454   1.136 -0.4502 -1.0945 -0.6383
  893MPD2    H313093   4.345   0.503   1.147 -2.4113 -1.7340 -1.4382
  893MPD2     N13094   4.274   0.286   1.528 -0.0592  0.0340 -0.3185
  893MPD2    H513095   4.177   0.308   1.510  0.1907  1.5005  0.1272
  893MPD2    N113096   4.721   0.319   1.314 -0.5813  0.3683 -0.6276
  893MPD2    H713097   0.051   0.362   1.238  1.9960 -2.6293 -0.5796
  894MPD2     C13098   3.198   2.898   0.246 -0.3191 -0.6633 -0.1928
  894MPD2    C113099   3.245   2.780   0.310  0.3908 -0.2573  0.1776
  894MPD2    C213100   3.368   2.738   0.264 -0.6353 -0.4793 -0.8265
  894MPD2    C313101   3.450   2.809   0.179 -0.2494 -0.3494  0.2873
  894MPD2    C413102   3.396   2.915   0.118  0.5011 -0.4599 -0.1850
  894MPD2    C513103   3.272   2.963   0.149  0.0131  0.3490 -0.0260
  894MPD2     H13104   3.414   2.657   0.320 -1.2614  1.4863  2.5501
  894MPD2    H113105   3.451   2.972   0.044  0.0224 -2.9619 -2.4732
  894MPD2    H213106   3.094   2.926   0.260 -0.7036 -1.4607 -1.5015
  894MPD2    H313107   3.230   3.046   0.093 -0.7090 -0.7122 -1.0534
  894MPD2     N13108   3.577   2.748   0.159 -0.2521  0.0458  0.2912
  894MPD2    H513109   3.599   2.671   0.222 -0.3962 -1.3128 -1.3328
  894MPD2    N113110   3.171   2.708   0.407 -0.1508 -0.3086 -0.2225
  894MPD2    H713111   3.213   2.623   0.443 -1.1390 -0.0362  1.5827
  895MPD2     C13112   2.197   1.458  13.145  0.5305 -0.0528  0.4371
  895MPD2    C113113   2.103   1.426  13.051  0.6442 -0.4060 -0.0959
  895MPD2    C213114   2.125   1.305  12.981 -0.5185 -0.1525  0.2055
  895MPD2    C313115   2.237   1.224  12.992  0.4080 -0.2345  0.1801
  895MPD2    C413116   2.329   1.261  13.085 -0.3060  0.0156 -0.1255
  895MPD2    C513117   2.313   1.386  13.158 -0.3810 -0.0544 -1.0785
  895MPD2     H13118   2.037   1.279  12.924 -0.3650  0.8550 -0.4861
  895MPD2    H113119   2.421   1.204  13.086 -1.6967 -2.2380 -1.5149
  895MPD2    H213120   2.189   1.543  13.212  1.4488  0.3424  0.0401
  895MPD2    H313121   2.380   1.417  13.237 -1.2573  1.0995 -0.7975
  895MPD2     N13122   2.241   1.099  12.925 -0.5211 -0.0974 -0.1784
  895MPD2    H513123   2.316   1.035  12.952 -0.1644  0.1194 -0.6721
  895MPD2    N113124   1.984   1.498  13.032  0.4372 -0.1449 -0.7145
  895MPD2    H713125   1.928   1.476  12.951 -0.1967  0.2140 -0.3807
  896MPD2     C13126   0.080   3.635   1.958  0.1651  0.0435  0.4480
  896MPD2    C113127   0.153   3.592   1.849 -0.3936 -0.4120 -0.3403
  896MPD2    C213128   0.090   3.534   1.742 -0.2401  0.3496  0.2949
  896MPD2    C313129   4.678   3.506   1.745 -0.2734 -0.3007  0.6354
  896MPD2    C413130   4.604   3.540   1.855  0.0907 -0.1124 -0.3608
  896MPD2    C513131   4.665   3.608   1.961 -0.0123 -0.1717 -0.1932
  896MPD2     H13132   0.141   3.506   1.650  1.2164  0.4954  1.0597
  896MPD2    H113133   4.500   3.510   1.859  0.0663 -0.0008 -0.1351
  896MPD2    H213134   0.126   3.687   2.041  2.0762 -0.5773 -0.2365
  896MPD2    H313135   4.616   3.637   2.054  0.5005 -0.4060  0.1520
  896MPD2     N13136   4.631   3.433   1.633 -0.3244 -0.0931  0.5781
  896MPD2    H513137   4.702   3.421   1.561  0.4773  0.0681  1.3470
  896MPD2    N113138   0.292   3.626   1.840  0.0999 -0.2222 -0.2665
  896MPD2    H713139   0.326   3.660   1.930 -1.7845  0.6441  0.1066
  897MPD2     C13140   0.887   0.631  10.023  0.2145  0.6942 -0.4333
  897MPD2    C113141   0.838   0.736  10.104 -0.2013  0.1374  0.6325
  897MPD2    C213142   0.735   0.701  10.191 -0.8741 -0.0510  0.7067
  897MPD2    C313143   0.733   0.572  10.234  0.0314 -0.1586  0.7876
  897MPD2    C413144   0.793   0.467  10.161  0.1127 -0.0363  0.7862
  897MPD2    C513145   0.867   0.503  10.049  0.5315  0.2309 -0.5827
  897MPD2     H13146   0.669   0.775  10.236  1.1959  1.9725  0.3868
  897MPD2    H113147   0.772   0.363  10.182 -0.3564  0.2578  1.7788
  897MPD2    H213148   0.936   0.657   9.929 -0.6219  1.7325 -0.5922
  897MPD2    H313149   0.921   0.430   9.990 -1.4389  0.4237 -2.6315
  897MPD2     N13150   0.647   0.540  10.339 -0.3026  0.0431  0.1523
  897MPD2    H513151   0.586   0.611  10.379 -0.3721 -0.2936  0.6414
  897MPD2    N113152   0.866   0.870  10.075  0.3911  0.1645 -0.2671
  897MPD2    H713153   0.919   0.884   9.989 -0.3670  0.5784 -0.6703
  898MPD2     C13154   3.630   1.259   0.058  0.9963 -0.0640 -0.0631
  898MPD2    C113155   3.715   1.373   0.081  1.1476 -0.2184  0.6659
  898MPD2    C213156   3.681   1.494   0.027 -0.9948  0.3571 -0.8373
  898MPD2    C313157   3.560   1.514  17.657  0.0315 -0.3795 -0.5495
  898MPD2    C413158   3.469   1.409  17.648  0.6620 -0.0213 -0.7377
  898MPD2    C513159   3.509   1.281  17.683 -0.1788  0.1512 -0.2485
  898MPD2     H13160   3.752   1.577   0.026 -0.3632 -0.1786 -0.5286
  898MPD2    H113161   3.373   1.424  17.599 -0.7120  2.1223  2.5293
  898MPD2    H213162   3.656   1.157   0.087 -1.1119 -0.5863 -0.0537
  898MPD2    H313163   3.438   1.200  17.665  0.9088 -0.8704  0.1101
  898MPD2     N13164   3.529   1.644  17.623 -0.1841 -0.5629 -0.4528
  898MPD2    H513165   3.591   1.721  17.646 -0.3353 -0.7954  0.7489
  898MPD2    N113166   3.841   1.363   0.143  0.7081  0.3196  0.3423
  898MPD2    H713167   3.904   1.443   0.147  2.6406 -1.1120 -1.2405
  899MPD2     C13168   4.460   1.869  17.314 -0.7947  0.5955  0.1691
  899MPD2    C113169   4.363   1.936  17.382 -0.1069  0.1311  0.3756
  899MPD2    C213170   4.319   1.894  17.500 -0.0817 -0.0611  0.1287
  899MPD2    C313171   4.382   1.789  17.567 -0.1273  0.2474 -0.0788
  899MPD2    C413172   4.467   1.708  17.491 -0.4104  0.1832  0.0903
  899MPD2    C513173   4.506   1.753  17.375 -0.4817 -0.7420  0.9193
  899MPD2     H13174   4.241   1.953  17.547 -0.6500  0.0782 -0.9905
  899MPD2    H113175   4.515   1.622  17.537 -1.4336  0.0654  0.9486
  899MPD2    H213176   4.496   1.893  17.215  0.5412 -1.2421  0.2099
  899MPD2    H313177   4.586   1.700  17.325  0.0310  1.3362 -0.4788
  899MPD2     N13178   4.364   1.753   0.020 -0.9230  1.0144  0.0226
  899MPD2    H513179   4.391   1.659   0.046  1.7349  2.5128  2.6439
  899MPD2    N113180   4.299   2.053  17.322  1.0969 -0.7612 -0.4924
  899MPD2    H713181   4.350   2.080  17.238 -0.0569 -0.3048 -1.0492
  900MPD2     C13182   3.259   4.012  12.335 -0.3909 -0.1957 -0.2077
  900MPD2    C113183   3.305   3.944  12.221  0.9126  0.0402 -1.2999
  900MPD2    C213184   3.218   3.921  12.113 -0.5274  0.6557 -0.6456
  900MPD2    C313185   3.090   3.975  12.122 -0.2523 -0.0715 -0.4018
  900MPD2    C413186   3.050   4.044  12.238  0.5291 -0.4679  0.2234
  900MPD2    C513187   3.138   4.071  12.338 -0.6426 -0.5583 -0.0075
  900MPD2     H13188   3.248   3.865  12.026  0.5616  2.0039 -1.1221
  900MPD2    H113189   2.946   4.072  12.248  0.9445  1.2894 -0.3999
  900MPD2    H213190   3.324   4.031  12.419 -1.0403 -0.7888  0.4265
  900MPD2    H313191   3.102   4.115  12.431  1.6150 -1.5242  1.3220
  900MPD2     N13192   3.009   3.956  12.009 -0.4938 -0.6486 -0.6088
  900MPD2    H513193   3.051   3.922  11.923  0.4643 -3.7377  1.0813
  900MPD2    N113194   3.436   3.888  12.218  0.1319  0.4402  0.2095
  900MPD2    H713195   3.476   3.864  12.309 -1.4874 -0.2835  0.7473
  901MPD2     C13196   3.772   2.968  12.530 -1.0024  0.0338  0.7775
  901MPD2    C113197   3.802   2.970  12.395 -0.1161 -0.6771  0.4028
  901MPD2    C213198   3.763   3.078  12.312  0.3935  0.0297  0.1751
  901MPD2    C313199   3.714   3.193  12.372  0.7539 -0.6485  0.2184
  901MPD2    C413200   3.703   3.200  12.511  0.2935 -0.1699  0.2644
  901MPD2    C513201   3.726   3.086  12.587  0.8292 -0.0532 -0.0898
  901MPD2     H13202   3.790   3.072  12.207 -0.7394  3.0116 -0.3009
  901MPD2    H113203   3.651   3.286  12.549 -2.6077 -1.8376  0.0649
  901MPD2    H213204   3.789   2.882  12.595 -0.6182 -0.0106  0.6170
  901MPD2    H313205   3.714   3.097  12.694 -0.3853  1.3399 -0.3693
  901MPD2     N13206   3.695   3.305  12.286  0.0564 -0.0750 -0.2552
  901MPD2    H513207   3.740   3.291  12.196 -0.0178 -1.5537 -0.0773
  901MPD2    N113208   3.855   2.853  12.352  0.4723  0.3218  0.0998
  901MPD2    H713209   3.888   2.792  12.427  0.8850 -1.4965 -1.5616
  902MPD2     C13210   2.588   1.583  13.227  0.0817  0.0377  0.2251
  902MPD2    C113211   2.508   1.628  13.130  0.4938  0.0350 -0.1488
  902MPD2    C213212   2.520   1.568  13.000 -0.8666 -0.0798  0.3756
  902MPD2    C313213   2.619   1.475  12.973 -0.1165 -0.0319 -0.2482
  902MPD2    C413214   2.699   1.436  13.076 -0.2372 -0.0491  0.0126
  902MPD2    C513215   2.682   1.490  13.204 -0.4231  0.2093 -0.1226
  902MPD2     H13216   2.457   1.597  12.917 -3.2398 -2.8099  1.2001
  902MPD2    H113217   2.788   1.375  13.060 -0.1752  0.2137 -0.6460
  902MPD2    H213218   2.596   1.636  13.321  2.2990 -2.3920  1.3975
  902MPD2    H313219   2.747   1.468  13.288  1.4540 -3.9286 -2.6710
  902MPD2     N13220   2.642   1.413  12.844 -0.3630 -0.0513  0.2077
  902MPD2    H513221   2.720   1.349  12.833 -1.5472 -1.8420  2.3304
  902MPD2    N113222   2.419   1.735  13.165  0.2508 -0.5347  0.2728
  902MPD2    H713223   2.427   1.767  13.261 -0.9899  0.6370 -0.0214
  903MPD2     C13224   2.688   1.345  11.918 -0.1561 -0.8169 -0.0568
  903MPD2    C113225   2.591   1.377  12.012  0.0363 -0.5443 -0.5127
  903MPD2    C213226   2.482   1.440  11.972  0.6355  0.1188  0.2985
  903MPD2    C313227   2.447   1.455  11.844  0.3180  0.7068 -0.1359
  903MPD2    C413228   2.539   1.426  11.746 -0.3724  0.7924 -0.0524
  903MPD2    C513229   2.659   1.365  11.785  0.8218  0.7144 -0.5508
  903MPD2     H13230   2.405   1.471  12.042 -0.0337  0.1281 -0.4412
  903MPD2    H113231   2.535   1.445  11.640  1.4345  1.9885  0.1026
  903MPD2    H213232   2.782   1.304  11.953 -0.2728 -0.9026  0.1589
  903MPD2    H313233   2.724   1.325  11.708 -0.1059  0.0621 -0.9953
  903MPD2     N13234   2.314   1.500  11.808 -0.2238  0.0258  0.4855
  903MPD2    H513235   2.251   1.534  11.880  0.2727  1.3200  0.3210
  903MPD2    N113236   2.630   1.360  12.148  0.4165  0.3753 -0.1066
  903MPD2    H713237   2.728   1.338  12.164 -0.2054 -2.8923 -0.9548
  904MPD2     C13238   2.168   0.684  13.505  0.1175  0.2902 -0.7960
  904MPD2    C113239   2.165   0.655  13.643 -0.1650  0.2518  0.1942
  904MPD2    C213240   2.266   0.697  13.727 -0.0553 -0.1842  0.1853
  904MPD2    C313241   2.358   0.776  13.666 -0.1828 -0.3590 -0.4172
  904MPD2    C413242   2.370   0.796  13.531 -0.2034 -0.0720 -0.0965
  904MPD2    C513243   2.274   0.756  13.450  0.0731 -0.0236  0.9061
  904MPD2     H13244   2.254   0.680  13.833 -2.2099 -1.2706 -0.2276
  904MPD2    H113245   2.443   0.856  13.478 -0.6321  0.7436  0.2275
  904MPD2    H213246   2.094   0.665  13.429 -3.1444 -3.6177  3.3275
  904MPD2    H313247   2.273   0.777  13.344  1.4816 -0.9673  0.7008
  904MPD2     N13248   2.465   0.802  13.750  0.0666 -0.2394  0.1500
  904MPD2    H513249   2.467   0.751  13.837  1.5628  0.4744  0.5426
  904MPD2    N113250   2.037   0.620  13.701 -0.4856  0.2460  0.4661
  904MPD2    H713251   2.024   0.655  13.796 -2.0946  1.1520 -0.0939
  905MPD2     C13252   1.489   0.926  13.099 -0.2974  0.4220 -0.2267
  905MPD2    C113253   1.576   0.834  13.158  0.9089 -0.0369 -0.5792
  905MPD2    C213254   1.662   0.763  13.069  0.8520  0.3714 -1.0451
  905MPD2    C313255   1.678   0.788  12.932  0.6326  0.5458 -0.8402
  905MPD2    C413256   1.585   0.881  12.883  0.1226  0.2164 -0.9809
  905MPD2    C513257   1.494   0.947  12.961  0.1478 -0.0865 -0.0386
  905MPD2     H13258   1.738   0.699  13.115  2.1101  3.5932  1.3463
  905MPD2    H113259   1.598   0.901  12.777  0.0494  0.2572 -0.9823
  905MPD2    H213260   1.426   0.990  13.160 -0.3873  0.9155 -0.8380
  905MPD2    H313261   1.420   1.012  12.916  0.7568  0.2413 -0.5823
  905MPD2     N13262   1.784   0.758  12.853  0.1655 -0.2915  0.4085
  905MPD2    H513263   1.793   0.806  12.764  1.8088  0.3398  0.9217
  905MPD2    N113264   1.575   0.815  13.296  0.3457  0.0864 -0.3891
  905MPD2    H713265   1.545   0.892  13.354  1.8793  0.4573 -0.1013
  906MPD2     C13266   4.415   0.860  11.149 -0.1994  0.6146 -0.3783
  906MPD2    C113267   4.419   0.812  11.021  0.0647 -0.7054  0.4704
  906MPD2    C213268   4.428   0.673  11.000  0.4471 -0.3084 -0.0660
  906MPD2    C313269   4.456   0.580  11.097  0.9995 -0.5645  0.1401
  906MPD2    C413270   4.473   0.630  11.227  1.3865  0.5631 -1.2298
  906MPD2    C513271   4.448   0.766  11.252  0.1599  0.4822 -0.3091
  906MPD2     H13272   4.412   0.636  10.899  0.2400 -2.8274  0.8778
  906MPD2    H113273   4.499   0.564  11.309  1.9459  1.2701 -0.8433
  906MPD2    H213274   4.391   0.961  11.178 -1.2404 -0.1623  1.4856
  906MPD2    H313275   4.437   0.799  11.354  0.7881  0.5801 -0.2763
  906MPD2     N13276   4.457   0.441  11.071  0.0323 -0.2949  0.0544
  906MPD2    H513277   4.473   0.377  11.148 -2.7040  0.6812  1.4181
  906MPD2    N113278   4.382   0.889  10.914  0.1965  0.2471  0.1977
  906MPD2    H713279   4.369   0.845  10.823  2.0094 -0.3021  0.1956
  907MPD2     C13280   3.032   4.447  15.208 -0.7250 -0.1069  0.0146
  907MPD2    C113281   3.117   4.333  15.204  0.1506 -0.2128 -0.1721
  907MPD2    C213282   3.200   4.310  15.314 -0.3194  0.3363  0.1826
  907MPD2    C313283   3.209   4.402  15.416  0.8791  0.5617  0.1282
  907MPD2    C413284   3.121   4.514  15.426 -0.6567  0.2244  0.4835
  907MPD2    C513285   3.030   4.531  15.320  0.3039  0.0107 -0.4347
  907MPD2     H13286   3.249   4.214  15.325  1.0970  0.8527 -1.4980
  907MPD2    H113287   3.110   4.573  15.517 -0.0423 -1.2208  1.4930
  907MPD2    H213288   2.961   4.469  15.129 -1.0765 -1.5552 -0.0817
  907MPD2    H313289   2.965   4.617  15.327  0.4543  0.1382 -0.6087
  907MPD2     N13290   3.314   4.379  15.511 -0.0097  0.1018 -0.0345
  907MPD2    H513291   3.357   4.289  15.495  0.6710  0.3062  0.6421
  907MPD2    N113292   3.123   4.241  15.098  0.5642  0.0346  0.1072
  907MPD2    H713293   3.182   4.160  15.115 -2.7270 -2.5750 -0.8006
  908MPD2     C13294   0.843   1.058   9.271  0.5880  0.3530  0.3351
  908MPD2    C113295   0.900   0.948   9.335 -0.7749  0.0857 -0.2401
  908MPD2    C213296   0.948   0.975   9.462 -0.3783 -0.0382 -0.0526
  908MPD2    C313297   0.914   1.090   9.533 -0.1629  0.8580  0.2978
  908MPD2    C413298   0.843   1.188   9.463  0.2431  0.1893 -0.0654
  908MPD2    C513299   0.809   1.176   9.330 -0.4278 -0.0290 -0.5254
  908MPD2     H13300   0.998   0.896   9.516 -2.5173 -1.3312  0.0264
  908MPD2    H113301   0.808   1.281   9.505 -2.2215 -0.6153 -0.3291
  908MPD2    H213302   0.805   1.043   9.171 -1.4396 -0.9361  1.2981
  908MPD2    H313303   0.755   1.257   9.282  0.1266  0.0491 -1.0130
  908MPD2     N13304   0.949   1.112   9.667 -0.5263 -0.1450  0.3110
  908MPD2    H513305   0.991   1.035   9.717  1.4271  0.1550 -0.8590
  908MPD2    N113306   0.932   0.829   9.273  0.0791 -0.3813 -0.0062
  908MPD2    H713307   0.980   0.763   9.333  0.7434  0.0207 -0.0863
  909MPD2     C13308   1.774   3.124  11.665 -0.4827  0.1418  0.9117
  909MPD2    C113309   1.747   3.252  11.622  0.1464 -0.3961 -0.3090
  909MPD2    C213310   1.636   3.311  11.677  0.3877 -0.2865  0.4794
  909MPD2    C313311   1.560   3.265  11.779  0.6799 -0.2575 -0.2556
  909MPD2    C413312   1.597   3.146  11.829 -0.0962 -0.3500 -0.6901
  909MPD2    C513313   1.697   3.077  11.772 -0.4256 -0.0898  0.0966
  909MPD2     H13314   1.602   3.399  11.624 -1.2947  0.5539  2.9614
  909MPD2    H113315   1.534   3.102  11.906  0.4429  0.8658  0.4514
  909MPD2    H213316   1.852   3.057  11.633  0.0104  0.9926  0.3024
  909MPD2    H313317   1.715   2.974  11.802  0.6089  0.9306  2.9645
  909MPD2     N13318   1.448   3.337  11.824 -0.1644 -0.2209 -0.4187
  909MPD2    H513319   1.424   3.425  11.780  0.1749  1.0690  1.9501
  909MPD2    N113320   1.802   3.308  11.510  0.2261  0.6987 -0.3207
  909MPD2    H713321   1.760   3.388  11.462 -0.2973  0.2821 -0.5564
  910MPD2     C13322   2.841   0.523  15.766 -0.0861 -0.2372  0.6556
  910MPD2    C113323   2.870   0.406  15.697  0.0605  0.1956 -0.7418
  910MPD2    C213324   2.810   0.378  15.577 -0.0913  0.1821  0.7498
  910MPD2    C313325   2.712   0.474  15.535 -0.6105  0.4436 -0.1560
  910MPD2    C413326   2.682   0.592  15.598 -0.0787 -0.6613  0.1848
  910MPD2    C513327   2.751   0.611  15.718 -0.3303  0.2350  0.3083
  910MPD2     H13328   2.833   0.279  15.538  0.3491  1.6038 -2.6401
  910MPD2    H113329   2.607   0.666  15.572 -0.9013 -1.0825  1.3633
  910MPD2    H213330   2.896   0.552  15.855  1.2665  2.3686 -1.0543
  910MPD2    H313331   2.731   0.701  15.776  0.1055 -0.0282  0.8674
  910MPD2     N13332   2.632   0.458  15.423  0.1078  0.1674 -0.2054
  910MPD2    H513333   2.565   0.531  15.402  1.2610  0.4490 -2.9057
  910MPD2    N113334   2.961   0.306  15.751 -0.5377 -0.4599  0.2025
  910MPD2    H713335   2.990   0.230  15.689 -0.9494 -1.2805  1.0237
  911MPD2     C13336   0.559   0.893  15.744 -0.3877  0.2655  0.7622
  911MPD2    C113337   0.558   0.922  15.879  0.6915 -0.1089 -0.8130
  911MPD2    C213338   0.456   0.998  15.934 -0.0100 -0.5864  0.1560
  911MPD2    C313339   0.367   1.052  15.841  0.3051  0.1635  0.2164
  911MPD2    C413340   0.363   1.016  15.709 -0.1275  0.1319 -1.0109
  911MPD2    C513341   0.460   0.930  15.660 -0.5393 -0.3319 -0.7592
  911MPD2     H13342   0.460   1.026  16.039  0.2245 -0.5774  0.1451
  911MPD2    H113343   0.283   1.053  15.646 -0.9937  0.6900  0.4098
  911MPD2    H213344   0.631   0.829  15.695 -1.3994  2.0708 -3.1458
  911MPD2    H313345   0.469   0.919  15.552  0.1650  0.8664 -0.8255
  911MPD2     N13346   0.267   1.148  15.869 -0.5298  0.5394 -0.0665
  911MPD2    H513347   0.214   1.158  15.784  1.9833 -0.1850 -1.7230
  911MPD2    N113348   0.669   0.872  15.956 -0.6353 -0.1651 -0.0661
  911MPD2    H713349   0.712   0.788  15.919  2.2855  0.2379  2.4257
  912MPD2     C13350   0.061   1.052  15.363 -0.2416  0.5755 -0.0261
  912MPD2    C113351   0.030   1.056  15.498  0.0969 -0.3624  0.5820
  912MPD2    C213352   0.051   0.939  15.571 -0.3699  0.0752  0.3366
  912MPD2    C313353   0.093   0.822  15.515 -0.0011 -1.2000 -0.4337
  912MPD2    C413354   0.105   0.815  15.379 -0.7061 -0.0339 -0.6562
  912MPD2    C513355   0.093   0.932  15.309 -0.0291  0.0849 -0.1517
  912MPD2     H13356   0.046   0.944  15.679 -0.3142 -1.4036  0.3956
  912MPD2    H113357   0.129   0.727  15.321 -0.2488  0.4444 -1.1908
  912MPD2    H213358   0.065   1.137  15.296 -0.8476  0.6221 -0.0008
  912MPD2    H313359   0.109   0.928  15.202 -1.6575  0.4516 -0.4092
  912MPD2     N13360   0.120   0.712  15.601  0.1504 -0.0053  0.0301
  912MPD2    H513361   0.124   0.736  15.700 -0.9832 -0.4858  0.1906
  912MPD2    N113362   0.004   1.187  15.552  0.5196 -0.6099  0.1602
  912MPD2    H713363   0.038   1.268  15.502  0.6089 -2.0973 -2.2005
  913MPD2     C13364   1.460   2.125  10.543 -0.2318 -0.9464  0.2457
  913MPD2    C113365   1.453   2.246  10.584  0.1906 -0.2346  0.0764
  913MPD2    C213366   1.411   2.347  10.498 -0.6770  0.4530 -0.2258
  913MPD2    C313367   1.382   2.318  10.362 -0.1752 -0.1527  0.4708
  913MPD2    C413368   1.398   2.182  10.322 -0.2486  0.7088 -0.2287
  913MPD2    C513369   1.448   2.090  10.409 -0.1261  0.5126 -0.9370
  913MPD2     H13370   1.401   2.450  10.528 -0.2408  0.4864 -0.1978
  913MPD2    H113371   1.365   2.151  10.223 -0.7117 -2.1245  0.8062
  913MPD2    H213372   1.484   2.040  10.607 -0.8259 -0.1343  1.5582
  913MPD2    H313373   1.464   1.991  10.368  1.3181 -0.0582  1.0110
  913MPD2     N13374   1.356   2.418  10.266 -0.1882  0.0606 -0.2405
  913MPD2    H513375   1.353   2.386  10.170 -1.3129 -1.9325  0.4553
  913MPD2    N113376   1.471   2.263  10.727  0.0203  0.1842  0.0546
  913MPD2    H713377   1.478   2.177  10.780 -0.1308  0.7337  0.9635
  914MPD2     C13378   3.398   2.745  11.718  0.9119  0.0665 -0.4593
  914MPD2    C113379   3.431   2.819  11.828 -0.6030 -0.3582  0.1865
  914MPD2    C213380   3.550   2.786  11.893 -0.1835 -0.2372 -0.4437
  914MPD2    C313381   3.627   2.682  11.847 -0.3710 -0.3290 -0.3975
  914MPD2    C413382   3.587   2.620  11.730  0.1763 -0.1859 -0.1560
  914MPD2    C513383   3.476   2.650  11.668  0.3147 -0.5163 -0.1180
  914MPD2     H13384   3.592   2.838  11.979 -2.5231  0.6253  0.1726
  914MPD2    H113385   3.661   2.560  11.680  1.3682  0.9736  0.2038
  914MPD2    H213386   3.318   2.776  11.653 -0.2023 -2.3020 -0.2318
  914MPD2    H313387   3.455   2.603  11.573  0.8872 -2.0434  0.5144
  914MPD2     N13388   3.748   2.658  11.919 -0.8281  0.0823  0.0529
  914MPD2    H513389   3.776   2.722  11.992 -0.5766  0.5697 -0.4695
  914MPD2    N113390   3.354   2.932  11.863  0.2574  0.7642  0.5581
  914MPD2    H713391   3.275   2.955  11.804  1.7911  0.3303 -1.6588
  915MPD2     C13392   1.500   2.202  15.021 -0.1879 -0.5318 -0.0354
  915MPD2    C113393   1.382   2.193  15.093 -0.1233 -1.0451  0.3455
  915MPD2    C213394   1.384   2.216  15.231  0.0510 -0.6106  0.3752
  915MPD2    C313395   1.501   2.248  15.291 -0.4954 -0.5546  0.7520
  915MPD2    C413396   1.622   2.243  15.219  0.1921  0.6727  0.1802
  915MPD2    C513397   1.614   2.219  15.083 -0.2131  0.6444 -0.0436
  915MPD2     H13398   1.293   2.228  15.290 -0.2984  0.3954 -0.3710
  915MPD2    H113399   1.719   2.272  15.260  0.7131 -1.4673  0.4814
  915MPD2    H213400   1.498   2.197  14.913  1.3892  3.6183 -0.2585
  915MPD2    H313401   1.704   2.236  15.024  0.0030  0.7241  0.3091
  915MPD2     N13402   1.493   2.288  15.430 -0.0024 -0.0594  0.2249
  915MPD2    H513403   1.406   2.266  15.478 -1.1739  2.0649 -0.9304
  915MPD2    N113404   1.261   2.169  15.015 -0.4332 -0.3321  0.1199
  915MPD2    H713405   1.278   2.145  14.918  0.4500  0.4257  0.0811
  916MPD2     C13406   4.524   0.628  15.599 -0.5379 -0.4674  0.3780
  916MPD2    C113407   4.545   0.596  15.728 -0.6198  0.2899 -0.3238
  916MPD2    C213408   4.576   0.466  15.758 -0.7872 -0.2912 -0.4282
  916MPD2    C313409   4.576   0.373  15.662  0.6080  0.3517  0.4204
  916MPD2    C413410   4.549   0.410  15.525 -0.1394 -0.5601  0.9161
  916MPD2    C513411   4.522   0.539  15.497 -0.4618 -0.6605  0.0204
  916MPD2     H13412   4.595   0.430  15.859  0.2135  2.8076  0.4725
  916MPD2    H113413   4.546   0.336  15.446 -0.3568  1.9481 -1.4344
  916MPD2    H213414   4.500   0.728  15.566 -1.1605 -0.5860  0.4495
  916MPD2    H313415   4.514   0.568  15.393  0.6425  3.2479  1.0320
  916MPD2     N13416   4.595   0.237  15.703 -0.0307 -0.3035 -0.4491
  916MPD2    H513417   4.610   0.217  15.801 -2.2987  0.0716 -0.0321
  916MPD2    N113418   4.549   0.705  15.820  0.3208 -0.9923  0.1644
  916MPD2    H713419   4.540   0.799  15.781 -0.9674 -1.2160 -0.0720
  917MPD2     C13420   4.710   3.338  10.594 -0.1991 -0.3525 -0.0093
  917MPD2    C113421   0.035   3.414  10.702  0.0499  0.1476  0.2626
  917MPD2    C213422   0.143   3.501  10.681 -0.1681  0.0652 -0.9493
  917MPD2    C313423   0.198   3.513  10.555 -0.1757 -0.1460  0.3738
  917MPD2    C413424   0.131   3.460  10.445 -0.1451 -0.1700 -0.4875
  917MPD2    C513425   0.032   3.365  10.467 -0.8796  0.0627  0.4063
  917MPD2     H13426   0.179   3.557  10.767  0.2107 -3.5712  1.2385
  917MPD2    H113427   0.159   3.494  10.346  1.6276  0.9837  0.4235
  917MPD2    H213428   4.631   3.265  10.608 -0.1826 -0.1307  1.2302
  917MPD2    H313429   4.711   3.321  10.377  1.1012 -1.6553  0.3060
  917MPD2     N13430   0.312   3.586  10.527 -0.2495  0.3683  0.2655
  917MPD2    H513431   0.346   3.599  10.432  1.6992  0.4256  0.9839
  917MPD2    N113432   4.697   3.388  10.834  0.3110 -0.0904 -0.4072
  917MPD2    H713433   4.620   3.322  10.836  0.6714 -0.5239 -1.0102
  918MPD2     C13434   0.178   3.760  11.747 -0.0153 -0.8390  0.4132
  918MPD2    C113435   0.245   3.648  11.724  0.3792 -0.4509 -0.5237
  918MPD2    C213436   0.213   3.570  11.617 -0.1797  0.7500  0.1133
  918MPD2    C313437   0.107   3.606  11.534  0.4853  0.1949  0.1648
  918MPD2    C413438   0.057   3.733  11.546  0.6727 -0.1663  0.0349
  918MPD2    C513439   0.096   3.813  11.651 -0.0771  0.3782  1.1428
  918MPD2     H13440   0.255   3.471  11.608  0.3059  0.9713 -0.0492
  918MPD2    H113441   4.711   3.778  11.474 -0.0894  1.0129  1.4823
  918MPD2    H213442   0.201   3.811  11.840 -1.9864 -1.2520  1.1273
  918MPD2    H313443   0.054   3.910  11.673  1.2805  0.9013  1.4670
  918MPD2     N13444   0.061   3.529  11.429 -0.4716 -0.2385 -0.2800
  918MPD2    H513445   0.004   3.581  11.364  0.3298 -0.4476 -1.1430
  918MPD2    N113446   0.334   3.599  11.818 -0.4628  0.0056  0.4243
  918MPD2    H713447   0.379   3.515  11.783 -0.8533 -0.5089  1.1493
  919MPD2     C13448   0.653   2.376  11.419 -0.1321 -0.1844 -1.0363
  919MPD2    C113449   0.740   2.269  11.411  1.8301 -0.2055  0.2099
  919MPD2    C213450   0.815   2.249  11.297 -0.3777 -0.4387  0.0922
  919MPD2    C313451   0.801   2.333  11.188  0.3222 -0.6959 -0.1674
  919MPD2    C413452   0.701   2.427  11.185 -0.6419  0.2145  0.0848
  919MPD2    C513453   0.632   2.455  11.306  0.4026  0.4139  0.5222
  919MPD2     H13454   0.882   2.164  11.297  0.5185  0.2683  0.9253
  919MPD2    H113455   0.675   2.478  11.093  1.2689  0.8937 -0.0868
  919MPD2    H213456   0.575   2.389  11.493  0.6943  2.8762 -0.7088
  919MPD2    H313457   0.568   2.542  11.312 -1.7081 -1.1470  0.2078
  919MPD2     N13458   0.872   2.314  11.072 -0.3402  0.0661 -0.5152
  919MPD2    H513459   0.862   2.387  11.003  2.1726  0.2507 -0.7053
  919MPD2    N113460   0.761   2.178  11.521 -0.2431  0.2904 -0.2000
  919MPD2    H713461   0.825   2.102  11.499 -0.6801  0.2217 -1.2341
  920MPD2     C13462   0.966   2.831  10.295 -0.4444  0.1639 -0.4164
  920MPD2    C113463   0.905   2.711  10.258 -0.7857 -0.1826 -0.0028
  920MPD2    C213464   0.930   2.597  10.336  0.0221 -0.3662 -0.1469
  920MPD2    C313465   1.014   2.597  10.444 -0.1544 -0.0684 -0.8794
  920MPD2    C413466   1.079   2.715  10.476 -0.6946  0.3417 -0.0336
  920MPD2    C513467   1.054   2.832  10.396  0.3690  0.0350  1.1309
  920MPD2     H13468   0.873   2.506  10.321 -3.1886  1.4385  1.0546
  920MPD2    H113469   1.153   2.726  10.554  0.8745 -1.9513 -1.2108
  920MPD2    H213470   0.955   2.924  10.241  1.0566 -0.5578 -1.9927
  920MPD2    H313471   1.104   2.927  10.412 -0.2744  0.4396  0.7343
  920MPD2     N13472   1.035   2.475  10.516  0.6099  0.2395 -0.6441
  920MPD2    H513473   0.982   2.392  10.491 -0.4130  0.7498 -0.1926
  920MPD2    N113474   0.814   2.700  10.150 -0.2508  0.0053  0.1061
  920MPD2    H713475   0.776   2.608  10.131 -0.2065 -0.0389  0.2319
  921MPD2     C13476   1.399   1.335  16.479  0.5543 -0.7957  0.3105
  921MPD2    C113477   1.415   1.247  16.380 -0.4626  0.2921  0.1020
  921MPD2    C213478   1.318   1.149  16.356  0.0465 -0.0839 -0.2056
  921MPD2    C313479   1.196   1.142  16.423  0.0144  0.4428 -0.6045
  921MPD2    C413480   1.176   1.235  16.523 -0.0324  1.1155  0.0273
  921MPD2    C513481   1.276   1.327  16.553 -0.1156 -0.0217 -1.3399
  921MPD2     H13482   1.350   1.075  16.283 -1.4274  0.1126 -1.0555
  921MPD2    H113483   1.083   1.234  16.580 -1.1260  0.3367 -1.7807
  921MPD2    H213484   1.459   1.415  16.521  1.3500 -1.0133 -0.4385
  921MPD2    H313485   1.262   1.390  16.640  0.4734  0.2868 -1.4613
  921MPD2     N13486   1.093   1.044  16.393  0.0615  0.2812 -0.4326
  921MPD2    H513487   0.999   1.072  16.419 -0.7888 -0.3250 -2.8437
  921MPD2    N113488   1.536   1.257  16.306 -0.3709 -0.6073 -0.5731
  921MPD2    H713489   1.547   1.190  16.230  0.5974 -1.0252 -0.0691
  922MPD2     C13490   2.544   3.352  16.798  0.9176 -0.2728 -0.1709
  922MPD2    C113491   2.475   3.457  16.863  0.3962  0.4627  0.7810
  922MPD2    C213492   2.364   3.425  16.926  0.4086 -0.3070  0.6177
  922MPD2    C313493   2.318   3.296  16.942 -0.8723 -0.2613  0.2314
  922MPD2    C413494   2.380   3.200  16.874 -0.1098  0.6618  0.0340
  922MPD2    C513495   2.494   3.223  16.808 -0.3687 -0.1325 -0.1763
  922MPD2     H13496   2.326   3.503  16.992  0.1236  0.0958 -0.0315
  922MPD2    H113497   2.357   3.095  16.892  1.9361  0.2454  0.1657
  922MPD2    H213498   2.640   3.357  16.748 -0.0398 -0.3280 -2.0106
  922MPD2    H313499   2.540   3.136  16.763  2.4138 -0.8243  4.0007
  922MPD2     N13500   2.217   3.286  17.040  0.4376 -0.3463 -0.2383
  922MPD2    H513501   2.159   3.369  17.051 -0.1688 -0.8533  0.4353
  922MPD2    N113502   2.521   3.587  16.865  0.1270  0.2808 -0.5228
  922MPD2    H713503   2.478   3.653  16.929  0.4145 -0.4615  0.4407
  923MPD2     C13504   3.426   1.272   8.708 -0.7964  0.7528  0.2118
  923MPD2    C113505   3.524   1.344   8.771 -0.1301 -0.1569 -0.7250
  923MPD2    C213506   3.640   1.280   8.819 -0.1517 -0.4878 -0.7310
  923MPD2    C313507   3.660   1.147   8.791 -0.6036 -0.2816  0.1525
  923MPD2    C413508   3.563   1.080   8.713  1.3215 -0.5965 -0.4482
  923MPD2    C513509   3.447   1.144   8.674  0.1490  0.2421 -0.2677
  923MPD2     H13510   3.716   1.329   8.879  0.7410 -2.3085 -0.3817
  923MPD2    H113511   3.568   0.972   8.698 -0.5142 -0.8301  0.6474
  923MPD2    H213512   3.333   1.320   8.681 -1.8058 -1.7520 -0.7235
  923MPD2    H313513   3.374   1.086   8.619  0.9134  0.7983 -1.8878
  923MPD2     N13514   3.775   1.081   8.845  0.7490 -0.0503  0.2595
  923MPD2    H513515   3.770   0.979   8.850 -0.0951  0.0339  1.0571
  923MPD2    N113516   3.492   1.481   8.813 -0.5546 -0.8376  0.7379
  923MPD2    H713517   3.400   1.514   8.785 -0.2353 -0.0941  0.5607
  924MPD2     C13518   3.583   3.679  15.715 -0.1540 -0.5749 -0.8757
  924MPD2    C113519   3.616   3.756  15.826 -0.4598 -0.0845  0.4204
  924MPD2    C213520   3.649   3.891  15.805 -0.1897  0.1351  0.0894
  924MPD2    C313521   3.642   3.948  15.675 -0.0409  1.2605 -0.1940
  924MPD2    C413522   3.604   3.866  15.572  0.4216  0.0616  0.0313
  924MPD2    C513523   3.581   3.734  15.589  0.3841  0.8771 -0.5424
  924MPD2     H13524   3.649   3.955  15.893  1.3202  0.2695 -0.0011
  924MPD2    H113525   3.583   3.902  15.472  0.8810 -0.6648 -0.3254
  924MPD2    H213526   3.564   3.574  15.733  2.0695 -0.9518 -0.6968
  924MPD2    H313527   3.561   3.673  15.502 -2.3689  0.5612  0.3209
  924MPD2     N13528   3.645   4.087  15.660  0.5229 -0.0084  0.0150
  924MPD2    H513529   3.611   4.136  15.578  1.6010 -0.0726 -0.4743
  924MPD2    N113530   3.601   3.705  15.952  0.6971 -0.7401 -0.1800
  924MPD2    H713531   3.568   3.609  15.957  1.4418 -1.0915 -2.1444
  925MPD2     C13532   2.319   1.792  14.675 -0.1820  0.6039  0.2849
  925MPD2    C113533   2.211   1.851  14.610  0.1371  0.9581 -0.7437
  925MPD2    C213534   2.129   1.943  14.680 -0.6899  0.0364 -0.0615
  925MPD2    C313535   2.170   1.987  14.803  0.0695 -0.0386  0.5773
  925MPD2    C413536   2.285   1.942  14.862  0.4589  0.3797  0.0571
  925MPD2    C513537   2.358   1.840  14.803 -0.1282  0.2258 -0.2136
  925MPD2     H13538   2.035   1.981  14.641 -0.9710 -1.6368 -1.0312
  925MPD2    H113539   2.312   1.969  14.964  0.9173  0.5991 -0.1227
  925MPD2    H213540   2.385   1.721  14.625 -0.2001  1.4606 -0.9477
  925MPD2    H313541   2.437   1.798  14.863 -0.2842  0.8321  0.4153
  925MPD2     N13542   2.074   2.065  14.875  0.6273 -0.2808  0.4000
  925MPD2    H513543   1.989   2.094  14.827  0.8529  1.1787  0.8921
  925MPD2    N113544   2.181   1.822  14.474 -0.1844  0.1377 -0.2694
  925MPD2    H713545   2.097   1.861  14.432 -0.5184  1.3674  1.5427
  926MPD2     C13546   1.250   4.603  13.562  0.1752  0.3665 -0.2768
  926MPD2    C113547   1.168   4.664  13.468  0.0554 -0.3201 -0.4866
  926MPD2    C213548   1.219   4.718  13.357  0.9978  0.4721 -0.1503
  926MPD2    C313549   1.353   4.708  13.325 -0.0929 -0.0672  0.2001
  926MPD2    C413550   1.435   4.648  13.417 -0.2560 -0.1123  0.0592
  926MPD2    C513551   1.382   4.598  13.531 -0.0534  0.2172  0.6893
  926MPD2     H13552   1.158   0.065  13.300  1.2576  0.5887 -0.2908
  926MPD2    H113553   1.541   4.646  13.395 -0.2635 -0.8902  0.1095
  926MPD2    H213554   1.218   4.565  13.659 -0.2964 -1.0342 -0.9791
  926MPD2    H313555   1.455   4.555  13.599  0.7989 -0.7100 -0.8000
  926MPD2     N13556   1.413   0.057  13.215  0.4125  0.1007  0.2301
  926MPD2    H513557   1.513   0.052  13.200  0.4916  3.4605 -0.3889
  926MPD2    N113558   1.025   4.677  13.490 -0.3755  0.3300  0.4741
  926MPD2    H713559   0.990   0.026  13.425 -0.5983 -0.7454 -0.5778
  927MPD2     C13560   0.597   2.177   0.257 -0.5199  0.0077 -0.5862
  927MPD2    C113561   0.729   2.175   0.289 -0.6411 -0.1058  0.9582
  927MPD2    C213562   0.802   2.053   0.267 -0.3723 -0.1833  0.4472
  927MPD2    C313563   0.736   1.941   0.254 -0.1972 -0.2730  0.1934
  927MPD2    C413564   0.597   1.943   0.237 -0.1352  0.6780  0.0630
  927MPD2    C513565   0.527   2.059   0.226 -0.0602 -0.1878 -0.3202
  927MPD2     H13566   0.909   2.051   0.285 -0.7900 -2.4524  2.7066
  927MPD2    H113567   0.557   1.844   0.220  0.6927  0.5496 -1.2108
  927MPD2    H213568   0.540   2.268   0.248 -1.1061 -0.5420 -2.3805
  927MPD2    H313569   0.423   2.059   0.196 -0.2779 -1.2083  0.4078
  927MPD2     N13570   0.818   1.828   0.230  0.7616 -0.3285  0.0686
  927MPD2    H513571   0.917   1.849   0.237  0.3098  1.1668  1.9549
  927MPD2    N113572   0.796   2.296   0.332 -0.7313  0.2754  0.5527
  927MPD2    H713573   0.896   2.292   0.343 -0.3526 -0.9987 -3.0406
  928MPD2     C13574   4.566   0.823   1.530  0.2740  0.4203 -0.7917
  928MPD2    C113575   4.449   0.760   1.486 -0.0660  0.3314  0.1888
  928MPD2    C213576   4.417   0.775   1.349 -0.4455  0.0288 -0.2949
  928MPD2    C313577   4.507   0.835   1.261  0.0267 -0.7467 -0.0610
  928MPD2    C413578   4.623   0.893   1.318  0.3331 -0.4972 -0.3532
  928MPD2    C513579   4.649   0.892   1.450  0.1355  0.5561 -0.0964
  928MPD2     H13580   4.330   0.728   1.304 -0.9573 -0.2109  0.9432
  928MPD2    H113581   4.691   0.953   1.259  1.3956 -0.9708  0.4080
  928MPD2    H213582   4.595   0.816   1.634 -2.1015  0.4962 -0.1242
  928MPD2    H313583   0.015   0.948   1.480 -0.1200 -0.0035  1.6629
  928MPD2     N13584   4.492   0.837   1.120 -0.0400  0.3592 -0.1164
  928MPD2    H513585   4.572   0.873   1.070  1.2656 -2.1546  0.1336
  928MPD2    N113586   4.372   0.705   1.591  0.4385  0.1370  0.0120
  928MPD2    H713587   4.398   0.697   1.689 -1.6638  3.1320  0.7919
  929MPD2     C13588   3.700   1.280  10.188 -0.6414 -0.0672  1.0176
  929MPD2    C113589   3.684   1.157  10.121 -0.5426 -0.3220 -0.0097
  929MPD2    C213590   3.790   1.110  10.052  0.2514  0.1396 -0.1552
  929MPD2    C313591   3.901   1.190  10.029  0.2111  0.1238  0.5565
  929MPD2    C413592   3.922   1.302  10.104  0.0472 -0.6277 -0.4424
  929MPD2    C513593   3.817   1.348  10.177 -0.4814 -0.3097  0.1643
  929MPD2     H13594   3.777   1.016  10.000  0.7039  2.7318 -4.9935
  929MPD2    H113595   4.013   1.360  10.092 -1.4988  2.5213  3.0208
  929MPD2    H213596   3.626   1.337  10.242 -0.2023 -0.1145  1.6773
  929MPD2    H313597   3.828   1.448  10.218 -0.5070  0.0359 -0.6778
  929MPD2     N13598   4.006   1.160   9.937  0.6668 -0.7467 -0.3830
  929MPD2    H513599   4.091   1.212   9.959 -1.3658  1.7688  1.5101
  929MPD2    N113600   3.557   1.095  10.124  0.1770 -0.5383 -0.3768
  929MPD2    H713601   3.485   1.148  10.171  2.1267  2.3115 -0.5721
  930MPD2     C13602   1.006   2.951  13.762 -0.3150  0.4778 -0.2079
  930MPD2    C113603   0.900   3.041  13.734 -0.4631  0.3311 -0.0115
  930MPD2    C213604   0.801   3.006  13.649 -0.4551  0.1924 -0.0164
  930MPD2    C313605   0.790   2.875  13.602  0.0756 -0.2452  0.2284
  930MPD2    C413606   0.893   2.789  13.635 -0.6949 -0.1217 -0.2955
  930MPD2    C513607   1.000   2.825  13.718  0.1201 -0.5645  0.5504
  930MPD2     H13608   0.722   3.075  13.622 -0.1046  0.6499  0.1289
  930MPD2    H113609   0.896   2.687  13.601 -1.9087  0.0010 -0.7544
  930MPD2    H213610   1.093   2.981  13.818  1.3112  0.3652 -2.6624
  930MPD2    H313611   1.073   2.748  13.741  0.4546 -0.4297 -0.0334
  930MPD2     N13612   0.691   2.830  13.504  0.2613 -0.3758  0.2357
  930MPD2    H513613   0.686   2.730  13.486 -0.4151 -0.1194 -0.9847
  930MPD2    N113614   0.911   3.173  13.800 -0.2652 -0.3218  0.2490
  930MPD2    H713615   0.988   3.176  13.866 -1.2293 -2.7580  1.4779
  931MPD2     C13616   1.304   2.797   0.835  0.1082 -0.4167 -0.0642
  931MPD2    C113617   1.233   2.678   0.827 -0.8132 -0.4646  0.3715
  931MPD2    C213618   1.247   2.594   0.935  0.3607  0.1750 -0.2717
  931MPD2    C313619   1.334   2.617   1.041 -0.0651  0.2139 -0.5622
  931MPD2    C413620   1.410   2.738   1.050  0.1612  0.6813  0.2765
  931MPD2    C513621   1.390   2.821   0.943  0.0341  0.1239 -0.6909
  931MPD2     H13622   1.201   2.496   0.934 -1.0127  0.8567 -3.6511
  931MPD2    H113623   1.470   2.786   1.127  1.0641 -1.8479  1.1190
  931MPD2    H213624   1.304   2.877   0.762  1.6463 -1.1978 -0.9196
  931MPD2    H313625   1.450   2.911   0.950  2.9026 -1.9115  0.7489
  931MPD2     N13626   1.358   2.522   1.145 -0.8008 -0.2064 -0.5614
  931MPD2    H513627   1.304   2.436   1.152 -0.6084 -0.1000  2.0659
  931MPD2    N113628   1.159   2.655   0.709  0.7351 -0.7434 -0.0438
  931MPD2    H713629   1.160   2.734   0.646 -0.0704  0.5409  1.5688
  932MPD2     C13630   3.057   1.383  11.256  0.3004 -0.0739 -0.2661
  932MPD2    C113631   3.112   1.469  11.345  0.3358  0.1433 -0.3945
  932MPD2    C213632   3.208   1.412  11.430  0.5360  0.1646  0.1814
  932MPD2    C313633   3.242   1.273  11.434 -0.1674  0.1286  0.5457
  932MPD2    C413634   3.173   1.198  11.336  0.2398  0.7735  0.5273
  932MPD2    C513635   3.090   1.251  11.251 -0.3200  0.1032 -0.3461
  932MPD2     H13636   3.250   1.469  11.512  2.6920 -0.9946 -0.0985
  932MPD2    H113637   3.176   1.090  11.341 -2.1089  0.6571 -0.5372
  932MPD2    H213638   2.979   1.416  11.188  2.0483  2.0388 -1.2280
  932MPD2    H313639   3.046   1.188  11.175 -0.1975 -0.3849 -0.0136
  932MPD2     N13640   3.337   1.225  11.525 -0.2759  0.6253  0.5346
  932MPD2    H513641   3.376   1.291  11.591  1.3331 -0.5907  0.7849
  932MPD2    N113642   3.082   1.606  11.360  0.7602 -0.5262 -0.7424
  932MPD2    H713643   3.131   1.661  11.430  0.6370  0.1895 -1.2281
  933MPD2     C13644   3.688   0.812   2.176 -0.6476  0.4573  0.2841
  933MPD2    C113645   3.741   0.846   2.054  0.7337 -0.8187  0.1246
  933MPD2    C213646   3.714   0.972   2.003 -0.0902 -0.7159  0.1552
  933MPD2    C313647   3.644   1.062   2.082 -0.7237  0.3690  0.0566
  933MPD2    C413648   3.600   1.023   2.206 -0.3882  0.4144  0.9743
  933MPD2    C513649   3.610   0.897   2.246  0.2119  0.3507  0.0761
  933MPD2     H13650   3.744   1.007   1.905  0.8853 -2.1417 -0.0550
  933MPD2    H113651   3.542   1.091   2.268 -2.2970 -0.8189  0.5669
  933MPD2    H213652   3.692   0.709   2.210 -0.3893  0.0837 -0.8840
  933MPD2    H313653   3.560   0.862   2.335  0.7281  2.8816  1.3432
  933MPD2     N13654   3.625   1.194   2.031 -0.1859 -0.1801  0.5848
  933MPD2    H513655   3.661   1.209   1.937  1.3750 -1.0274  1.0339
  933MPD2    N113656   3.818   0.751   1.987 -0.3271 -0.4065 -0.6157
  933MPD2    H713657   3.828   0.660   2.030  2.1573  0.2765  0.2868
  934MPD2     C13658   4.246   3.146   1.798  0.2210 -0.4778  0.8320
  934MPD2    C113659   4.378   3.101   1.780 -0.1250 -0.2962 -0.5197
  934MPD2    C213660   4.400   3.010   1.674  0.2912  0.2707  0.1805
  934MPD2    C313661   4.310   2.981   1.578  0.6449 -0.4577  0.6133
  934MPD2    C413662   4.183   3.029   1.588  0.0281 -0.6154  0.6997
  934MPD2    C513663   4.153   3.112   1.691  0.3734  0.1589  0.0947
  934MPD2     H13664   4.487   2.946   1.686  0.2282  0.1504 -0.0113
  934MPD2    H113665   4.111   3.018   1.507 -0.2298  0.4196  0.7874
  934MPD2    H213666   4.214   3.218   1.872  2.5216  1.2155  0.1840
  934MPD2    H313667   4.065   3.176   1.692  2.4206  2.9677  0.8808
  934MPD2     N13668   4.334   2.893   1.471 -0.4147  0.0004 -0.3068
  934MPD2    H513669   4.247   2.880   1.420 -1.1616 -1.7281  1.4054
  934MPD2    N113670   4.488   3.135   1.861  0.5748 -0.3527  0.0727
  934MPD2    H713671   4.575   3.087   1.842  1.7827  1.3069  1.4220
  935MPD2     C13672   0.444   2.341   1.165  0.0110  0.4998 -0.5195
  935MPD2    C113673   0.348   2.309   1.073 -0.0417  0.2367  0.1673
  935MPD2    C213674   0.223   2.361   1.086 -0.0399 -0.6526 -0.6326
  935MPD2    C313675   0.185   2.439   1.202 -0.5676  0.5412 -0.6546
  935MPD2    C413676   0.281   2.457   1.296 -0.3028  0.1458 -0.1576
  935MPD2    C513677   0.408   2.413   1.276 -0.4182 -0.0119 -0.0215
  935MPD2     H13678   0.144   2.336   1.017 -1.1933 -1.1742  0.8839
  935MPD2    H113679   0.271   2.520   1.384  2.7227 -0.8636  0.9512
  935MPD2    H213680   0.549   2.316   1.152  0.5930  2.7586 -0.2983
  935MPD2    H313681   0.484   2.434   1.352 -0.7979  2.0477 -0.2081
  935MPD2     N13682   0.052   2.490   1.230 -0.0021 -0.0798 -0.1706
  935MPD2    H513683   0.033   2.533   1.320 -0.9184 -1.8407  0.4691
  935MPD2    N113684   0.370   2.219   0.963 -0.3668  0.1660 -0.2520
  935MPD2    H713685   0.287   2.202   0.907 -0.9634  0.6976  0.4705
  936MPD2     C13686   3.279   0.527  12.483  0.1672 -0.3863  0.2031
  936MPD2    C113687   3.344   0.462  12.588 -0.5693  0.5747 -0.1146
  936MPD2    C213688   3.480   0.471  12.611 -0.6284  0.2986 -0.4819
  936MPD2    C313689   3.554   0.548  12.521  0.0424  0.4084 -0.4321
  936MPD2    C413690   3.489   0.610  12.423 -0.6011 -0.2398  0.4489
  936MPD2    C513691   3.361   0.591  12.389  0.4964  0.0975 -0.7981
  936MPD2     H13692   3.538   0.416  12.684  0.5650  3.4181  0.9344
  936MPD2    H113693   3.543   0.681  12.361 -0.5262 -0.4056  0.3256
  936MPD2    H213694   3.178   0.515  12.445 -0.8401 -0.4736  2.9175
  936MPD2    H313695   3.315   0.637  12.302 -2.3923 -1.2298  0.0353
  936MPD2     N13696   3.694   0.557  12.531 -0.7774 -0.0988 -0.1086
  936MPD2    H513697   3.755   0.589  12.456 -0.7508  1.5969  0.6145
  936MPD2    N113698   3.275   0.378  12.680 -0.1155  0.2657  0.0115
  936MPD2    H713699   3.330   0.344  12.758 -0.3124 -0.7736 -0.3005
  937MPD2     C13700   0.845   1.464  11.491  0.4520 -0.1145 -0.1155
  937MPD2    C113701   0.865   1.604  11.467  0.3549  0.1263  0.7187
  937MPD2    C213702   0.964   1.624  11.373  0.4378 -0.0760  0.0200
  937MPD2    C313703   1.012   1.527  11.286  0.4551  0.7498  0.2942
  937MPD2    C413704   0.953   1.398  11.289 -0.0551 -0.0650  0.1715
  937MPD2    C513705   0.882   1.372  11.399 -0.8039 -0.5201 -0.5492
  937MPD2     H13706   1.024   1.714  11.380  0.7034 -0.4468  2.4851
  937MPD2    H113707   0.981   1.318  11.221 -0.6092 -0.2944  0.2061
  937MPD2    H213708   0.787   1.432  11.577  1.4385 -0.0024  0.5985
  937MPD2    H313709   0.839   1.274  11.420  2.1242 -2.0502 -1.7128
  937MPD2     N13710   1.114   1.569  11.201 -0.3902 -0.2310  0.3922
  937MPD2    H513711   1.148   1.665  11.212 -0.7385 -0.0572 -0.0151
  937MPD2    N113712   0.851   1.707  11.561 -0.0429 -0.5785 -0.0790
  937MPD2    H713713   0.881   1.797  11.526 -0.2785 -1.0637 -1.5327
  938MPD2     C13714   4.630   1.994   0.788  0.0990 -0.1738  0.1118
  938MPD2    C113715   4.566   2.105   0.731 -0.2302 -0.1975  0.6442
  938MPD2    C213716   4.429   2.105   0.724 -0.0886 -0.0032 -0.0455
  938MPD2    C313717   4.355   1.991   0.763  0.1116  0.4281  0.0138
  938MPD2    C413718   4.430   1.880   0.799 -0.0582  0.6803 -0.3643
  938MPD2    C513719   4.564   1.883   0.818 -0.7545  0.5515  0.4448
  938MPD2     H13720   4.373   2.176   0.664 -1.4030 -1.2994 -0.3504
  938MPD2    H113721   4.378   1.790   0.828  1.4234  0.0137  0.2365
  938MPD2    H213722   0.017   1.991   0.793  0.1195  2.1164  1.1038
  938MPD2    H313723   4.619   1.797   0.854 -1.3404  0.3255  0.8053
  938MPD2     N13724   4.215   1.986   0.764  0.4446  0.1418 -0.3583
  938MPD2    H513725   4.169   1.898   0.785 -1.8238  1.4891  0.2238
  938MPD2    N113726   4.627   2.224   0.682  0.1045 -0.6585  0.3355
  938MPD2    H713727   4.564   2.284   0.629 -0.4533  1.0352  2.8677
  939MPD2     C13728   0.688   3.450   1.087 -0.8053  0.0873  0.1485
  939MPD2    C113729   0.689   3.584   1.101  0.2310  0.8289  0.3557
  939MPD2    C213730   0.739   3.652   0.992  0.4925  0.1908 -0.0691
  939MPD2    C313731   0.812   3.599   0.879 -0.0614  0.7600 -0.0096
  939MPD2    C413732   0.822   3.463   0.887  0.7101 -0.5816  0.4616
  939MPD2    C513733   0.763   3.395   0.990 -0.4444  0.6922  0.5605
  939MPD2     H13734   0.724   3.759   1.002  0.6994  0.3823 -1.7720
  939MPD2    H113735   0.883   3.407   0.817 -0.5500 -0.9632 -0.3288
  939MPD2    H213736   0.660   3.382   1.167 -0.7187 -0.8545 -0.6144
  939MPD2    H313737   0.775   3.288   0.995  1.1398  0.8917  0.7784
  939MPD2     N13738   0.852   3.679   0.774 -0.4080  0.0454 -0.3555
  939MPD2    H513739   0.847   3.779   0.789 -1.1215 -0.2694  1.5169
  939MPD2    N113740   0.624   3.650   1.208 -0.0144 -0.1859 -0.6032
  939MPD2    H713741   0.558   3.600   1.268 -0.0911  0.5234 -0.0941
  940MPD2     C13742   4.360   0.236  12.729 -0.0757  0.2176  0.0962
  940MPD2    C113743   4.276   0.127  12.767 -0.8111 -0.6089 -0.2325
  940MPD2    C213744   4.234   0.038  12.669 -0.4960 -0.5933 -0.2470
  940MPD2    C313745   4.266   0.065  12.536 -0.0995  0.6853  0.3561
  940MPD2    C413746   4.336   0.173  12.493  0.3049 -0.2453  0.3907
  940MPD2    C513747   4.386   0.257  12.592 -0.8847  0.3481 -0.2830
  940MPD2     H13748   4.169   4.678  12.701  0.6708 -0.8164  1.5316
  940MPD2    H113749   4.353   0.184  12.387  0.1458 -0.1843  0.3723
  940MPD2    H213750   4.387   0.307  12.806  0.3325 -0.8475  0.9477
  940MPD2    H313751   4.440   0.350  12.579  0.1622 -0.5440 -2.2563
  940MPD2     N13752   4.222   4.696  12.432 -0.2779 -0.0192 -0.2494
  940MPD2    H513753   4.267   4.707  12.341 -1.3758  0.0058 -0.8003
  940MPD2    N113754   4.227   0.110  12.896 -0.0645 -0.5254  0.7644
  940MPD2    H713755   4.177   0.026  12.923 -1.2006 -0.0822  0.0528
  941MPD2     C13756   3.383   3.840   9.753 -0.0989 -0.0748  0.2250
  941MPD2    C113757   3.287   3.892   9.678  0.1513 -0.8035 -0.6440
  941MPD2    C213758   3.158   3.844   9.688 -0.2744 -1.1627 -0.3959
  941MPD2    C313759   3.129   3.756   9.789 -0.0265  0.0163 -0.3935
  941MPD2    C413760   3.226   3.710   9.876  0.4021 -0.6086 -0.2653
  941MPD2    C513761   3.356   3.742   9.852  0.7980 -0.6176  0.1391
  941MPD2     H13762   3.092   3.872   9.606 -1.9676 -1.3298  0.9063
  941MPD2    H113763   3.203   3.653   9.966 -0.1224 -0.0147 -0.0238
  941MPD2    H213764   3.486   3.873   9.751 -1.1139  3.0873  0.4756
  941MPD2    H313765   3.423   3.702   9.927  1.5471 -0.6654 -0.5503
  941MPD2     N13766   3.002   3.703   9.817  0.5358  0.4959  0.1415
  941MPD2    H513767   2.998   3.628   9.886  1.5033 -1.3019 -1.7649
  941MPD2    N113768   3.312   3.986   9.568 -0.3799  0.0335  0.0562
  941MPD2    H713769   3.228   4.014   9.519  0.9484  2.6452 -0.6840
  942MPD2     C13770   3.208   0.279   9.139  0.5407 -0.2544 -0.5719
  942MPD2    C113771   3.175   0.354   9.030  0.0525  0.5358 -0.5674
  942MPD2    C213772   3.212   0.484   9.021 -0.0965  0.4012  0.3060
  942MPD2    C313773   3.275   0.550   9.121  0.4928  0.6211  0.2780
  942MPD2    C413774   3.315   0.480   9.233 -0.6514 -1.0978 -0.5598
  942MPD2    C513775   3.276   0.341   9.241 -0.2638  0.8222  0.2100
  942MPD2     H13776   3.190   0.535   8.928 -3.2425  0.8826  1.3196
  942MPD2    H113777   3.379   0.515   9.314  1.6886 -1.0106 -2.4651
  942MPD2    H213778   3.168   0.180   9.158  0.8379 -0.0943  0.9012
  942MPD2    H313779   3.298   0.288   9.333  1.9867 -0.5711 -1.1238
  942MPD2     N13780   3.298   0.688   9.115 -0.6778 -1.0248  0.4931
  942MPD2    H513781   3.338   0.721   9.202 -0.3802  1.6117 -0.6413
  942MPD2    N113782   3.096   0.298   8.923 -0.2441  0.3700 -0.6810
  942MPD2    H713783   3.074   0.354   8.841 -2.1114 -1.4468 -1.3970
  943MPD2     C13784   1.270   4.087   9.331 -0.0499  0.7589  0.0182
  943MPD2    C113785   1.216   3.970   9.380 -0.2886  0.0230  0.3883
  943MPD2    C213786   1.088   3.928   9.336  0.5207 -0.3693  0.2163
  943MPD2    C313787   1.013   4.008   9.250  0.0186 -0.4755 -0.8154
  943MPD2    C413788   1.077   4.119   9.190  0.7284  0.0271 -0.2290
  943MPD2    C513789   1.206   4.146   9.231  0.7723 -0.3819  0.3971
  943MPD2     H13790   1.040   3.843   9.383 -2.0453  1.0156  0.1134
  943MPD2    H113791   1.022   4.182   9.121 -1.4935 -1.6218  0.0049
  943MPD2    H213792   1.367   4.125   9.361  0.5437 -1.1066  0.4997
  943MPD2    H313793   1.247   4.234   9.181 -1.8998 -0.0532 -1.2691
  943MPD2     N13794   0.886   3.986   9.216  0.6225  0.0858 -0.5551
  943MPD2    H513795   0.859   4.045   9.138 -3.0882 -1.1837 -0.1921
  943MPD2    N113796   1.306   3.894   9.453 -0.0390 -0.0691 -0.5330
  943MPD2    H713797   1.396   3.939   9.463  0.2063 -0.5656 -0.5145
  944MPD2     C13798   1.423   2.938  10.647 -0.4394  0.1845 -0.1672
  944MPD2    C113799   1.540   2.967  10.722 -0.1138 -0.0773  0.2507
  944MPD2    C213800   1.528   3.066  10.822 -0.0865  0.7483 -0.3526
  944MPD2    C313801   1.401   3.125  10.857  0.1895  0.2073 -0.1172
  944MPD2    C413802   1.297   3.091  10.774 -0.4643 -1.0493  0.0167
  944MPD2    C513803   1.303   3.003  10.670 -0.2327 -0.1041 -0.2787
  944MPD2     H13804   1.616   3.106  10.869 -0.0882 -0.5666  0.7474
  944MPD2    H113805   1.198   3.133  10.788 -0.9213 -2.2126  0.2759
  944MPD2    H213806   1.429   2.855  10.577 -4.0478  0.3596 -0.6876
  944MPD2    H313807   1.222   2.963  10.611 -0.3142  0.8500 -0.8279
  944MPD2     N13808   1.397   3.215  10.960  0.1950 -0.2669  0.4302
  944MPD2    H513809   1.483   3.255  10.995 -0.8871  0.4499  2.2785
  944MPD2    N113810   1.655   2.899  10.697 -0.1348  0.5435 -0.7955
  944MPD2    H713811   1.655   2.842  10.613  0.6087  1.9865 -1.7787
    1TCq1    O113812   0.177   3.363  15.028  0.3310 -0.2479 -0.4326
    1TCq1    C113813   0.089   3.403  15.123  0.3024  0.0821 -0.3519
    1TCq1    O213814   0.055   3.355  15.229  0.2435 -0.4427  1.2828
    1TCq1    C213815   0.037   3.520  15.071  0.5032 -0.0661  0.2039
    1TCq1    C313816   4.702   3.604  15.165  0.1948  0.3822 -0.6550
    1TCq1    C413817   4.627   3.708  15.116 -0.2527 -0.4266 -0.0709
    1TCq1    C513818   4.591   3.712  14.986  0.3942 -0.5654  0.0766
    1TCq1    C613819   4.640   3.627  14.893  0.3431 -0.0044 -0.1685
    1TCq1    C713820   0.001   3.523  14.935  0.4062 -0.1688  0.0564
    1TCq1    C813821   4.570   3.609  14.772 -0.1554 -0.4341  0.5915
    1TCq1    O413822   4.579   3.501  14.720  0.5191 -0.2586 -0.1618
    1TCq1    C913823   4.592   3.812  15.201  0.5250  0.4550 -0.2445
    1TCq1    O513824   4.521   3.906  15.155 -0.0907  0.0077  0.2329
    1TCq1    O613825   4.646   3.802  15.311 -0.1997 -0.3123 -0.3578
    1TCq1    H113826   0.183   3.431  14.957 -4.2516  0.9633  0.3797
    1TCq1    H213827   0.015   3.600  15.268 -1.9728  0.3422  0.0646
    1TCq1    H313828   4.524   3.792  14.956  1.1789  0.7962  1.9200
    1TCq1    H413829   0.034   3.446  14.866 -1.1021 -0.6677 -0.1158
    2MPD2     C13830   4.305   3.757  14.370  0.1310  0.8610  0.5738
    2MPD2    C113831   4.373   3.868  14.418 -0.2284 -0.4714 -0.6167
    2MPD2    C213832   4.440   3.846  14.534 -0.5035  0.5954  0.2519
    2MPD2    C313833   4.446   3.725  14.595 -0.5768  0.3356  0.0255
    2MPD2    C413834   4.379   3.617  14.546  0.3395  0.0162 -0.0719
    2MPD2    C513835   4.312   3.634  14.431 -0.2464  0.0139 -0.1388
    2MPD2     H13836   4.496   3.924  14.584 -0.0502  0.8920 -0.7125
    2MPD2    H113837   4.373   3.523  14.601  0.3115 -0.2692 -0.5670
    2MPD2    H213838   4.259   3.754  14.272  0.0815 -0.4020  0.6326
    2MPD2    H313839   4.263   3.555  14.375 -0.3270  0.0688 -0.1450
    2MPD2     N13840   4.520   3.724  14.713 -0.9331  0.5112 -0.5675
    2MPD2    H513841   4.558   3.813  14.745  0.7439 -0.2995 -0.2708
    2MPD2    N113842   4.364   3.992  14.353 -0.4694  0.3805  0.0437
    2MPD2    H713843   4.316   3.995  14.264  1.5801  0.9613 -1.0406
    3TMC2    C113844   4.415   4.215  14.303 -0.6429 -0.2098  0.2537
    3TMC2    C213845   4.461   4.334  14.350  0.0461 -0.1350  0.3364
    3TMC2    C313846   4.491   4.432  14.255 -0.3089  0.1401  0.6083
    3TMC2    C413847   4.389   4.193  14.168  0.0223  0.3220  0.4811
    3TMC2    C513848   4.414   4.298  14.084  0.0209 -0.3780  0.0247
    3TMC2    C613849   4.468   4.417  14.126  0.3828 -0.3439  0.2158
    3TMC2     C13850   4.421   4.106  14.390 -0.2300 -0.2423 -0.4635
    3TMC2     O13851   4.486   4.116  14.494  0.2392 -0.5390 -0.3476
    3TMC2     H13852   4.466   4.343  14.458 -1.7844 -2.5854  0.6259
    3TMC2    H113853   4.354   4.099  14.128  2.6036  0.1582 -1.3882
    3TMC2    H213854   4.530   4.472  14.056 -2.6646  1.4899 -1.0492
    3TMC2    C713855   4.457   4.270  13.945 -0.4588  0.2256 -0.6026
    3TMC2    C813856   4.591   4.530  14.291 -0.4480 -0.2583 -0.8085
    3TMC2    O113857   4.485   4.149  13.923  0.3885  0.0438 -0.1214
    3TMC2    O213858   4.675   4.580  14.215  0.2066 -0.2378  0.5632
    3TMC2    O513859   4.578   4.549  14.427 -0.4685 -0.1268 -0.2445
    3TMC2    H513860   4.496   4.524  14.473 -1.3208 -1.1808 -2.3196
    4MPD2     C13861   3.736   0.643  13.706  0.1907  0.5480 -0.2636
    4MPD2    C113862   3.709   0.517  13.656  0.1373  0.7797  0.2688
    4MPD2    C213863   3.824   0.453  13.608 -0.5262  0.7469  0.0013
    4MPD2    C313864   3.950   0.512  13.608 -0.8259 -0.6926 -0.6156
    4MPD2    C413865   3.969   0.643  13.647 -0.1470  0.6611 -0.4644
    4MPD2    C513866   3.867   0.699  13.706  0.6831  0.1056 -0.0561
    4MPD2     H13867   3.818   0.352  13.571 -0.2073  0.0726  1.7859
    4MPD2    H113868   4.065   0.695  13.646  0.4815 -0.4805  0.0687
    4MPD2    H213869   3.656   0.706  13.744  0.7188  2.2558 -1.9785
    4MPD2    H313870   3.880   0.803  13.734  1.6666 -0.5456  1.8908
    4MPD2     N13871   4.054   0.432  13.563 -0.4125  0.1158 -0.3053
    4MPD2    H513872   4.038   0.332  13.565 -1.3383  0.2771  0.3129
    4MPD2    N113873   3.574   0.476  13.666  0.0221 -0.3520  0.6976
    4MPD2    H713874   3.519   0.535  13.727 -2.0980 -1.7919  0.1907
    5TCq2    C113875   4.177   0.486  13.517  0.5580 -0.4474 -0.7280
    5TCq2    O213876   4.202   0.606  13.494 -0.0648  0.8788 -0.3772
    5TCq2    C213877   4.264   0.384  13.461 -0.3608  0.1119 -0.5866
    5TCq2    C313878   4.337   0.419  13.350 -0.5789 -0.4063  0.3417
    5TCq2    C413879   4.432   0.325  13.306 -0.3447 -0.8004 -0.6172
    5TCq2    C513880   4.449   0.206  13.365 -0.0598  0.3865 -0.0406
    5TCq2    C613881   4.369   0.177  13.474  0.9111  0.1678  0.6393
    5TCq2    C713882   4.281   0.266  13.523 -0.2438 -0.7221 -1.0856
    5TCq2    C813883   4.386   0.047  13.543  0.1466 -0.3075  0.0032
    5TCq2    O413884   4.351   0.041  13.661 -0.3655  0.3466 -0.9963
    5TCq2    C913885   4.497   0.345  13.175  0.6019  0.1790 -0.3775
    5TCq2    O513886   4.582   0.263  13.142  0.1097 -0.1644  0.3672
    5TCq2    O613887   4.477   0.461  13.132 -0.2029  0.0653  0.4535
    5TCq2    H213888   4.322   0.518  13.307  0.6997 -0.2734  0.2231
    5TCq2    H313889   4.505   0.128  13.316  1.0866  0.9424  0.3895
    5TCq2    H413890   4.215   0.238  13.604  0.3006  0.9601 -0.0579
    6MPD1     C13891   2.444   1.051  12.287  0.6321 -0.3282 -0.1315
    6MPD1    C113892   2.407   1.093  12.414 -0.1379  0.1023  0.0344
    6MPD1    C213893   2.481   1.059  12.527  0.0938  0.7803 -0.1147
    6MPD1    C313894   2.599   0.985  12.513 -0.7284 -0.4063 -0.1013
    6MPD1    C413895   2.646   0.952  12.387  0.4057  0.9553 -0.5987
    6MPD1    C513896   2.568   0.991  12.283 -0.4786  0.4429  0.2125
    6MPD1     H13897   2.453   1.086  12.628  1.7571  1.7298  0.0913
    6MPD1    H113898   2.740   0.903  12.365  0.4101  0.5209  0.4335
    6MPD1    H213899   2.378   1.067  12.204 -0.2013 -1.9521  0.2161
    6MPD1    H313900   2.607   0.972  12.184  0.2817  1.0336  0.3947
    6MPD1     N13901   2.678   0.935  12.621 -0.3131 -0.3250  0.1822
    6MPD1    H513902   2.763   0.883  12.598 -0.2637 -1.2950  2.5812
    6MPD1    N113903   2.279   1.146  12.435 -0.2250  0.6026  0.0789
    6MPD1    H613904   2.279   1.185  12.529 -1.6791  0.3011  0.2089
    6MPD1    H713905   2.250   1.218  12.369  1.7859  1.8543  0.5550
    7MPD2     C13906   2.707   0.727  13.424 -0.1300  0.3296  0.2800
    7MPD2    C113907   2.844   0.760  13.396  1.0886 -0.4406  0.6309
    7MPD2    C213908   2.938   0.714  13.484 -0.3462  0.2142 -0.2252
    7MPD2    C313909   2.900   0.631  13.583 -0.6016  0.1103  0.1842
    7MPD2    C413910   2.771   0.610  13.605 -1.1380 -0.5627  0.5251
    7MPD2    C513911   2.669   0.649  13.527 -0.1011  0.0848  0.7459
    7MPD2     H13912   3.042   0.731  13.458 -0.5300  1.7879  0.0581
    7MPD2    H113913   2.747   0.545  13.688 -1.1894  0.4364  1.2928
    7MPD2    H213914   2.631   0.744  13.349  2.1647 -0.8126 -2.2923
    7MPD2    H313915   2.567   0.616  13.539  0.3777 -1.8110 -0.3072
    7MPD2     N13916   2.984   0.560  13.669 -0.3618 -0.7137 -0.1678
    7MPD2    H513917   2.929   0.497  13.726 -1.4413  1.2713  1.0018
    7MPD2    N113918   2.884   0.807  13.270 -0.2884 -0.8008  0.3636
    7MPD2    H713919   2.982   0.786  13.256  0.2385  1.3620  0.8199
    8TMC3    C113920   3.170   0.420  13.690 -0.3786 -0.9487  0.0195
    8TMC3    C213921   3.300   0.435  13.698  0.7559 -0.6765 -0.4853
    8TMC3    C313922   3.377   0.355  13.614 -0.3217  0.0931 -0.0321
    8TMC3    C413923   3.108   0.320  13.617 -0.2933 -0.7717  0.2385
    8TMC3    C513924   3.184   0.244  13.532  0.3850 -1.0657 -0.7084
    8TMC3    C613925   3.321   0.261  13.539 -0.3039 -0.0803  0.3220
    8TMC3     C13926   3.115   0.553  13.665 -0.3783 -0.5133 -0.3273
    8TMC3     O13927   3.188   0.632  13.605  0.1658 -0.0384  0.3230
    8TMC3     H13928   3.330   0.520  13.759  1.5356  0.0544 -1.8839
    8TMC3    H113929   3.001   0.333  13.610 -0.2347 -0.5266 -0.1921
    8TMC3    H213930   3.386   0.213  13.468 -2.0479 -0.7791 -0.7989
    8TMC3    C713931   3.139   0.264  13.394  0.0799 -0.1590  0.4290
    8TMC3    C813932   3.523   0.357  13.622 -0.4591 -0.2094 -0.3234
    8TMC3    O113933   3.204   0.346  13.333 -0.1751 -0.3518  0.4622
    8TMC3    O213934   3.582   0.276  13.555 -0.1650 -1.0335  0.0212
    9TMC3    C113935   2.775   0.902  12.827 -0.0854 -0.1643 -0.2295
    9TMC3    C213936   2.828   0.777  12.788 -0.2845  0.9061  0.1302
    9TMC3    C313937   2.896   0.699  12.884  0.5269  0.2032  0.5581
    9TMC3    C413938   2.790   0.936  12.960 -0.7323  0.6650 -0.9019
    9TMC3    C513939   2.861   0.863  13.048 -0.2607  0.0561  0.3213
    9TMC3    C613940   2.923   0.747  13.011  0.5018 -0.5108  0.2209
    9TMC3     C13941   2.655   0.951  12.757 -0.9546  0.1639 -1.1897
    9TMC3     O13942   2.572   1.012  12.824  1.2328 -0.0130  0.3444
    9TMC3     H13943   2.796   0.718  12.702 -2.5927  0.8040  1.0497
    9TMC3    H113944   2.728   1.010  13.007  0.8826  1.6941 -0.3960
    9TMC3    H213945   2.970   0.682  13.083  0.9423 -0.4263  0.0098
    9TMC3    C713946   2.801   0.866  13.179  0.1887 -0.3000 -0.1973
    9TMC3    C813947   2.879   0.558  12.879 -0.2886 -0.8575 -0.0489
    9TMC3    O113948   2.704   0.936  13.206 -0.0207  0.2818  0.2892
    9TMC3    O213949   2.794   0.512  12.807 -0.0335 -0.4447 -0.5177
   10MPD2     C13950   2.835   0.167  13.210  0.2280 -0.4442 -0.0971
   10MPD2    C113951   2.951   0.240  13.238 -0.3167 -0.5752 -0.1812
   10MPD2    C213952   2.997   0.337  13.147 -0.0908  0.2049 -0.2974
   10MPD2    C313953   2.913   0.367  13.039 -0.1798  0.0097  0.9826
   10MPD2    C413954   2.797   0.294  13.016  0.0437  0.0275  0.5364
   10MPD2    C513955   2.760   0.192  13.099 -0.2962  0.2322  0.4047
   10MPD2     H13956   3.086   0.397  13.158  0.8053 -1.1750  0.0117
   10MPD2    H113957   2.738   0.311  12.927  1.2105  0.6700 -0.1191
   10MPD2    H213958   2.790   0.090  13.271  1.0965 -3.1354 -2.8289
   10MPD2    H313959   2.670   0.138  13.073 -0.9682  2.3748 -1.6682
   10MPD2     N13960   2.952   0.487  12.972 -0.1826 -0.0093 -0.2191
   10MPD2    H513961   3.032   0.537  13.011 -1.0638  2.1305 -1.1729
   10MPD2    N113962   3.022   0.202  13.354 -0.4053  0.4718  0.2496
   10MPD2    H713963   2.975   0.146  13.425  1.0200 -2.0999 -0.8342
   11MPD2     C13964   4.536   4.294  13.644  0.0065 -0.1099  0.8656
   11MPD2    C113965   4.475   4.389  13.724 -0.4311 -0.2088  0.1804
   11MPD2    C213966   4.466   4.517  13.660  0.4290  0.9570 -0.0353
   11MPD2    C313967   4.477   4.542  13.525 -0.5524  0.2587 -0.7636
   11MPD2    C413968   4.515   4.427  13.453 -0.5801 -0.8063 -0.8766
   11MPD2    C513969   4.543   4.306  13.506  0.5323 -0.1721 -0.2216
   11MPD2     H13970   4.435   4.588  13.736  0.0916  0.3501  0.4011
   11MPD2    H113971   4.519   4.456  13.348  0.1794  0.3155 -0.5373
   11MPD2    H213972   4.561   4.196  13.682  0.5812 -0.1769  0.3109
   11MPD2    H313973   4.568   4.226  13.438  2.4695 -1.6560  2.2270
   11MPD2     N13974   4.444   4.672  13.469  0.2438  0.1001 -0.5016
   11MPD2    H513975   4.460   4.684  13.369 -0.3125  1.9485 -0.3594
   11MPD2    N113976   4.441   4.379  13.866  0.4755 -0.9408  0.6986
   11MPD2    H713977   4.391   4.458  13.905  1.3685  0.3836 -0.8446
    1MPD1     C13978   2.778   1.749  17.455 -0.4411 -0.1178  0.0806
    1MPD1    C113979   2.810   1.788  17.329  0.4906  0.3861  0.2380
    1MPD1    C213980   2.933   1.745  17.273  0.6287  0.0043 -0.5481
    1MPD1    C313981   3.027   1.668  17.346  0.1003 -0.0555 -0.4346
    1MPD1    C413982   2.986   1.628  17.471 -0.0292  0.0021 -0.3292
    1MPD1    C513983   2.869   1.673  17.530  0.0982  0.3271  0.0982
    1MPD1     H13984   2.947   1.775  17.170  1.4976  0.0975 -0.3968
    1MPD1    H113985   3.044   1.556  17.528  0.0132  0.7327  0.5575
    1MPD1    H213986   2.681   1.774  17.495 -0.9818  1.9626 -2.5362
    1MPD1    H313987   2.847   1.632  17.628  1.2908 -0.8879 -0.1357
    1MPD1     N13988   3.151   1.622  17.296 -0.0958  0.8687  0.7538
    1MPD1    H513989   3.204   1.567  17.363  0.2438  1.7611  1.2231
    1MPD1    N113990   2.713   1.854  17.255 -0.1694  0.2574 -0.3677
    1MPD1    H613991   2.656   1.912  17.316  4.0479  1.1007  2.7863
    1MPD1    H713992   2.752   1.926  17.195  0.6126 -1.9883 -2.5328
    2MPD1     C13993   4.109   1.648  17.427 -0.4936 -0.0836 -0.4537
    2MPD1    C113994   4.082   1.695  17.303 -0.5674  0.0814 -0.2983
    2MPD1    C213995   3.966   1.664  17.241 -0.7707 -0.4985  0.5063
    2MPD1    C313996   3.860   1.601  17.306 -0.1534  0.1315  0.2852
    2MPD1    C413997   3.878   1.570  17.440 -0.3172 -0.5051  0.3345
    2MPD1    C513998   4.001   1.591  17.497  1.2977  0.1907 -0.9475
    2MPD1     H13999   3.959   1.701  17.139 -0.1097  0.9359  0.9736
    2MPD1    H114000   3.796   1.524  17.493 -2.0122  1.6359 -0.4142
    2MPD1    H214001   4.208   1.649  17.470 -0.3718  0.7645 -0.7500
    2MPD1    H314002   4.018   1.550  17.596 -3.1312  2.1294  0.6506
    2MPD1     N14003   3.752   1.564  17.223  0.0823 -0.2949  0.2971
    2MPD1    H514004   3.756   1.590  17.125  0.3893 -1.0533  0.1142
    2MPD1    N114005   4.194   1.718  17.219 -0.3818 -0.2720 -0.1009
    2MPD1    H614006   4.160   1.766  17.136  0.6978 -1.1207 -1.0450
    2MPD1    H714007   4.268   1.776  17.257  0.6890 -2.8758  1.7654
    3TMC3    C114008   3.545   1.510  17.162 -0.0211 -0.5906 -1.3446
    3TMC3    C214009   3.573   1.508  17.026 -0.5233 -0.1063 -0.3481
    3TMC3    C314010   3.468   1.554  16.946  0.2825 -0.1949  0.2139
    3TMC3    C414011   3.431   1.555  17.214  0.6211 -0.4758  0.2768
    3TMC3    C514012   3.324   1.589  17.130 -0.6609  0.1665  0.3983
    3TMC3    C614013   3.348   1.591  16.995 -1.1394 -0.9684 -0.1628
    3TMC3     C14014   3.650   1.483  17.254  0.2424 -0.3676 -0.3759
    3TMC3     O14015   3.626   1.438  17.368  0.3504 -0.7552  0.0005
    3TMC3     H14016   3.668   1.471  16.991  1.8479  2.9373  2.8894
    3TMC3    H114017   3.422   1.555  17.322 -0.7785 -2.8032  0.1897
    3TMC3    H214018   3.260   1.605  16.933 -1.1220 -0.9050 -0.1735
    3TMC3    C714019   3.196   1.651  17.169 -0.5139  0.3181  0.4315
    3TMC3    C814020   3.475   1.530  16.803  0.6519  0.1975 -0.0373
    3TMC3    O114021   3.156   1.736  17.088 -0.1364 -0.6744  0.1337
    3TMC3    O214022   3.364   1.529  16.753  0.3889 -0.7047  0.7365
    4MPD1     C14023   3.711   1.508  16.349  0.4705 -0.1871  0.1089
    4MPD1    C114024   3.803   1.553  16.439  0.0620  0.1751  0.0108
    4MPD1    C214025   3.765   1.576  16.570  0.4630 -0.0468 -0.0993
    4MPD1    C314026   3.638   1.529  16.610  0.3655  0.1832 -0.4318
    4MPD1    C414027   3.542   1.499  16.515 -0.0007  0.9180 -0.7614
    4MPD1    C514028   3.579   1.489  16.383  0.4765 -0.7568 -0.0650
    4MPD1     H14029   3.831   1.620  16.644 -0.0792  0.5007  0.0671
    4MPD1    H114030   3.438   1.482  16.540  0.2387 -0.3193 -0.5925
    4MPD1    H214031   3.738   1.517  16.244  3.0939 -0.1512  0.7826
    4MPD1    H314032   3.502   1.462  16.312 -0.6563  2.6931 -0.1395
    4MPD1     N14033   3.604   1.530  16.751  0.0211 -0.9991  0.8063
    4MPD1    H514034   3.678   1.552  16.817 -0.3724  0.4074  0.7840
    4MPD1    N114035   3.926   1.608  16.392 -0.2049  0.3966 -0.0807
    4MPD1    H614036   3.951   1.554  16.310 -0.6485  1.9767 -1.2600
    4MPD1    H714037   3.998   1.590  16.462  1.0530  0.3240 -1.3873
    1TCq1    O114038   4.687   1.288  11.924 -0.2618  0.2941  0.6216
    1TCq1    C114039   4.668   1.194  12.021 -0.4425 -0.1848  0.4400
    1TCq1    O214040   0.028   1.155  12.104  0.2216 -0.6295  0.1859
    1TCq1    C214041   4.566   1.099  11.970 -0.1126  0.3170 -0.0546
    1TCq1    C314042   4.588   0.964  12.002 -0.0110 -0.1986 -0.0579
    1TCq1    C414043   4.486   0.874  11.963  0.1870 -0.2026 -0.4332
    1TCq1    C514044   4.368   0.917  11.905 -0.4952 -0.1297 -0.4021
    1TCq1    C614045   4.349   1.052  11.886 -0.0879 -0.4899 -0.1042
    1TCq1    C714046   4.449   1.143  11.911 -0.3726 -0.4922 -0.1344
    1TCq1    C814047   4.208   1.100  11.885 -0.0836 -0.1479  0.3272
    1TCq1    O414048   4.120   1.023  11.914  0.1880 -0.2868 -0.1710
    1TCq1    C914049   4.484   0.750  12.021 -0.0579  0.1020 -0.8366
    1TCq1    O514050   4.562   0.718  12.115  0.0303  0.0898 -0.3352
    1TCq1    O614051   4.427   0.658  11.960 -0.3772  0.0007  0.3781
    1TCq1    H114052   4.616   1.292  11.857 -0.5558 -1.3306  0.8210
    1TCq1    H214053   4.664   0.937  12.075 -0.1044 -1.5484 -0.4620
    1TCq1    H314054   4.288   0.845  11.912  0.7195 -1.3864  0.5660
    1TCq1    H414055   4.427   1.250  11.915 -0.8674 -0.6020  0.0927
    2MPD1     C14056   3.847   1.457  11.796  0.1188 -0.0343 -0.0632
    2MPD1    C114057   3.969   1.511  11.759  0.6516  0.1611  0.2096
    2MPD1    C214058   4.080   1.427  11.776  0.4350  0.3792 -0.0052
    2MPD1    C314059   4.068   1.297  11.821  0.5816 -0.4528  0.7363
    2MPD1    C414060   3.943   1.243  11.847  0.4338  0.0889  0.1905
    2MPD1    C514061   3.831   1.326  11.836 -0.3626  0.5714  0.1313
    2MPD1     H14062   4.176   1.460  11.737  0.3473 -0.7485 -1.2092
    2MPD1    H114063   3.932   1.145  11.892 -0.5749  0.7819  1.4331
    2MPD1    H214064   3.751   1.503  11.777  0.2582  0.7273  1.0676
    2MPD1    H314065   3.734   1.280  11.851 -0.3211 -0.1316 -1.8493
    2MPD1     N14066   4.192   1.224  11.835 -0.0271 -0.5322  0.1804
    2MPD1    H514067   4.275   1.270  11.799  0.8506 -0.9382  1.6526
    2MPD1    N114068   3.978   1.640  11.705  0.1841  0.4523 -0.7539
    2MPD1    H614069   3.903   1.704  11.730 -0.7760 -1.1909  0.5350
    2MPD1    H714070   4.068   1.685  11.726 -0.1590  0.8125 -0.0531
    1TCq1    O114071   1.721   2.938   0.891 -0.1831 -0.0542 -0.2930
    1TCq1    C114072   1.759   2.808   0.896  0.2778  0.3574  0.1360
    1TCq1    O214073   1.801   2.761   1.003 -0.3734 -0.3981 -0.5765
    1TCq1    C214074   1.678   2.720   0.812  0.1493 -0.6898 -0.4345
    1TCq1    C314075   1.646   2.772   0.692  0.0703  0.5754 -0.0657
    1TCq1    C414076   1.560   2.698   0.616  0.8603 -0.0450  0.3764
    1TCq1    C514077   1.537   2.565   0.646 -1.0353  0.0919 -0.2619
    1TCq1    C614078   1.568   2.519   0.774 -0.2479 -0.4650  0.1312
    1TCq1    C714079   1.642   2.594   0.861 -0.1415 -0.1248  0.3424
    1TCq1    C814080   1.568   2.374   0.786  0.6307 -0.3016  1.1027
    1TCq1    O414081   1.482   2.318   0.720 -0.8008 -0.5535  0.2925
    1TCq1    C914082   1.538   2.743   0.480  0.7385  0.0792 -0.1847
    1TCq1    O514083   1.526   2.651   0.394 -0.1386  0.2892  0.1463
    1TCq1    O614084   1.584   2.858   0.458 -0.7117 -0.0354 -0.0945
    1TCq1    H114085   1.658   2.958   0.818  0.3043  2.0564 -0.1199
    1TCq1    H214086   1.661   2.876   0.663  1.1977  0.8406  1.4970
    1TCq1    H314087   1.493   2.502   0.569  0.0910 -0.0668 -0.7808
    1TCq1    H414088   1.661   2.561   0.963  1.5015  1.1825  0.4629
    2MPD1     C14089   1.609   1.945   1.047  0.3148 -0.6708  0.1071
    2MPD1    C114090   1.677   2.042   1.117  0.1378 -0.3907 -0.2454
    2MPD1    C214091   1.697   2.165   1.062  0.7325 -0.5707 -0.3175
    2MPD1    C314092   1.630   2.194   0.941 -0.8888 -0.4957  0.0447
    2MPD1    C414093   1.556   2.097   0.880 -0.3750 -1.0532 -0.1899
    2MPD1    C514094   1.536   1.974   0.936  0.1227 -0.5614 -0.4827
    2MPD1     H14095   1.758   2.246   1.099 -1.1565 -0.2106  2.0170
    2MPD1    H114096   1.507   2.107   0.784 -0.5244 -0.3203 -0.0367
    2MPD1    H214097   1.609   1.844   1.088 -1.7477 -0.8999 -0.4906
    2MPD1    H314098   1.481   1.898   0.882 -1.3680  0.6529 -0.6803
    2MPD1     N14099   1.647   2.322   0.888  0.2998 -0.0376  0.4043
    2MPD1    H514100   1.721   2.382   0.923 -0.8306  2.0643 -0.8078
    2MPD1    N114101   1.757   1.996   1.222  0.2391 -0.3215 -0.3107
    2MPD1    H614102   1.717   1.922   1.279  3.9051 -0.9544  1.4668
    2MPD1    H714103   1.769   2.074   1.286 -2.5349 -0.9677  0.9845
    1MPD1     C14104   4.210   1.776  11.402  0.7433 -0.5300 -0.7214
    1MPD1    C114105   4.254   1.882  11.316  0.0815 -1.1519  0.1729
    1MPD1    C214106   4.369   1.950  11.361  0.5400 -0.5579  0.1949
    1MPD1    C314107   4.431   1.924  11.484  0.4208 -0.4360  0.0841
    1MPD1    C414108   4.377   1.834  11.570 -0.3867  0.5250  0.4315
    1MPD1    C514109   4.269   1.755  11.524  0.2225 -0.2437 -0.8934
    1MPD1     H14110   4.417   2.013  11.287  0.5683 -1.5892 -0.6533
    1MPD1    H114111   4.421   1.805  11.664 -1.9064  1.7712  1.5452
    1MPD1    H214112   4.125   1.712  11.379  0.0387 -1.0119  3.2597
    1MPD1    H314113   4.224   1.668  11.570  1.3678 -0.4920 -0.2656
    1MPD1     N14114   4.557   1.981  11.505 -0.1151  0.9424  0.0085
    1MPD1    H514115   4.582   2.056  11.442  0.0063 -1.0846 -2.3593
    1MPD1    N114116   4.205   1.909  11.186  0.4865 -0.4841  0.2044
    1MPD1    H614117   4.199   2.010  11.177 -2.1517 -0.7145 -0.5683
    1MPD1    H714118   4.112   1.870  11.169  0.6737 -1.1600  0.7304
    2MPD1     C14119   3.957   1.369  11.075  0.4069 -0.4602 -0.0306
    2MPD1    C114120   3.909   1.453  10.975  0.0423 -0.1006 -0.3163
    2MPD1    C214121   4.004   1.512  10.889 -0.9625 -0.4487  0.1962
    2MPD1    C314122   4.143   1.483  10.897  1.3747 -0.4303  0.3489
    2MPD1    C414123   4.172   1.389  10.981  0.7501  0.3264  1.1723
    2MPD1    C514124   4.090   1.339  11.074 -0.5204 -0.2940 -0.3298
    2MPD1     H14125   3.979   1.578  10.806 -0.2761  0.7645  0.9544
    2MPD1    H114126   4.276   1.360  10.989  1.0800  1.8110  2.3189
    2MPD1    H214127   3.892   1.322  11.148  1.8030 -2.0433  0.1904
    2MPD1    H314128   4.129   1.266  11.145 -0.7765  0.2885  0.4150
    2MPD1     N14129   4.240   1.527  10.804 -0.7534 -0.0544 -0.3477
    2MPD1    H514130   4.337   1.504  10.824 -1.4695 -3.6754 -0.9162
    2MPD1    N114131   3.770   1.477  10.959 -0.2264  0.0958  0.1931
    2MPD1    H614132   3.714   1.397  10.987  0.9824  0.0042  2.4207
    2MPD1    H714133   3.744   1.519  10.871 -0.2198 -0.9559 -0.3119
    3MPD1     C14134   4.691   2.328  10.256  0.3781  0.0152 -0.3227
    3MPD1    C114135   0.076   2.250  10.298  0.6129 -0.0775  0.5723
    3MPD1    C214136   0.050   2.122  10.340 -0.3085 -0.3314 -0.4183
    3MPD1    C314137   4.643   2.073  10.343 -0.0068 -0.0778  0.4385
    3MPD1    C414138   4.547   2.147  10.277 -0.6217 -0.1034  0.1588
    3MPD1    C514139   4.574   2.267  10.217  0.0172 -0.7484  0.2468
    3MPD1     H14140   0.126   2.067  10.393  0.1335  0.8862  0.2085
    3MPD1    H114141   4.446   2.107  10.268 -0.3467 -1.6119  3.9807
    3MPD1    H214142   4.702   2.427  10.214  0.1397  0.1790  0.0003
    3MPD1    H314143   4.502   2.335  10.173 -1.2095 -2.5533 -0.5381
    3MPD1     N14144   4.622   1.947  10.410 -0.0451  0.5816 -0.5148
    3MPD1    H514145   4.701   1.897  10.449 -0.9466 -0.6427 -0.2457
    3MPD1    N114146   0.205   2.299  10.312 -0.4441 -0.4710 -0.3646
    3MPD1    H614147   0.216   2.364  10.235  2.0145  1.2719  1.4638
    3MPD1    H714148   0.280   2.231  10.298  0.8127  0.4402  1.9851
    4MPD2     C14149   0.301   2.359  11.150  0.6775  1.0042 -0.0236
    4MPD2    C114150   0.353   2.260  11.233 -0.4497  0.0870  0.5741
    4MPD2    C214151   0.444   2.174  11.175 -0.1214 -0.3738 -0.6179
    4MPD2    C314152   0.493   2.191  11.052  0.0917 -0.0526 -0.6825
    4MPD2    C414153   0.442   2.291  10.974  0.2848  0.3553  0.8341
    4MPD2    C514154   0.343   2.367  11.020 -0.2965  1.1099  0.4675
    4MPD2     H14155   0.483   2.100  11.244  1.2198  1.2820  0.4055
    4MPD2    H114156   0.480   2.320  10.876  0.4206  0.4305  0.9090
    4MPD2    H214157   0.226   2.431  11.180 -0.1143  0.3009 -0.3079
    4MPD2    H314158   0.313   2.453  10.961 -2.1542  0.8774  1.0623
    4MPD2     N14159   0.602   2.105  11.013 -0.0363  1.0827 -0.0445
    4MPD2    H514160   0.630   2.032  11.077  1.7982 -0.1427 -2.2884
    4MPD2    N114161   0.305   2.233  11.360  0.3077  0.0189 -0.1439
    4MPD2    H714162   0.357   2.161  11.410  0.0259  1.1638  1.8375
    5TMC3    C114163   0.164   2.223  11.544 -0.1791  0.0439  0.4052
    5TMC3    C214164   0.043   2.151  11.540  0.3816 -0.5182  0.1311
    5TMC3    C314165   0.044   2.032  11.603  0.1505 -0.1994  0.4479
    5TMC3    C414166   0.276   2.174  11.599 -0.7801  0.0891 -0.3553
    5TMC3    C514167   0.274   2.050  11.651  0.3006  1.2183  1.3797
    5TMC3    C614168   0.154   1.976  11.665  0.1690  0.5754 -0.5266
    5TMC3     C14169   0.193   2.289  11.421  0.2399 -0.0411  0.4641
    5TMC3     O14170   0.094   2.329  11.357  0.4133 -0.2068 -0.3330
    5TMC3     H14171   4.672   2.196  11.504  1.2506 -0.2963 -1.8325
    5TMC3    H114172   0.367   2.233  11.598  0.1588 -1.3436  0.2685
    5TMC3    H214173   0.148   1.881  11.716 -0.2301  0.1285 -1.4084
    5TMC3    C714174   0.382   1.979  11.591 -0.4927 -0.8318 -0.3816
    5TMC3    C814175   4.648   1.947  11.600 -0.5037 -0.2216  0.3842
    5TMC3    O114176   0.455   2.035  11.511  0.5678 -0.0849 -0.2401
    5TMC3    O214177   4.641   1.866  11.695 -0.3717  0.6574  0.3271
    6TMC3    C114178   4.345   1.628  10.613 -0.0368  0.6923  0.2296
    6TMC3    C214179   4.376   1.756  10.574 -0.3394 -0.6434  0.2189
    6TMC3    C314180   4.495   1.776  10.507 -0.3014 -0.7604 -0.1771
    6TMC3    C414181   4.437   1.527  10.605  0.3995  0.3468 -0.1863
    6TMC3    C514182   4.557   1.554  10.548 -0.6793 -0.3174 -0.5125
    6TMC3    C614183   4.585   1.675  10.489  0.1247  0.5767  0.8455
    6TMC3     C14184   4.225   1.615  10.697  0.2736  0.2273  0.2062
    6TMC3     O14185   4.132   1.697  10.687 -0.2924 -0.1114  0.5928
    6TMC3     H14186   4.302   1.833  10.592 -1.4968 -1.6735 -0.1578
    6TMC3    H114187   4.410   1.422  10.610 -0.3506  0.4749 -1.5412
    6TMC3    H214188   4.677   1.700  10.437  0.8625  0.5341  2.1219
    6TMC3    C714189   4.673   1.467  10.570  0.0145 -0.1485  0.3149
    6TMC3    C814190   4.498   1.895  10.431 -0.1782 -0.5551  0.2940
    6TMC3    O114191   4.652   1.347  10.574  0.2470 -0.2056  0.3778
    6TMC3    O214192   4.386   1.936  10.397  0.2656 -0.2466  0.0252
    7MPD2     C14193   0.531   1.530  11.394 -0.4582  0.5562  0.2618
    7MPD2    C114194   0.546   1.656  11.344 -0.2116 -0.1731 -0.5596
    7MPD2    C214195   0.506   1.761  11.419  0.1404 -0.0489  0.7024
    7MPD2    C314196   0.444   1.741  11.542  0.4959  0.0587 -0.0487
    7MPD2    C414197   0.413   1.610  11.580 -0.3349  0.0238 -0.1605
    7MPD2    C514198   0.468   1.506  11.515  0.0387 -0.0810 -0.0526
    7MPD2     H14199   0.511   1.862  11.381  0.6431  0.2824  1.6517
    7MPD2    H114200   0.373   1.578  11.676 -2.9631 -1.5245 -1.7856
    7MPD2    H214201   0.574   1.449  11.336  1.4107 -0.2815  2.8387
    7MPD2    H314202   0.452   1.407  11.555  1.9319 -0.9467 -1.4147
    7MPD2     N14203   0.381   1.841  11.622  0.1421 -0.4717  0.0671
    7MPD2    H514204   0.345   1.804  11.709  0.3801 -1.3278 -0.1997
    7MPD2    N114205   0.618   1.670  11.216 -0.1880 -0.8709  0.1993
    7MPD2    H714206   0.642   1.589  11.161  2.3228  0.5273 -0.7438
    8TMC3    C114207   0.715   1.793  11.030  0.4626  0.8082  0.1178
    8TMC3    C214208   0.652   1.723  10.927  0.3652  0.5049 -0.3648
    8TMC3    C314209   0.633   1.786  10.808  0.4204  0.8161  0.0413
    8TMC3    C414210   0.764   1.914  10.992  0.7694  0.2430  0.1775
    8TMC3    C514211   0.731   1.981  10.878 -0.2995  0.0815 -0.1761
    8TMC3    C614212   0.675   1.911  10.780 -0.5047 -0.2961  0.4788
    8TMC3     C14213   0.670   1.791  11.171  0.1481 -0.3566 -0.0723
    8TMC3     O14214   0.667   1.898  11.227  0.5126  0.2457 -0.0115
    8TMC3     H14215   0.603   1.632  10.960 -1.8686  0.3125 -4.3077
    8TMC3    H114216   0.805   1.969  11.076 -0.4753 -0.3523  1.1849
    8TMC3    H214217   0.634   1.962  10.694  0.7531  0.1514  0.1344
    8TMC3    C714218   0.671   2.111  10.897  0.1212 -0.1038 -0.3873
    8TMC3    C814219   0.534   1.730  10.719  0.0346  0.0267 -0.4812
    8TMC3    O114220   0.653   2.177  10.798  0.3023 -0.0444  0.7828
    8TMC3    O214221   0.474   1.803  10.641  0.1556  0.2747  0.6192
    9MPD2     C14222   0.437   1.378  10.707  0.0274 -0.0682 -0.7229
    9MPD2    C114223   0.415   1.513  10.704 -0.4939  0.8301 -0.8820
    9MPD2    C214224   0.297   1.571  10.664 -0.8881  0.1706  0.2154
    9MPD2    C314225   0.195   1.486  10.622  0.4464  0.0602  0.0246
    9MPD2    C414226   0.220   1.351  10.607 -0.3476 -0.3717  0.4291
    9MPD2    C514227   0.337   1.300  10.665 -0.8664  0.5915 -0.0781
    9MPD2     H14228   0.276   1.677  10.673 -1.4229 -0.0525  1.5793
    9MPD2    H114229   0.147   1.280  10.570  0.8158 -1.9652  1.2276
    9MPD2    H214230   0.524   1.322  10.741  0.3153  1.9396  1.8578
    9MPD2    H314231   0.349   1.192  10.670  1.0487  0.8023 -0.4441
    9MPD2     N14232   0.068   1.547  10.592 -0.0421  0.3891 -0.2661
    9MPD2    H514233   0.054   1.646  10.607  2.0042  0.3060  2.1710
    9MPD2    N114234   0.524   1.596  10.736  0.2355  0.2036 -0.8112
    9MPD2    H714235   0.606   1.547  10.771 -1.1894 -1.7821 -0.2728
    1MPD1     C14236   0.053   0.851   0.757  0.2128  0.2146 -0.4860
    1MPD1    C114237   0.073   0.791   0.881  0.2410 -0.4844 -0.0833
    1MPD1    C214238   0.058   0.657   0.898 -0.3434 -0.3990 -0.1690
    1MPD1    C314239   0.024   0.579   0.789 -0.7080  0.3183 -0.5594
    1MPD1    C414240   0.010   0.636   0.664  0.0136 -0.0799 -0.1327
    1MPD1    C514241   0.026   0.773   0.649  0.8040 -0.4645  0.2086
    1MPD1     H14242   0.053   0.618   0.999 -0.8520  1.2745  0.4607
    1MPD1    H114243   4.710   0.575   0.577  2.2037 -1.4289  0.2988
    1MPD1    H214244   0.055   0.957   0.739 -3.7332  1.0643  4.0758
    1MPD1    H314245   0.010   0.817   0.551  3.2242 -0.0569 -0.0227
    1MPD1     N14246   4.707   0.448   0.803  0.2614 -0.3088  0.6228
    1MPD1    H514247   4.677   0.402   0.718  0.1557  2.7369 -0.9817
    1MPD1    N114248   0.080   0.880   0.994 -0.6026  0.0904 -0.4436
    1MPD1    H614249   0.113   0.975   0.982  0.1778  0.1033  1.6903
    1MPD1    H714250   0.133   0.840   1.072 -1.8330 -2.8297 -1.0879
    2MPD1     C14251   4.647   4.461   1.530 -0.0747  0.9200  0.8374
    2MPD1    C114252   4.598   4.583   1.521 -0.6170 -0.7722 -0.0095
    2MPD1    C214253   4.602   4.639   1.393 -0.2494 -0.2529 -0.2930
    2MPD1    C314254   4.658   4.585   1.280  0.1432  0.0781  0.2171
    2MPD1    C414255   4.685   4.450   1.288 -0.2483 -0.3202  0.5535
    2MPD1    C514256   4.677   4.398   1.413  0.6078 -0.3069 -0.0415
    2MPD1     H14257   4.577   0.023   1.382  1.0298 -0.0092 -0.9173
    2MPD1    H114258   0.008   4.391   1.209 -0.0822  0.0490  0.3708
    2MPD1    H214259   4.667   4.413   1.624 -0.3693 -1.0361 -0.1084
    2MPD1    H314260   4.716   4.297   1.414 -1.7681 -1.2143 -0.0609
    2MPD1     N14261   4.676   4.660   1.165  0.1544 -0.6878  0.3196
    2MPD1    H514262   4.650   0.036   1.167  1.4835 -0.3237 -0.4267
    2MPD1    N114263   4.569   4.663   1.635  0.4496  0.8186 -0.1908
    2MPD1    H614264   4.483   4.716   1.623  0.2155  0.1753 -1.3201
    2MPD1    H714265   4.575   4.610   1.722 -1.6368 -0.4899 -0.8499
    3TCq2    C114266   4.706   4.607   1.042 -0.0268  0.3426  0.4384
    3TCq2    O214267   0.005   4.487   1.005  0.3972  0.2915  0.4348
    3TCq2    C214268   0.003   4.715   0.947 -0.0757 -0.3829 -0.3045
    3TCq2    C314269   0.033   4.675   0.824  0.4729  0.2472  0.1618
    3TCq2    C414270   0.051   0.048   0.726  0.3266  0.6130  0.4340
    3TCq2    C514271   0.015   0.178   0.744  0.1633 -0.3338 -0.7524
    3TCq2    C614272   4.708   0.222   0.875  0.3141 -0.4648  0.4070
    3TCq2    C714273   4.707   0.131   0.974 -0.5518 -0.2171 -0.3143
    3TCq2    C814274   0.007   0.362   0.910  1.1528  0.6982 -0.3786
    3TCq2    O414275   0.052   0.380   1.023  0.3759 -0.3576  0.2541
    3TCq2    C914276   0.085   4.720   0.598 -0.5876 -0.1201 -0.3716
    3TCq2    O514277   0.120   4.598   0.580  0.2874 -0.3895  0.0162
    3TCq2    O614278   0.070   0.076   0.501  0.2277  0.2702 -0.0648
    3TCq2    H214279   0.042   4.571   0.795 -0.0191 -0.1268  1.3323
    3TCq2    H314280   0.010   0.249   0.663 -3.4114 -0.0173 -0.2544
    3TCq2    H414281   4.696   0.174   1.073  0.2955 -0.3867 -0.1485
    1TCq1    O114282   2.717   4.390  12.607 -0.0614  0.2408  0.1213
    1TCq1    C114283   2.656   4.325  12.708  0.2368 -0.2586  0.0814
    1TCq1    O214284   2.536   4.329  12.733 -0.0288  0.5367 -0.5938
    1TCq1    C214285   2.739   4.254  12.794  0.4564  0.4152  0.1300
    1TCq1    C314286   2.680   4.158  12.868  0.4754  0.6048  0.6008
    1TCq1    C414287   2.752   4.071  12.943 -0.0037  0.6587  0.2451
    1TCq1    C514288   2.887   4.077  12.941  0.0108 -0.8520  0.4919
    1TCq1    C614289   2.952   4.174  12.862  0.1633  0.1489 -0.8594
    1TCq1    C714290   2.873   4.261  12.786 -0.4681  0.5790 -0.6182
    1TCq1    C814291   3.089   4.206  12.879  0.2863  0.1392 -0.4794
    1TCq1    O414292   3.132   4.276  12.788  0.0301  0.1957  0.2191
    1TCq1    C914293   2.682   3.967  13.011  0.2974 -0.7567  0.1026
    1TCq1    O514294   2.571   4.000  13.061  0.4383 -0.1729 -0.8379
    1TCq1    O614295   2.749   3.875  13.066 -0.0241  0.0046  0.1142
    1TCq1    H114296   2.803   4.347  12.590 -1.0366 -0.2587 -3.4411
    1TCq1    H214297   2.573   4.148  12.877  0.3979  0.6285 -0.3756
    1TCq1    H314298   2.951   4.018  13.005  0.0891 -1.8191 -0.4829
    1TCq1    H414299   2.921   4.348  12.742  1.8683 -0.5990 -0.4423
    2MPD2     C14300   3.353   4.281  12.986 -0.5031  0.2560 -0.1608
    2MPD2    C114301   3.290   4.170  13.017  0.9316  0.0848 -0.5268
    2MPD2    C214302   3.343   4.080  13.102 -0.5912  1.0482  0.4867
    2MPD2    C314303   3.474   4.098  13.146 -0.0594 -0.0193 -0.8914
    2MPD2    C414304   3.545   4.206  13.109 -0.1110 -0.1204 -0.4239
    2MPD2    C514305   3.478   4.302  13.037  0.1375  0.0140 -0.1147
    2MPD2     H14306   3.289   3.995  13.142  0.7064 -1.1939 -2.4579
    2MPD2    H114307   3.643   4.222  13.154 -0.8189  0.7913  0.7940
    2MPD2    H214308   3.313   4.359  12.923  0.9345  0.0312 -1.3425
    2MPD2    H314309   3.541   4.385  13.010 -3.0396  2.1735 -0.8765
    2MPD2     N14310   3.531   4.003  13.241 -0.2987 -0.6708 -0.0380
    2MPD2    H514311   3.470   3.924  13.259 -1.3546  0.5070  1.5412
    2MPD2    N114312   3.152   4.141  12.976  0.5945  0.2433 -0.3368
    2MPD2    H714313   3.106   4.066  13.027  1.3052  1.3887  2.0087
    3TCq1    O114314   4.007   3.568  13.521 -0.7273  0.6137  0.0209
    3TCq1    C114315   3.966   3.645  13.415 -0.3718 -0.9921 -0.6442
    3TCq1    O214316   4.000   3.631  13.299 -0.0586 -0.3120 -0.7789
    3TCq1    C214317   3.853   3.731  13.452 -0.2394  0.3937  0.4578
    3TCq1    C314318   3.765   3.692  13.550  0.4794  0.3704  0.4485
    3TCq1    C414319   3.648   3.760  13.564 -0.0039 -0.5726 -0.0296
    3TCq1    C514320   3.614   3.861  13.479 -0.1309 -0.4091  0.4589
    3TCq1    C614321   3.701   3.887  13.369 -0.2089 -0.1497 -0.0658
    3TCq1    C714322   3.819   3.830  13.365 -0.5357  0.1953 -0.0391
    3TCq1    C814323   3.665   3.985  13.265  0.9195 -0.3869 -0.4252
    3TCq1    O414324   3.760   4.045  13.217  0.0053  0.5637 -0.1249
    3TCq1    C914325   3.557   3.725  13.677  0.2705  0.8316  0.0543
    3TCq1    O514326   3.455   3.800  13.694  0.0016  0.0316  0.0948
    3TCq1    O614327   3.593   3.623  13.739  0.1296 -0.1423 -0.1627
    3TCq1    H114328   3.981   3.609  13.606  0.7997  0.3297  0.6036
    3TCq1    H214329   3.781   3.603  13.611 -1.4149  0.6649  1.3771
    3TCq1    H314330   3.513   3.898  13.494  0.6594  1.2409  1.8105
    3TCq1    H414331   3.881   3.851  13.278 -2.0768  1.4323 -0.8423
    1MPD2     C14332   2.522   0.376  14.299 -0.2074  0.3356 -0.0277
    1MPD2    C114333   2.476   0.343  14.425  0.0675  0.5107  0.8227
    1MPD2    C214334   2.471   0.209  14.449  0.2869 -0.3092 -0.0684
    1MPD2    C314335   2.528   0.114  14.372 -0.5424 -0.0378  0.1615
    1MPD2    C414336   2.595   0.150  14.259 -0.0371  1.0244  0.3765
    1MPD2    C514337   2.585   0.284  14.221 -0.5039  0.0215 -0.1501
    1MPD2     H14338   2.432   0.174  14.544 -1.0219 -0.5761 -0.7022
    1MPD2    H114339   2.653   0.081  14.198 -0.7065 -0.2016  1.1313
    1MPD2    H214340   2.519   0.480  14.271  0.7746  0.1040 -0.9917
    1MPD2    H314341   2.642   0.316  14.135 -1.5440  0.4202 -0.6881
    1MPD2     N14342   2.498   4.696  14.403 -0.9608 -0.6032  0.3123
    1MPD2    H514343   2.440   4.683  14.485 -2.2552 -0.5789 -0.5981
    1MPD2    N114344   2.411   0.435  14.505  0.6500  0.5670 -0.0801
    1MPD2    H714345   2.405   0.528  14.465 -0.6489 -0.1305 -1.4624
    2TMC3    C114346   2.234   0.511  14.645  0.4462  0.0584 -0.0861
    2TMC3    C214347   2.143   0.469  14.738  0.4061  0.0623  0.0123
    2TMC3    C314348   2.011   0.504  14.720 -0.0249 -0.2060  0.8728
    2TMC3    C414349   2.207   0.616  14.554 -0.2902  0.3613  0.4470
    2TMC3    C514350   2.078   0.667  14.556  0.1106  0.4700  0.4013
    2TMC3    C614351   1.983   0.599  14.621  0.2501 -0.3284  0.5901
    2TMC3     C14352   2.333   0.409  14.619 -0.3830 -0.3800 -0.4953
    2TMC3     O14353   2.305   0.303  14.666 -0.1218 -0.8843  0.3736
    2TMC3     H14354   2.155   0.386  14.807  0.2605 -0.9325 -1.1631
    2TMC3    H114355   2.280   0.660  14.488 -0.3583  0.4229  0.4120
    2TMC3    H214356   1.877   0.623  14.613  0.4941  1.5433  2.9104
    2TMC3    C714357   2.052   0.783  14.466  0.1966  0.7257 -0.4156
    2TMC3    C814358   1.912   0.392  14.707  0.1865  0.1155  0.2643
    2TMC3    O114359   1.941   0.778  14.417  0.1739 -0.7023 -0.2915
    2TMC3    O214360   1.793   0.416  14.698  0.4592 -0.6402 -0.4481
    3TCq1    O114361   2.904   1.698  14.221 -0.1557 -0.1552 -0.0061
    3TCq1    C114362   2.855   1.608  14.138 -0.1410  0.1110 -0.2561
    3TCq1    O214363   2.835   1.624  14.020  0.2763  0.0179  0.3733
    3TCq1    C214364   2.794   1.518  14.224 -0.1052 -0.0810 -0.2788
    3TCq1    C314365   2.857   1.483  14.342  0.6072  0.0393 -0.6238
    3TCq1    C414366   2.784   1.413  14.433  0.0188 -0.3432  0.5066
    3TCq1    C514367   2.654   1.382  14.412 -0.6108 -0.0550  0.3699
    3TCq1    C614368   2.596   1.421  14.297 -0.2069 -0.2720  0.3914
    3TCq1    C714369   2.668   1.490  14.201 -0.6459 -0.0532  0.4833
    3TCq1    C814370   2.459   1.379  14.267 -0.3909  0.1243  0.1130
    3TCq1    O414371   2.412   1.410  14.161 -0.4275  0.1858  0.0678
    3TCq1    C914372   2.850   1.346  14.546 -0.1426 -0.2823 -0.3875
    3TCq1    O514373   2.973   1.365  14.561  0.1526 -0.7851 -0.2660
    3TCq1    O614374   2.785   1.255  14.605 -0.3747  0.1207 -0.7207
    3TCq1    H114375   2.887   1.687  14.317  0.1032  0.3374  0.0973
    3TCq1    H214376   2.964   1.465  14.342  0.0346 -3.5524  2.6703
    3TCq1    H314377   2.607   1.311  14.479  0.6855 -0.5248  0.7960
    3TCq1    H414378   2.623   1.523  14.108 -1.4255 -1.2137  0.4482
    4MPD2     C14379   2.202   1.237  14.249  0.4359  0.3815  0.5294
    4MPD2    C114380   2.307   1.184  14.324 -0.4219 -0.2703 -0.4378
    4MPD2    C214381   2.286   1.075  14.396  0.5207 -0.7145  0.3269
    4MPD2    C314382   2.168   0.996  14.390 -0.0701 -0.4762 -0.6338
    4MPD2    C414383   2.068   1.043  14.313 -0.2469 -0.1035 -0.3243
    4MPD2    C514384   2.085   1.158  14.240 -0.3936 -0.9327 -0.1991
    4MPD2     H14385   2.375   1.044  14.449 -0.0817 -3.8175 -0.4334
    4MPD2    H114386   1.970   0.999  14.320 -0.6353  0.6853 -0.6926
    4MPD2    H214387   2.200   1.324  14.185  1.4058 -0.2523 -0.3532
    4MPD2    H314388   2.000   1.195  14.184  0.5154 -0.4426 -1.2542
    4MPD2     N14389   2.159   0.871  14.468 -0.1328 -0.4154 -0.1154
    4MPD2    H514390   2.232   0.833  14.528  1.2396  2.5227  0.0647
    4MPD2    N114391   2.420   1.270  14.345 -0.2168 -0.1562 -0.0363
    4MPD2    H714392   2.488   1.245  14.415  0.2999  2.2911  0.3299
    5TMC2    C114393   2.242   4.398  14.452 -0.3703  0.2596 -0.0668
    5TMC2    C214394   2.276   4.269  14.418  0.2272  0.0371 -0.1911
    5TMC2    C314395   2.395   4.246  14.362  0.7533  0.8532 -0.1127
    5TMC2    C414396   2.319   4.499  14.411  0.3098  0.5918  0.5334
    5TMC2    C514397   2.444   4.478  14.362 -0.2840 -0.1422  0.4310
    5TMC2    C614398   2.478   4.350  14.332  0.9082  0.2144  0.4954
    5TMC2     C14399   2.115   4.425  14.522  0.4648  0.3006 -0.0148
    5TMC2     O14400   2.022   4.346  14.525 -0.1091 -0.4412  0.2309
    5TMC2     H14401   2.213   4.189  14.455 -3.8152  4.5983  2.8645
    5TMC2    H114402   2.282   4.601  14.403 -1.0657  0.1054  0.8130
    5TMC2    H214403   2.577   4.342  14.288  0.4471 -2.5287 -0.0509
    5TMC2    C714404   2.531   4.587  14.328 -0.6241 -0.0473 -0.4014
    5TMC2    C814405   2.450   4.114  14.355  0.4680 -0.0080 -0.0061
    5TMC2    O114406   2.606   4.580  14.230 -0.2663  0.6002  0.5815
    5TMC2    O214407   2.396   4.035  14.427  0.4348 -0.1693 -0.1644
    5TMC2    O514408   2.528   4.093  14.244  0.2486  0.4967  0.4178
    5TMC2    H514409   2.532   4.175  14.190  1.6466  1.4976  2.0323
    6MPD2     C14410   1.795   0.096  14.660  0.1690 -0.4482  0.2483
    6MPD2    C114411   1.929   0.143  14.649 -0.0139  0.4187 -0.1016
    6MPD2    C214412   2.025   0.054  14.602 -0.3404 -0.4161 -0.3982
    6MPD2    C314413   1.999   4.634  14.597 -0.3336  0.1915  0.4991
    6MPD2    C414414   1.869   4.591  14.618  0.1159 -0.7295 -0.9279
    6MPD2    C514415   1.772   4.683  14.647  0.7297  0.4486  1.2211
    6MPD2     H14416   2.127   0.082  14.578 -0.6385  2.7902  2.1796
    6MPD2    H114417   1.840   4.486  14.613 -0.7314 -0.5119 -0.5986
    6MPD2    H214418   1.707   0.158  14.672  0.1937 -0.3255 -0.1906
    6MPD2    H314419   1.668   4.653  14.643  1.3698 -1.7464  1.3419
    6MPD2     N14420   2.113   4.558  14.565  0.5572 -0.0773 -0.2539
    6MPD2    H514421   2.200   4.611  14.564  0.6748 -0.2516  1.8108
    6MPD2    N114422   1.980   0.278  14.663 -0.0342  0.2603 -1.3454
    6MPD2    H714423   2.081   0.283  14.654  0.1320 -0.0488  0.3441
  945NH3     N114424   3.595   0.861  16.962 -0.9605  0.4847  0.2103
  945NH3     H214425   3.605   0.761  16.953  1.5484  0.8762 -1.2645
  945NH3     H314426   3.521   0.876  16.894 -0.0529  1.0189 -0.6687
  945NH3     H414427   3.680   0.892  16.916 -1.0122  0.6056  0.1954
  946SOD     NA14428   2.765   3.683  12.950  0.1978 -0.1848 -0.0291
  947SOD     NA14429   0.182   2.307  14.375  0.4905  0.3386  0.4821
  948SOD     NA14430   0.614   4.277   0.469  0.3756  0.5112  0.6086
  949SOD     NA14431   1.069   4.344  12.603  0.2140 -0.3376  0.6089
  950SOD     NA14432   0.736   2.429   2.624 -0.4706  0.4145  0.0245
  951SOD     NA14433   0.051   1.528   8.411 -0.2000 -0.6714 -0.0784
  952SOD     NA14434   2.567   2.792  10.825  0.1207 -0.1322  0.0640
  953SOD     NA14435   0.749   2.966   0.899 -0.6024 -0.0414 -0.2489
  954SOD     NA14436   3.169   3.225  12.415 -0.0072 -0.0200  0.1084
  955SOD     NA14437   3.556   3.967  14.467  0.2549  0.1151 -0.2847
  956SOD     NA14438   0.783   4.123   8.770  0.2798  0.3746 -0.3710
  957SOD     NA14439   0.068   2.137  14.592 -0.1504  0.1652  0.3835
  958SOD     NA14440   4.497   0.715  12.305 -0.4846  0.0766  0.4304
  959SOD     NA14441   3.910   3.814  14.133 -0.1242 -0.0177 -0.0463
  960SOD     NA14442   2.311   1.105  10.494  0.6434  0.1546 -0.3253
  961SOD     NA14443   3.951   4.155   0.244  0.0370  0.1528  0.2766
  962SOD     NA14444   2.334   2.685  11.057  0.1154  0.6801 -0.0928
  963SOD     NA14445   0.742   2.626   1.315  0.1302 -0.3771  0.3850
  964SOD     NA14446   2.539   3.498  11.293  0.2538  0.1057 -0.1518
  965SOD     NA14447   1.954   0.175   9.126 -0.2755  0.0088 -0.2312
  966SOD     NA14448   2.089   0.723  15.000 -0.1500 -0.3809 -0.0298
  967SOD     NA14449   3.431   0.138   8.057  0.4169  0.2944 -0.3068
  968SOD     NA14450   1.041   1.647   5.920  0.0182 -0.1786 -0.1512
  969SOD     NA14451   2.599   1.112   1.091 -0.2650  0.1498  0.2899
  970SOD     NA14452   1.554   0.047   2.426  0.0486  0.6425  0.5730
  971SOD     NA14453   4.553   4.062  14.993  0.4236 -0.1428  0.2714
  972SOD     NA14454   3.269   3.951  11.287  0.1045  0.0609  0.6132
  973SOD     NA14455   1.467   1.116   8.808 -0.0778  0.3373  0.0058
  974SOD     NA14456   4.206   2.385   0.489 -0.0985  0.3924 -0.1045
  975SOD     NA14457   4.063   0.404  15.481 -0.1941 -0.0405  0.4144
  976SOD     NA14458   3.008   1.179  14.670 -0.4133  0.4784 -0.3527
  977SOD     NA14459   0.044   0.644  12.151 -0.3504  0.4465  0.2789
  978SOD     NA14460   2.751   0.430   5.457  0.0297 -0.2959 -0.2706
  979SOD     NA14461   2.421   3.843  13.095 -0.7124  0.1919 -0.1382
  980SOD     NA14462   4.512   4.499  14.788 -0.1856 -0.2173 -0.1005
  981SOD     NA14463   1.908   4.388  10.522  0.1326  0.2232  0.4247
  982SOD     NA14464   3.930   2.739   2.745 -0.3029 -0.0958  0.1040
  983SOD     NA14465   4.052   2.738  16.771  0.0553  0.0841  0.2001
  984SOD     NA14466   1.717   3.679  10.014 -0.3466  0.2591 -0.3881
  985SOD     NA14467   2.096   0.778  11.931  0.1205 -0.4281 -0.6215
  986SOD     NA14468   0.478   1.246   0.674  0.0925  0.4061 -0.7236
  987SOD     NA14469   1.007   1.457   0.933  0.0209 -0.6258  0.1040
  988SOD     NA14470   3.724   2.973   1.760  0.4642  0.3204 -0.0775
  989SOD     NA14471   0.336   0.020  15.273  0.0527  0.0061  0.3453
  990SOD     NA14472   0.339   0.333  17.579 -0.4188  0.0299  0.0374
  991SOD     NA14473   4.238   1.011  12.982 -0.5011 -0.5035  0.8190
  992SOD     NA14474   0.711   1.790  15.827 -0.1854  0.1760 -0.3075
  993SOD     NA14475   2.169   3.551   9.688 -0.6862  0.1492 -0.3986
  994SOD     NA14476   0.849   4.254  10.716  0.2831  0.0026 -0.0420
  995SOD     NA14477   4.687   3.071  13.284  0.1062 -0.1056  0.2174
  996SOD     NA14478   0.663   3.257   9.718 -0.1949 -0.3022 -0.0283
  997SOD     NA14479   0.185   3.391  12.560  0.0059 -0.4502 -0.0341
  998SOD     NA14480   2.535   1.858   2.331 -0.2803  0.2618 -0.2170
  999SOD     NA14481   3.579   0.818  17.610 -0.0694  0.1296  0.3082
 1000SOD     NA14482   0.760   3.741  10.984 -0.1951 -0.1767  0.2478
 1001SOD     NA14483   2.711   4.058  11.373 -0.2053  0.0671  0.0520
 1002SOD     NA14484   4.246   4.368  10.206  0.0757  0.2294 -0.0225
 1003SOD     NA14485   0.290   0.117  13.256 -0.0361  0.0657 -0.0408
 1004SOD     NA14486   1.991   3.747   9.885 -0.0236  0.3935 -0.4216
 1005SOD     NA14487   4.016   3.738  13.104  0.0744  0.1937  0.8437
 1006SOD     NA14488   3.968   2.216   2.303 -0.0779 -0.0223 -0.0148
 1007SOD     NA14489   3.771   3.640  13.872 -0.2340  0.1318  0.3887
 1008SOD     NA14490   0.166   3.638   1.065 -0.2641 -0.1425  0.1409
 1009SOD     NA14491   3.090   0.172  17.433  0.0837  0.6464 -0.1601
 1010SOD     NA14492   1.785   3.995   9.904  0.2001 -0.4986  0.4040
 1011SOD     NA14493   3.828   0.371  11.740  0.1650  0.3773 -0.1033
 1012SOL     OW14494   0.242   1.903   8.431  0.4008  0.9047 -0.0167
 1012SOL    HW114495   0.232   1.996   8.449  2.0947  0.8079  1.4309
 1012SOL    HW214496   0.321   1.888   8.483 -1.2942 -0.5192  2.2077
 1013SOL     OW14497   1.746   4.648   2.904 -0.2174 -0.4115  0.1712
 1013SOL    HW114498   1.733   4.691   2.988  0.5865  0.1518  0.0040
 1013SOL    HW214499   1.796   4.710   2.851  1.5529 -1.1074  1.0113
 1014SOL     OW14500   0.108   1.849   8.673 -0.1408  0.4196  0.3294
 1014SOL    HW114501   0.154   1.890   8.600  2.0148 -0.9257  0.9334
 1014SOL    HW214502   0.088   1.925   8.727  1.8784 -0.5434  2.4235
 1015SOL     OW14503   3.270   4.427   2.560 -0.1557  0.3866  0.4032
 1015SOL    HW114504   3.250   4.520   2.571 -1.1472  0.4628 -2.0481
 1015SOL    HW214505   3.199   4.380   2.604 -0.6859  1.7170  0.9924
 1016SOL     OW14506   1.534   0.544  11.448 -0.3152 -0.1524  0.5059
 1016SOL    HW114507   1.572   0.627  11.477 -1.0578  0.5512 -0.5094
 1016SOL    HW214508   1.607   0.484  11.458  0.3316  0.6177  0.4770
 1017SOL     OW14509   3.047   0.876   5.424  0.2514 -0.2609  0.1511
 1017SOL    HW114510   2.991   0.920   5.488 -2.1883 -2.7523 -0.2066
 1017SOL    HW214511   3.131   0.920   5.430 -0.5230  1.1043  1.0851
 1018SOL     OW14512   4.476   1.341  17.360 -0.0016 -0.6148  0.1826
 1018SOL    HW114513   4.406   1.365  17.300 -1.5374 -2.8745  1.0515
 1018SOL    HW214514   4.420   1.317  17.434  1.5416 -2.0220  0.9074
 1019SOL     OW14515   4.642   4.213   0.026  0.2334  0.1969  0.2301
 1019SOL    HW114516   4.670   4.302   0.005  3.1577 -0.4267  1.6119
 1019SOL    HW214517   4.629   4.209   0.120 -1.2109 -1.0431 -0.0098
 1020SOL     OW14518   1.068   2.046   4.946  0.0886  0.0614  0.1928
 1020SOL    HW114519   1.067   2.043   5.042  3.6395 -0.5642  0.1980
 1020SOL    HW214520   1.033   1.958   4.930 -3.3355  1.6262 -0.9346
 1021SOL     OW14521   3.409   2.898   2.142  0.3791  0.1251 -0.2053
 1021SOL    HW114522   3.333   2.924   2.195 -1.3546 -0.8854 -2.1904
 1021SOL    HW214523   3.465   2.973   2.159 -0.5597  0.5789  0.8580
 1022SOL     OW14524   2.479   0.951   8.148  0.0482 -0.4109 -0.0718
 1022SOL    HW114525   2.410   1.018   8.150 -0.8233 -1.3002 -0.0793
 1022SOL    HW214526   2.548   0.991   8.200  0.7445 -0.2198 -1.1339
 1023SOL     OW14527   1.472   2.014   7.064 -0.5155 -0.1774 -0.5124
 1023SOL    HW114528   1.520   2.009   7.146  0.3871 -2.2156 -1.1680
 1023SOL    HW214529   1.458   2.109   7.068 -0.3181 -0.1654 -0.1335
 1024SOL     OW14530   2.821   0.732   4.062 -0.0498 -0.0821  0.4927
 1024SOL    HW114531   2.766   0.765   3.991  0.4933 -0.3035 -0.0366
 1024SOL    HW214532   2.858   0.818   4.082 -0.3210 -0.1932  1.4433
 1025SOL     OW14533   2.732   4.055  15.737 -0.3250  0.0458 -0.2122
 1025SOL    HW114534   2.761   4.142  15.709 -0.7593 -0.7766 -3.3118
 1025SOL    HW214535   2.750   4.062  15.830 -2.4182  0.6286  0.1451
 1026SOL     OW14536   0.707   3.724   4.997  0.0012 -0.3383 -0.1255
 1026SOL    HW114537   0.612   3.736   4.997  0.1888  1.0668  1.6961
 1026SOL    HW214538   0.717   3.707   4.903 -2.4147 -0.3706 -0.3653
 1027SOL     OW14539   2.129   0.021  10.438  0.5882  0.2316  0.2226
 1027SOL    HW114540   2.103   4.692  10.516 -0.0891  1.0458  0.5161
 1027SOL    HW214541   2.060   0.087  10.432  0.8038  0.5666  1.3803
 1028SOL     OW14542   4.460   3.211  10.832 -0.1539  0.0173  0.0959
 1028SOL    HW114543   4.391   3.204  10.898 -2.4384 -1.5099 -2.4350
 1028SOL    HW214544   4.412   3.219  10.749 -1.6127  1.2818  1.0560
 1029SOL     OW14545   4.543   2.530   3.476 -0.4318  0.0753  0.2454
 1029SOL    HW114546   4.608   2.487   3.532 -1.7876 -3.5427 -0.9640
 1029SOL    HW214547   4.584   2.615   3.464 -1.4937  0.7732  1.6103
 1030SOL     OW14548   0.803   4.690   4.921  0.4302 -0.6321 -0.1249
 1030SOL    HW114549   0.795   0.036   4.989  1.5234 -0.4231 -0.2050
 1030SOL    HW214550   0.718   4.703   4.879  1.5546  1.5848 -1.6991
 1031SOL     OW14551   0.524   0.357  11.825  0.5818  0.1060 -0.0070
 1031SOL    HW114552   0.512   0.331  11.916  1.3612  0.2078  0.1167
 1031SOL    HW214553   0.585   0.286  11.806 -0.1259 -1.2328  2.8019
 1032SOL     OW14554   2.100   0.271  17.359 -0.1138 -0.2371  0.4347
 1032SOL    HW114555   2.095   0.316  17.443  2.3345  0.2159  0.3606
 1032SOL    HW214556   2.014   0.230  17.368 -0.8168  1.7657  2.7184
 1033SOL     OW14557   0.281   3.827   0.969 -0.2962  0.2479  0.0067
 1033SOL    HW114558   0.232   3.846   0.889 -1.4529 -1.8734  0.2189
 1033SOL    HW214559   0.368   3.849   0.935 -0.3857 -0.0077 -0.3875
 1034SOL     OW14560   3.960   4.045   5.446  0.4353  0.0124  0.0801
 1034SOL    HW114561   4.025   3.994   5.495 -1.4083 -0.5785  1.9259
 1034SOL    HW214562   4.001   4.110   5.389  1.8009  0.7252  1.8596
 1035SOL     OW14563   0.940   2.862   5.896  0.2930  0.1331  0.3576
 1035SOL    HW114564   0.914   2.825   5.812  0.6143 -1.3436  0.8999
 1035SOL    HW214565   1.007   2.799   5.922 -0.6251 -0.8350  0.3740
 1036SOL     OW14566   3.751   3.247  12.002  0.0570  0.6212 -0.5201
 1036SOL    HW114567   3.780   3.157  11.984 -1.2394 -0.1007  0.9483
 1036SOL    HW214568   3.724   3.285  11.918 -2.2849 -0.0971 -0.0765
 1037SOL     OW14569   0.917   4.488   9.165 -0.0048 -0.1102  0.1074
 1037SOL    HW114570   0.954   4.456   9.247  1.1203 -1.2743 -0.8583
 1037SOL    HW214571   0.856   4.416   9.148 -0.0499 -0.0435 -0.0137
 1038SOL     OW14572   1.520   3.122   1.631 -0.3684  0.2932 -0.1003
 1038SOL    HW114573   1.579   3.087   1.698 -0.9910  1.2850  0.9748
 1038SOL    HW214574   1.437   3.076   1.638  0.0963 -0.4108  0.7928
 1039SOL     OW14575   2.239   0.289   1.710  0.5178  0.1138 -0.1905
 1039SOL    HW114576   2.194   0.223   1.658  2.9185 -2.4180  0.9608
 1039SOL    HW214577   2.331   0.275   1.688  0.8607 -0.6790  1.7474
 1040SOL     OW14578   1.418   0.403   3.531 -0.0670 -0.9078  0.1311
 1040SOL    HW114579   1.427   0.370   3.621  1.9024 -0.1108  0.2260
 1040SOL    HW214580   1.391   0.328   3.479  1.0970  0.2703 -2.1557
 1041SOL     OW14581   3.785   2.467   5.315  0.6487  0.2110 -0.4515
 1041SOL    HW114582   3.693   2.460   5.340  0.6348  2.0965  0.0038
 1041SOL    HW214583   3.786   2.379   5.277 -1.2766  0.3683 -0.8461
 1042SOL     OW14584   2.867   1.386   0.737 -0.2376  0.3058  0.1820
 1042SOL    HW114585   2.867   1.377   0.832 -1.6643  0.0925  0.1569
 1042SOL    HW214586   2.788   1.335   0.719 -1.4632  1.9952  0.7132
 1043SOL     OW14587   1.050   3.763   7.894  0.0265 -0.7662  0.6550
 1043SOL    HW114588   0.994   3.840   7.909  0.2768 -0.5341  0.3973
 1043SOL    HW214589   1.074   3.735   7.982 -0.5942 -1.9964  0.4207
 1044SOL     OW14590   2.650   3.075   2.337 -0.4668 -0.6234 -0.0948
 1044SOL    HW114591   2.697   3.129   2.274 -0.3294 -0.8315 -0.1700
 1044SOL    HW214592   2.624   3.000   2.282 -3.0930  0.6783 -0.6454
 1045SOL     OW14593   2.122   1.592   2.610  0.5760  0.2294 -0.5138
 1045SOL    HW114594   2.102   1.686   2.608 -3.1769 -0.5595  0.5328
 1045SOL    HW214595   2.150   1.579   2.519 -0.9045  0.8359 -1.0711
 1046SOL     OW14596   1.655   1.253   5.758  0.1138 -0.1874 -0.6929
 1046SOL    HW114597   1.725   1.283   5.816 -0.0429 -0.9655 -0.1038
 1046SOL    HW214598   1.573   1.291   5.788 -0.6033 -1.9611 -0.3890
 1047SOL     OW14599   2.156   1.172  15.084  0.2312  0.6821  0.2512
 1047SOL    HW114600   2.167   1.213  15.170  2.7078 -0.5443  0.5142
 1047SOL    HW214601   2.110   1.238  15.032  1.0624  1.2260  0.2106
 1048SOL     OW14602   4.583   2.038   4.325 -0.0152  0.0097  0.2785
 1048SOL    HW114603   4.498   2.000   4.302  1.2259 -0.8004 -3.0397
 1048SOL    HW214604   4.615   2.085   4.248 -1.6069 -0.1134 -0.4560
 1049SOL     OW14605   3.697   0.943  17.192 -0.0887 -0.0337  0.5913
 1049SOL    HW114606   3.780   0.985  17.170 -0.0401 -0.0047  0.8254
 1049SOL    HW214607   3.654   0.906  17.115 -1.0072  2.4421 -0.0574
 1050SOL     OW14608   1.154   1.182  15.308  0.1627  0.1165  0.1982
 1050SOL    HW114609   1.197   1.116  15.364 -0.2971 -0.1466  0.2397
 1050SOL    HW214610   1.216   1.253  15.326  0.3733 -0.2406  0.8849
 1051SOL     OW14611   4.547   2.238   2.470 -0.1204  0.0988  0.1378
 1051SOL    HW114612   4.622   2.242   2.529 -0.8407  2.4432  0.8993
 1051SOL    HW214613   4.483   2.274   2.531 -1.1575 -0.6506 -0.4982
 1052SOL     OW14614   2.781   2.879   5.235 -0.8035  0.3241 -0.5273
 1052SOL    HW114615   2.777   2.926   5.318 -0.0210 -1.9570  0.7830
 1052SOL    HW214616   2.864   2.830   5.239 -1.9266 -1.3968  1.2630
 1053SOL     OW14617   3.963   2.081  12.741  0.7438 -0.6505 -0.5171
 1053SOL    HW114618   3.893   2.119  12.795  2.0189  0.3066  0.4506
 1053SOL    HW214619   3.952   1.991  12.771  2.1340 -0.5297  0.3440
 1054SOL     OW14620   2.000   4.466  11.568  0.3598 -0.0540  0.0542
 1054SOL    HW114621   1.926   4.527  11.559 -1.5550 -2.3379  0.1812
 1054SOL    HW214622   2.014   4.440  11.477 -3.4881 -0.0063 -0.5563
 1055SOL     OW14623   3.218   2.618   7.574 -0.2320  0.4476  0.0886
 1055SOL    HW114624   3.201   2.618   7.480 -0.1526  1.5707  0.0731
 1055SOL    HW214625   3.195   2.528   7.597  1.1475  0.1503  0.3080
 1056SOL     OW14626   2.596   3.147   1.679  0.3330  0.1185 -0.5011
 1056SOL    HW114627   2.624   3.101   1.600  1.0118 -0.7549  0.2435
 1056SOL    HW214628   2.679   3.163   1.725 -0.0701  2.7674 -0.7055
 1057SOL     OW14629   2.104   2.942  12.742 -0.5131 -0.4256 -0.6605
 1057SOL    HW114630   2.036   2.886  12.704 -0.5529 -1.2922  0.6702
 1057SOL    HW214631   2.129   2.979  12.657  1.7049  0.2519  0.2888
 1058SOL     OW14632   1.643   3.590   4.847 -0.7024 -0.5218 -0.2294
 1058SOL    HW114633   1.603   3.651   4.910  3.4344  1.4396  0.5186
 1058SOL    HW214634   1.642   3.643   4.767  2.8322 -0.0274  0.0875
 1059SOL     OW14635   1.256   1.123  10.290 -0.1763  0.3071 -0.3345
 1059SOL    HW114636   1.309   1.044  10.291  0.3154  0.6188 -1.4603
 1059SOL    HW214637   1.202   1.121  10.369 -1.0054  0.6846 -0.8999
 1060SOL     OW14638   2.197   1.472   4.500  1.3580  0.1304  0.5369
 1060SOL    HW114639   2.222   1.531   4.429 -1.3472  0.3138 -0.2543
 1060SOL    HW214640   2.263   1.494   4.566  2.5257 -0.1190 -0.5339
 1061SOL     OW14641   4.449   4.365   8.691  0.2242 -0.1958 -0.1900
 1061SOL    HW114642   4.515   4.342   8.756  1.2071  1.0664 -0.7565
 1061SOL    HW214643   4.397   4.286   8.675 -1.0391  1.0516 -2.2802
 1062SOL     OW14644   2.908   3.747   7.752  0.1087 -0.3726  0.3823
 1062SOL    HW114645   3.002   3.726   7.757  0.5468  1.3572 -0.4339
 1062SOL    HW214646   2.910   3.833   7.710 -1.0754  0.1059  1.3042
 1063SOL     OW14647   3.940   2.282   5.679  0.2410  0.5737 -0.0020
 1063SOL    HW114648   3.958   2.279   5.585 -0.3611  1.7393 -0.1570
 1063SOL    HW214649   4.012   2.222   5.699  1.2758  1.8588  0.1115
 1064SOL     OW14650   1.427   2.349   8.357  0.7303 -0.1710  0.2545
 1064SOL    HW114651   1.367   2.298   8.410  2.0530 -1.1128  0.8383
 1064SOL    HW214652   1.419   2.309   8.270  1.0293  1.2724 -0.4349
 1065SOL     OW14653   3.959   4.043   8.938 -0.3620 -0.0397 -0.4491
 1065SOL    HW114654   3.924   3.980   9.001 -1.7748  3.1046  1.8900
 1065SOL    HW214655   3.879   4.092   8.920 -0.7907 -0.5358  0.1387
 1066SOL     OW14656   4.211   4.218   3.405  0.3748 -0.1678  0.8253
 1066SOL    HW114657   4.183   4.303   3.439  0.6828  0.0736  0.4803
 1066SOL    HW214658   4.302   4.229   3.378  0.2187 -0.1436  0.3180
 1067SOL     OW14659   2.438   0.368  12.437  0.3160  0.6300  0.2713
 1067SOL    HW114660   2.388   0.386  12.516  0.9696 -0.8454  1.0183
 1067SOL    HW214661   2.432   0.442  12.376 -0.0956  0.9537  0.7037
 1068SOL     OW14662   0.870   0.631  12.060  0.3653  0.0270 -0.2529
 1068SOL    HW114663   0.952   0.590  12.086  0.6925  0.7592 -0.1198
 1068SOL    HW214664   0.880   0.623  11.965  2.7086  1.5019 -0.1314
 1069SOL     OW14665   3.030   4.247   8.121  0.1091 -0.1026  0.4792
 1069SOL    HW114666   2.991   4.209   8.199 -2.5085  1.7782  0.1072
 1069SOL    HW214667   3.116   4.205   8.127 -0.2093 -0.8791 -0.4630
 1070SOL     OW14668   3.293   1.326  15.740  0.3232  0.4813 -0.2497
 1070SOL    HW114669   3.237   1.354  15.812 -0.1301 -1.9878  0.3581
 1070SOL    HW214670   3.322   1.416  15.726 -1.6487  1.1729  0.0749
 1071SOL     OW14671   4.499   1.461   1.819  0.3033 -0.2421  0.3847
 1071SOL    HW114672   4.568   1.451   1.753  0.8890  0.2237  0.9232
 1071SOL    HW214673   4.539   1.528   1.874 -2.1183  0.4232  1.3459
 1072SOL     OW14674   0.165   1.466   3.620 -0.0895  0.5887  0.2753
 1072SOL    HW114675   0.145   1.512   3.539  0.0734 -1.5795 -1.0061
 1072SOL    HW214676   0.181   1.540   3.679 -1.5801 -0.5352  2.0743
 1073SOL     OW14677   4.687   2.465   7.951  0.0557  0.4826 -0.0563
 1073SOL    HW114678   0.061   2.466   7.955  0.0855 -2.4512 -0.4167
 1073SOL    HW214679   4.672   2.473   7.857  3.2767  0.6212 -0.5508
 1074SOL     OW14680   3.911   3.914   6.404 -0.2032  0.0146  0.1012
 1074SOL    HW114681   4.000   3.918   6.369 -0.2968 -0.6253 -0.2066
 1074SOL    HW214682   3.902   3.821   6.424 -1.4238  0.6526  2.5194
 1075SOL     OW14683   2.459   1.520   1.859 -0.6264 -0.1088  0.6034
 1075SOL    HW114684   2.464   1.586   1.790 -2.6276  1.4814  1.9926
 1075SOL    HW214685   2.414   1.445   1.819 -1.5294 -1.8565  4.9222
 1076SOL     OW14686   1.851   0.838   7.113  0.4194 -0.3567 -0.0609
 1076SOL    HW114687   1.854   0.745   7.092 -0.3820 -0.4135  0.0861
 1076SOL    HW214688   1.889   0.840   7.201  1.7581 -0.0369 -0.6469
 1077SOL     OW14689   1.655   0.637   8.078  0.0119 -0.2307  0.4073
 1077SOL    HW114690   1.750   0.646   8.068 -0.2542  0.2759 -1.6562
 1077SOL    HW214691   1.617   0.723   8.062  0.6676  0.3068  1.7313
 1078SOL     OW14692   1.068   4.076   1.348 -0.2318 -0.3322  0.4087
 1078SOL    HW114693   1.020   4.115   1.421 -1.6383  2.2984 -1.9106
 1078SOL    HW214694   1.064   3.984   1.375  0.6097 -0.4301  0.2033
 1079SOL     OW14695   2.414   4.568  13.376 -0.3937  0.0056  0.3066
 1079SOL    HW114696   2.491   4.617  13.404 -0.6047  1.5601 -1.8641
 1079SOL    HW214697   2.372   4.630  13.317 -0.2417 -1.3475 -1.2405
 1080SOL     OW14698   1.541   3.081   0.737  0.0257 -0.6161  0.1971
 1080SOL    HW114699   1.484   3.106   0.664 -1.4100  0.2887  1.6474
 1080SOL    HW214700   1.535   3.148   0.805  1.4182 -0.5100  0.2291
 1081SOL     OW14701   3.492   0.801  14.919  0.0252  0.4967  0.1873
 1081SOL    HW114702   3.578   0.805  14.962 -0.8286 -0.9918  2.0765
 1081SOL    HW214703   3.425   0.824  14.983  0.7007  2.4471  0.2012
 1082SOL     OW14704   0.115   2.385   8.509  0.0942  0.3056 -0.0985
 1082SOL    HW114705   0.144   2.432   8.431  1.5762  1.6206  1.2592
 1082SOL    HW214706   0.021   2.405   8.512  0.0925  0.4237 -1.0629
 1083SOL     OW14707   3.571   4.013   3.742 -0.0629  0.1815 -0.3052
 1083SOL    HW114708   3.545   3.947   3.678  0.6333  0.5654 -0.9813
 1083SOL    HW214709   3.507   3.991   3.809 -3.3932  2.1455 -2.8403
 1084SOL     OW14710   3.978   4.115   6.034 -0.6832  0.1530  0.6504
 1084SOL    HW114711   3.895   4.100   5.989 -1.0957  0.5300  1.2978
 1084SOL    HW214712   4.009   4.199   5.998  0.9415 -0.7678 -0.1016
 1085SOL     OW14713   1.561   4.434   8.990  0.3696 -0.1624 -0.0389
 1085SOL    HW114714   1.557   4.358   8.932  2.0538 -0.4835  0.2681
 1085SOL    HW214715   1.635   4.407   9.044  0.9150 -0.1066 -0.7436
 1086SOL     OW14716   2.706   3.803  12.758  0.5538  0.0070 -0.6851
 1086SOL    HW114717   2.789   3.817  12.713 -0.1491 -2.2743 -2.6865
 1086SOL    HW214718   2.638   3.848  12.707  1.1974  1.2592 -0.4412
 1087SOL     OW14719   3.548   4.168   8.710 -0.3976 -0.5605  0.0860
 1087SOL    HW114720   3.579   4.256   8.731  0.5503 -0.6592 -0.9044
 1087SOL    HW214721   3.529   4.135   8.798  0.7230 -0.0885  0.5105
 1088SOL     OW14722   4.135   1.876   5.017 -0.0944  0.0420  0.6377
 1088SOL    HW114723   4.112   1.945   5.079 -1.6669 -0.9370  1.1484
 1088SOL    HW214724   4.223   1.868   5.052 -0.3386  1.4840  1.5536
 1089SOL     OW14725   3.434   3.928  17.172  0.2421  0.2759  0.3627
 1089SOL    HW114726   3.426   3.835  17.193  0.2635 -0.0147 -0.9091
 1089SOL    HW214727   3.372   3.932  17.100  0.8556  0.1488 -0.1695
 1090SOL     OW14728   3.501   3.416   5.209  0.1066 -0.2051  0.1318
 1090SOL    HW114729   3.542   3.500   5.189  2.3736 -0.8665  2.0410
 1090SOL    HW214730   3.550   3.402   5.290 -1.0063 -0.6266  0.7258
 1091SOL     OW14731   3.388   3.626   5.755  0.0178 -0.0045  0.4406
 1091SOL    HW114732   3.323   3.636   5.825  1.5141 -0.9737  1.9723
 1091SOL    HW214733   3.459   3.591   5.809 -0.9599 -0.3124  1.5327
 1092SOL     OW14734   1.909   4.706   6.864  0.0330  0.8705 -0.2922
 1092SOL    HW114735   1.923   0.059   6.805  0.1357  0.3960 -0.8665
 1092SOL    HW214736   1.993   4.710   6.908 -0.4984 -2.7237  0.9898
 1093SOL     OW14737   1.195   3.160  17.505 -0.3704 -0.1189 -0.6920
 1093SOL    HW114738   1.229   3.163  17.595 -1.4924 -1.9157 -0.2115
 1093SOL    HW214739   1.273   3.150  17.451  1.2537 -3.9522  2.3906
 1094SOL     OW14740   3.634   1.245  13.110  0.1655 -0.8701  0.3862
 1094SOL    HW114741   3.623   1.199  13.194 -0.1898 -0.8247  0.3674
 1094SOL    HW214742   3.637   1.331  13.152  1.5604 -1.0290  0.5974
 1095SOL     OW14743   3.540   3.853   5.636  0.0176 -0.2537  0.3884
 1095SOL    HW114744   3.464   3.801   5.662 -1.0335  0.5949 -0.9928
 1095SOL    HW214745   3.614   3.798   5.661 -0.0723 -0.5901 -0.0633
 1096SOL     OW14746   1.707   1.546   6.583 -0.1556 -0.2579 -0.4931
 1096SOL    HW114747   1.784   1.603   6.581 -1.0717  1.0310  0.4847
 1096SOL    HW214748   1.656   1.587   6.653  0.8927 -1.4462  0.9766
 1097SOL     OW14749   1.367   2.602   3.620  0.1987  0.1507 -0.4199
 1097SOL    HW114750   1.406   2.532   3.673  0.7011  1.2224  0.6511
 1097SOL    HW214751   1.298   2.555   3.575 -0.1004  0.8124 -0.6615
 1098SOL     OW14752   2.851   2.526   8.092 -0.0652  0.6009  0.0004
 1098SOL    HW114753   2.874   2.518   7.999  0.8918 -2.8737  0.5285
 1098SOL    HW214754   2.757   2.509   8.093  0.8678 -4.5300 -0.0395
 1099SOL     OW14755   1.126   2.745   1.628 -0.5651 -0.0666  0.1532
 1099SOL    HW114756   1.214   2.772   1.599 -0.6930  1.2380  0.9851
 1099SOL    HW214757   1.139   2.657   1.593 -0.3585  0.3529 -0.8287
 1100SOL     OW14758   1.260   2.678   5.490  0.0131  0.0047 -0.0534
 1100SOL    HW114759   1.232   2.600   5.443  0.1550  0.7778 -1.4175
 1100SOL    HW214760   1.305   2.630   5.559 -0.3427 -1.0173 -0.5423
 1101SOL     OW14761   1.211   2.096   8.725  0.4082  0.2055 -0.3768
 1101SOL    HW114762   1.202   2.005   8.755  0.0550  0.8754  1.5901
 1101SOL    HW214763   1.203   2.145   8.807 -0.2924  0.5257 -0.6384
 1102SOL     OW14764   1.502   2.365   3.435 -0.1970  0.5482  0.9233
 1102SOL    HW114765   1.478   2.315   3.357  0.4615  1.2234  0.2873
 1102SOL    HW214766   1.477   2.309   3.508  0.5285 -1.9443 -0.7613
 1103SOL     OW14767   0.519   0.033   5.776  0.7712  0.4348  0.3880
 1103SOL    HW114768   0.519   0.020   5.682 -1.2677  0.0552  0.4348
 1103SOL    HW214769   0.536   4.668   5.814  0.2636  0.4998  0.7661
 1104SOL     OW14770   3.026   1.959   0.562 -0.3521 -0.8961 -0.2461
 1104SOL    HW114771   3.034   2.016   0.639 -0.0297  0.5117 -1.3189
 1104SOL    HW214772   2.995   1.881   0.608 -0.8827 -0.9790 -0.7572
 1105SOL     OW14773   1.894   1.972   7.030  0.3868 -0.3736 -0.9887
 1105SOL    HW114774   1.828   2.038   7.011 -0.3161 -1.0668 -0.9444
 1105SOL    HW214775   1.858   1.918   7.100  0.9270  0.5472 -0.0138
 1106SOL     OW14776   0.667   3.389   2.152 -0.1395 -0.5320 -0.2388
 1106SOL    HW114777   0.695   3.327   2.084  0.9664  1.9260 -2.0073
 1106SOL    HW214778   0.595   3.341   2.193 -1.1725  0.4087 -0.9655
 1107SOL     OW14779   2.451   3.317   7.673  0.5528  0.4404 -0.5058
 1107SOL    HW114780   2.372   3.281   7.634 -0.0150 -0.4884  1.4920
 1107SOL    HW214781   2.503   3.343   7.597  3.0596 -1.2765  0.6432
 1108SOL     OW14782   0.443   3.720   7.369 -0.0829 -0.2344  0.5199
 1108SOL    HW114783   0.430   3.705   7.462 -0.9396 -1.1827  0.2516
 1108SOL    HW214784   0.418   3.634   7.336  1.7408 -0.6757  0.2873
 1109SOL     OW14785   1.816   2.206   2.573 -0.4273 -0.1613  0.5540
 1109SOL    HW114786   1.837   2.117   2.600  2.5376 -0.8025 -3.9281
 1109SOL    HW214787   1.874   2.213   2.497 -0.6322 -0.8920  0.3386
 1110SOL     OW14788   2.911   1.706   6.837  0.5212 -0.1420  0.3615
 1110SOL    HW114789   2.886   1.765   6.908 -1.1947  0.5661 -0.8455
 1110SOL    HW214790   2.999   1.743   6.826  0.6929  0.6107  4.1096
 1111SOL     OW14791   4.268   2.957  16.036  0.4560  0.2249 -0.5669
 1111SOL    HW114792   4.239   3.045  16.012 -0.2173  0.5714  1.5218
 1111SOL    HW214793   4.215   2.904  15.976 -1.1594  1.6682 -0.4368
 1112SOL     OW14794   1.887   1.300  17.361  0.0987  0.3334 -0.2303
 1112SOL    HW114795   1.834   1.309  17.441 -1.0549 -1.0777 -0.8308
 1112SOL    HW214796   1.974   1.325  17.389  0.5287 -1.4263  0.0094
 1113SOL     OW14797   3.726   0.215   8.281  0.1820 -0.0516 -0.1795
 1113SOL    HW114798   3.670   0.279   8.325  1.6973  0.9758  0.2622
 1113SOL    HW214799   3.699   0.219   8.189 -2.4391  0.3134  0.6144
 1114SOL     OW14800   3.030   1.700   1.855 -0.3407 -0.4314 -0.9291
 1114SOL    HW114801   3.079   1.644   1.794  0.0141  1.1829 -2.1086
 1114SOL    HW214802   3.090   1.679   1.927 -1.2090  0.5092  0.0597
 1115SOL     OW14803   3.390   3.506  17.580  0.2309  0.0696  0.4792
 1115SOL    HW114804   3.398   3.410  17.583  1.7547  0.1550 -0.6125
 1115SOL    HW214805   3.465   3.532  17.634  1.5728  0.8017 -1.7676
 1116SOL     OW14806   1.184   0.521   7.741 -0.4836 -0.2127 -0.0700
 1116SOL    HW114807   1.114   0.512   7.806  0.7087  0.0499  1.2219
 1116SOL    HW214808   1.226   0.436   7.751  0.6703  0.1949 -1.5269
 1117SOL     OW14809   3.862   2.972   5.769  0.6824  0.2375 -0.2523
 1117SOL    HW114810   3.878   2.878   5.768  1.6706  0.3851  1.5382
 1117SOL    HW214811   3.882   2.988   5.861 -1.7844 -2.6592  0.7710
 1118SOL     OW14812   1.739   3.011   6.721 -0.3599  0.1817 -0.2520
 1118SOL    HW114813   1.672   3.012   6.652 -1.1170 -0.6106  0.4723
 1118SOL    HW214814   1.694   2.959   6.787  0.8491 -1.9215 -1.0877
 1119SOL     OW14815   1.128   2.242  10.091 -0.3293 -0.6202 -0.1755
 1119SOL    HW114816   1.086   2.313  10.043  1.1701  0.5057  0.1719
 1119SOL    HW214817   1.072   2.229  10.167 -0.0456  3.4172  0.7052
 1120SOL     OW14818   2.785   3.687   6.763  0.2120  0.2707 -0.2882
 1120SOL    HW114819   2.877   3.677   6.786  0.5682 -0.3498 -2.0606
 1120SOL    HW214820   2.733   3.637   6.827 -3.0155  2.0427 -1.5119
 1121SOL     OW14821   0.081   2.307  16.550  0.4964 -0.5251 -0.6717
 1121SOL    HW114822   4.720   2.265  16.527  0.3990  0.4158 -2.0971
 1121SOL    HW214823   0.065   2.397  16.519  0.5292  0.1786  1.3535
 1122SOL     OW14824   3.302   4.077   6.987  0.9036  0.9383  0.2623
 1122SOL    HW114825   3.335   4.026   7.061 -2.8343 -1.6106  0.1157
 1122SOL    HW214826   3.310   4.017   6.913  0.1099  1.2932 -0.1137
 1123SOL     OW14827   2.554   3.385  17.260 -0.0073 -0.1601 -0.4698
 1123SOL    HW114828   2.499   3.462  17.246  1.5877  1.0326 -0.2498
 1123SOL    HW214829   2.553   3.384  17.356 -2.2315 -2.7509 -0.5309
 1124SOL     OW14830   0.459   3.818   4.973  0.6367 -0.2674  0.0864
 1124SOL    HW114831   0.416   3.903   4.967  1.2158  0.0228  0.0195
 1124SOL    HW214832   0.383   3.769   4.943  0.3182 -0.2023  0.7963
 1125SOL     OW14833   4.612   3.089   0.956 -0.6438  0.2979  0.4638
 1125SOL    HW114834   4.606   3.071   0.862 -0.3737 -1.1654  0.7182
 1125SOL    HW214835   4.656   3.174   0.963 -0.9326  0.3376  1.7878
 1126SOL     OW14836   0.499   2.082  14.081 -0.0043  0.2462 -0.4685
 1126SOL    HW114837   0.534   1.999  14.048 -1.1137 -0.0294 -0.9571
 1126SOL    HW214838   0.573   2.138  14.059 -0.6194  1.2571  0.0363
 1127SOL     OW14839   4.208   4.010   3.887  0.5417  0.3344  0.4026
 1127SOL    HW114840   4.208   4.010   3.791 -0.1608  0.3896  0.4051
 1127SOL    HW214841   4.300   4.036   3.898  0.2592  0.6546  1.9647
 1128SOL     OW14842   0.224   4.506   4.461  0.1923  0.0746  0.1130
 1128SOL    HW114843   0.308   4.504   4.414  0.7968  2.9298  1.0477
 1128SOL    HW214844   0.247   4.449   4.535 -0.9172 -1.4200 -0.7048
 1129SOL     OW14845   4.458   3.209   5.672  0.6085  0.1132 -0.1378
 1129SOL    HW114846   4.437   3.268   5.599 -0.2291  0.4919  0.4081
 1129SOL    HW214847   4.539   3.167   5.642  1.3695 -0.0592  2.2327
 1130SOL     OW14848   2.499   3.863   4.573 -0.1114 -0.3030  0.2194
 1130SOL    HW114849   2.582   3.825   4.602  0.1379  0.7398  0.8670
 1130SOL    HW214850   2.549   3.938   4.543  0.0205 -1.2485 -1.9117
 1131SOL     OW14851   0.477   0.091   6.117 -0.3824 -0.5154  0.0359
 1131SOL    HW114852   0.464   4.718   6.108  0.3490 -0.8145  2.1830
 1131SOL    HW214853   0.543   0.106   6.049 -0.1080  0.3062  0.4851
 1132SOL     OW14854   0.490   1.126   9.236 -0.5714 -0.3195  0.3800
 1132SOL    HW114855   0.429   1.164   9.173  1.1366 -0.0167 -1.0933
 1132SOL    HW214856   0.571   1.160   9.197 -0.1291  0.8310  2.2915
 1133SOL     OW14857   2.985   1.968   8.312 -0.1550 -0.1620 -0.0894
 1133SOL    HW114858   2.951   1.984   8.224  3.7659 -0.3263 -1.6380
 1133SOL    HW214859   2.906   1.927   8.346 -0.1165  0.5492  0.8771
 1134SOL     OW14860   3.975   0.874  15.285 -0.1247 -0.7329 -0.1301
 1134SOL    HW114861   4.028   0.953  15.282 -1.2773  0.0752  0.8466
 1134SOL    HW214862   3.930   0.881  15.201 -0.6996  1.1060  0.3410
 1135SOL     OW14863   1.274   2.760   8.748  0.7065 -0.0318  0.2029
 1135SOL    HW114864   1.182   2.778   8.728  0.7010  1.2522  1.3570
 1135SOL    HW214865   1.259   2.707   8.827  1.1183  0.8173  0.8557
 1136SOL     OW14866   4.692   3.596   4.311 -0.1589 -0.4398 -0.3139
 1136SOL    HW114867   4.634   3.553   4.374 -0.7863  0.0683 -0.5312
 1136SOL    HW214868   4.717   3.674   4.361 -1.5170  2.6967 -4.5241
 1137SOL     OW14869   1.980   1.290   1.146  0.6596 -0.6309 -0.7149
 1137SOL    HW114870   1.935   1.237   1.080 -0.6635 -0.3044 -0.0674
 1137SOL    HW214871   1.988   1.369   1.091  0.8105  1.0626  1.7462
 1138SOL     OW14872   1.469   0.207   5.621 -0.4739 -0.5496 -0.5677
 1138SOL    HW114873   1.515   0.135   5.579 -0.5911  0.3997 -2.3037
 1138SOL    HW214874   1.420   0.244   5.548  0.8252  1.0949 -0.6207
 1139SOL     OW14875   4.247   3.510   9.167 -0.3621  0.2007  0.0382
 1139SOL    HW114876   4.190   3.586   9.176  0.1216  0.4356  1.0507
 1139SOL    HW214877   4.284   3.511   9.255 -0.6679 -0.8432  0.1831
 1140SOL     OW14878   3.340   3.314  12.519  0.7999 -0.5649 -0.5275
 1140SOL    HW114879   3.426   3.323  12.476 -1.1927  1.1877 -4.2126
 1140SOL    HW214880   3.361   3.283  12.606  1.3737 -0.6961 -0.7132
 1141SOL     OW14881   2.156   2.234   3.563  0.2628  0.7784 -0.0563
 1141SOL    HW114882   2.065   2.259   3.582  0.2337  1.0861 -0.5891
 1141SOL    HW214883   2.200   2.318   3.575  2.1776 -0.2462 -0.0004
 1142SOL     OW14884   3.337   0.024   3.406  0.7585 -0.4381  0.4516
 1142SOL    HW114885   3.343   0.119   3.397 -3.8231 -0.3176 -1.4678
 1142SOL    HW214886   3.375   0.013   3.493 -2.2252 -1.7052  1.5974
 1143SOL     OW14887   3.647   2.320  14.412 -0.5656 -0.3364 -0.2168
 1143SOL    HW114888   3.691   2.235  14.412  1.7265  0.8470  0.5740
 1143SOL    HW214889   3.698   2.364  14.344  1.3300  0.3682  1.6692
 1144SOL     OW14890   3.987   1.714   8.532 -0.2016  0.2153  0.4077
 1144SOL    HW114891   4.044   1.767   8.475  0.5796  0.5691  1.5243
 1144SOL    HW214892   3.966   1.642   8.473 -1.7891  0.4948  0.6219
 1145SOL     OW14893   4.333   0.268   8.018  0.3224 -0.2174  0.1904
 1145SOL    HW114894   4.293   0.196   7.968  0.6363  2.0929 -3.3935
 1145SOL    HW214895   4.270   0.261   8.090  1.4760  1.4389  1.3498
 1146SOL     OW14896   3.202   1.619   8.227 -0.1932  0.7713 -0.3595
 1146SOL    HW114897   3.290   1.623   8.265 -1.1721 -0.4115  2.0161
 1146SOL    HW214898   3.149   1.649   8.301 -0.3243  1.4709 -0.7313
 1147SOL     OW14899   2.299   1.537   4.860 -0.1796  0.6556 -0.1260
 1147SOL    HW114900   2.229   1.555   4.921 -1.0135 -1.1333 -0.5589
 1147SOL    HW214901   2.297   1.441   4.855  0.8358  0.6436 -0.4467
 1148SOL     OW14902   1.798   0.750  12.305  0.3422 -0.3938  0.4630
 1148SOL    HW114903   1.723   0.760  12.246  0.2897 -0.0188  0.5871
 1148SOL    HW214904   1.797   0.655  12.299 -2.9957 -0.4282  1.5375
 1149SOL     OW14905   1.375   4.148   1.517  0.0021 -0.3797 -0.5069
 1149SOL    HW114906   1.467   4.130   1.497  0.7467  0.8697  1.8001
 1149SOL    HW214907   1.337   4.090   1.450 -0.8655  1.0430 -1.2557
 1150SOL     OW14908   2.637   3.662  16.093 -0.9730  0.4623  0.0041
 1150SOL    HW114909   2.694   3.586  16.109  0.8742  1.8882  0.2948
 1150SOL    HW214910   2.697   3.705  16.032 -0.9330 -0.2249 -0.4401
 1151SOL     OW14911   2.959   4.472  10.404 -0.5636 -0.7491 -0.3382
 1151SOL    HW114912   3.041   4.456  10.357 -0.0370  2.6808 -0.5442
 1151SOL    HW214913   2.937   4.385  10.439  1.0247 -1.5105 -1.1937
 1152SOL     OW14914   4.429   4.298   5.879  0.3775 -0.2710 -0.0386
 1152SOL    HW114915   4.421   4.211   5.919  0.8145 -1.5244 -2.6471
 1152SOL    HW214916   4.499   4.333   5.934 -1.0258  1.0445  0.8967
 1153SOL     OW14917   4.030   3.203   2.786  0.0909  0.1153  0.4129
 1153SOL    HW114918   4.077   3.191   2.703 -0.4110  0.0140  0.1390
 1153SOL    HW214919   3.969   3.129   2.791  0.6806 -0.2859  1.4992
 1154SOL     OW14920   0.403   4.195   0.423 -0.9350 -0.1636  0.2009
 1154SOL    HW114921   0.325   4.251   0.425  0.8575  2.4663 -2.8896
 1154SOL    HW214922   0.367   4.127   0.367  0.2736  0.6992 -1.6019
 1155SOL     OW14923   1.691   4.173   1.459 -0.5342 -0.2331 -0.3038
 1155SOL    HW114924   1.759   4.240   1.449 -2.1410  1.1673 -1.8881
 1155SOL    HW214925   1.666   4.156   1.368 -0.0714  1.2482 -0.6968
 1156SOL     OW14926   0.739   4.386   5.012  0.1241 -0.1156  0.0010
 1156SOL    HW114927   0.779   4.454   5.067 -1.1058 -0.1849  0.9670
 1156SOL    HW214928   0.762   4.422   4.925 -0.1698  1.5648  0.6165
 1157SOL     OW14929   0.752   0.102  16.354  0.3559  0.0494 -0.0990
 1157SOL    HW114930   0.735   0.008  16.348  1.6469 -0.1267 -0.7922
 1157SOL    HW214931   0.828   0.107  16.412  1.1089 -0.6063 -1.0318
 1158SOL     OW14932   3.407   0.939   5.332  0.2272 -0.2293 -0.3331
 1158SOL    HW114933   3.356   1.014   5.303 -2.0165 -2.0676 -1.1349
 1158SOL    HW214934   3.490   0.984   5.316  1.2284 -1.9550 -0.0406
 1159SOL     OW14935   2.768   4.411   4.265  0.0568 -0.5510 -0.0118
 1159SOL    HW114936   2.682   4.409   4.307 -0.2901 -2.1257 -0.7740
 1159SOL    HW214937   2.793   4.504   4.269 -0.6841 -0.2809 -1.5093
 1160SOL     OW14938   1.240   1.260   7.256  0.6293  0.0339  0.0784
 1160SOL    HW114939   1.222   1.351   7.236 -0.1712 -0.1819 -0.1703
 1160SOL    HW214940   1.160   1.210   7.241  1.3516 -1.4063  0.9708
 1161SOL     OW14941   1.119   1.318   8.579 -0.1068 -0.2367 -0.1671
 1161SOL    HW114942   1.192   1.341   8.521 -0.0381 -1.0601 -0.4113
 1161SOL    HW214943   1.117   1.378   8.653  2.1478  0.5736 -0.7524
 1162SOL     OW14944   1.804   0.416  16.576  0.1788  0.2672 -0.0622
 1162SOL    HW114945   1.871   0.463  16.627  1.6435 -0.3430 -1.4291
 1162SOL    HW214946   1.729   0.460  16.617 -0.1310 -1.0100  0.7489
 1163SOL     OW14947   3.014   1.616   8.792  0.5557 -0.1993 -0.3392
 1163SOL    HW114948   3.009   1.706   8.826 -0.4358 -0.8696  1.3212
 1163SOL    HW214949   3.016   1.552   8.864  3.3607 -0.1307 -0.3745
 1164SOL     OW14950   3.326   3.767   0.141  0.1877  0.8564  0.1579
 1164SOL    HW114951   3.409   3.729   0.169  1.0086  1.0112 -2.1353
 1164SOL    HW214952   3.338   3.862   0.143 -0.5792  0.9499  0.6007
 1165SOL     OW14953   3.849   2.997   2.773 -0.0199 -0.1594 -0.1003
 1165SOL    HW114954   3.804   3.007   2.689  0.7023  0.1216 -0.4472
 1165SOL    HW214955   3.774   3.004   2.833 -1.2870  3.4057 -2.0839
 1166SOL     OW14956   1.264   0.191   1.439 -0.4072 -0.5110  0.0569
 1166SOL    HW114957   1.324   0.180   1.512 -0.7239  2.0764  0.7293
 1166SOL    HW214958   1.197   0.124   1.447  0.4682 -1.6080 -1.5953
 1167SOL     OW14959   0.163   2.742   8.195  0.0905 -0.1397  0.5855
 1167SOL    HW114960   0.134   2.785   8.275 -1.6927 -1.4138  0.6241
 1167SOL    HW214961   0.141   2.814   8.136 -2.0060  0.0342  1.5743
 1168SOL     OW14962   2.954   3.751  15.463 -0.7352  0.4591 -0.1396
 1168SOL    HW114963   2.928   3.817  15.399 -1.0699  1.4758  1.0444
 1168SOL    HW214964   2.904   3.777  15.540  0.7671  1.6284  0.4384
 1169SOL     OW14965   3.868   0.186   9.377  0.5041  0.2177 -0.2111
 1169SOL    HW114966   3.867   0.109   9.319  0.7383 -0.1145  0.2294
 1169SOL    HW214967   3.783   0.228   9.363  0.4737  0.1816 -0.1334
 1170SOL     OW14968   0.265   0.222   5.360  0.2499  0.2518  0.0034
 1170SOL    HW114969   0.281   0.236   5.267 -0.1010  0.8037  0.0287
 1170SOL    HW214970   0.283   0.310   5.393 -1.6786 -0.0353  1.8079
 1171SOL     OW14971   0.830   1.258  16.751 -0.2154 -0.2734  0.1605
 1171SOL    HW114972   0.827   1.220  16.663 -1.5176 -1.3679  0.6624
 1171SOL    HW214973   0.881   1.336  16.732  0.3027 -0.3855  1.0669
 1172SOL     OW14974   0.487   4.695   4.825 -0.1996  0.0420 -0.6996
 1172SOL    HW114975   0.417   0.039   4.817 -1.7489 -1.2496  2.1442
 1172SOL    HW214976   0.468   4.658   4.911 -2.1473  1.3402 -0.5688
 1173SOL     OW14977   3.776   0.316  11.971 -0.5835 -0.5856 -0.2090
 1173SOL    HW114978   3.850   0.279  12.018 -0.2807 -0.6342 -0.7228
 1173SOL    HW214979   3.702   0.270  12.009 -0.7340 -1.8676 -2.0833
 1174SOL     OW14980   0.018   2.982   7.781 -0.2323 -0.0643 -0.3371
 1174SOL    HW114981   4.689   3.060   7.804  1.2306 -0.0880  2.9691
 1174SOL    HW214982   4.670   2.917   7.786  0.3362 -0.4809  2.3098
 1175SOL     OW14983   2.494   1.452   5.694  0.4045 -0.0051  0.5390
 1175SOL    HW114984   2.515   1.425   5.783 -0.2766  3.3582  1.6927
 1175SOL    HW214985   2.456   1.373   5.655 -0.4233  0.6506  0.0342
 1176SOL     OW14986   3.905   0.125  16.030  0.4919 -0.2818 -1.2488
 1176SOL    HW114987   3.902   0.029  16.029 -1.6269 -0.2732  1.7854
 1176SOL    HW214988   3.849   0.148  15.956 -0.0516 -2.1128 -1.4227
 1177SOL     OW14989   4.318   0.816   6.488  0.6332  0.1062  0.3792
 1177SOL    HW114990   4.316   0.877   6.414 -2.1783  1.3006  1.4526
 1177SOL    HW214991   4.257   0.749   6.457  1.6962 -1.0109  0.6720
 1178SOL     OW14992   0.258   4.379   4.703 -0.7211  0.3353  0.3427
 1178SOL    HW114993   0.202   4.303   4.721 -0.6296 -0.0309 -0.9468
 1178SOL    HW214994   0.232   4.435   4.776 -1.6482 -1.5097  1.4136
 1179SOL     OW14995   1.555   3.101   4.465  0.2614  0.1570 -0.6799
 1179SOL    HW114996   1.529   3.180   4.419  0.1372  1.0210  0.8604
 1179SOL    HW214997   1.569   3.036   4.397  4.0078 -1.2817  1.4395
 1180SOL     OW14998   2.262   2.374   8.809  0.0177  0.4112 -0.2943
 1180SOL    HW114999   2.214   2.396   8.730 -0.3462  1.6055  0.2620
 1180SOL    HW215000   2.191   2.375   8.873 -1.5666  0.4473 -2.0578
 1181SOL     OW15001   1.189   0.348   1.062 -0.5764  0.3352  0.6815
 1181SOL    HW115002   1.282   0.353   1.039  0.1318 -1.0049  3.2269
 1181SOL    HW215003   1.169   0.438   1.090 -2.2841 -0.0839  0.7897
 1182SOL     OW15004   4.069   4.265   6.304 -0.3322  0.7922 -0.3076
 1182SOL    HW115005   4.160   4.294   6.293 -0.6132  1.1397 -1.7140
 1182SOL    HW215006   4.049   4.208   6.229 -0.4458 -0.8817  1.0055
 1183SOL     OW15007   1.736   0.406  12.664  0.2135  0.2504  0.3272
 1183SOL    HW115008   1.673   0.361  12.608 -0.3306  1.1651  0.1857
 1183SOL    HW215009   1.808   0.421  12.602 -1.0730  2.7331 -0.5713
 1184SOL     OW15010   3.667   4.035   1.897 -0.4856  0.0823  0.6982
 1184SOL    HW115011   3.739   4.097   1.896  1.6311 -2.3888 -0.3408
 1184SOL    HW215012   3.688   3.976   1.970 -2.2968 -0.3217  0.9075
 1185SOL     OW15013   3.268   1.164   5.316 -0.1084 -1.2173 -0.0999
 1185SOL    HW115014   3.199   1.164   5.383 -1.7710  0.6257 -1.8246
 1185SOL    HW215015   3.321   1.238   5.346 -2.1878  0.4930 -0.6139
 1186SOL     OW15016   4.619   2.181  11.259 -0.2777 -0.1017  0.5966
 1186SOL    HW115017   4.679   2.256  11.268 -2.4528  1.6368  0.5893
 1186SOL    HW215018   4.555   2.214  11.196 -1.9666 -0.5205  2.0955
 1187SOL     OW15019   2.665   1.967   1.864 -0.0155 -0.5603 -0.6441
 1187SOL    HW115020   2.699   1.902   1.803  0.6954 -1.4528  0.6885
 1187SOL    HW215021   2.740   1.977   1.924  0.1151  1.6281 -1.1969
 1188SOL     OW15022   0.894   1.852  16.233  0.1672  0.0518  0.1408
 1188SOL    HW115023   0.989   1.846  16.220 -0.2150 -1.8140 -1.7203
 1188SOL    HW215024   0.890   1.835  16.327 -1.2227 -1.2615 -0.1520
 1189SOL     OW15025   4.221   4.225  17.194 -0.4383  0.1093  0.4483
 1189SOL    HW115026   4.245   4.244  17.284 -2.3218 -0.1768  1.0214
 1189SOL    HW215027   4.190   4.313  17.172  1.7302  0.7212 -0.1869
 1190SOL     OW15028   4.427   2.145   5.187 -0.4342 -0.6107  0.0134
 1190SOL    HW115029   4.518   2.158   5.211 -0.2262  2.2028 -2.2865
 1190SOL    HW215030   4.426   2.171   5.095  0.5569 -1.6490 -0.2883
 1191SOL     OW15031   0.853   3.452   3.335 -0.1771 -0.7333  0.0417
 1191SOL    HW115032   0.911   3.384   3.370  0.1764 -0.4933 -0.0854
 1191SOL    HW215033   0.913   3.488   3.271 -3.0513  3.2374 -0.4489
 1192SOL     OW15034   0.693   1.455   5.696  0.3581 -0.3897  0.0744
 1192SOL    HW115035   0.615   1.506   5.678  1.2898  0.4532 -1.5381
 1192SOL    HW215036   0.653   1.368   5.699 -0.4688 -0.0078 -0.0199
 1193SOL     OW15037   0.445   1.546   4.899 -0.1810  0.6010  0.3294
 1193SOL    HW115038   0.486   1.469   4.937 -1.7331 -0.9022 -1.0529
 1193SOL    HW215039   0.513   1.573   4.838  0.7915 -0.8709  0.7698
 1194SOL     OW15040   1.826   0.894   8.102  0.1073  0.0952  0.1198
 1194SOL    HW115041   1.756   0.947   8.139 -0.5572 -1.4609  1.1059
 1194SOL    HW215042   1.893   0.956   8.075  0.0793 -0.6437 -1.6979
 1195SOL     OW15043   4.127   3.147   2.535 -0.6070  0.4637  0.4189
 1195SOL    HW115044   4.152   3.213   2.470 -0.0045 -0.6748 -0.5163
 1195SOL    HW215045   4.213   3.111   2.558 -1.1880 -0.5305  1.0078
 1196SOL     OW15046   1.520   2.657   6.643  0.5183 -0.1339 -0.6523
 1196SOL    HW115047   1.451   2.722   6.660  1.7126  0.8730  0.3385
 1196SOL    HW215048   1.464   2.580   6.633 -2.1918  1.9066 -1.4905
 1197SOL     OW15049   2.529   0.684   4.031 -0.1434 -0.1870  0.2940
 1197SOL    HW115050   2.567   0.659   3.947 -1.9185  0.1463 -0.6244
 1197SOL    HW215051   2.466   0.749   3.998 -0.3188  0.4432  1.8597
 1198SOL     OW15052   2.449   4.472   7.520  0.5061 -0.1309  0.1101
 1198SOL    HW115053   2.533   4.427   7.531  1.4556  1.9878  1.5671
 1198SOL    HW215054   2.383   4.410   7.550  0.6754 -0.0978  0.5572
 1199SOL     OW15055   4.161   1.934   3.964 -0.7493  0.0075 -0.7264
 1199SOL    HW115056   4.084   1.882   3.990 -1.3590  0.8250 -0.8821
 1199SOL    HW215057   4.191   1.876   3.894 -1.3816  0.1425 -1.1082
 1200SOL     OW15058   3.691   4.316   3.541  0.2038  0.0395  0.3201
 1200SOL    HW115059   3.625   4.254   3.572 -1.0119  0.5675 -1.2643
 1200SOL    HW215060   3.686   4.288   3.450  0.0509 -1.0984  0.6787
 1201SOL     OW15061   4.180   0.890   4.122  0.2519  0.2555  0.2185
 1201SOL    HW115062   4.180   0.945   4.043 -0.5587  0.3135  0.2559
 1201SOL    HW215063   4.098   0.842   4.112 -0.9043  2.2000  0.3012
 1202SOL     OW15064   3.873   3.589  15.350  0.4252 -0.1672  0.8638
 1202SOL    HW115065   3.798   3.558  15.401 -0.2309 -0.6758 -0.4048
 1202SOL    HW215066   3.948   3.549  15.394  1.1234 -1.0262 -1.0874
 1203SOL     OW15067   1.367   1.129   2.482 -0.3565  0.3497  0.0755
 1203SOL    HW115068   1.311   1.094   2.551 -0.7651  0.0212 -0.4204
 1203SOL    HW215069   1.320   1.205   2.449  1.3104  0.7975 -1.2917
 1204SOL     OW15070   2.241   3.973   1.601 -0.2814  0.6287 -0.0912
 1204SOL    HW115071   2.217   3.961   1.693  2.4171 -1.0289  0.3988
 1204SOL    HW215072   2.250   3.884   1.567  1.0546  0.8013 -0.2099
 1205SOL     OW15073   2.114   3.734   9.195  0.0363 -0.3281  0.0223
 1205SOL    HW115074   2.023   3.703   9.201  0.2160 -0.7461  0.5625
 1205SOL    HW215075   2.149   3.697   9.114 -0.6491  1.0651 -0.9226
 1206SOL     OW15076   2.514   4.228   2.109 -0.4299 -1.0506  0.9029
 1206SOL    HW115077   2.443   4.178   2.068 -0.0544 -0.2253 -0.7582
 1206SOL    HW215078   2.565   4.246   2.031  0.2825  0.3724  1.6887
 1207SOL     OW15079   4.530   3.440   0.918 -0.0220  0.0164 -0.2976
 1207SOL    HW115080   4.546   3.474   1.006 -0.1967 -2.5216  0.7301
 1207SOL    HW215081   4.616   3.397   0.912  0.2895  0.5690  0.2335
 1208SOL     OW15082   1.593   0.599   5.436 -0.0686 -0.2627 -0.0398
 1208SOL    HW115083   1.659   0.603   5.504 -0.4570  0.2481  0.3149
 1208SOL    HW215084   1.524   0.644   5.486  0.3961 -0.5019  0.8186
 1209SOL     OW15085   3.782   2.046  12.952  0.0197 -0.0421 -0.0734
 1209SOL    HW115086   3.720   1.993  13.002 -1.9793  1.2208 -1.2034
 1209SOL    HW215087   3.848   2.069  13.017 -1.3343  4.4940 -0.3327
 1210SOL     OW15088   4.364   2.603   2.769 -0.1005  0.1357 -0.9850
 1210SOL    HW115089   4.432   2.544   2.737 -0.1442 -0.1284 -0.5827
 1210SOL    HW215090   4.390   2.602   2.861 -2.6639 -1.0003 -0.2936
 1211SOL     OW15091   4.319   1.949   4.207 -0.0829 -0.5485  0.4258
 1211SOL    HW115092   4.307   1.941   4.112 -4.6528 -0.5037  0.9677
 1211SOL    HW215093   4.233   1.927   4.243 -0.3878 -0.9655 -0.5468
 1212SOL     OW15094   0.172   2.988   2.266 -0.3046 -0.5218  0.3449
 1212SOL    HW115095   0.197   3.076   2.295 -0.1838 -0.6783  0.7141
 1212SOL    HW215096   0.139   2.954   2.350 -0.4398 -1.1085  0.0504
 1213SOL     OW15097   3.578   1.159   5.762  0.2069 -0.3961  0.1070
 1213SOL    HW115098   3.483   1.150   5.755  0.2552  0.0531 -1.1231
 1213SOL    HW215099   3.596   1.113   5.844 -0.2706  1.5683  1.3002
 1214SOL     OW15100   4.550   4.478   5.319 -0.7241  0.3241  0.6383
 1214SOL    HW115101   4.603   4.399   5.326 -1.0854 -0.0541 -0.9611
 1214SOL    HW215102   4.465   4.446   5.348  1.2281 -3.4849  2.1726
 1215SOL     OW15103   4.054   0.508   8.246  0.1466  0.3396 -0.0041
 1215SOL    HW115104   3.974   0.489   8.295 -0.2234  1.1329 -0.2901
 1215SOL    HW215105   4.040   0.599   8.220 -0.5754 -0.0313 -0.9256
 1216SOL     OW15106   4.417   3.681   5.815  0.3777  0.0325 -0.3757
 1216SOL    HW115107   4.504   3.642   5.825  0.5086  1.1169  2.9818
 1216SOL    HW215108   4.431   3.760   5.764 -0.2326 -1.7371 -3.2574
 1217SOL     OW15109   3.685   0.774   1.355 -0.2013 -0.8992  0.5768
 1217SOL    HW115110   3.692   0.719   1.433  1.5357  1.4494  2.0654
 1217SOL    HW215111   3.721   0.721   1.283 -1.2723 -0.7330 -0.0876
 1218SOL     OW15112   4.095   2.832   7.361 -0.0668  0.0783 -0.3516
 1218SOL    HW115113   4.042   2.902   7.323  0.3780 -0.2106 -1.5207
 1218SOL    HW215114   4.187   2.847   7.337 -0.8342 -0.4427 -3.6802
 1219SOL     OW15115   1.831   2.393   8.710  0.0495  0.0528  0.2639
 1219SOL    HW115116   1.903   2.426   8.656 -0.7798  0.0439 -0.8530
 1219SOL    HW215117   1.759   2.418   8.652  1.2119  2.1532 -0.2868
 1220SOL     OW15118   1.280   1.714   6.211  0.6985  0.4666  0.4202
 1220SOL    HW115119   1.271   1.653   6.285  3.7071 -0.5647 -0.0519
 1220SOL    HW215120   1.354   1.761   6.251  0.8958 -1.2959  2.1602
 1221SOL     OW15121   3.372   3.893   8.107 -0.7312 -0.0419 -0.4479
 1221SOL    HW115122   3.424   3.818   8.135 -0.3483  0.9843  1.5596
 1221SOL    HW215123   3.416   3.924   8.028  1.8503 -2.0690  0.1821
 1222SOL     OW15124   2.663   1.265  11.046  0.0508  0.1757 -0.2955
 1222SOL    HW115125   2.663   1.172  11.022  0.9593 -0.7175  3.2164
 1222SOL    HW215126   2.709   1.301  10.970  0.9381  0.1947  0.2507
 1223SOL     OW15127   2.450   1.908  11.206  0.5623 -0.1536 -0.7344
 1223SOL    HW115128   2.357   1.929  11.215  0.0073 -2.0266 -2.2288
 1223SOL    HW215129   2.455   1.862  11.122  0.9447 -0.9828 -0.2507
 1224SOL     OW15130   1.190   4.395   5.996  0.3841 -0.3696 -0.4110
 1224SOL    HW115131   1.122   4.343   5.954 -1.8658  2.0697  0.2023
 1224SOL    HW215132   1.158   4.483   5.978 -0.9180 -0.4406  1.5624
 1225SOL     OW15133   3.484   3.646   0.328  0.0797 -0.2866 -0.2725
 1225SOL    HW115134   3.410   3.679   0.378  0.8301  0.2308  0.4981
 1225SOL    HW215135   3.529   3.613   0.406 -1.9993 -0.5095  0.8295
 1226SOL     OW15136   2.481   3.149   4.970 -0.6780  0.0874 -0.2118
 1226SOL    HW115137   2.433   3.202   5.033 -2.3499  0.6752 -2.0208
 1226SOL    HW215138   2.484   3.066   5.019  1.8445  0.3688  0.1182
 1227SOL     OW15139   2.473   2.044   7.295 -0.2977  0.1924  0.0196
 1227SOL    HW115140   2.456   2.137   7.304 -0.8945  0.1348 -0.6007
 1227SOL    HW215141   2.407   2.010   7.356  0.9150 -1.0521  0.6783
 1228SOL     OW15142   2.810   0.002  12.292 -0.2069 -1.0204 -0.0006
 1228SOL    HW115143   2.727   0.005  12.339 -0.0221 -0.0428  0.2611
 1228SOL    HW215144   2.782   4.699  12.204 -0.7131  0.5853 -0.2758
 1229SOL     OW15145   2.437   2.077   1.771 -0.4717 -0.3024 -0.1636
 1229SOL    HW115146   2.417   2.161   1.813  0.8157 -1.4667  2.8123
 1229SOL    HW215147   2.522   2.056   1.810 -1.3997 -0.1242  1.9859
 1230SOL     OW15148   4.083   0.123   3.074  0.1143 -0.1429  1.0443
 1230SOL    HW115149   4.064   0.142   3.166  1.8263 -0.4040  1.4456
 1230SOL    HW215150   4.044   0.036   3.071 -0.5831  0.2379 -1.3355
 1231SOL     OW15151   0.909   0.433  16.320  0.0265  0.6739 -0.3349
 1231SOL    HW115152   0.980   0.373  16.343 -0.0902  0.9541  0.7701
 1231SOL    HW215153   0.858   0.376  16.262  0.2330  1.3257 -1.1446
 1232SOL     OW15154   2.224   3.408   8.489  0.2072  0.2922  0.0723
 1232SOL    HW115155   2.305   3.458   8.482 -0.1067  0.7530 -0.2869
 1232SOL    HW215156   2.239   3.337   8.427  0.4970  0.5706 -0.1756
 1233SOL     OW15157   3.777   4.678   7.630  0.0973 -0.1296 -0.3138
 1233SOL    HW115158   3.769   4.625   7.709  0.8711 -2.3199 -1.7114
 1233SOL    HW215159   3.749   4.616   7.562  2.2401  0.2349 -1.5480
 1234SOL     OW15160   1.123   1.600   4.456  0.6157 -0.3695  0.0144
 1234SOL    HW115161   1.102   1.596   4.363 -1.7213 -0.6728  0.5518
 1234SOL    HW215162   1.082   1.516   4.477  0.4823 -0.4697 -0.6391
 1235SOL     OW15163   4.065   4.461   4.355 -0.3097  0.9126  0.3217
 1235SOL    HW115164   4.005   4.526   4.394 -2.3760 -0.6667 -0.2511
 1235SOL    HW215165   4.017   4.385   4.387  0.2029 -0.3731 -2.0395
 1236SOL     OW15166   2.827   2.529  10.359 -0.5213 -0.4218 -0.2852
 1236SOL    HW115167   2.892   2.556  10.424  0.2422  0.1564 -1.2874
 1236SOL    HW215168   2.766   2.601  10.376  0.9113  0.6189  0.4791
 1237SOL     OW15169   3.095   4.125   6.308 -0.6474  0.6478  0.2644
 1237SOL    HW115170   3.133   4.167   6.385 -1.2690 -1.7944  1.9078
 1237SOL    HW215171   3.004   4.146   6.325 -0.4965 -0.9700  2.9939
 1238SOL     OW15172   3.459   1.680   7.177  0.9196 -0.6386 -0.0286
 1238SOL    HW115173   3.491   1.605   7.127  2.1154  0.4887 -0.9836
 1238SOL    HW215174   3.366   1.667   7.162  0.8215 -1.7029  1.4653
 1239SOL     OW15175   3.207   0.631  17.381  0.0887  0.4798  0.7399
 1239SOL    HW115176   3.166   0.684  17.449 -0.4337  0.5743  0.3507
 1239SOL    HW215177   3.151   0.651  17.306 -1.3704  1.9755  2.2303
 1240SOL     OW15178   0.242   2.882   7.932  0.6068 -0.0910 -0.4268
 1240SOL    HW115179   0.288   2.964   7.914  2.0265 -0.8621 -0.3310
 1240SOL    HW215180   0.156   2.899   7.894  1.4874  1.5287 -1.6523
 1241SOL     OW15181   1.115   2.684  16.791  0.2151  0.0020  0.1290
 1241SOL    HW115182   1.058   2.647  16.723 -0.1176  0.2467  0.2733
 1241SOL    HW215183   1.065   2.756  16.830  1.1710  0.4496  0.5269
 1242SOL     OW15184   1.921   2.125   0.789  0.4010  0.4882  0.4524
 1242SOL    HW115185   1.901   2.217   0.775 -2.5297 -0.7126 -3.3753
 1242SOL    HW215186   1.850   2.116   0.853 -0.2131 -2.0869 -0.5752
 1243SOL     OW15187   2.130   3.322   9.689 -0.7458 -0.1399 -0.1957
 1243SOL    HW115188   2.207   3.332   9.744 -0.2799 -1.1203 -0.6637
 1243SOL    HW215189   2.133   3.226   9.679  1.7725 -0.0946  0.1289
 1244SOL     OW15190   4.287   3.972   9.188 -0.5778  0.3576 -0.3417
 1244SOL    HW115191   4.361   3.911   9.192 -0.5903  0.4615  1.3084
 1244SOL    HW215192   4.212   3.915   9.208 -0.5230 -0.7252 -3.2244
 1245SOL     OW15193   0.935   0.185   5.807  0.3383  1.5269 -0.6783
 1245SOL    HW115194   0.957   0.191   5.900  0.2042  2.4031 -0.7020
 1245SOL    HW215195   0.999   0.237   5.758 -0.3973  3.3303  0.2777
 1246SOL     OW15196   4.402   3.222   3.137  0.0003  0.8312 -0.5118
 1246SOL    HW115197   4.389   3.317   3.136 -1.6273  0.6105  0.0351
 1246SOL    HW215198   4.328   3.204   3.195  1.6496 -2.2999  0.5755
 1247SOL     OW15199   0.269   1.797  16.627  0.1939  0.0793  0.1330
 1247SOL    HW115200   0.279   1.742  16.705  0.6938 -1.1594 -0.8109
 1247SOL    HW215201   0.263   1.889  16.652 -0.6859  0.0072  0.1944
 1248SOL     OW15202   4.044   2.298  12.581  0.1441  0.7139  0.7074
 1248SOL    HW115203   4.022   2.229  12.644 -2.8140  0.6214 -0.4203
 1248SOL    HW215204   3.965   2.311  12.528  0.9263  2.3644 -0.0688
 1249SOL     OW15205   3.513   0.221   8.857 -0.2332  0.6989 -0.0009
 1249SOL    HW115206   3.458   0.155   8.898  3.2498 -2.3908 -0.2758
 1249SOL    HW215207   3.559   0.261   8.931 -0.8216 -1.0085  1.2631
 1250SOL     OW15208   3.807   4.154   8.251 -0.4329 -0.2929  0.2687
 1250SOL    HW115209   3.721   4.146   8.294 -0.5510 -0.5520 -0.0155
 1250SOL    HW215210   3.837   4.244   8.262 -2.1551  0.3770 -0.4477
 1251SOL     OW15211   2.673   4.316   3.243  0.5747  0.2209 -0.4493
 1251SOL    HW115212   2.748   4.270   3.281 -0.1148  0.2059  0.8937
 1251SOL    HW215213   2.608   4.281   3.304  0.4881 -0.5524 -0.9750
 1252SOL     OW15214   2.236   1.990  15.755  0.6500 -0.4557  0.6544
 1252SOL    HW115215   2.250   1.932  15.680  1.0943 -0.0540  0.4240
 1252SOL    HW215216   2.179   2.062  15.728  0.5334 -1.1631 -0.9515
 1253SOL     OW15217   4.478   0.214  16.475 -0.0493 -0.3649  0.5816
 1253SOL    HW115218   4.392   0.217  16.517 -1.3440  1.7591 -2.2390
 1253SOL    HW215219   4.504   0.127  16.506 -2.5547 -1.0223  0.8437
 1254SOL     OW15220   3.960   0.982   7.130  0.1769  0.0248 -0.3042
 1254SOL    HW115221   3.926   0.901   7.169 -0.1010  0.0489 -0.4997
 1254SOL    HW215222   3.933   0.961   7.041 -0.5650 -0.7731  0.1022
 1255SOL     OW15223   4.260   4.671   8.347 -0.1455  0.3776  0.2300
 1255SOL    HW115224   4.331   4.657   8.410  0.5763 -0.0248 -0.6713
 1255SOL    HW215225   4.200   0.003   8.398  1.7543  2.0693  0.6880
 1256SOL     OW15226   1.163   2.756   2.314 -0.3173  0.2943 -0.0801
 1256SOL    HW115227   1.174   2.847   2.283 -2.0997  0.9996  1.3784
 1256SOL    HW215228   1.170   2.772   2.408  0.2190 -0.3824 -0.0070
 1257SOL     OW15229   0.808   1.823   1.611  0.0275 -0.1741  0.1730
 1257SOL    HW115230   0.863   1.787   1.681  1.2141  1.6835  0.1795
 1257SOL    HW215231   0.871   1.847   1.544 -1.1645  1.7975 -0.2475
 1258SOL     OW15232   3.331   1.760   3.708 -0.0328 -0.0235  0.3206
 1258SOL    HW115233   3.331   1.671   3.673  2.1524 -0.3590  1.1308
 1258SOL    HW215234   3.344   1.814   3.631 -1.3474  1.2883  1.0074
 1259SOL     OW15235   1.931   0.091  17.485  0.2062  0.5602  0.0074
 1259SOL    HW115236   1.917   0.013  17.431 -1.7590  3.6197 -3.9011
 1259SOL    HW215237   1.918   0.058  17.574 -0.3302  0.0231 -0.2675
 1260SOL     OW15238   0.893   4.071   5.789 -0.2392 -0.1046 -0.2224
 1260SOL    HW115239   0.831   4.074   5.716  0.5180  0.2608 -0.8450
 1260SOL    HW215240   0.937   4.156   5.791 -1.2906  0.3787  2.4275
 1261SOL     OW15241   1.986   2.014   1.625  0.0365 -0.0097  0.8321
 1261SOL    HW115242   1.985   2.109   1.631 -1.0294  0.0833 -0.6811
 1261SOL    HW215243   1.956   1.982   1.711 -1.3290  0.8268  0.6654
 1262SOL     OW15244   1.728   1.839   7.792 -0.5945  0.4702  0.2763
 1262SOL    HW115245   1.690   1.926   7.777 -1.1401  0.1705 -0.1347
 1262SOL    HW215246   1.815   1.853   7.756 -0.5394 -0.0663  0.2011
 1263SOL     OW15247   0.280   3.253   7.665  0.2711 -0.2624 -0.7580
 1263SOL    HW115248   0.203   3.308   7.676 -0.0529 -0.9542  0.3956
 1263SOL    HW215249   0.234   3.176   7.630 -1.4496  0.0718  0.7916
 1264SOL     OW15250   3.172   3.422  12.302 -0.4554  0.0257 -0.9784
 1264SOL    HW115251   3.176   3.485  12.374 -2.2297  0.0981 -0.9250
 1264SOL    HW215252   3.127   3.482  12.242 -1.9243 -0.7053 -0.5984
 1265SOL     OW15253   4.572   1.686  11.354  0.1963 -0.2939  0.7461
 1265SOL    HW115254   4.655   1.720  11.320 -0.0298 -1.2652 -0.8032
 1265SOL    HW215255   4.511   1.760  11.346 -1.4969 -1.9298 -1.6631
 1266SOL     OW15256   2.613   1.097   2.548 -0.4928  0.3341 -0.0797
 1266SOL    HW115257   2.648   1.120   2.634 -1.5854  0.4067  0.3350
 1266SOL    HW215258   2.528   1.140   2.541 -0.6327  0.3574  1.8693
 1267SOL     OW15259   1.404   2.207   9.583  0.4601  0.0283  0.1681
 1267SOL    HW115260   1.380   2.191   9.674  0.5210  0.4777  0.2616
 1267SOL    HW215261   1.321   2.189   9.540  1.3560 -0.8162 -1.2236
 1268SOL     OW15262   3.858   3.460  16.339 -0.2555 -0.1260  0.0777
 1268SOL    HW115263   3.868   3.552  16.316 -0.9195  0.0504  0.5073
 1268SOL    HW215264   3.930   3.454  16.402 -0.8960  3.2775  1.1084
 1269SOL     OW15265   1.926   3.807   4.237  0.5920  0.2531 -0.2754
 1269SOL    HW115266   1.997   3.759   4.195 -0.5664 -0.3001 -1.5957
 1269SOL    HW215267   1.924   3.882   4.178 -1.3068  1.0309  0.7806
 1270SOL     OW15268   2.383   0.241   0.255  0.2092 -0.3028  0.1278
 1270SOL    HW115269   2.328   0.251   0.177 -0.2057  1.1373  0.6039
 1270SOL    HW215270   2.354   0.154   0.284  0.3108 -0.2801  0.2926
 1271SOL     OW15271   2.704   4.668   7.295  0.5804  0.1052 -0.0370
 1271SOL    HW115272   2.776   4.670   7.358 -0.8743  0.6675  1.5873
 1271SOL    HW215273   2.745   4.652   7.210  0.3619  0.7067 -0.2605
 1272SOL     OW15274   1.331   3.934  12.616  0.2557 -0.9547 -0.0124
 1272SOL    HW115275   1.391   4.006  12.635 -0.4925 -0.2142 -0.4099
 1272SOL    HW215276   1.348   3.921  12.522  0.5358 -0.0408 -0.0899
 1273SOL     OW15277   4.650   3.477   9.543  1.1821  0.3589  0.2818
 1273SOL    HW115278   4.712   3.485   9.471 -0.1148 -1.6612 -1.0799
 1273SOL    HW215279   4.633   3.385   9.523 -1.2994  1.2166 -1.6387
 1274SOL     OW15280   3.076   1.167   5.114  0.0430  0.0987 -0.0470
 1274SOL    HW115281   3.162   1.137   5.144 -0.9387  0.3527  3.0317
 1274SOL    HW215282   3.007   1.103   5.132 -0.3545  1.3981  3.0836
 1275SOL     OW15283   2.992   2.752   3.554 -0.2932 -0.2283 -0.0396
 1275SOL    HW115284   2.974   2.806   3.477 -1.9594 -2.2506 -1.0611
 1275SOL    HW215285   2.949   2.675   3.518  0.6031 -0.8967  0.3327
 1276SOL     OW15286   0.461   3.118  11.525 -0.6437 -0.0305 -0.1900
 1276SOL    HW115287   0.546   3.123  11.481 -1.0292  1.3392 -0.7874
 1276SOL    HW215288   0.480   3.060  11.598  0.2477  2.2864  1.4117
 1277SOL     OW15289   2.752   2.830   8.335  0.1549  0.0251 -0.2341
 1277SOL    HW115290   2.749   2.823   8.239  0.0535  0.6504 -0.2760
 1277SOL    HW215291   2.702   2.751   8.355 -0.9598  0.6808 -0.4183
 1278SOL     OW15292   4.273   3.873  15.060 -0.3712  0.0211 -0.8256
 1278SOL    HW115293   4.351   3.907  15.103 -1.3769  0.7845  0.4193
 1278SOL    HW215294   4.293   3.897  14.970  0.6298  1.4146 -0.2273
 1279SOL     OW15295   0.710   1.489   6.533 -0.4394 -0.2159 -0.4234
 1279SOL    HW115296   0.777   1.470   6.598 -0.9703 -1.3072 -0.1984
 1279SOL    HW215297   0.646   1.543   6.581  0.4860 -1.1049  1.7990
 1280SOL     OW15298   3.663   0.467  17.124  0.1545 -0.9978  0.1566
 1280SOL    HW115299   3.642   0.408  17.051 -1.4865 -1.8207  1.2999
 1280SOL    HW215300   3.573   0.496  17.140  1.0373  0.3136  2.6142
 1281SOL     OW15301   2.211   2.531  16.208 -0.4935 -0.8059 -0.0037
 1281SOL    HW115302   2.153   2.607  16.199  2.0415  1.0610 -0.5507
 1281SOL    HW215303   2.251   2.560  16.290 -0.2809 -0.1653 -0.3268
 1282SOL     OW15304   4.522   3.285   2.624  0.0259  0.1743 -0.2185
 1282SOL    HW115305   4.535   3.338   2.545  1.7381  1.6205  1.0397
 1282SOL    HW215306   4.451   3.224   2.601 -2.5260  3.0263  0.0692
 1283SOL     OW15307   2.233   0.469   9.330 -0.1551  0.1792  0.1870
 1283SOL    HW115308   2.325   0.449   9.348  0.1873  3.5734  2.3909
 1283SOL    HW215309   2.233   0.565   9.325  1.2383  0.1809  0.0605
 1284SOL     OW15310   1.888   1.238   6.214  0.3437 -0.1473  0.5743
 1284SOL    HW115311   1.908   1.149   6.184  1.2859  0.7018 -1.3779
 1284SOL    HW215312   1.806   1.234   6.262 -0.2335 -1.4213 -0.5354
 1285SOL     OW15313   4.693   0.182  15.110 -0.5428 -0.0328  0.7140
 1285SOL    HW115314   0.005   0.215  15.026  2.5626 -0.2382  1.8861
 1285SOL    HW215315   4.711   0.257  15.167  0.3362  0.0642  0.3102
 1286SOL     OW15316   0.583   3.580   8.733 -0.6934  0.1242 -0.3980
 1286SOL    HW115317   0.620   3.616   8.653 -0.0949  0.3035 -0.0365
 1286SOL    HW215318   0.653   3.516   8.744  0.2181  0.8184 -2.1677
 1287SOL     OW15319   3.690   3.923   8.960  0.3141  0.3565  0.8649
 1287SOL    HW115320   3.633   3.997   8.979 -0.2730  0.0306  0.3808
 1287SOL    HW215321   3.631   3.863   8.915  1.1953 -0.2007  0.4429
 1288SOL     OW15322   3.824   3.475   5.103  0.1328 -0.2479 -0.0510
 1288SOL    HW115323   3.872   3.392   5.108 -1.9176 -1.5052 -1.2492
 1288SOL    HW215324   3.824   3.509   5.192 -0.5328  1.2475 -0.6177
 1289SOL     OW15325   4.302   1.791   6.963 -0.6187 -0.6120  0.8790
 1289SOL    HW115326   4.234   1.730   6.934 -2.8563  3.3651 -2.2586
 1289SOL    HW215327   4.316   1.755   7.050  0.7746 -0.7687  0.5999
 1290SOL     OW15328   3.000   3.884  12.652  0.0479  0.2589  0.3693
 1290SOL    HW115329   3.018   3.794  12.623  2.5454  0.8455  0.1219
 1290SOL    HW215330   3.089   3.908  12.675  0.8505 -1.3964 -0.9361
 1291SOL     OW15331   3.612   2.248   6.622 -0.3128 -0.3176  0.3951
 1291SOL    HW115332   3.578   2.193   6.692 -2.8332 -1.0662 -1.3902
 1291SOL    HW215333   3.531   2.285   6.586 -0.0091  0.5492  0.5956
 1292SOL     OW15334   1.190   3.325   7.175 -0.4029  0.0480 -0.2666
 1292SOL    HW115335   1.104   3.287   7.156 -0.8419  0.7136  0.3707
 1292SOL    HW215336   1.165   3.407   7.219 -0.3218 -0.3060  0.4254
 1293SOL     OW15337   1.274   0.491   4.873  0.5720 -0.4098  0.0172
 1293SOL    HW115338   1.320   0.437   4.810 -1.5654 -1.1914 -0.8599
 1293SOL    HW215339   1.282   0.581   4.841  4.8564 -0.2532  1.5403
 1294SOL     OW15340   2.809   2.582  16.163 -0.5790 -0.2067 -0.0536
 1294SOL    HW115341   2.815   2.581  16.068 -0.1454  0.3785 -0.0311
 1294SOL    HW215342   2.754   2.506  16.185 -2.0143  0.9969  0.5791
 1295SOL     OW15343   3.241   1.070   6.850  0.1078 -0.8201  0.2828
 1295SOL    HW115344   3.240   1.028   6.936 -1.7107  1.1101  1.2141
 1295SOL    HW215345   3.182   1.019   6.796 -1.0985 -0.1870  1.0022
 1296SOL     OW15346   2.118   2.453   7.965  0.0880  0.4310  0.0328
 1296SOL    HW115347   2.159   2.518   8.022 -0.0662  0.0742  0.5592
 1296SOL    HW215348   2.191   2.414   7.919 -0.7502  0.9609 -1.7531
 1297SOL     OW15349   3.830   1.893  16.457  0.0458  0.5123 -0.1244
 1297SOL    HW115350   3.836   1.798  16.445 -2.1499  0.7486 -3.2903
 1297SOL    HW215351   3.826   1.918  16.364  0.1422 -0.6130 -0.4279
 1298SOL     OW15352   4.558   3.030   3.322  0.1844  0.5746 -0.6423
 1298SOL    HW115353   4.479   3.084   3.311  0.5885  1.6783  1.8513
 1298SOL    HW215354   4.600   3.073   3.396  0.1902 -0.1120 -0.2497
 1299SOL     OW15355   1.124   3.079   5.672  0.2266  0.5148 -0.5074
 1299SOL    HW115356   1.112   3.024   5.595  0.6082 -1.3136  0.7621
 1299SOL    HW215357   1.033   3.083   5.701 -0.1245 -0.3160 -1.4973
 1300SOL     OW15358   4.370   3.024   8.159 -0.4773  0.5967 -0.6605
 1300SOL    HW115359   4.461   3.001   8.178 -0.8224 -2.4516 -2.7842
 1300SOL    HW215360   4.341   2.965   8.090  0.4488  1.5944 -1.8938
 1301SOL     OW15361   0.902   3.984   3.317 -0.0600 -0.1803 -0.1880
 1301SOL    HW115362   0.979   3.974   3.372 -0.3396  0.9180  0.4178
 1301SOL    HW215363   0.931   4.038   3.243 -2.5174  1.4047 -0.0191
 1302SOL     OW15364   2.926   2.680   7.399 -0.9035  0.0226 -0.0461
 1302SOL    HW115365   2.877   2.600   7.378 -1.0601  0.4413 -1.2797
 1302SOL    HW215366   3.014   2.659   7.367 -2.5153 -3.0100 -2.5380
 1303SOL     OW15367   0.694   1.411  13.659 -0.4538  0.2811  0.3391
 1303SOL    HW115368   0.625   1.440  13.718 -0.8566  0.1896 -0.0871
 1303SOL    HW215369   0.722   1.336  13.711  1.4174  1.2024  0.6822
 1304SOL     OW15370   2.483   2.597  13.092  0.2993  0.0599  0.8980
 1304SOL    HW115371   2.577   2.582  13.083  0.1220 -0.6863  0.3004
 1304SOL    HW215372   2.447   2.510  13.108 -1.5873  0.2648 -2.2517
 1305SOL     OW15373   4.382   2.800   3.944 -0.3567  0.3030  0.0737
 1305SOL    HW115374   4.313   2.843   3.893  1.9774  2.0122 -1.5897
 1305SOL    HW215375   4.358   2.831   4.032  0.5880 -0.7796  0.6964
 1306SOL     OW15376   3.028   1.749   2.812  0.5122 -0.3686  0.6555
 1306SOL    HW115377   2.947   1.737   2.761  0.9916 -1.1668  0.0862
 1306SOL    HW215378   3.059   1.830   2.772 -0.4833 -0.9083 -1.2262
 1307SOL     OW15379   0.442   1.140   6.082  0.4270  0.5531  0.2480
 1307SOL    HW115380   0.534   1.152   6.101  0.2315  0.9184  0.9557
 1307SOL    HW215381   0.426   1.051   6.115  0.9097 -0.3924 -2.0547
 1308SOL     OW15382   0.701   2.109   2.949 -0.2482  0.2818 -0.2262
 1308SOL    HW115383   0.644   2.074   3.017  0.1847 -0.9278 -0.4973
 1308SOL    HW215384   0.634   2.166   2.910 -1.2359  0.0956  1.2075
 1309SOL     OW15385   4.662   3.389   4.076 -0.2370  0.0901 -0.4695
 1309SOL    HW115386   4.608   3.462   4.047  0.1725 -0.4394 -2.5401
 1309SOL    HW215387   0.022   3.430   4.105  0.7891 -0.2720 -2.9174
 1310SOL     OW15388   2.636   3.449   6.344 -0.1476  0.3393 -0.0651
 1310SOL    HW115389   2.684   3.523   6.306  0.0153  0.0249 -0.4759
 1310SOL    HW215390   2.666   3.445   6.435 -0.7652  1.8764  0.1990
 1311SOL     OW15391   0.953   3.409   7.502 -0.5290  0.4843 -0.2798
 1311SOL    HW115392   0.923   3.420   7.592  0.0882  4.4840 -0.5972
 1311SOL    HW215393   0.892   3.342   7.470 -0.6624  0.5516 -0.1646
 1312SOL     OW15394   3.174   0.260   2.661 -0.0878 -0.0577 -0.2752
 1312SOL    HW115395   3.174   0.280   2.755 -2.0165 -2.9881  0.3584
 1312SOL    HW215396   3.125   0.334   2.624 -0.2347 -0.9036 -1.7688
 1313SOL     OW15397   2.918   1.449   8.375 -0.0104  0.0904  0.2762
 1313SOL    HW115398   2.954   1.537   8.389 -0.9663  0.3877  0.8619
 1313SOL    HW215399   2.966   1.399   8.441  1.1960 -1.4414 -1.7703
 1314SOL     OW15400   2.809   1.931   8.691 -0.5541 -0.0104 -0.0841
 1314SOL    HW115401   2.829   1.899   8.603 -2.6593  0.8725 -0.8936
 1314SOL    HW215402   2.891   1.919   8.738 -0.0703 -0.4883 -1.0512
 1315SOL     OW15403   3.885   3.886   4.039 -0.3251  0.1924 -0.0773
 1315SOL    HW115404   3.910   3.809   4.090  0.9074  0.9708  0.4889
 1315SOL    HW215405   3.891   3.955   4.104  0.2467 -0.0949  0.1716
 1316SOL     OW15406   0.653   0.282  17.220 -0.2423  0.8059 -0.4022
 1316SOL    HW115407   0.703   0.256  17.298  1.1183  0.1642 -1.4779
 1316SOL    HW215408   0.617   0.197  17.194  1.4353 -0.1452  0.3112
 1317SOL     OW15409   0.350   2.896  16.490  0.1951 -0.0810  0.0432
 1317SOL    HW115410   0.282   2.832  16.468 -0.6211  0.5529  0.7243
 1317SOL    HW215411   0.300   2.976  16.509 -0.5742  0.0016 -2.2540
 1318SOL     OW15412   3.637   2.594   8.306  0.0607 -0.1163  0.0982
 1318SOL    HW115413   3.574   2.664   8.323  0.5956 -0.1349  2.1489
 1318SOL    HW215414   3.706   2.649   8.269 -0.4433 -1.3731 -2.6784
 1319SOL     OW15415   2.294   3.120  10.572  0.1816  0.1797  0.1650
 1319SOL    HW115416   2.205   3.144  10.548  0.1285 -1.5687 -1.3958
 1319SOL    HW215417   2.308   3.167  10.654 -0.7731 -0.9516  0.9685
 1320SOL     OW15418   3.852   2.480   7.663  0.4698  0.0262  0.7220
 1320SOL    HW115419   3.886   2.511   7.580  1.0717  1.4919  1.5171
 1320SOL    HW215420   3.865   2.547   7.730 -0.4126 -1.1610  2.1079
 1321SOL     OW15421   0.854   0.244   4.754  0.2029 -0.2854 -0.5679
 1321SOL    HW115422   0.874   0.199   4.672  2.2649 -2.0674  0.9170
 1321SOL    HW215423   0.778   0.297   4.729 -0.1716 -0.1914  0.7726
 1322SOL     OW15424   2.686   3.018   3.590 -0.5582  0.3486  0.0174
 1322SOL    HW115425   2.716   3.054   3.674  2.3457 -0.6198 -0.6041
 1322SOL    HW215426   2.592   3.013   3.605  0.0125 -2.3687  2.6571
 1323SOL     OW15427   4.172   1.133   3.895 -0.2509 -1.1034 -0.3223
 1323SOL    HW115428   4.134   1.195   3.833 -1.7830  0.5493  2.2630
 1323SOL    HW215429   4.107   1.127   3.966 -0.5902  0.6266 -0.4837
 1324SOL     OW15430   1.513   1.075   4.545 -0.0293  0.1351 -0.8250
 1324SOL    HW115431   1.520   1.133   4.469 -1.2440  1.2995 -0.0378
 1324SOL    HW215432   1.604   1.078   4.573 -0.6676  0.9834  1.1554
 1325SOL     OW15433   2.048   3.643   0.516  0.0737  0.2164 -0.2219
 1325SOL    HW115434   2.045   3.550   0.538 -1.5518 -0.1993 -2.2154
 1325SOL    HW215435   1.986   3.641   0.443 -0.4580  0.4299  0.2253
 1326SOL     OW15436   4.684   1.153   8.992 -0.7713 -0.2105  0.2215
 1326SOL    HW115437   4.636   1.094   9.051 -0.7633  0.5357  0.9621
 1326SOL    HW215438   4.624   1.163   8.917 -0.9947  1.5995  0.6483
 1327SOL     OW15439   3.585   4.689   8.451 -0.2062  0.3656 -0.2123
 1327SOL    HW115440   3.612   0.043   8.399  1.6075  1.0907  1.7825
 1327SOL    HW215441   3.662   4.658   8.499 -2.0791  1.6637  3.5699
 1328SOL     OW15442   2.033   3.753   1.682 -0.0596  0.3858  0.7755
 1328SOL    HW115443   1.948   3.712   1.701 -0.0740  0.4186  0.7807
 1328SOL    HW215444   2.007   3.821   1.620  0.9292  1.8936  2.0218
 1329SOL     OW15445   1.710   0.993   5.837  0.0402  0.3724  0.1539
 1329SOL    HW115446   1.635   0.952   5.881  0.0806 -0.7050 -0.7641
 1329SOL    HW215447   1.674   1.036   5.759 -2.1878 -1.3946  0.1928
 1330SOL     OW15448   1.886   4.060   1.136  0.5485  0.0848  0.2206
 1330SOL    HW115449   1.931   3.980   1.107  0.4704 -0.3263  1.2146
 1330SOL    HW215450   1.832   4.019   1.204 -2.3143  1.4937 -1.2325
 1331SOL     OW15451   3.186   3.236   1.208 -0.4552 -0.1895  0.0038
 1331SOL    HW115452   3.219   3.150   1.183 -0.6088 -0.0053 -0.8518
 1331SOL    HW215453   3.094   3.211   1.219 -1.3139  2.4080 -1.3485
 1332SOL     OW15454   4.225   3.265   6.180  0.3552  0.4750 -0.1035
 1332SOL    HW115455   4.236   3.228   6.093 -0.1450 -1.5732  0.6867
 1332SOL    HW215456   4.234   3.182   6.228  0.4825  0.6196  0.1246
 1333SOL     OW15457   0.747   1.495  16.882 -0.6708 -0.1618  0.4977
 1333SOL    HW115458   0.694   1.431  16.835 -0.2803  0.7597 -1.2211
 1333SOL    HW215459   0.792   1.434  16.940 -0.2070 -1.0649 -0.8149
 1334SOL     OW15460   2.884   4.285   3.028  0.4682  0.2014  0.3748
 1334SOL    HW115461   2.843   4.334   3.100  0.4417  0.1797  0.3744
 1334SOL    HW215462   2.969   4.330   3.025  0.8942 -0.5279  1.4210
 1335SOL     OW15463   1.038   2.988   9.586 -0.1935  0.0462  0.4578
 1335SOL    HW115464   1.123   3.031   9.596  0.7745 -1.3090 -1.9749
 1335SOL    HW215465   1.057   2.921   9.651  0.3171  1.7257  2.0506
 1336SOL     OW15466   2.664   2.067  10.942 -0.0778 -0.0383 -0.1189
 1336SOL    HW115467   2.724   1.993  10.942  1.4405  1.1796  1.6063
 1336SOL    HW215468   2.627   2.072  11.030 -2.0288 -0.7857 -0.8904
 1337SOL     OW15469   4.352   0.600  10.659  0.2296 -0.1498  0.0199
 1337SOL    HW115470   4.356   0.542  10.735  1.1105 -0.6001 -0.3724
 1337SOL    HW215471   4.259   0.599  10.634  1.0655 -1.6933 -2.9973
 1338SOL     OW15472   0.066   4.235   2.099 -0.4926  0.7881 -0.5434
 1338SOL    HW115473   0.016   4.285   2.163 -1.9935 -2.6134  0.9333
 1338SOL    HW215474   0.151   4.248   2.140 -0.0379  0.4625 -1.3647
 1339SOL     OW15475   4.561   2.676   8.100 -0.3081 -0.3484  0.0887
 1339SOL    HW115476   4.615   2.636   8.032 -0.9294 -0.7057 -0.1941
 1339SOL    HW215477   4.604   2.760   8.118  0.1091 -1.4381  4.1781
 1340SOL     OW15478   2.852   0.726  11.590 -1.2082  0.1730 -0.3571
 1340SOL    HW115479   2.794   0.761  11.658 -1.6391  1.7659 -1.5443
 1340SOL    HW215480   2.934   0.739  11.638 -0.4719 -0.6162 -1.3882
 1341SOL     OW15481   4.161   0.313   0.232  0.0753 -0.3635 -0.8048
 1341SOL    HW115482   4.092   0.372   0.200 -1.3440 -1.5130  0.1385
 1341SOL    HW215483   4.104   0.258   0.286  1.0308  0.6024  1.2173
 1342SOL     OW15484   2.702   1.958   3.725  0.0965  0.0415 -0.4711
 1342SOL    HW115485   2.738   2.046   3.733 -1.9079  0.6802  1.5687
 1342SOL    HW215486   2.709   1.930   3.817  0.6817 -1.5754 -1.0001
 1343SOL     OW15487   3.552   4.300  13.420 -0.0617 -0.4165  0.3871
 1343SOL    HW115488   3.518   4.221  13.377  1.2112 -0.1289 -1.1374
 1343SOL    HW215489   3.480   4.334  13.473  0.2569  0.1370  0.4617
 1344SOL     OW15490   4.718   4.675   4.729  0.7069  0.1816 -0.0380
 1344SOL    HW115491   4.636   0.001   4.744  1.1488  0.6066  1.0094
 1344SOL    HW215492   0.029   4.659   4.818  0.8182  0.9028  0.0517
 1345SOL     OW15493   2.852   2.198   3.809 -0.5068  0.3795  0.4359
 1345SOL    HW115494   2.848   2.276   3.864 -1.6104  0.4307  0.2842
 1345SOL    HW215495   2.945   2.190   3.791 -0.2038 -1.4741  2.8815
 1346SOL     OW15496   1.190   2.783   5.042  0.5538 -0.1465  0.0458
 1346SOL    HW115497   1.195   2.828   4.957  1.5991  1.7149  1.0784
 1346SOL    HW215498   1.175   2.865   5.091 -2.4135 -1.2952  1.0753
 1347SOL     OW15499   3.476   3.976   1.398  0.1165 -0.7415  0.1954
 1347SOL    HW115500   3.442   3.897   1.355  1.8248 -2.1177  1.3532
 1347SOL    HW215501   3.486   3.942   1.487 -0.0267 -0.9447  0.1352
 1348SOL     OW15502   3.545   2.242  15.684  0.2706 -0.3618 -0.1382
 1348SOL    HW115503   3.506   2.219  15.768 -1.9717 -1.1837 -1.4076
 1348SOL    HW215504   3.475   2.218  15.625  2.0523 -0.3885 -2.2516
 1349SOL     OW15505   0.362   2.751   4.253 -0.5779  0.1968  0.4072
 1349SOL    HW115506   0.377   2.667   4.209 -1.0585 -0.5772  1.7468
 1349SOL    HW215507   0.358   2.803   4.173 -0.0881 -0.1699  0.1440
 1350SOL     OW15508   1.530   2.946   3.141 -0.8095  0.0216 -0.2705
 1350SOL    HW115509   1.540   3.039   3.119  0.2269  0.3222  1.5172
 1350SOL    HW215510   1.492   2.919   3.057  0.8719 -3.3596  0.0725
 1351SOL     OW15511   3.377   3.736   1.053 -0.4764  0.7063 -0.4957
 1351SOL    HW115512   3.462   3.735   1.008  1.3015 -1.8492  2.9284
 1351SOL    HW215513   3.366   3.642   1.067 -0.5772  0.5853 -1.3563
 1352SOL     OW15514   4.567   0.623  12.539  0.4846  0.5907  0.0119
 1352SOL    HW115515   4.500   0.620  12.607 -0.6042  0.8589 -1.0420
 1352SOL    HW215516   4.644   0.661  12.581  1.4849  0.1136 -1.3975
 1353SOL     OW15517   1.213   0.319  10.121  0.0474  0.1479  0.2569
 1353SOL    HW115518   1.282   0.299  10.184  0.4638  2.0973  0.4352
 1353SOL    HW215519   1.140   0.310  10.183 -0.4408 -2.2617 -0.6957
 1354SOL     OW15520   0.454   1.503   7.715 -0.3094 -0.0141  0.9571
 1354SOL    HW115521   0.422   1.413   7.718 -2.8609  0.9743  2.9178
 1354SOL    HW215522   0.475   1.509   7.622  1.9349  1.7467  1.5516
 1355SOL     OW15523   1.861   0.477  10.679  0.1954  0.2233  0.1281
 1355SOL    HW115524   1.904   0.553  10.642  0.5748  0.1929  0.5034
 1355SOL    HW215525   1.926   0.418  10.717 -0.2377 -2.3140 -3.0318
 1356SOL     OW15526   4.644   3.465   6.902  0.4174 -0.0484 -0.0092
 1356SOL    HW115527   4.618   3.389   6.850  0.1633 -0.7975  1.2029
 1356SOL    HW215528   0.009   3.436   6.932  0.1100 -1.1171 -0.1534
 1357SOL     OW15529   0.484   4.142   0.028  0.5728 -0.6948  0.4576
 1357SOL    HW115530   0.399   4.185   0.015  0.9150 -0.2664 -0.3359
 1357SOL    HW215531   0.494   4.106  17.628  2.5383  1.2444 -0.1049
 1358SOL     OW15532   0.817   3.470   9.245  0.5627 -0.2601 -0.0179
 1358SOL    HW115533   0.801   3.380   9.214  0.8103  0.5696 -2.5720
 1358SOL    HW215534   0.778   3.525   9.177  0.7478 -1.1287 -0.8415
 1359SOL     OW15535   3.215   3.865   1.417  0.3639  0.2396  0.7151
 1359SOL    HW115536   3.136   3.841   1.465  0.3131  2.8387  1.9586
 1359SOL    HW215537   3.233   3.779   1.380 -0.0376  1.8666 -3.2012
 1360SOL     OW15538   1.503   3.224   8.577 -0.3412 -0.6947 -0.3574
 1360SOL    HW115539   1.511   3.129   8.588  1.0534 -0.4918  0.3899
 1360SOL    HW215540   1.552   3.264   8.649 -1.3818  0.6759 -0.4288
 1361SOL     OW15541   1.872   2.906   6.088  0.4507 -0.5475  0.1432
 1361SOL    HW115542   1.853   2.906   6.182 -0.6562 -2.8827 -0.0879
 1361SOL    HW215543   1.796   2.961   6.069 -0.5551 -2.2159 -0.6807
 1362SOL     OW15544   0.337   4.684   6.940  0.0701  0.0822  0.5266
 1362SOL    HW115545   0.378   4.663   6.856 -1.0386 -1.6476  0.4036
 1362SOL    HW215546   0.360   4.599   6.978  0.9127 -0.7792 -1.9378
 1363SOL     OW15547   3.922   4.290   3.712 -0.1679 -0.0431  0.6183
 1363SOL    HW115548   3.922   4.197   3.736  1.0238 -0.8167 -2.2886
 1363SOL    HW215549   3.846   4.298   3.655  0.1487  0.1080  0.2149
 1364SOL     OW15550   0.300   3.909   5.586 -0.1105 -0.1646 -0.4943
 1364SOL    HW115551   0.355   3.845   5.542 -0.3094 -0.4599 -0.3132
 1364SOL    HW215552   0.234   3.930   5.520 -1.3608  0.9689  1.1004
 1365SOL     OW15553   3.301   1.440   0.731 -0.4416 -0.7004  0.1967
 1365SOL    HW115554   3.368   1.425   0.797 -0.3904  1.1808  0.5762
 1365SOL    HW215555   3.340   1.509   0.678  0.3192 -0.3511  1.2278
 1366SOL     OW15556   3.326   1.481   5.640  0.1813 -0.3008  0.1558
 1366SOL    HW115557   3.257   1.444   5.696 -2.1677  1.7420 -1.4019
 1366SOL    HW215558   3.341   1.570   5.670 -2.0080 -0.2095  1.0238
 1367SOL     OW15559   2.611   0.748   4.310  0.7711  0.5028 -0.6248
 1367SOL    HW115560   2.591   0.699   4.230 -0.5272 -0.9317  0.5663
 1367SOL    HW215561   2.591   0.837   4.282  1.4828  0.6208 -0.7353
 1368SOL     OW15562   1.510   3.902   6.001  0.2611  0.4272  0.0161
 1368SOL    HW115563   1.557   3.876   6.080  1.6180  1.8062 -0.3296
 1368SOL    HW215564   1.451   3.971   6.029  1.1724  0.8649  0.8661
 1369SOL     OW15565   0.485   0.292   5.858  0.2736 -0.3217 -0.3062
 1369SOL    HW115566   0.568   0.322   5.821  0.6625  0.8651  1.5195
 1369SOL    HW215567   0.471   0.205   5.822 -1.2001 -0.6492  1.0493
 1370SOL     OW15568   3.660   0.141   3.158  0.2235  0.0239  0.3541
 1370SOL    HW115569   3.683   0.149   3.251  0.1482 -0.2348  0.3962
 1370SOL    HW215570   3.601   0.065   3.150 -0.2386  0.3846  0.3212
 1371SOL     OW15571   0.548   0.572   9.975 -0.4617  0.7281  0.1096
 1371SOL    HW115572   0.486   0.551  10.045 -1.3052  0.5823 -0.6814
 1371SOL    HW215573   0.634   0.548  10.009 -0.0740  2.5960  0.4422
 1372SOL     OW15574   0.912   0.327   1.650  0.4824 -0.0670  0.1607
 1372SOL    HW115575   0.823   0.291   1.641  0.6487 -0.1129 -1.3910
 1372SOL    HW215576   0.905   0.414   1.610 -0.3477 -0.3856 -0.4066
 1373SOL     OW15577   3.251   3.514   8.837 -0.0137  0.4395 -0.1267
 1373SOL    HW115578   3.202   3.450   8.786  0.5869  0.1800 -0.3764
 1373SOL    HW215579   3.328   3.525   8.782  0.1763  0.2769  0.1075
 1374SOL     OW15580   1.797   0.411   9.988 -0.2969 -0.2170 -0.5484
 1374SOL    HW115581   1.770   0.493   9.947  0.2041 -0.0361 -0.5090
 1374SOL    HW215582   1.733   0.346   9.959 -0.0967  0.3191 -2.1648
 1375SOL     OW15583   2.407   2.671   6.483  0.1832 -0.2615 -0.2048
 1375SOL    HW115584   2.487   2.705   6.443 -1.1824  2.1288 -0.9333
 1375SOL    HW215585   2.437   2.581   6.487 -0.7171 -0.5130  1.0203
 1376SOL     OW15586   3.211   0.781  11.537 -0.3812 -0.5865 -0.0638
 1376SOL    HW115587   3.214   0.731  11.455 -2.8085  0.1132 -0.5861
 1376SOL    HW215588   3.260   0.861  11.521 -1.4082 -0.3966 -2.3966
 1377SOL     OW15589   0.926   0.063   3.925  0.0821  0.1693  0.1405
 1377SOL    HW115590   0.976   0.028   3.998 -0.2833  1.1198  0.8515
 1377SOL    HW215591   0.873   0.133   3.966 -0.6048  0.3373 -1.0279
 1378SOL     OW15592   4.195   2.159  10.978 -0.0655 -0.3487 -0.0807
 1378SOL    HW115593   4.146   2.227  10.933  0.0260  0.3794  0.9249
 1378SOL    HW215594   4.183   2.080  10.925  0.3664 -0.8309  0.5312
 1379SOL     OW15595   2.324   2.755   4.360  0.0717 -0.0604  0.5401
 1379SOL    HW115596   2.375   2.759   4.440  1.5493  3.0564 -0.5654
 1379SOL    HW215597   2.288   2.667   4.349  0.7114 -0.0327 -1.8525
 1380SOL     OW15598   4.324   0.820   5.959  1.1733  0.2731 -0.2641
 1380SOL    HW115599   4.339   0.914   5.948  1.6927  0.1438 -0.6382
 1380SOL    HW215600   4.384   0.778   5.898  1.2603 -1.7746  1.2680
 1381SOL     OW15601   3.244   0.824   4.309 -0.3522 -0.0084 -0.5782
 1381SOL    HW115602   3.236   0.874   4.390 -1.4259 -2.6528  0.9540
 1381SOL    HW215603   3.158   0.783   4.318 -0.6892  0.1348 -3.2595
 1382SOL     OW15604   0.069   1.319   6.864  0.8701  0.1922  0.0398
 1382SOL    HW115605   0.006   1.252   6.892  1.0825 -0.0427 -0.0442
 1382SOL    HW215606   0.146   1.289   6.912  0.3963 -2.8886 -1.1299
 1383SOL     OW15607   1.740   3.828   8.394 -0.2386  0.0275  0.3111
 1383SOL    HW115608   1.696   3.763   8.339  0.1344  0.9565 -1.0969
 1383SOL    HW215609   1.777   3.881   8.323  0.9315 -0.5123  0.5248
 1384SOL     OW15610   1.587   0.292   6.831 -0.4313 -0.4418 -0.1700
 1384SOL    HW115611   1.521   0.299   6.900 -0.0473  0.9270  0.0707
 1384SOL    HW215612   1.638   0.221   6.871 -0.4864  0.4369  1.4575
 1385SOL     OW15613   1.397   3.562   6.697  0.5946 -0.7121  0.3119
 1385SOL    HW115614   1.416   3.477   6.737 -2.6881 -1.4773  0.2947
 1385SOL    HW215615   1.425   3.540   6.608 -0.9358 -1.0315 -0.0900
 1386SOL     OW15616   2.907   0.152   6.600  0.5296  0.2209 -0.1057
 1386SOL    HW115617   2.945   0.066   6.620 -1.6425  0.3129  4.3931
 1386SOL    HW215618   2.985   0.186   6.555  1.6056 -1.2268  0.6559
 1387SOL     OW15619   1.812   1.244   2.354 -0.2897 -0.3573 -0.1184
 1387SOL    HW115620   1.774   1.298   2.286  2.4418  0.0390 -1.3157
 1387SOL    HW215621   1.752   1.171   2.337  2.0826 -2.6249  1.1527
 1388SOL     OW15622   1.545   3.320  17.534 -0.8324  0.8452 -0.4112
 1388SOL    HW115623   1.543   3.267  17.613 -0.3859 -0.1254 -1.0444
 1388SOL    HW215624   1.528   3.260  17.462  1.8870  2.2785 -2.2631
 1389SOL     OW15625   1.431   1.494   1.004 -0.1701 -0.4595  0.7701
 1389SOL    HW115626   1.486   1.534   1.072  1.0578  0.1476 -0.5738
 1389SOL    HW215627   1.483   1.513   0.926 -0.2437  2.5761  1.4231
 1390SOL     OW15628   3.413   0.757  13.617 -0.0618 -0.5111  0.1640
 1390SOL    HW115629   3.332   0.726  13.577 -0.4198 -1.4579  1.6263
 1390SOL    HW215630   3.467   0.750  13.539 -1.5754  0.5193 -0.9725
 1391SOL     OW15631   0.707   0.450   8.352  0.3286 -0.1928 -0.5286
 1391SOL    HW115632   0.637   0.499   8.309 -0.7805 -1.4118 -0.1255
 1391SOL    HW215633   0.691   0.478   8.443 -0.3628  0.2669 -0.7943
 1392SOL     OW15634   0.667   2.734  11.838 -0.2379 -0.0597 -0.5553
 1392SOL    HW115635   0.679   2.661  11.778  1.8530  0.1567 -0.3954
 1392SOL    HW215636   0.742   2.733  11.897  1.2622  0.7099 -2.4532
 1393SOL     OW15637   3.507   1.114   6.840 -0.1830 -0.6638  0.3306
 1393SOL    HW115638   3.413   1.115   6.827 -0.0205  1.4660 -0.8442
 1393SOL    HW215639   3.526   1.021   6.832 -1.1789 -0.9317  1.1523
 1394SOL     OW15640   1.129   0.386   5.615 -0.7116 -0.9912 -0.3327
 1394SOL    HW115641   1.137   0.459   5.677 -0.8510 -0.7038 -0.6556
 1394SOL    HW215642   1.204   0.403   5.558 -0.1003 -2.1857  0.1344
 1395SOL     OW15643   4.093   2.034   1.876 -0.2667  0.0211 -0.3544
 1395SOL    HW115644   4.183   2.049   1.846 -0.2392  1.2657  0.3947
 1395SOL    HW215645   4.056   2.113   1.838  1.3896  2.6699  3.6392
 1396SOL     OW15646   0.944   3.825   6.503  0.4362 -0.1682 -0.4836
 1396SOL    HW115647   1.017   3.790   6.555  0.8629  1.9247  0.3416
 1396SOL    HW215648   0.907   3.746   6.464  0.6807 -1.3723  1.7205
 1397SOL     OW15649   4.693   0.420  10.404 -0.9896 -0.1789 -0.0889
 1397SOL    HW115650   0.052   0.451  10.446 -0.7822 -4.0841  2.3934
 1397SOL    HW215651   4.639   0.496  10.426  0.1263  1.2432 -2.3380
 1398SOL     OW15652   2.430   3.830   8.340 -0.8407  0.3601  0.0458
 1398SOL    HW115653   2.414   3.739   8.314 -2.0156  0.4717  0.3723
 1398SOL    HW215654   2.353   3.840   8.397 -0.1073  2.9600  0.5851
 1399SOL     OW15655   3.261   2.659   8.143 -0.1765  0.7794 -0.1434
 1399SOL    HW115656   3.322   2.733   8.140 -0.0228  0.6892  0.6945
 1399SOL    HW215657   3.240   2.628   8.055  0.3058  0.7540 -0.2469
 1400SOL     OW15658   4.605   3.787   6.237  0.1342  0.1287 -0.4486
 1400SOL    HW115659   4.678   3.782   6.175 -0.1553  0.9586 -0.8505
 1400SOL    HW215660   4.534   3.755   6.180 -0.2957  0.3171 -0.0147
 1401SOL     OW15661   4.555   4.380   8.336  0.1933 -0.2644  0.4804
 1401SOL    HW115662   4.509   4.316   8.390  2.7727 -0.4636  2.4521
 1401SOL    HW215663   4.494   4.393   8.264  0.3675  0.7459  0.5103
 1402SOL     OW15664   3.754   4.480   4.792  0.4735 -0.0431  0.3072
 1402SOL    HW115665   3.669   4.514   4.818 -0.6970 -2.8362  0.1192
 1402SOL    HW215666   3.727   4.390   4.772  0.0731 -0.6748  3.7594
 1403SOL     OW15667   1.076   1.204  10.477  0.0243  0.5907  0.5512
 1403SOL    HW115668   0.989   1.185  10.513 -0.0132 -0.3724 -0.0475
 1403SOL    HW215669   1.120   1.253  10.546 -1.7529 -1.0628  2.8527
 1404SOL     OW15670   4.352   0.548   6.074  0.2446  0.5547 -0.4459
 1404SOL    HW115671   4.258   0.567   6.081  0.1343 -0.1693  0.0425
 1404SOL    HW215672   4.354   0.470   6.129 -1.8597 -0.0056 -1.1641
 1405SOL     OW15673   3.676   2.670   1.416  0.0801  0.2877 -0.2658
 1405SOL    HW115674   3.702   2.626   1.335  1.7787 -1.2581  1.1355
 1405SOL    HW215675   3.761   2.681   1.459 -0.8879 -1.6461  2.1287
 1406SOL     OW15676   0.766   2.460  12.663  0.1579  0.3629  0.7534
 1406SOL    HW115677   0.838   2.433  12.606  0.8265 -0.1442  1.8496
 1406SOL    HW215678   0.711   2.381  12.661 -0.5352  0.8436  0.6541
 1407SOL     OW15679   2.794   3.514  10.891 -0.5275  0.2199 -0.8218
 1407SOL    HW115680   2.803   3.586  10.828  0.5101 -0.0441 -0.9794
 1407SOL    HW215681   2.838   3.447  10.838  2.5113  1.3167  0.3430
 1408SOL     OW15682   2.087   0.854   2.469 -0.4052  0.2049 -0.3187
 1408SOL    HW115683   2.081   0.829   2.377  0.3350 -0.1447 -0.2770
 1408SOL    HW215684   1.994   0.847   2.489 -0.2152  0.4602  0.6393
 1409SOL     OW15685   2.566   4.677   3.913 -0.9861 -0.1995  0.2442
 1409SOL    HW115686   2.655   4.643   3.920 -0.8409  0.2756  0.6540
 1409SOL    HW215687   2.552   4.678   3.818 -2.2703 -1.8440  0.3960
 1410SOL     OW15688   0.195   1.335  16.976  0.1286  0.0190  0.5310
 1410SOL    HW115689   0.182   1.245  16.945  0.6399 -0.6323  2.2204
 1410SOL    HW215690   0.290   1.342  16.965  0.4181  0.4152  3.3224
 1411SOL     OW15691   1.589   1.017   2.601  0.0300  0.6875 -0.0353
 1411SOL    HW115692   1.509   1.054   2.564  0.2752  1.3726  0.1074
 1411SOL    HW215693   1.576   0.928   2.571 -1.1457  1.0285 -0.4969
 1412SOL     OW15694   4.678   3.603  12.847  0.2657  0.4831  0.1899
 1412SOL    HW115695   0.036   3.599  12.900  1.0215 -1.2248 -1.0906
 1412SOL    HW215696   4.642   3.690  12.863  3.4095  1.5577  1.3818
 1413SOL     OW15697   0.034   0.367  17.207 -0.0658  0.2467 -0.7379
 1413SOL    HW115698   4.721   0.352  17.295 -0.5067  0.7977 -0.8149
 1413SOL    HW215699   0.129   0.356  17.215 -0.0252  2.1169  1.2973
 1414SOL     OW15700   1.246   1.494   2.888 -0.1215 -0.1076  0.0793
 1414SOL    HW115701   1.192   1.572   2.902 -1.6406 -1.2289  0.5174
 1414SOL    HW215702   1.200   1.466   2.809  0.7040  0.5983 -0.6578
 1415SOL     OW15703   0.604   0.280  12.594 -0.1848 -0.6010 -0.0516
 1415SOL    HW115704   0.673   0.288  12.660  0.2914  2.3776 -0.9451
 1415SOL    HW215705   0.547   0.212  12.630 -1.0968  0.3405  0.2772
 1416SOL     OW15706   2.242   0.181  14.218  0.3596  0.7662 -0.1470
 1416SOL    HW115707   2.320   0.223  14.184  0.2272  0.5961 -0.6588
 1416SOL    HW215708   2.263   0.090  14.199 -1.1342  0.5704 -0.8928
 1417SOL     OW15709   0.702   1.129   4.435  0.0474  0.3087 -0.5996
 1417SOL    HW115710   0.787   1.087   4.422 -0.5446 -0.9524 -0.4137
 1417SOL    HW215711   0.672   1.076   4.509  0.2513  1.5823  0.3932
 1418SOL     OW15712   0.920   0.652  12.905 -0.3885  0.0138  0.2051
 1418SOL    HW115713   0.826   0.667  12.916 -0.3966  0.4068 -0.3919
 1418SOL    HW215714   0.947   0.689  12.989 -1.0774  0.2575  0.3155
 1419SOL     OW15715   1.079   3.600   9.226  0.3719  0.2873 -0.1425
 1419SOL    HW115716   1.080   3.690   9.260 -0.4663 -0.8435  2.8077
 1419SOL    HW215717   0.988   3.576   9.236  0.2141  0.9347  0.0100
 1420SOL     OW15718   4.053   3.268   4.200 -0.5764  0.0493 -0.5632
 1420SOL    HW115719   4.000   3.345   4.223  0.5202  0.2904  1.2451
 1420SOL    HW215720   4.006   3.195   4.239 -1.2144  1.7050  1.8156
 1421SOL     OW15721   0.764   1.017   6.055  0.2471  0.4017 -0.1090
 1421SOL    HW115722   0.824   0.983   6.122 -0.9044  0.0381  0.7486
 1421SOL    HW215723   0.757   1.108   6.085 -0.7338  0.2119  0.2573
 1422SOL     OW15724   4.562   1.051   7.833  0.1284  0.1329 -0.5143
 1422SOL    HW115725   4.583   0.965   7.868 -1.9601  0.0728  0.5852
 1422SOL    HW215726   4.481   1.018   7.794  0.5970 -2.0575  0.3353
 1423SOL     OW15727   0.577   1.202   7.615  0.6527 -0.4281  0.1383
 1423SOL    HW115728   0.624   1.138   7.669  0.1510 -0.0951  0.9564
 1423SOL    HW215729   0.496   1.202   7.665  1.1876  0.9128  0.9966
 1424SOL     OW15730   0.632   1.501   6.244  0.1830 -0.4076 -0.1964
 1424SOL    HW115731   0.570   1.574   6.254  0.5978 -0.2442  1.1781
 1424SOL    HW215732   0.674   1.513   6.329  2.7283 -0.6995 -1.4344
 1425SOL     OW15733   2.228   4.283   2.203 -0.0872 -0.1783  0.4809
 1425SOL    HW115734   2.250   4.292   2.295  3.0322  0.1855 -0.2966
 1425SOL    HW215735   2.311   4.309   2.162 -0.0256 -1.7381 -0.3593
 1426SOL     OW15736   2.178   2.524   4.376 -0.1413  0.0200  0.1618
 1426SOL    HW115737   2.216   2.445   4.338 -2.3009 -0.5789 -0.7093
 1426SOL    HW215738   2.100   2.534   4.323  0.1058  1.5309  0.0943
 1427SOL     OW15739   1.548   1.137   8.570 -0.1174 -0.2014  0.2261
 1427SOL    HW115740   1.622   1.113   8.515  0.2493 -3.2420  2.0164
 1427SOL    HW215741   1.586   1.202   8.629  0.9630 -0.1285 -0.5671
 1428SOL     OW15742   3.552   2.309   2.055 -0.2754  0.1976  0.3938
 1428SOL    HW115743   3.571   2.243   1.988  0.7663  0.3697  0.5201
 1428SOL    HW215744   3.458   2.314   2.043  0.0337  2.1322 -1.2702
 1429SOL     OW15745   1.916   0.791  15.151  0.2757 -0.2409 -0.0151
 1429SOL    HW115746   1.917   0.712  15.204 -0.6471 -1.5460 -1.9554
 1429SOL    HW215747   1.945   0.859  15.212 -1.4465  0.4430  0.0586
 1430SOL     OW15748   4.272   3.248  10.664 -0.0425  0.2358 -0.6341
 1430SOL    HW115749   4.259   3.343  10.670  1.2299  0.2720  1.4882
 1430SOL    HW215750   4.288   3.242  10.570  1.3993 -1.9432 -0.2385
 1431SOL     OW15751   1.125   2.487   3.484 -0.5967  0.2822 -0.7040
 1431SOL    HW115752   1.150   2.421   3.419  0.7929 -0.3791  0.5183
 1431SOL    HW215753   1.047   2.451   3.526  1.1916  0.3425  2.6017
 1432SOL     OW15754   0.688   1.011   3.980 -0.4301  0.7285 -0.2242
 1432SOL    HW115755   0.614   1.072   3.982 -1.5980 -0.7820  2.0498
 1432SOL    HW215756   0.741   1.076   3.932  1.6344 -0.4733  0.4191
 1433SOL     OW15757   3.031   1.298  17.253 -0.2395  0.2191 -0.0535
 1433SOL    HW115758   3.018   1.320  17.161  2.9976  0.3744 -0.4538
 1433SOL    HW215759   3.120   1.264  17.246  0.8439  3.1334 -0.4201
 1434SOL     OW15760   4.295   2.769   0.412 -0.1300  0.6688  0.3080
 1434SOL    HW115761   4.335   2.819   0.482 -1.9020 -0.6779  2.2612
 1434SOL    HW215762   4.375   2.721   0.390 -0.9478 -0.5229 -0.1086
 1435SOL     OW15763   1.974   1.988   3.890 -0.0264 -0.4511 -0.2326
 1435SOL    HW115764   1.984   2.052   3.960 -2.2360  0.0897 -0.4048
 1435SOL    HW215765   2.038   2.014   3.824  0.3893  0.6747  0.6291
 1436SOL     OW15766   4.196   2.975   9.374  0.2359  0.2940 -0.2406
 1436SOL    HW115767   4.261   2.999   9.440 -1.5753  0.2446  1.5758
 1436SOL    HW215768   4.250   2.916   9.321 -0.1041 -0.8459  0.6699
 1437SOL     OW15769   3.539   3.703   2.468  0.2761 -0.0088  0.1819
 1437SOL    HW115770   3.609   3.718   2.531 -1.9606  1.2397  2.3517
 1437SOL    HW215771   3.512   3.786   2.429 -0.4673 -0.2139  0.2649
 1438SOL     OW15772   2.619   4.589   3.248  0.0179 -0.3969 -0.4745
 1438SOL    HW115773   2.661   4.505   3.230 -0.5282 -0.8708  0.4781
 1438SOL    HW215774   2.564   4.565   3.323 -2.6849  0.8793 -2.0597
 1439SOL     OW15775   2.772   0.992   0.065 -0.2296  0.4135  0.3326
 1439SOL    HW115776   2.780   0.970  17.660  2.8626  2.4762  0.1255
 1439SOL    HW215777   2.864   0.987   0.092 -0.5531 -0.1845  1.3356
 1440SOL     OW15778   0.806   2.868   3.486  1.0288 -0.7450  0.1162
 1440SOL    HW115779   0.811   2.813   3.564 -0.2837 -1.7102 -0.4761
 1440SOL    HW215780   0.898   2.890   3.474  0.7910  1.4565  2.3385
 1441SOL     OW15781   1.176   1.193   5.494  0.2906 -0.1250  0.4976
 1441SOL    HW115782   1.128   1.273   5.514  2.1076  0.9233  0.6709
 1441SOL    HW215783   1.107   1.135   5.460  2.7650 -1.3590 -2.4145
 1442SOL     OW15784   2.971   3.934  10.354  0.9844 -0.1639 -0.2119
 1442SOL    HW115785   2.923   3.949  10.272  0.4179 -2.2954 -0.2573
 1442SOL    HW215786   3.004   3.848  10.331  0.5449 -0.4042  0.0622
 1443SOL     OW15787   3.010   3.256   2.313 -0.1315 -0.2448  0.4431
 1443SOL    HW115788   3.100   3.278   2.339 -0.8085  1.4445  1.2927
 1443SOL    HW215789   2.994   3.193   2.383 -0.1135  2.4587  2.8532
 1444SOL     OW15790   1.019   3.574   8.873  0.5226 -0.2811 -0.0647
 1444SOL    HW115791   1.067   3.504   8.918  1.0522  0.0323 -0.1362
 1444SOL    HW215792   1.062   3.564   8.788 -1.6943 -0.3553 -1.1499
 1445SOL     OW15793   2.469   4.265   5.464 -0.0510 -0.4154 -0.0317
 1445SOL    HW115794   2.487   4.348   5.509 -1.5161 -0.8695  1.3831
 1445SOL    HW215795   2.459   4.203   5.536  0.8727 -1.6372 -0.9544
 1446SOL     OW15796   4.650   0.619   5.698  0.2499 -0.1736 -0.2862
 1446SOL    HW115797   4.694   0.541   5.664  2.0006  0.5469  0.3308
 1446SOL    HW215798   4.630   0.589   5.786 -0.8493 -0.4190 -0.6172
 1447SOL     OW15799   4.253   1.967  13.204 -0.2025 -0.0792 -0.0294
 1447SOL    HW115800   4.269   2.050  13.249  1.2115 -1.6312  2.3182
 1447SOL    HW215801   4.279   1.906  13.273  0.4648 -1.6688 -1.6963
 1448SOL     OW15802   2.562   0.435  16.818  0.1393 -0.1025  0.3177
 1448SOL    HW115803   2.517   0.441  16.734  0.6373  1.6640  0.1732
 1448SOL    HW215804   2.499   0.371  16.851 -0.5740  0.6492  0.4172
 1449SOL     OW15805   3.587   3.080   2.245  0.1559  0.0765  0.5043
 1449SOL    HW115806   3.617   3.161   2.205  0.5238  0.4392  1.5120
 1449SOL    HW215807   3.668   3.042   2.278 -0.7222 -0.9322  1.5196
 1450SOL     OW15808   1.744   2.550  14.177  0.4380  0.2802  0.2571
 1450SOL    HW115809   1.716   2.640  14.158 -1.0054  0.1724  1.8361
 1450SOL    HW215810   1.681   2.502  14.124 -1.8342  3.4670  0.0387
 1451SOL     OW15811   4.528   3.311  12.240 -0.4551  0.7072 -0.0693
 1451SOL    HW115812   4.471   3.308  12.317 -0.3733  2.0657  0.0449
 1451SOL    HW215813   4.489   3.389  12.201  0.5292  1.6383  0.8230
 1452SOL     OW15814   4.573   1.219   9.525 -0.2315  0.0484  0.3678
 1452SOL    HW115815   4.635   1.150   9.502  0.1175  1.3547 -2.4891
 1452SOL    HW215816   4.605   1.251   9.610  1.0223 -0.5283  0.1161
 1453SOL     OW15817   1.614   4.603   8.152  0.0486  0.0545 -0.1363
 1453SOL    HW115818   1.524   4.593   8.184 -0.8514 -0.0834 -2.6378
 1453SOL    HW215819   1.620   4.526   8.095  2.8353  0.1695 -0.0118
 1454SOL     OW15820   2.995   1.591   8.008  0.1571  0.0447  0.2036
 1454SOL    HW115821   3.053   1.571   8.082  1.6204 -1.4234 -1.3435
 1454SOL    HW215822   3.028   1.676   7.979 -0.6142  0.6188  1.0011
 1455SOL     OW15823   4.175   4.307   8.294  0.1606 -0.0190  0.0550
 1455SOL    HW115824   4.224   4.351   8.363 -2.3268  3.1287 -0.1301
 1455SOL    HW215825   4.096   4.361   8.289  0.6978  0.7116 -0.8390
 1456SOL     OW15826   1.997   3.145   4.418  0.0442  0.1787  0.2099
 1456SOL    HW115827   1.989   3.083   4.346  0.0105  0.7488 -0.2808
 1456SOL    HW215828   1.933   3.211   4.391  0.3316  0.6921  0.7728
 1457SOL     OW15829   0.876   0.889   4.862 -0.1317 -0.5864  0.2929
 1457SOL    HW115830   0.875   0.871   4.768  1.6282  0.5845  0.0390
 1457SOL    HW215831   0.968   0.913   4.876 -1.0283  2.1305  1.4865
 1458SOL     OW15832   1.233   3.233  12.964  1.0611 -0.5121  0.0374
 1458SOL    HW115833   1.327   3.225  12.984  0.4109 -1.5659  2.7460
 1458SOL    HW215834   1.217   3.139  12.956 -3.7075  0.1921  1.5848
 1459SOL     OW15835   4.270   3.475   3.168  0.3547 -0.1217 -0.4112
 1459SOL    HW115836   4.245   3.439   3.083 -0.1017  1.8416 -1.0991
 1459SOL    HW215837   4.189   3.502   3.211  1.0610  0.7030  0.4112
 1460SOL     OW15838   0.185   1.515   4.857  0.3084  0.3331 -0.4699
 1460SOL    HW115839   0.174   1.420   4.850 -1.2276  0.6066 -1.9060
 1460SOL    HW215840   0.273   1.523   4.894  1.4114 -0.4296 -2.9000
 1461SOL     OW15841   0.824   0.772   7.578 -0.3346 -0.1252 -0.0373
 1461SOL    HW115842   0.848   0.681   7.558 -1.5156 -0.6404  0.8639
 1461SOL    HW215843   0.859   0.779   7.667  4.1528  1.1613 -1.9277
 1462SOL     OW15844   3.813   3.871   0.742 -0.0413 -0.4183 -0.6093
 1462SOL    HW115845   3.783   3.882   0.652 -2.0150  1.5637  0.2670
 1462SOL    HW215846   3.818   3.960   0.778 -1.0987 -0.5355 -0.1608
 1463SOL     OW15847   1.661   1.470   9.900 -0.0042  0.3604  0.1072
 1463SOL    HW115848   1.612   1.416   9.838 -2.4369 -0.6107  2.8438
 1463SOL    HW215849   1.596   1.531   9.934 -0.3747 -0.4832  0.8997
 1464SOL     OW15850   2.200   2.246   7.449 -0.2106 -0.2674  0.1354
 1464SOL    HW115851   2.109   2.224   7.468  0.1895  0.5403  2.9393
 1464SOL    HW215852   2.220   2.163   7.405 -2.2054 -1.0539  0.6810
 1465SOL     OW15853   3.884   3.644   1.845 -0.3566 -0.0031  0.0804
 1465SOL    HW115854   3.905   3.738   1.852  2.7618 -0.7092  0.3543
 1465SOL    HW215855   3.971   3.608   1.828 -1.3837 -2.9474  1.0389
 1466SOL     OW15856   0.657   2.932   9.243 -1.0109  0.5377 -0.0111
 1466SOL    HW115857   0.575   2.940   9.291 -1.1164  1.8181 -0.4226
 1466SOL    HW215858   0.623   2.949   9.155  0.3468 -2.4638 -1.1269
 1467SOL     OW15859   1.518   3.236   7.187  0.4618 -0.2906 -0.3725
 1467SOL    HW115860   1.592   3.185   7.152 -0.1015  0.1601 -2.2391
 1467SOL    HW215861   1.555   3.255   7.273  2.2513 -1.4346 -0.8901
 1468SOL     OW15862   1.354   2.797   7.790  0.3175  0.3661 -0.5624
 1468SOL    HW115863   1.339   2.865   7.724  1.6220  0.2924 -0.9235
 1468SOL    HW215864   1.285   2.815   7.854  2.5265  0.7578  1.6874
 1469SOL     OW15865   3.033   2.478  11.518 -0.3764 -0.6459  0.0399
 1469SOL    HW115866   2.999   2.493  11.429 -0.5043  0.8739  0.3491
 1469SOL    HW215867   3.062   2.387  11.518  0.4775 -0.3718  0.5026
 1470SOL     OW15868   3.285   0.480   4.958  0.4051 -0.1800 -0.5495
 1470SOL    HW115869   3.245   0.400   4.924  0.1340 -0.6283  0.8219
 1470SOL    HW215870   3.378   0.466   4.944  0.0215 -2.2662 -0.9282
 1471SOL     OW15871   1.626   2.447   8.504  0.4462 -0.3781  0.4101
 1471SOL    HW115872   1.557   2.389   8.472  1.0345 -0.4514 -0.7219
 1471SOL    HW215873   1.628   2.527   8.452 -0.5183 -0.0999  0.8030
 1472SOL     OW15874   2.938   2.914  13.615  0.0162  0.0190  0.2217
 1472SOL    HW115875   3.019   2.881  13.653 -0.1104 -0.9376 -0.3458
 1472SOL    HW215876   2.906   2.849  13.552  0.1694  0.3709 -0.2185
 1473SOL     OW15877   2.452   0.134  15.721 -0.4929 -0.1294  0.0271
 1473SOL    HW115878   2.524   0.129  15.658  0.1895 -1.3997  0.9286
 1473SOL    HW215879   2.444   0.225  15.751 -0.3682  0.2464 -1.0773
 1474SOL     OW15880   2.327   4.288  15.152  0.8780  0.0701  0.4827
 1474SOL    HW115881   2.291   4.277  15.065 -2.3782  0.9352  1.7238
 1474SOL    HW215882   2.415   4.314  15.124 -0.1970 -0.5843 -3.4513
 1475SOL     OW15883   4.181   1.970   6.798 -0.4566  0.0081 -0.3356
 1475SOL    HW115884   4.224   1.902   6.850 -0.8655  0.2283  0.2972
 1475SOL    HW215885   4.257   2.025   6.783 -1.9084  1.7333 -1.3332
 1476SOL     OW15886   2.588   3.992  10.603 -0.0871  0.1070  0.3032
 1476SOL    HW115887   2.558   4.046  10.676 -1.7414 -1.0835  0.4975
 1476SOL    HW215888   2.571   4.057  10.535 -0.6586 -0.0087  0.3369
 1477SOL     OW15889   0.290   3.412   6.395 -0.0796  0.0467 -0.7143
 1477SOL    HW115890   0.319   3.489   6.347  0.1039  1.4442  1.5940
 1477SOL    HW215891   0.300   3.448   6.483 -2.3174 -1.3477  0.1217
 1478SOL     OW15892   3.631   3.575   5.891 -1.0166  0.0828 -0.2808
 1478SOL    HW115893   3.616   3.660   5.931  1.9578  1.3569 -1.8990
 1478SOL    HW215894   3.702   3.539   5.944 -2.2095 -0.0577  1.2008
 1479SOL     OW15895   1.948   1.150   6.895 -0.3187  0.6261  0.5366
 1479SOL    HW115896   1.951   1.175   6.987 -0.3713 -0.6763  0.8897
 1479SOL    HW215897   1.927   1.057   6.901  0.4450  0.2704 -2.3176
 1480SOL     OW15898   4.250   4.001   8.695  0.2360  0.2695  0.2082
 1480SOL    HW115899   4.210   4.078   8.736 -0.5628 -1.0892  2.0006
 1480SOL    HW215900   4.338   4.002   8.734  0.9860  0.4946 -1.5039
 1481SOL     OW15901   3.688   1.039   2.980  0.2146 -0.3747  0.2010
 1481SOL    HW115902   3.719   0.948   2.974 -0.4690 -0.6889  1.4621
 1481SOL    HW215903   3.699   1.060   2.887 -0.8476  1.3892  0.4771
 1482SOL     OW15904   2.022   0.319   4.486  0.0232 -0.3531  0.0334
 1482SOL    HW115905   1.964   0.389   4.514 -0.9684 -1.1451 -0.0732
 1482SOL    HW215906   2.047   0.357   4.402  0.3829  0.4729  0.5136
 1483SOL     OW15907   3.503   3.034   0.903 -0.2960  0.8441  0.8254
 1483SOL    HW115908   3.518   3.033   0.998 -1.3291  2.3819  1.0077
 1483SOL    HW215909   3.583   3.063   0.858 -0.0215 -0.7429  0.3025
 1484SOL     OW15910   1.110   0.994  11.344 -0.6196  0.6345  0.3319
 1484SOL    HW115911   1.164   1.029  11.273 -1.9528  1.1768 -0.4226
 1484SOL    HW215912   1.044   0.941  11.298  0.0935  2.3688 -2.6449
 1485SOL     OW15913   0.408   3.345  15.339  0.1437 -0.2546 -0.5727
 1485SOL    HW115914   0.460   3.401  15.282  1.9120 -1.7550 -0.4344
 1485SOL    HW215915   0.447   3.260  15.317 -1.0618 -0.5907 -1.4414
 1486SOL     OW15916   1.803   1.040   8.967  0.2043  0.0959 -0.6059
 1486SOL    HW115917   1.874   1.043   9.032 -0.0291 -0.0559 -0.3428
 1486SOL    HW215918   1.729   1.046   9.027 -0.9344 -2.3686 -1.7668
 1487SOL     OW15919   0.935   3.210   5.265  0.2185  0.0471  0.0251
 1487SOL    HW115920   0.954   3.291   5.313 -0.4719 -0.7030  1.5723
 1487SOL    HW215921   0.866   3.177   5.322 -1.2657  1.4873 -0.9419
 1488SOL     OW15922   1.905   4.572   9.538 -0.2354  0.3499  0.3841
 1488SOL    HW115923   1.830   4.542   9.589 -0.5160 -2.2684 -1.5645
 1488SOL    HW215924   1.939   4.485   9.516 -0.7103 -0.2851  2.1802
 1489SOL     OW15925   0.965   4.474  17.499  0.0182  0.0580  0.0073
 1489SOL    HW115926   1.043   4.424  17.523 -1.0638 -1.8411 -0.4498
 1489SOL    HW215927   0.968   4.472  17.403 -0.0858 -1.5770  0.0383
 1490SOL     OW15928   1.709   0.522  11.745  0.0664 -0.2697 -1.3522
 1490SOL    HW115929   1.694   0.436  11.707 -1.0669 -0.6975  0.0935
 1490SOL    HW215930   1.626   0.569  11.739  0.3150  0.4119  0.4938
 1491SOL     OW15931   4.167   0.722  15.898  0.6926  0.2313 -0.3121
 1491SOL    HW115932   4.138   0.811  15.878  1.6809  0.4655 -0.6844
 1491SOL    HW215933   4.170   0.694  15.807  0.1380  1.9029 -0.8357
 1492SOL     OW15934   1.041   1.662   8.545 -0.4307 -0.4998  0.0868
 1492SOL    HW115935   0.975   1.632   8.608  0.8781 -2.4167  0.5403
 1492SOL    HW215936   1.027   1.757   8.546  0.5185 -0.3642 -0.1611
 1493SOL     OW15937   3.348   2.393   1.459 -0.0965  0.2140 -0.4044
 1493SOL    HW115938   3.427   2.375   1.409 -0.6677  1.0095 -1.5851
 1493SOL    HW215939   3.385   2.417   1.544  1.3188  2.7303 -1.7365
 1494SOL     OW15940   4.376   3.999  14.837  0.0167 -0.2221  0.1067
 1494SOL    HW115941   4.310   4.014  14.770 -0.5306 -0.7902  0.5187
 1494SOL    HW215942   4.458   4.000  14.787 -0.3141 -0.8813 -0.4486
 1495SOL     OW15943   2.612   0.309  16.224  0.1554 -0.8022 -0.3406
 1495SOL    HW115944   2.549   0.380  16.239  2.6346  1.3067  0.0177
 1495SOL    HW215945   2.600   0.323  16.130  0.3120  0.7324 -0.1229
 1496SOL     OW15946   3.194   2.194  12.598  0.3171  0.5751  0.3609
 1496SOL    HW115947   3.123   2.247  12.563  0.7210  1.0261  0.2216
 1496SOL    HW215948   3.169   2.190  12.690 -0.7704  2.7980  0.1413
 1497SOL     OW15949   3.966   1.993   2.746  0.1596  0.1573 -0.1068
 1497SOL    HW115950   3.969   1.904   2.781  0.8360 -0.4349 -1.6830
 1497SOL    HW215951   3.904   2.034   2.805 -0.6270 -0.5215 -0.4600
 1498SOL     OW15952   4.616   2.539   2.658 -0.3336 -0.1165  0.9376
 1498SOL    HW115953   4.629   2.579   2.572 -1.8205  1.4213  1.4232
 1498SOL    HW215954   4.651   2.612   2.710  1.1015  0.8001 -1.3285
 1499SOL     OW15955   2.623   2.352  16.187  0.3456 -0.5140  0.4465
 1499SOL    HW115956   2.550   2.339  16.248  0.6128 -0.7067  0.7244
 1499SOL    HW215957   2.669   2.277  16.224 -1.6742 -1.9409  0.0914
 1500SOL     OW15958   1.839   1.285  12.296  0.1750 -0.6599  0.2258
 1500SOL    HW115959   1.861   1.378  12.301 -0.2431 -0.4993 -0.9082
 1500SOL    HW215960   1.796   1.278  12.210  0.8785 -0.7947 -0.1143
 1501SOL     OW15961   0.580   0.588   7.310  1.6523 -0.4043  0.0811
 1501SOL    HW115962   0.541   0.509   7.273  2.1302 -0.4836 -0.2541
 1501SOL    HW215963   0.613   0.630   7.231  1.7698  1.6910  1.2346
 1502SOL     OW15964   1.628   3.900   1.618 -0.3003 -0.2139 -0.0051
 1502SOL    HW115965   1.590   3.868   1.536  1.3412 -1.2272 -0.3691
 1502SOL    HW215966   1.683   3.974   1.590 -1.3239  0.8876  0.8611
 1503SOL     OW15967   4.245   1.788   3.742 -0.5505  0.1383  0.2941
 1503SOL    HW115968   4.307   1.834   3.686 -0.0150 -1.5868 -0.5173
 1503SOL    HW215969   4.287   1.703   3.754  0.1632  0.0667 -2.9009
 1504SOL     OW15970   1.349   2.145  14.707 -0.4173 -0.7037 -0.2412
 1504SOL    HW115971   1.318   2.070  14.657  0.1509  0.4569 -2.3403
 1504SOL    HW215972   1.429   2.172  14.662 -0.7872 -1.1046 -1.1366
 1505SOL     OW15973   3.693   4.125   1.340 -0.1085  0.0333  0.3763
 1505SOL    HW115974   3.689   4.136   1.435 -0.6345  0.0869  0.3488
 1505SOL    HW215975   3.611   4.076   1.330  1.0464 -1.6385 -0.8669
 1506SOL     OW15976   1.333   0.391   3.834 -0.2638 -0.2059 -0.8423
 1506SOL    HW115977   1.418   0.416   3.870 -0.0216 -1.2211 -0.7254
 1506SOL    HW215978   1.289   0.474   3.814  0.7387  1.0542  2.2398
 1507SOL     OW15979   1.066   0.271   7.132 -0.5488  0.0444  0.2064
 1507SOL    HW115980   1.085   0.364   7.122  3.6515 -0.9964 -1.7747
 1507SOL    HW215981   0.976   0.273   7.101 -0.4491 -1.8624 -0.2002
 1508SOL     OW15982   1.085   0.516   6.742 -0.4820  0.0262  0.2385
 1508SOL    HW115983   0.993   0.541   6.744 -0.5372 -0.1935  0.5606
 1508SOL    HW215984   1.083   0.438   6.798  1.9706  0.7468  1.3379
 1509SOL     OW15985   2.672   3.596   1.668 -0.6311 -0.0776  0.1298
 1509SOL    HW115986   2.649   3.592   1.761 -0.8460  0.7758  0.1109
 1509SOL    HW215987   2.643   3.686   1.651  2.2589  0.3574 -2.5833
 1510SOL     OW15988   0.902   4.447   7.351  0.5861  0.5914  0.0272
 1510SOL    HW115989   0.884   4.535   7.383  0.4015  0.4235  0.3743
 1510SOL    HW215990   0.941   4.466   7.265  0.2997 -0.7837 -0.3971
 1511SOL     OW15991   0.283   3.200   8.476  0.3166 -0.2833 -0.4175
 1511SOL    HW115992   0.262   3.164   8.390  1.2981  0.3091 -0.9031
 1511SOL    HW215993   0.377   3.184   8.484  0.2809  0.5095  1.6891
 1512SOL     OW15994   2.554   1.194   1.303  0.1627  0.0557  0.2751
 1512SOL    HW115995   2.480   1.190   1.363  1.0007 -0.5930  1.2798
 1512SOL    HW215996   2.587   1.280   1.328 -2.6192  1.2217 -0.0561
 1513SOL     OW15997   4.397   0.984   3.101 -0.0069 -0.6804 -0.7202
 1513SOL    HW115998   4.454   0.969   3.176 -3.6559 -1.7652  1.8022
 1513SOL    HW215999   4.453   0.969   3.024 -0.1121 -0.7160 -0.7898
 1514SOL     OW16000   0.426   2.683   3.046  0.1195 -0.2904 -0.0183
 1514SOL    HW116001   0.400   2.656   2.957 -0.0845  0.9441 -0.3359
 1514SOL    HW216002   0.348   2.730   3.074 -0.5720 -2.7241  2.1676
 1515SOL     OW16003   3.618   0.729   5.958 -0.2912 -0.3176  0.3447
 1515SOL    HW116004   3.539   0.728   6.012 -0.9088  0.3333 -0.5580
 1515SOL    HW216005   3.667   0.662   6.007 -0.8134 -1.8979 -1.2801
 1516SOL     OW16006   2.536   1.194   1.936  0.4920 -0.1485  0.6154
 1516SOL    HW116007   2.620   1.203   1.891 -0.6157 -0.8857 -1.6152
 1516SOL    HW216008   2.558   1.239   2.018 -1.8122  2.6509 -0.3060
 1517SOL     OW16009   4.433   0.829   5.353 -0.2446 -1.0001 -0.8037
 1517SOL    HW116010   4.412   0.824   5.447 -1.4196  1.6375 -0.9476
 1517SOL    HW216011   4.528   0.814   5.353 -0.0577  0.2302 -0.7309
 1518SOL     OW16012   1.091   4.257   5.762  0.3311  0.0483  0.5487
 1518SOL    HW116013   1.149   4.181   5.759  0.3428  0.1051 -0.8601
 1518SOL    HW216014   1.103   4.300   5.677 -2.6820 -3.4772 -1.6608
 1519SOL     OW16015   4.163   1.325   6.643 -0.4240  0.4685  0.3958
 1519SOL    HW116016   4.099   1.355   6.579  1.0054  2.8920  0.0708
 1519SOL    HW216017   4.227   1.275   6.592 -0.5742  2.4576 -1.7192
 1520SOL     OW16018   4.519   2.529   8.916 -0.1813  0.0650  0.6814
 1520SOL    HW116019   4.532   2.622   8.937  1.4446 -0.2284  0.9912
 1520SOL    HW216020   4.590   2.518   8.853 -1.3180 -0.7024 -0.4629
 1521SOL     OW16021   2.488   1.767  11.800  0.7040  0.4561  0.4093
 1521SOL    HW116022   2.488   1.775  11.704 -0.0142  1.0641  0.4610
 1521SOL    HW216023   2.580   1.743  11.814  1.4870  2.0075 -2.1093
 1522SOL     OW16024   2.959   3.748  13.096  0.2987 -0.4520 -0.1172
 1522SOL    HW116025   3.025   3.807  13.134 -2.1091 -0.3676  3.8981
 1522SOL    HW216026   2.881   3.803  13.110 -0.2188 -0.8934 -1.2450
 1523SOL     OW16027   1.311   3.677  14.532  0.4548  0.0098 -0.8901
 1523SOL    HW116028   1.241   3.738  14.555 -1.2033 -1.8360 -1.0254
 1523SOL    HW216029   1.390   3.727  14.553 -0.4476 -0.0787  2.6302
 1524SOL     OW16030   4.117   2.917   2.409  0.1759  0.2138  0.0758
 1524SOL    HW116031   4.095   2.980   2.340  0.5635  1.3729  1.0100
 1524SOL    HW216032   4.100   2.978   2.481 -1.9387 -0.0568 -0.1859
 1525SOL     OW16033   4.019   2.292   1.842 -0.4837 -0.4188 -0.2481
 1525SOL    HW116034   4.078   2.356   1.882  0.9697 -1.4587 -0.7405
 1525SOL    HW216035   3.966   2.356   1.794 -0.8980 -1.3499 -1.0192
 1526SOL     OW16036   3.083   2.605  14.799  0.1919 -0.8465  0.0791
 1526SOL    HW116037   2.999   2.570  14.770 -0.1841 -0.1293  0.3229
 1526SOL    HW216038   3.126   2.519  14.808 -0.0009 -1.0302 -0.7684
 1527SOL     OW16039   0.024   0.179   2.656  0.8858 -0.2739  0.1205
 1527SOL    HW116040   4.685   0.155   2.726  0.7155 -1.2239 -0.3452
 1527SOL    HW216041   0.059   0.257   2.699 -0.3176 -0.3984  1.3041
 1528SOL     OW16042   4.361   1.093   1.530  0.3285  0.5051  0.1964
 1528SOL    HW116043   4.404   1.123   1.610  3.5395 -1.8416 -0.6674
 1528SOL    HW216044   4.421   1.021   1.511  0.0488  0.5509 -0.8589
 1529SOL     OW16045   0.959   0.351  12.232  0.4575 -0.0251 -0.3814
 1529SOL    HW116046   0.951   0.446  12.237 -0.9327 -0.2531  1.8601
 1529SOL    HW216047   0.926   0.322  12.318  0.2531 -1.9549 -1.1140
 1530SOL     OW16048   2.841   4.011   8.763  0.1795  0.3379 -0.0968
 1530SOL    HW116049   2.920   3.993   8.712  1.4772  0.3616  1.9114
 1530SOL    HW216050   2.879   4.070   8.829  0.1268  0.0190  0.2142
 1531SOL     OW16051   1.237   0.520  11.818 -0.4900  0.2418 -0.0177
 1531SOL    HW116052   1.194   0.435  11.804  0.1538  0.1372 -1.4336
 1531SOL    HW216053   1.166   0.584  11.817  1.1278  2.0693  2.0146
 1532SOL     OW16054   3.178   0.730  12.715 -0.5835  0.7838  0.0850
 1532SOL    HW116055   3.189   0.824  12.702  2.5471  0.2602 -1.0317
 1532SOL    HW216056   3.148   0.699  12.629 -1.3707  3.0370 -0.4600
 1533SOL     OW16057   0.111   1.681   1.898  0.1491  0.7712  0.1454
 1533SOL    HW116058   0.129   1.686   1.804 -0.9005  0.0309 -0.0927
 1533SOL    HW216059   0.029   1.729   1.911 -1.0549 -1.1424 -0.3936
 1534SOL     OW16060   4.239   1.080   0.081 -0.1112 -0.2451 -0.3528
 1534SOL    HW116061   4.256   1.154   0.023  0.0102 -0.1597 -0.2091
 1534SOL    HW216062   4.316   1.088   0.137 -0.3387  2.5717 -0.4138
 1535SOL     OW16063   4.634   3.178   6.172 -0.0389 -0.0682 -0.5061
 1535SOL    HW116064   4.694   3.194   6.245 -1.9514 -1.1066  1.3080
 1535SOL    HW216065   4.579   3.255   6.189 -0.9056 -0.1808 -2.7575
 1536SOL     OW16066   1.588   2.138   6.513 -0.5739 -0.1407  0.6816
 1536SOL    HW116067   1.501   2.177   6.508 -0.3105  0.6256  2.3421
 1536SOL    HW216068   1.634   2.222   6.520 -0.2935 -0.0908 -1.5028
 1537SOL     OW16069   3.368   4.097  15.549 -0.1804 -0.1289  0.0555
 1537SOL    HW116070   3.344   4.106  15.641 -0.2752 -0.6425  0.0774
 1537SOL    HW216071   3.346   4.005  15.537 -0.6229 -0.0846  0.5385
 1538SOL     OW16072   0.296   3.274   5.977  0.3942 -0.1794  0.0570
 1538SOL    HW116073   0.271   3.218   6.051 -0.6202 -0.8158 -0.7635
 1538SOL    HW216074   0.390   3.255   5.971  0.7493  1.6802 -0.1586
 1539SOL     OW16075   2.356   2.791   7.191 -0.1546 -0.0483  0.5161
 1539SOL    HW116076   2.423   2.846   7.151 -1.8984  0.4621 -1.7425
 1539SOL    HW216077   2.369   2.707   7.147  2.5708 -0.0984  1.4641
 1540SOL     OW16078   3.301   2.117   6.142  0.1248 -0.0951  0.5097
 1540SOL    HW116079   3.370   2.169   6.103  1.3297 -1.0783  1.3401
 1540SOL    HW216080   3.332   2.030   6.117  0.1604  0.7034 -2.1713
 1541SOL     OW16081   3.008   4.578   9.139  0.1943  0.2903 -0.1882
 1541SOL    HW116082   3.036   4.661   9.102  0.1170 -0.2058 -1.3768
 1541SOL    HW216083   3.045   4.520   9.072 -0.2994 -1.5619  1.1431
 1542SOL     OW16084   1.278   4.715   9.844  0.1489  0.3463 -0.6898
 1542SOL    HW116085   1.297   0.018   9.754  2.4738 -3.0022 -1.1264
 1542SOL    HW216086   1.188   0.026   9.849 -0.2541 -0.7394 -0.8526
 1543SOL     OW16087   1.723   1.875   3.146 -0.0512  0.1428 -0.1782
 1543SOL    HW116088   1.817   1.888   3.161  0.0835 -0.3398 -0.6283
 1543SOL    HW216089   1.674   1.946   3.188 -0.0636  0.1448 -0.1961
 1544SOL     OW16090   2.427   2.998   0.774 -0.6487 -0.1955 -0.2523
 1544SOL    HW116091   2.453   2.985   0.865  0.2646  0.8339 -0.3687
 1544SOL    HW216092   2.389   3.086   0.769 -1.2026 -0.3865  0.5440
 1545SOL     OW16093   3.854   3.044  13.183  0.2527 -0.2143 -0.1912
 1545SOL    HW116094   3.893   3.129  13.162  0.6534 -0.3979 -0.1909
 1545SOL    HW216095   3.766   3.066  13.153 -0.1398 -2.5861 -0.7383
 1546SOL     OW16096   0.651   3.255   2.989  0.1758  0.1206 -0.0470
 1546SOL    HW116097   0.637   3.171   2.946  1.0406 -0.4168  0.7289
 1546SOL    HW216098   0.557   3.275   2.996 -0.2244 -2.4915  2.1453
 1547SOL     OW16099   0.754   4.649   3.146  0.2304  0.2116 -0.5786
 1547SOL    HW116100   0.743   0.008   3.197 -1.5349 -0.0029 -0.6557
 1547SOL    HW216101   0.668   4.644   3.106  0.5395  0.9382 -1.3344
 1548SOL     OW16102   2.350   3.947   7.510 -0.3227 -0.0113  0.4663
 1548SOL    HW116103   2.297   4.027   7.499  1.8877  1.4971  0.7717
 1548SOL    HW216104   2.437   3.977   7.484  0.5601 -1.6699  1.5198
 1549SOL     OW16105   4.686   3.476   0.524 -0.4747 -0.3394  0.6128
 1549SOL    HW116106   4.718   3.556   0.566  0.6837  0.0623 -1.0156
 1549SOL    HW216107   0.006   3.411   0.581 -0.8637 -2.4570 -1.5271
 1550SOL     OW16108   3.489   0.732   1.776 -0.0460 -0.3381  0.3806
 1550SOL    HW116109   3.428   0.768   1.712 -1.1874 -0.3495  1.4695
 1550SOL    HW216110   3.575   0.736   1.733 -0.6783  1.0869 -0.7484
 1551SOL     OW16111   3.340   1.991   5.547 -0.1537  0.2297 -0.4558
 1551SOL    HW116112   3.333   2.001   5.642  1.0500 -0.4315 -0.3081
 1551SOL    HW216113   3.424   1.954   5.521  0.6507  2.0318 -0.4609
 1552SOL     OW16114   2.851   1.848   2.010 -0.7090 -0.1733 -0.2864
 1552SOL    HW116115   2.781   1.783   2.019 -0.7120 -0.2848 -1.0514
 1552SOL    HW216116   2.920   1.790   1.975  1.3608 -0.4479  4.3170
 1553SOL     OW16117   2.839   4.466   4.797  0.4481 -0.1984  0.1085
 1553SOL    HW116118   2.810   4.551   4.831  1.7537  1.1176 -2.0649
 1553SOL    HW216119   2.792   4.463   4.714 -1.6870  0.5140  1.2982
 1554SOL     OW16120   4.432   2.616  12.413  0.0549 -0.0734  0.0392
 1554SOL    HW116121   4.487   2.693  12.399  0.2437 -0.0219  1.0784
 1554SOL    HW216122   4.498   2.546  12.420  1.8530  1.8688  2.7705
 1555SOL     OW16123   0.046   3.977   8.855  0.4734  0.4982  0.1254
 1555SOL    HW116124   0.104   3.965   8.780 -0.2054  2.3809 -0.7116
 1555SOL    HW216125   0.104   4.024   8.916 -0.3110 -0.6704  1.7635
 1556SOL     OW16126   1.188   0.923  17.069  0.4955  0.6641 -0.3583
 1556SOL    HW116127   1.274   0.900  17.105  0.3804  2.7919  1.2141
 1556SOL    HW216128   1.218   0.982  17.000  0.8772 -1.0614 -1.6824
 1557SOL     OW16129   0.222   3.778   2.553  0.2312 -0.4870 -0.8470
 1557SOL    HW116130   0.297   3.732   2.590  1.7020  2.0471 -0.7216
 1557SOL    HW216131   0.219   3.858   2.604  2.8393 -1.1356  0.2885
 1558SOL     OW16132   2.674   1.839   7.758 -0.2333  0.3413 -0.2935
 1558SOL    HW116133   2.646   1.928   7.736 -1.3949 -0.4038 -1.8644
 1558SOL    HW216134   2.643   1.840   7.848 -1.4140  3.1146 -0.7200
 1559SOL     OW16135   2.399   3.179   9.724 -0.2863 -0.2273 -0.2536
 1559SOL    HW116136   2.404   3.272   9.705 -0.4367 -0.1530  0.0708
 1559SOL    HW216137   2.389   3.139   9.637 -2.2396 -0.5890  0.1262
 1560SOL     OW16138   1.043   1.496   3.908  0.1950 -0.6745 -0.0693
 1560SOL    HW116139   1.138   1.507   3.918 -0.0123  0.5158  0.6067
 1560SOL    HW216140   1.027   1.402   3.910 -0.2956 -0.5398  1.9555
 1561SOL     OW16141   3.439   0.514   0.833  0.4660 -0.6691  0.3169
 1561SOL    HW116142   3.507   0.510   0.766 -1.0254  0.5674 -1.2568
 1561SOL    HW216143   3.424   0.421   0.850  1.1851 -0.4711  1.9992
 1562SOL     OW16144   0.987   0.623  11.794 -0.6612  0.1616  0.3083
 1562SOL    HW116145   0.934   0.665  11.726  2.5582  2.9443 -0.5065
 1562SOL    HW216146   0.962   0.535  11.767 -0.6651 -0.7317  3.1830
 1563SOL     OW16147   2.458   0.250   4.809 -0.7832  0.3160  0.5272
 1563SOL    HW116148   2.376   0.257   4.759 -2.0016  1.1873  2.5939
 1563SOL    HW216149   2.523   0.271   4.743  0.4807  0.4000  1.7847
 1564SOL     OW16150   3.850   1.101   5.973 -0.5626 -0.3606 -0.6701
 1564SOL    HW116151   3.767   1.054   5.970  1.3561 -3.8524  1.4304
 1564SOL    HW216152   3.837   1.183   5.924  2.3852  0.1729 -0.5729
 1565SOL     OW16153   2.721   3.835  12.392 -0.1264  0.0198 -0.2107
 1565SOL    HW116154   2.750   3.854  12.302 -0.7250  1.8464 -0.0216
 1565SOL    HW216155   2.788   3.776  12.426 -1.1332 -1.9633 -1.6431
 1566SOL     OW16156   1.910   3.996   2.019  0.0079  0.0080  0.4141
 1566SOL    HW116157   1.822   3.964   2.042 -0.2763  0.5171  0.0211
 1566SOL    HW216158   1.953   3.915   2.046  0.6129  0.5131  0.9464
 1567SOL     OW16159   3.150   1.317  14.377 -0.1908 -0.7238 -0.6244
 1567SOL    HW116160   3.219   1.290  14.438 -0.3343 -1.1802 -0.6622
 1567SOL    HW216161   3.085   1.348  14.440 -2.9678 -2.7973 -2.4652
 1568SOL     OW16162   1.798   4.445   2.222 -0.0694 -0.6803 -0.2304
 1568SOL    HW116163   1.870   4.434   2.160 -0.0186 -0.4345 -0.2156
 1568SOL    HW216164   1.839   4.402   2.298  1.1946  3.3389  1.3916
 1569SOL     OW16165   4.119   1.037   3.073  0.2323 -0.1381  0.1964
 1569SOL    HW116166   4.119   1.118   3.123  0.4594 -0.5664  0.8818
 1569SOL    HW216167   4.212   1.014   3.079  0.1621  0.2934  2.7164
 1570SOL     OW16168   3.676   2.799   3.577 -0.1367 -0.0666  0.1559
 1570SOL    HW116169   3.769   2.810   3.594 -0.0167 -0.2040 -0.4265
 1570SOL    HW216170   3.663   2.706   3.599  1.3851 -0.2513  0.2366
 1571SOL     OW16171   2.571   3.965   1.871  0.1240 -0.2477 -0.2556
 1571SOL    HW116172   2.587   4.055   1.842 -2.5436  0.1917 -0.3632
 1571SOL    HW216173   2.662   3.950   1.897 -0.2899 -1.6415  0.3731
 1572SOL     OW16174   1.323   2.735   7.311 -0.3714  0.4143  0.5254
 1572SOL    HW116175   1.415   2.740   7.284  0.3488 -1.1565  2.7349
 1572SOL    HW216176   1.284   2.669   7.254 -0.3181  2.5669 -1.9890
 1573SOL     OW16177   1.008   0.272  15.934 -0.2917  0.0684  0.3170
 1573SOL    HW116178   0.939   0.286  15.869  0.8713 -0.3444 -1.0247
 1573SOL    HW216179   1.027   0.362  15.962  1.2461 -0.3200  0.5662
 1574SOL     OW16180   3.237   0.346  17.484  0.2790 -0.0216  0.5877
 1574SOL    HW116181   3.322   0.370  17.523  0.2631  0.2906  0.4273
 1574SOL    HW216182   3.192   0.430  17.494 -2.3110 -1.5423  1.5472
 1575SOL     OW16183   0.656   3.361   0.633 -0.1949 -0.4590 -0.1809
 1575SOL    HW116184   0.626   3.317   0.553 -2.5141  0.0489  0.4132
 1575SOL    HW216185   0.653   3.455   0.611  1.2129 -0.6787 -1.3339
 1576SOL     OW16186   2.479   3.865   6.951  0.1160 -0.2132 -0.1697
 1576SOL    HW116187   2.524   3.784   6.977 -0.6466 -0.7673 -0.5794
 1576SOL    HW216188   2.411   3.870   7.018  0.4825  0.3233  0.1615
 1577SOL     OW16189   3.896   4.189   8.649  0.1601 -0.5178 -0.1713
 1577SOL    HW116190   3.991   4.203   8.646 -0.2793  2.9211  2.0867
 1577SOL    HW216191   3.878   4.223   8.736 -0.6301  1.4158 -1.0930
 1578SOL     OW16192   1.925   0.524  15.014 -0.0715  0.4756  1.0181
 1578SOL    HW116193   1.849   0.480  15.052 -0.5295  1.2039  0.9605
 1578SOL    HW216194   1.989   0.537  15.084  1.6040  0.1949 -0.4786
 1579SOL     OW16195   3.411   2.453   6.865 -0.4214  0.5121 -0.4523
 1579SOL    HW116196   3.400   2.360   6.848  2.3794 -0.1383  1.1790
 1579SOL    HW216197   3.417   2.463   6.960 -0.4279 -2.8150 -0.0965
 1580SOL     OW16198   1.850   0.668  17.582  0.1134  0.1161 -0.7332
 1580SOL    HW116199   1.865   0.741  17.522  3.4305  1.0302  1.2698
 1580SOL    HW216200   1.895   0.707  17.656 -0.8607  1.1299 -0.6787
 1581SOL     OW16201   4.625   0.548   3.079  0.0657  0.3031  0.8187
 1581SOL    HW116202   4.694   0.532   3.143  0.7114 -3.0921 -0.7344
 1581SOL    HW216203   4.624   0.643   3.085 -0.3499  0.3961 -0.8202
 1582SOL     OW16204   3.162   2.707   3.974  0.3615 -0.3041 -0.1508
 1582SOL    HW116205   3.256   2.688   3.975  0.4050  0.0094  2.4102
 1582SOL    HW216206   3.164   2.802   3.987 -0.1738  0.0431 -2.6099
 1583SOL     OW16207   0.487   0.235   7.976 -0.0867 -0.3776  0.2578
 1583SOL    HW116208   0.513   0.200   8.061  1.4338 -0.3488 -0.2012
 1583SOL    HW216209   0.482   0.154   7.926  0.2637 -0.9859  1.2033
 1584SOL     OW16210   2.876   3.762   5.905 -0.3433 -0.3026 -0.3441
 1584SOL    HW116211   2.828   3.768   5.823 -5.9535 -0.6697  2.8787
 1584SOL    HW216212   2.876   3.853   5.935  0.6739 -0.2335 -0.5651
 1585SOL     OW16213   0.504   2.645   9.194 -0.0477 -0.1130  0.0785
 1585SOL    HW116214   0.563   2.716   9.169  1.0392 -1.7953 -2.0673
 1585SOL    HW216215   0.557   2.580   9.240  0.4104  0.9059  0.9923
 1586SOL     OW16216   3.880   3.107  15.135  0.2440 -0.9561  0.1126
 1586SOL    HW116217   3.974   3.117  15.123 -0.1238 -1.1027 -2.8484
 1586SOL    HW216218   3.861   3.191  15.178  0.1484 -0.5823 -0.6516
 1587SOL     OW16219   1.144   1.226   8.174  0.3839 -0.4078 -0.8013
 1587SOL    HW116220   1.162   1.302   8.230  0.3609  0.1512 -1.5641
 1587SOL    HW216221   1.051   1.223   8.196  0.3016  1.5809 -0.9519
 1588SOL     OW16222   3.408   0.618   1.379 -0.7092 -0.0013  0.0273
 1588SOL    HW116223   3.422   0.604   1.285 -0.5781 -1.2119  0.2265
 1588SOL    HW216224   3.480   0.670   1.416 -1.5289  1.0043  0.1887
 1589SOL     OW16225   0.099   1.763  11.040  0.2728 -0.6132  0.1581
 1589SOL    HW116226   0.117   1.857  11.041 -1.9971 -0.1769 -1.8593
 1589SOL    HW216227   0.091   1.727  11.128  0.2932 -3.1579 -0.8744
 1590SOL     OW16228   0.205   3.882  12.202 -0.4759  0.0179 -0.1916
 1590SOL    HW116229   0.159   3.807  12.239 -1.7433  1.3461  0.9048
 1590SOL    HW216230   0.243   3.842  12.123 -0.8993 -0.3374 -0.2168
 1591SOL     OW16231   0.410   3.619   7.803  0.1147 -0.2603  0.0545
 1591SOL    HW116232   0.500   3.623   7.772  0.3052 -0.1523  0.6255
 1591SOL    HW216233   0.415   3.633   7.897  2.4241 -0.4236 -0.0641
 1592SOL     OW16234   0.113   3.708   3.956 -0.1067 -0.0216  0.1124
 1592SOL    HW116235   0.032   3.713   4.006 -0.5998 -1.8931 -0.5048
 1592SOL    HW216236   0.127   3.803   3.959  1.6939 -0.2223 -1.6245
 1593SOL     OW16237   0.572   2.490   4.130  0.2689 -0.1425  0.0742
 1593SOL    HW116238   0.666   2.479   4.145  0.6202  0.1917 -1.8743
 1593SOL    HW216239   0.539   2.474   4.218 -1.4988 -1.5632 -0.8624
 1594SOL     OW16240   3.912   2.455   3.886  0.3560 -0.0303 -0.0885
 1594SOL    HW116241   3.891   2.371   3.928  3.0209  0.5875  2.4212
 1594SOL    HW216242   3.839   2.508   3.917  0.8516  0.6189 -0.0473
 1595SOL     OW16243   1.360   0.614   9.431 -0.4149  0.0409 -0.8456
 1595SOL    HW116244   1.422   0.630   9.361  0.7520 -1.3328 -0.1459
 1595SOL    HW216245   1.397   0.668   9.501 -0.5035 -1.2553  0.2089
 1596SOL     OW16246   1.610   4.074   7.613  0.2060 -0.4738  0.3288
 1596SOL    HW116247   1.530   4.036   7.578 -1.3942  1.4156  1.8597
 1596SOL    HW216248   1.645   4.003   7.667  0.3221 -1.2057 -0.7300
 1597SOL     OW16249   4.539   0.172   4.827 -0.3066  0.2880  0.1672
 1597SOL    HW116250   4.513   0.209   4.742 -0.7460 -1.9731 -0.6793
 1597SOL    HW216251   4.454   0.145   4.862  0.3332 -2.7603 -0.6310
 1598SOL     OW16252   4.265   3.171  11.446  0.0539 -0.6924  0.0239
 1598SOL    HW116253   4.327   3.121  11.499 -1.3715 -2.0260  0.4230
 1598SOL    HW216254   4.241   3.244  11.503 -0.5379 -0.4290 -0.5613
 1599SOL     OW16255   0.174   1.374  11.353 -0.2280  0.3150  0.1049
 1599SOL    HW116256   0.175   1.391  11.448 -4.0337  2.8977 -0.3077
 1599SOL    HW216257   0.096   1.318  11.352 -0.8212  1.1403 -0.0915
 1600SOL     OW16258   2.089   3.336   5.692  0.1257  0.2184  0.4744
 1600SOL    HW116259   2.109   3.263   5.750  0.4042 -0.2212 -0.1745
 1600SOL    HW216260   2.172   3.382   5.687 -0.9916  2.1143 -0.5319
 1601SOL     OW16261   3.949   3.788  14.351  0.2458  0.0187  0.3340
 1601SOL    HW116262   3.861   3.808  14.384  0.1344 -2.2384  1.4356
 1601SOL    HW216263   3.990   3.764  14.435  0.5947 -0.5183  0.0089
 1602SOL     OW16264   4.486   0.411   3.966  0.4670  0.3000  0.1158
 1602SOL    HW116265   4.521   0.344   3.909  0.3328  1.9938 -1.9621
 1602SOL    HW216266   4.451   0.477   3.905 -0.0500 -2.8405 -2.9462
 1603SOL     OW16267   2.252   1.267   0.694 -0.6889 -0.4007  0.0771
 1603SOL    HW116268   2.299   1.244   0.613 -1.8551 -0.3300 -0.6121
 1603SOL    HW216269   2.202   1.343   0.664 -1.1191 -0.9149 -0.5184
 1604SOL     OW16270   1.368   3.593   1.597 -0.3932  0.0504 -0.2346
 1604SOL    HW116271   1.347   3.591   1.690 -1.1158 -0.5333 -0.4083
 1604SOL    HW216272   1.339   3.503   1.584  1.4445 -0.9172  2.5104
 1605SOL     OW16273   3.593   2.574   4.540  0.6502 -0.2439  0.3344
 1605SOL    HW116274   3.515   2.565   4.485  0.7121 -1.7123  0.4994
 1605SOL    HW216275   3.577   2.652   4.593 -0.3166 -0.3145  0.1419
 1606SOL     OW16276   3.708   1.870   0.003 -0.3224 -0.3733  0.0109
 1606SOL    HW116277   3.752   1.886  17.607 -2.1807 -0.5976 -1.0151
 1606SOL    HW216278   3.662   1.953   0.007 -0.8079 -0.5765 -1.5242
 1607SOL     OW16279   2.927   0.663   6.933  0.2493  0.4659  0.6014
 1607SOL    HW116280   2.836   0.693   6.924 -0.2497 -1.9416 -2.4857
 1607SOL    HW216281   2.973   0.720   6.870  1.1310 -0.9629 -0.0303
 1608SOL     OW16282   0.801   2.935  10.707 -0.2429  0.7632  0.4420
 1608SOL    HW116283   0.797   3.008  10.645 -1.3347  1.5131  1.3959
 1608SOL    HW216284   0.892   2.905  10.713  0.2828  1.7907 -2.3055
 1609SOL     OW16285   1.204   4.240  11.324 -0.1536 -0.3273 -0.0734
 1609SOL    HW116286   1.142   4.219  11.394 -0.3537  2.4257  0.5840
 1609SOL    HW216287   1.276   4.276  11.376  0.2125  0.5852 -1.2280
 1610SOL     OW16288   0.349   3.140  13.968 -0.0798  0.1182 -0.1386
 1610SOL    HW116289   0.308   3.224  13.950 -1.6964 -0.7868 -0.7148
 1610SOL    HW216290   0.282   3.093  14.017  1.5759 -1.5123  0.6035
 1611SOL     OW16291   1.690   4.561   3.354 -0.0595 -0.3641 -0.3427
 1611SOL    HW116292   1.625   4.531   3.418 -0.5455  2.9443  0.7200
 1611SOL    HW216293   1.653   4.519   3.276 -0.3833  0.0027 -0.3881
 1612SOL     OW16294   3.347   0.251  14.741 -0.1931  0.3554 -0.1823
 1612SOL    HW116295   3.357   0.176  14.682  0.2305 -0.5649  1.0681
 1612SOL    HW216296   3.263   0.229  14.782  0.1314  0.8261  0.7482
 1613SOL     OW16297   0.574   1.308   9.004  0.0109 -0.1400 -0.0568
 1613SOL    HW116298   0.482   1.285   8.995  0.4926 -1.7548 -0.7930
 1613SOL    HW216299   0.563   1.403   9.011  1.0320 -0.1172  1.4634
 1614SOL     OW16300   3.353   3.114  12.317  0.1558 -0.0332 -0.2218
 1614SOL    HW116301   3.405   3.093  12.240 -0.2965 -0.6475 -0.3584
 1614SOL    HW216302   3.400   3.069  12.387 -0.6267  0.6798  0.7658
 1615SOL     OW16303   2.392   3.870   3.437  0.1554 -0.3012  0.0421
 1615SOL    HW116304   2.423   3.941   3.381 -2.6635 -0.2349 -1.4411
 1615SOL    HW216305   2.437   3.897   3.516  0.5625 -0.7106 -0.0512
 1616SOL     OW16306   0.648   3.248  17.508 -0.2238 -0.2341 -0.4916
 1616SOL    HW116307   0.633   3.293  17.425 -0.1349  0.3488 -0.1882
 1616SOL    HW216308   0.625   3.319  17.567 -0.5939 -0.7107 -0.0613
 1617SOL     OW16309   2.229   2.784   8.587  0.1631 -0.1960 -1.0333
 1617SOL    HW116310   2.309   2.792   8.535  1.0270  1.7035  0.6193
 1617SOL    HW216311   2.254   2.760   8.676 -1.0809 -0.6254 -0.7929
 1618SOL     OW16312   3.257   3.884  16.983  0.4955 -0.0432 -0.4826
 1618SOL    HW116313   3.215   3.814  17.034  0.4060 -1.3274 -2.3341
 1618SOL    HW216314   3.237   3.871  16.890 -1.9004 -0.0869  0.0275
 1619SOL     OW16315   3.872   4.343   3.982  0.0264 -0.6927 -0.0312
 1619SOL    HW116316   3.866   4.430   4.023 -2.0085  0.2186 -2.2800
 1619SOL    HW216317   3.893   4.358   3.890  1.4305  0.0586  0.4018
 1620SOL     OW16318   3.629   2.118   2.686 -0.1129 -0.4375  0.3932
 1620SOL    HW116319   3.676   2.063   2.623 -0.5517 -0.2708 -0.0780
 1620SOL    HW216320   3.580   2.049   2.731  0.2463 -0.8581  0.1422
 1621SOL     OW16321   0.530   2.778   3.709 -0.0391  0.1746  0.0716
 1621SOL    HW116322   0.444   2.791   3.749  1.5086  1.3988  2.9793
 1621SOL    HW216323   0.589   2.752   3.779 -0.6365 -1.4507 -0.0179
 1622SOL     OW16324   3.874   3.446   2.087 -0.1050 -0.0662  0.0572
 1622SOL    HW116325   3.833   3.505   2.024  0.7271  1.4394  0.9054
 1622SOL    HW216326   3.936   3.504   2.133  1.3105 -0.9353 -0.7420
 1623SOL     OW16327   4.644   1.625   5.860 -0.1260 -0.6633  0.0936
 1623SOL    HW116328   4.585   1.578   5.800 -2.1206  2.8676 -0.7082
 1623SOL    HW216329   0.006   1.588   5.831 -0.1666 -0.5485 -0.1691
 1624SOL     OW16330   0.770   0.784  13.243 -0.2662 -0.1268 -0.5293
 1624SOL    HW116331   0.725   0.756  13.163 -0.3490  1.4299 -1.0254
 1624SOL    HW216332   0.728   0.868  13.264 -0.9488 -0.3928 -0.8263
 1625SOL     OW16333   3.816   3.000  11.903 -0.4037 -0.4194  0.0921
 1625SOL    HW116334   3.729   2.977  11.870 -1.4627  1.0457  1.8763
 1625SOL    HW216335   3.820   2.939  11.977 -1.0074 -1.2446 -0.5619
 1626SOL     OW16336   0.381   4.083   4.972  0.0690 -0.0610 -0.2500
 1626SOL    HW116337   0.312   4.107   5.035  1.4693  0.1441  1.2169
 1626SOL    HW216338   0.453   4.141   4.998  0.5507 -1.0707  0.6521
 1627SOL     OW16339   0.668   1.221  11.859  0.5318  0.1090 -0.8153
 1627SOL    HW116340   0.747   1.190  11.814  1.6280  0.4460  0.8929
 1627SOL    HW216341   0.671   1.176  11.943 -1.9768 -1.3532 -1.4941
 1628SOL     OW16342   3.695   3.464   3.847 -0.6104  0.0180  0.8508
 1628SOL    HW116343   3.625   3.506   3.797 -2.0713 -1.8061  1.3854
 1628SOL    HW216344   3.637   3.424   3.913 -0.0231 -0.6550  0.9543
 1629SOL     OW16345   0.647   0.217   5.455  0.2306 -0.4117  0.7609
 1629SOL    HW116346   0.658   0.251   5.544 -3.1113 -0.2005  1.1255
 1629SOL    HW216347   0.734   0.232   5.418 -0.3825  2.1979  0.3914
 1630SOL     OW16348   1.561   1.605   1.200 -0.2124  0.2069 -0.2181
 1630SOL    HW116349   1.559   1.563   1.286  0.4866  0.4229 -0.0958
 1630SOL    HW216350   1.655   1.621   1.188 -0.3000  0.0658 -1.0421
 1631SOL     OW16351   2.013   0.034   1.749  0.7595  0.4443  0.3488
 1631SOL    HW116352   2.047   4.696   1.682  0.8837  0.8538  0.0454
 1631SOL    HW216353   1.918   0.019   1.746  0.5516  1.9015 -0.3446
 1632SOL     OW16354   3.213   0.806   3.265 -0.1740 -0.0498 -0.9452
 1632SOL    HW116355   3.216   0.813   3.169 -0.4236 -1.8054 -1.0898
 1632SOL    HW216356   3.185   0.893   3.292 -1.2196 -0.7931  0.3873
 1633SOL     OW16357   1.625   1.419   5.528  0.1398  0.6042  0.1240
 1633SOL    HW116358   1.611   1.373   5.611  1.6862  1.3536  0.8007
 1633SOL    HW216359   1.550   1.380   5.484  0.1272  0.5103  0.2293
 1634SOL     OW16360   0.182   1.344   0.135  0.1496  0.7832  0.2359
 1634SOL    HW116361   0.269   1.324   0.168 -0.2555  0.1440  0.8920
 1634SOL    HW216362   0.176   1.311   0.045  0.7186  1.4794 -0.0569
 1635SOL     OW16363   2.475   2.209   6.754  0.0133  0.4118 -0.6836
 1635SOL    HW116364   2.422   2.182   6.679 -1.5214 -0.0974  0.5984
 1635SOL    HW216365   2.451   2.301   6.763  0.5378  0.1926  2.7389
 1636SOL     OW16366   2.292   4.227   5.070 -0.2215  0.8881 -0.3523
 1636SOL    HW116367   2.291   4.238   5.165  1.1098 -3.9487  0.2550
 1636SOL    HW216368   2.362   4.284   5.038  0.5297 -0.8452 -1.7928
 1637SOL     OW16369   4.706   2.387   9.266  0.0370  0.5982  0.6810
 1637SOL    HW116370   4.621   2.418   9.235  0.0503 -1.1803 -1.1589
 1637SOL    HW216371   4.678   2.333   9.340 -0.1161 -1.0701 -0.5837
 1638SOL     OW16372   2.461   4.019  17.150  0.3532  0.1623 -0.3949
 1638SOL    HW116373   2.438   4.039  17.240  0.3271  0.1643 -0.4021
 1638SOL    HW216374   2.556   4.009  17.164  0.3534  1.2270  0.3397
 1639SOL     OW16375   2.358   0.307   2.753  0.6036 -0.7205 -0.3032
 1639SOL    HW116376   2.353   0.226   2.703 -0.9968 -1.6263  1.3502
 1639SOL    HW216377   2.269   0.326   2.782  1.1266 -0.9927  1.5184
 1640SOL     OW16378   4.652   2.675   2.398  0.3265  0.5376  0.0872
 1640SOL    HW116379   4.701   2.665   2.317 -0.0890  0.3222 -0.1389
 1640SOL    HW216380   4.560   2.660   2.377 -0.3151  2.2527  1.6461
 1641SOL     OW16381   2.878   1.036   7.169 -0.2423  0.1880  0.5530
 1641SOL    HW116382   2.799   1.025   7.115  1.9123 -1.3515 -2.3169
 1641SOL    HW216383   2.831   1.066   7.247 -2.1220 -0.5193 -0.2970
 1642SOL     OW16384   0.447   3.523   6.864 -0.5897  0.1401 -0.0780
 1642SOL    HW116385   0.449   3.593   6.929  0.5862  1.2994 -1.3674
 1642SOL    HW216386   0.368   3.479   6.896 -0.4138 -0.8706 -1.0268
 1643SOL     OW16387   2.422   3.276   5.361 -0.3583 -0.6398  0.1017
 1643SOL    HW116388   2.452   3.320   5.281 -1.2479  2.5139  1.4907
 1643SOL    HW216389   2.346   3.227   5.328 -0.6955  0.7616 -1.2130
 1644SOL     OW16390   3.597   0.554  13.227  0.5229  0.2311  0.5589
 1644SOL    HW116391   3.651   0.483  13.260 -3.2758 -1.6515  2.7975
 1644SOL    HW216392   3.616   0.542  13.134 -1.2172 -0.5027  0.2888
 1645SOL     OW16393   4.235   4.601   5.696 -0.2019 -0.3599 -0.1839
 1645SOL    HW116394   4.171   4.586   5.626  0.2662  1.8140 -1.0738
 1645SOL    HW216395   4.307   4.643   5.649 -0.0530 -0.7221 -0.2818
 1646SOL     OW16396   1.646   2.722   5.645 -0.2503  0.9682 -0.0447
 1646SOL    HW116397   1.675   2.661   5.714  0.3876  0.0150 -1.1488
 1646SOL    HW216398   1.704   2.699   5.573  1.3384  0.6204  1.3290
 1647SOL     OW16399   3.284   1.112  13.967  0.0162 -0.1572  0.0818
 1647SOL    HW116400   3.227   1.120  14.044 -0.6735 -0.5782 -0.3831
 1647SOL    HW216401   3.231   1.051  13.915  2.3380 -1.1380 -1.1246
 1648SOL     OW16402   2.421   4.466   2.706 -0.3417  0.3976  0.2305
 1648SOL    HW116403   2.447   4.406   2.775  0.9082 -0.5278 -1.0579
 1648SOL    HW216404   2.328   4.443   2.696 -0.1988  0.5019 -1.2168
 1649SOL     OW16405   0.059   3.790   4.866 -0.4460 -0.6088 -0.0912
 1649SOL    HW116406   0.117   3.716   4.886  0.6367  0.2931  0.0949
 1649SOL    HW216407   0.079   3.803   4.773  0.9525  0.1914  0.3219
 1650SOL     OW16408   2.721   3.085   0.222 -0.5312 -0.0160 -0.0925
 1650SOL    HW116409   2.736   3.179   0.212 -0.0462 -0.3539 -2.4381
 1650SOL    HW216410   2.697   3.055   0.135 -1.4282 -1.5671  0.6877
 1651SOL     OW16411   3.127   2.016  14.064  0.0526  0.3005 -0.7300
 1651SOL    HW116412   3.034   2.028  14.084  0.2430  1.5890 -0.6413
 1651SOL    HW216413   3.129   1.923  14.039 -2.9716  0.1807 -0.6068
 1652SOL     OW16414   0.336   3.673   8.829  0.8861 -0.1628 -0.3847
 1652SOL    HW116415   0.368   3.758   8.860 -1.2121 -0.0647  1.4969
 1652SOL    HW216416   0.413   3.642   8.781  0.9912  1.5138 -1.3087
 1653SOL     OW16417   2.485   4.364   8.027  0.3387 -0.2001 -0.0001
 1653SOL    HW116418   2.456   4.429   7.964  0.5980  1.4156  1.5479
 1653SOL    HW216419   2.476   4.288   7.970 -0.5676  0.5355 -0.8243
 1654SOL     OW16420   4.028   1.763   3.614 -0.4218 -0.3649 -0.4007
 1654SOL    HW116421   4.101   1.774   3.674 -0.3307 -0.4264 -0.5002
 1654SOL    HW216422   4.061   1.813   3.539 -1.0152  0.3063 -0.2129
 1655SOL     OW16423   2.527   3.169  10.480  0.0515  0.1646 -0.4577
 1655SOL    HW116424   2.440   3.162  10.519 -0.4126  0.2764 -1.4848
 1655SOL    HW216425   2.499   3.155  10.390 -1.4833  0.4328 -0.0246
 1656SOL     OW16426   3.527   4.363   7.606  0.0819 -0.1765  0.1757
 1656SOL    HW116427   3.536   4.419   7.528 -1.0172 -1.9181 -1.2193
 1656SOL    HW216428   3.432   4.356   7.597  0.2141 -2.0345  0.3087
 1657SOL     OW16429   0.432   1.223  11.687 -0.5415  0.0409  0.3700
 1657SOL    HW116430   0.370   1.279  11.732 -2.1461 -2.0340  0.7493
 1657SOL    HW216431   0.484   1.202  11.765 -0.9567 -1.2331  0.3050
 1658SOL     OW16432   1.047   4.119   3.779 -0.1375 -0.0919  0.2939
 1658SOL    HW116433   1.009   4.077   3.857 -0.3859  0.0335  0.2395
 1658SOL    HW216434   1.111   4.054   3.749 -0.7326  0.0312 -1.2668
 1659SOL     OW16435   2.725   0.326   1.091  0.9352 -0.4401  0.0906
 1659SOL    HW116436   2.711   0.249   1.146 -0.5992 -0.2032  0.0346
 1659SOL    HW216437   2.819   0.338   1.103  1.0033 -1.1571  0.2431
 1660SOL     OW16438   4.259   1.506   1.964  0.6941 -0.3901  0.3595
 1660SOL    HW116439   4.204   1.440   1.923  1.2907 -0.3991 -0.4059
 1660SOL    HW216440   4.333   1.497   1.904  1.6279 -0.3109  1.4884
 1661SOL     OW16441   2.752   4.446   0.643 -0.1395  0.2520 -0.1345
 1661SOL    HW116442   2.740   4.444   0.548 -2.4502 -0.3768  0.1667
 1661SOL    HW216443   2.702   4.525   0.665  0.4327  1.0352 -1.6412
 1662SOL     OW16444   2.915   4.468   7.647  0.5822 -0.4567  0.9483
 1662SOL    HW116445   2.888   4.520   7.723 -0.2137  0.0801  0.2933
 1662SOL    HW216446   2.994   4.511   7.616 -1.3769  0.5701 -2.5389
 1663SOL     OW16447   0.204   2.298   1.614  0.2208 -0.0235 -0.0686
 1663SOL    HW116448   0.167   2.213   1.638  0.8054 -0.7850 -1.8131
 1663SOL    HW216449   0.294   2.270   1.629  0.1039 -0.1881  0.3107
 1664SOL     OW16450   0.702   1.092  10.811 -0.7660 -0.9117 -0.3599
 1664SOL    HW116451   0.749   1.030  10.867  0.7942  0.5105 -0.0803
 1664SOL    HW216452   0.647   1.134  10.877 -1.1059 -1.9904  0.0465
 1665SOL     OW16453   4.567   4.291  13.144  0.2985  0.1766  0.6663
 1665SOL    HW116454   4.659   4.318  13.142 -0.7595  3.7062 -2.0701
 1665SOL    HW216455   4.560   4.273  13.050  0.8930 -2.6485  1.1838
 1666SOL     OW16456   3.761   4.063   6.583  0.2812  0.0186  0.4505
 1666SOL    HW116457   3.801   4.018   6.509 -0.1056  0.8905 -0.2828
 1666SOL    HW216458   3.752   4.151   6.547  0.6390 -0.1070  0.0519
 1667SOL     OW16459   1.417   2.019  16.400 -0.2022 -0.0848  0.4941
 1667SOL    HW116460   1.345   2.020  16.462  0.1633  2.3680  0.8539
 1667SOL    HW216461   1.499   2.044  16.443  0.4238 -1.3531  0.0811
 1668SOL     OW16462   4.324   0.394   2.548 -0.7186 -0.3462 -0.3066
 1668SOL    HW116463   4.305   0.301   2.544 -2.4811  0.0653 -1.5215
 1668SOL    HW216464   4.257   0.434   2.493 -0.1847  2.4229  1.0031
 1669SOL     OW16465   2.825   4.556   1.331  0.4044  0.5254  0.3736
 1669SOL    HW116466   2.874   4.489   1.285 -0.0887  1.3467 -1.3451
 1669SOL    HW216467   2.882   4.578   1.405 -0.5324  2.2489  0.5970
 1670SOL     OW16468   4.124   1.609   6.432 -0.1661  0.4820 -0.2319
 1670SOL    HW116469   4.192   1.550   6.398  0.8731  1.3284  0.4214
 1670SOL    HW216470   4.098   1.678   6.371 -0.0150  0.0529 -0.7814
 1671SOL     OW16471   0.529   3.680  10.977 -0.0749  0.2906  0.1566
 1671SOL    HW116472   0.481   3.637  10.906 -0.7017  1.1619  0.0540
 1671SOL    HW216473   0.479   3.762  10.973 -2.1651 -1.0043 -0.0882
 1672SOL     OW16474   1.445   0.178   1.633  1.0527 -0.2851 -1.0129
 1672SOL    HW116475   1.463   0.089   1.665 -1.2981 -0.1917  0.5423
 1672SOL    HW216476   1.524   0.227   1.656  1.7136 -1.3143 -1.0678
 1673SOL     OW16477   0.303   3.370   2.818  0.2561  0.1348 -0.2762
 1673SOL    HW116478   0.223   3.326   2.791 -0.6802  1.8696 -0.3264
 1673SOL    HW216479   0.273   3.456   2.848  0.8363 -0.6305  2.4318
 1674SOL     OW16480   4.076   1.133   1.410  0.1714 -0.4806  0.1599
 1674SOL    HW116481   4.013   1.070   1.446 -2.0792  1.4794 -0.3931
 1674SOL    HW216482   4.145   1.137   1.476  3.2997 -1.9824 -3.0182
 1675SOL     OW16483   4.629   0.487  12.311 -0.0989 -0.1719 -0.4023
 1675SOL    HW116484   4.612   0.504  12.403  2.2716  0.5911 -0.1107
 1675SOL    HW216485   4.672   0.402  12.322 -3.5511 -1.7497  1.0123
 1676SOL     OW16486   2.585   1.164   9.315  0.2562 -0.4608  0.0883
 1676SOL    HW116487   2.678   1.178   9.298 -0.0476  0.0701 -1.0787
 1676SOL    HW216488   2.564   1.257   9.322  1.4334 -0.1402 -0.6065
 1677SOL     OW16489   0.047   0.040   7.937 -0.3345  0.7579 -0.4081
 1677SOL    HW116490   0.131   0.080   7.915  0.0449 -0.4596 -1.1980
 1677SOL    HW216491   0.045   0.056   8.031 -0.8048 -1.9734  0.0450
 1678SOL     OW16492   1.524   2.834   2.489  0.3904  0.2362  0.4150
 1678SOL    HW116493   1.554   2.874   2.571  0.4237 -0.2983  0.6591
 1678SOL    HW216494   1.497   2.751   2.528  0.5546 -0.1637 -0.3206
 1679SOL     OW16495   4.405   1.725  11.095  0.2113  0.1047 -0.1958
 1679SOL    HW116496   4.329   1.781  11.111 -0.5414 -1.3373  1.1995
 1679SOL    HW216497   4.468   1.796  11.079  0.7088 -0.4801 -0.8182
 1680SOL     OW16498   3.088   4.461   0.576  0.4284  0.3585 -0.5004
 1680SOL    HW116499   3.048   4.529   0.629  0.0238 -1.6016  1.7059
 1680SOL    HW216500   3.117   4.406   0.649 -0.5174  2.8740  1.7526
 1681SOL     OW16501   1.395   3.707   3.430  0.0710 -0.9403 -0.2061
 1681SOL    HW116502   1.425   3.723   3.520 -0.3011  0.5930 -0.3438
 1681SOL    HW216503   1.325   3.771   3.419  1.7981  0.4332 -3.2065
 1682SOL     OW16504   4.379   3.215  10.408 -0.1101 -0.1515 -0.4077
 1682SOL    HW116505   4.468   3.196  10.380 -1.4283  0.3023 -4.8164
 1682SOL    HW216506   4.341   3.128  10.396  3.2823 -1.7266  0.5711
 1683SOL     OW16507   4.329   4.434   1.478  0.2539 -0.0653  0.5217
 1683SOL    HW116508   4.415   4.467   1.451  0.5346 -2.0158 -0.9436
 1683SOL    HW216509   4.281   4.513   1.452  0.4983  0.9331  3.0850
 1684SOL     OW16510   0.309   4.145  15.916  0.7161  0.1164  0.3993
 1684SOL    HW116511   0.366   4.076  15.883  0.7494 -0.1738  1.0623
 1684SOL    HW216512   0.309   4.203  15.840  2.4626 -1.3892 -0.7473
 1685SOL     OW16513   3.968   2.181  11.965  0.1612 -0.3786  0.1002
 1685SOL    HW116514   4.029   2.177  11.891  1.8064  1.9272  1.3195
 1685SOL    HW216515   4.023   2.226  12.029 -2.5087 -0.6747  2.6018
 1686SOL     OW16516   4.585   0.551   7.437 -0.2510 -1.0202 -0.1286
 1686SOL    HW116517   4.571   0.462   7.470 -1.4410 -0.5273  0.7005
 1686SOL    HW216518   4.546   0.545   7.350  0.0099  0.4249 -0.3530
 1687SOL     OW16519   3.685   1.839   2.426 -0.5609  0.3822  0.2071
 1687SOL    HW116520   3.765   1.892   2.432 -1.0899  1.0608  1.2989
 1687SOL    HW216521   3.648   1.866   2.342 -1.4480 -2.5404 -0.3405
 1688SOL     OW16522   4.468   2.343   9.113 -0.2010  0.6689 -0.4332
 1688SOL    HW116523   4.503   2.414   9.059 -0.5690  1.6284  0.6049
 1688SOL    HW216524   4.375   2.352   9.092  0.0683 -1.3557 -2.6114
 1689SOL     OW16525   3.016   4.643   7.354  0.6834  0.5594  0.2244
 1689SOL    HW116526   3.024   4.668   7.446 -0.5918 -0.5079  0.6343
 1689SOL    HW216527   3.074   4.566   7.348  0.7022  0.4079  2.3458
 1690SOL     OW16528   0.449   1.924   3.806  0.0853  0.3891  0.3763
 1690SOL    HW116529   0.514   1.865   3.843 -1.6289 -1.0668  1.0888
 1690SOL    HW216530   0.425   1.871   3.729 -0.3586  1.8739 -0.5214
 1691SOL     OW16531   2.853   0.793   2.955 -0.0714  0.0574  0.4831
 1691SOL    HW116532   2.922   0.798   2.889  0.9562  0.8490  1.6075
 1691SOL    HW216533   2.797   0.727   2.915 -0.3573 -0.2782  1.4435
 1692SOL     OW16534   4.177   4.713   4.809 -0.6367 -0.0673 -0.0367
 1692SOL    HW116535   4.244   0.007   4.875 -1.3958 -2.0698  1.1869
 1692SOL    HW216536   4.217   4.669   4.734  1.3599  1.4765  0.1109
 1693SOL     OW16537   2.977   2.683   4.739 -0.2223 -0.1256  0.1120
 1693SOL    HW116538   3.060   2.728   4.754 -0.3815  0.8725 -2.1347
 1693SOL    HW216539   2.927   2.740   4.681 -0.0173  1.6383  1.6904
 1694SOL     OW16540   1.657   3.074   4.737 -0.1319  0.4284  0.5972
 1694SOL    HW116541   1.638   3.092   4.645 -0.0255 -1.1882  0.2484
 1694SOL    HW216542   1.722   3.143   4.747  0.0132  0.4622 -0.6110
 1695SOL     OW16543   0.101   2.400  15.694  0.4335 -0.2531 -0.6403
 1695SOL    HW116544   0.047   2.428  15.620 -0.2922 -0.6795 -0.2741
 1695SOL    HW216545   0.067   2.455  15.765 -1.2242 -2.0832 -0.0096
 1696SOL     OW16546   2.994   3.038   5.906 -0.2069  0.0649  0.7855
 1696SOL    HW116547   3.062   3.062   5.844 -0.8747  0.2965  0.1450
 1696SOL    HW216548   2.983   3.117   5.959 -1.5876 -0.0096  0.6145
 1697SOL     OW16549   4.369   0.320  14.914 -1.1521  0.2731  0.1512
 1697SOL    HW116550   4.289   0.273  14.936 -1.1381  0.5767  0.8366
 1697SOL    HW216551   4.374   0.390  14.978 -2.3083 -1.5861  2.2659
 1698SOL     OW16552   1.505   2.445  14.759  0.3004 -0.0419 -0.1037
 1698SOL    HW116553   1.507   2.533  14.721  1.7001 -0.5662 -1.2190
 1698SOL    HW216554   1.447   2.459  14.834  1.4375  0.5134  0.6573
 1699SOL     OW16555   1.054   1.891   1.045 -0.4236  0.1289  0.5292
 1699SOL    HW116556   0.994   1.962   1.069  0.6951  1.4787 -0.6803
 1699SOL    HW216557   1.081   1.923   0.959  2.0149  1.5271  1.8314
 1700SOL     OW16558   0.514   2.939  11.731  0.2190 -0.1922 -0.0711
 1700SOL    HW116559   0.451   2.895  11.789 -1.6476  1.0636 -1.1537
 1700SOL    HW216560   0.597   2.903  11.764 -0.3845 -1.8680 -0.3749
 1701SOL     OW16561   2.933   3.104   1.170 -0.3231  0.2509  0.2669
 1701SOL    HW116562   2.970   3.028   1.214  1.2477  0.5668 -0.4871
 1701SOL    HW216563   2.908   3.068   1.084  1.2775 -1.1853  0.4041
 1702SOL     OW16564   3.620   1.313   5.315  0.0038  0.0325  0.1316
 1702SOL    HW116565   3.598   1.392   5.265  2.8221 -0.6615 -2.2226
 1702SOL    HW216566   3.583   1.319   5.403  0.1090  1.1237  0.1029
 1703SOL     OW16567   2.980   2.819  16.181 -0.6203  0.6562  0.1682
 1703SOL    HW116568   3.006   2.735  16.219  0.4703  1.1534  0.5400
 1703SOL    HW216569   2.957   2.780  16.097  1.6065  0.1430 -0.2110
 1704SOL     OW16570   0.143   0.920   3.835 -0.0025  0.1814  0.6317
 1704SOL    HW116571   0.192   0.918   3.917  1.5081 -2.9409 -0.3732
 1704SOL    HW216572   0.132   1.015   3.825 -0.3275  0.5571  4.5477
 1705SOL     OW16573   2.168   2.201   3.264 -0.2469 -0.3699  0.2574
 1705SOL    HW116574   2.176   2.230   3.355  1.1060 -0.9188  0.3123
 1705SOL    HW216575   2.191   2.284   3.222  0.3529 -0.0777  1.1580
 1706SOL     OW16576   3.107   3.657  12.191 -0.5254 -0.2292 -0.3793
 1706SOL    HW116577   3.086   3.750  12.199 -1.0356 -0.5190  1.6400
 1706SOL    HW216578   3.182   3.651  12.132 -0.0870 -2.7036  0.4087
 1707SOL     OW16579   2.916   1.296   3.529 -0.3272  0.7414  0.1704
 1707SOL    HW116580   2.916   1.386   3.561  1.8546  0.1244  1.9009
 1707SOL    HW216581   2.975   1.309   3.454  0.4707  1.1788  0.8715
 1708SOL     OW16582   4.172   3.973   1.317 -0.4952  0.0021  0.4058
 1708SOL    HW116583   4.093   3.919   1.326  0.0018 -0.8575 -0.3379
 1708SOL    HW216584   4.144   4.064   1.314  3.3445  1.1335 -0.8626
 1709SOL     OW16585   1.443   0.867   8.047 -0.0961 -0.3106 -0.7316
 1709SOL    HW116586   1.363   0.900   8.088  0.9396 -0.5463  1.4982
 1709SOL    HW216587   1.412   0.808   7.979  0.5518  0.2673 -1.5266
 1710SOL     OW16588   3.706   0.551  11.267  0.3113  0.1695  0.0609
 1710SOL    HW116589   3.671   0.639  11.256  0.7949  0.1694 -1.5336
 1710SOL    HW216590   3.704   0.501  11.185  3.4001 -1.5623  1.0374
 1711SOL     OW16591   1.554   0.052   4.752 -0.4619 -0.1384 -0.1545
 1711SOL    HW116592   1.496   0.128   4.752  1.8871  1.6275  2.0187
 1711SOL    HW216593   1.597   0.074   4.834 -0.3095 -1.0923  0.0220
 1712SOL     OW16594   2.561   0.772   7.986  0.6697 -0.8299  0.3256
 1712SOL    HW116595   2.539   0.848   8.039 -3.7425 -0.6327 -1.8177
 1712SOL    HW216596   2.577   0.706   8.054  1.9238 -0.9641 -0.0968
 1713SOL     OW16597   2.421   3.028   8.521 -0.1352 -0.2173 -0.4121
 1713SOL    HW116598   2.471   2.982   8.588 -1.1932 -0.1210  0.4385
 1713SOL    HW216599   2.487   3.095   8.500  0.6589  0.1059  2.9790
 1714SOL     OW16600   0.869   1.548   4.213 -0.1059 -0.7513 -0.4745
 1714SOL    HW116601   0.779   1.555   4.243  0.1794  2.0451 -0.2427
 1714SOL    HW216602   0.863   1.500   4.130 -0.2304 -1.0724 -0.2786
 1715SOL     OW16603   0.120   2.045  12.513 -0.0038 -0.3303  0.1912
 1715SOL    HW116604   0.081   1.997  12.587  1.0297 -1.5482 -0.0539
 1715SOL    HW216605   0.204   2.002  12.498  0.0646 -0.1743  0.1294
 1716SOL     OW16606   3.885   1.251   5.301 -0.8400 -0.2473  0.1831
 1716SOL    HW116607   3.796   1.249   5.338 -0.7047  0.6251  0.5541
 1716SOL    HW216608   3.886   1.192   5.226  1.7846  0.9874 -0.7243
 1717SOL     OW16609   1.919   2.457   0.984  0.2592  0.2793  0.5803
 1717SOL    HW116610   1.943   2.472   1.075 -0.4680  0.0855  0.8030
 1717SOL    HW216611   1.933   2.546   0.951 -0.6510  0.8536  1.7436
 1718SOL     OW16612   0.163   1.103   0.428 -0.7167  0.1439 -0.4613
 1718SOL    HW116613   0.213   1.022   0.444 -0.5029  0.2944 -0.3549
 1718SOL    HW216614   0.171   1.144   0.514 -0.1828  1.0634 -0.9520
 1719SOL     OW16615   1.140   2.445  15.326 -0.2421  0.1243  0.2679
 1719SOL    HW116616   1.078   2.402  15.384 -0.4885  1.0180  0.6654
 1719SOL    HW216617   1.127   2.384  15.254  2.1951 -0.1877  0.0778
 1720SOL     OW16618   3.679   1.071   2.665 -0.0977  0.0277  0.0248
 1720SOL    HW116619   3.707   1.162   2.663 -2.3495  0.6472 -3.5022
 1720SOL    HW216620   3.758   1.029   2.631  1.1860  1.4608  1.2428
 1721SOL     OW16621   0.410   2.767   5.049  0.0239 -0.8839 -0.0471
 1721SOL    HW116622   0.413   2.715   5.130  2.4258 -1.4657 -0.5147
 1721SOL    HW216623   0.469   2.839   5.069 -0.0612 -0.6697 -0.5705
 1722SOL     OW16624   3.960   3.250   5.247 -0.3426  0.7611  0.2356
 1722SOL    HW116625   3.905   3.204   5.311  0.7527 -1.2640 -0.2968
 1722SOL    HW216626   4.041   3.268   5.296 -0.7419  2.3754  0.3117
 1723SOL     OW16627   0.970   4.447   8.631 -0.0642  0.0968  0.1252
 1723SOL    HW116628   0.886   4.491   8.617 -1.4694 -2.3926  0.7477
 1723SOL    HW216629   0.991   4.482   8.717  0.3983  2.5317 -0.9956
 1724SOL     OW16630   1.722   3.545   9.355 -0.1030 -1.3880  0.1617
 1724SOL    HW116631   1.744   3.456   9.385  0.0853 -1.8082 -1.1992
 1724SOL    HW216632   1.713   3.529   9.261 -0.3124 -1.8535  0.2601
 1725SOL     OW16633   1.155   3.717   3.949  0.1759 -0.4501 -0.5260
 1725SOL    HW116634   1.196   3.659   3.885 -0.2518 -0.4438 -0.8090
 1725SOL    HW216635   1.124   3.649   4.009 -0.1844 -2.1204 -2.5865
 1726SOL     OW16636   3.943   2.790   6.630  0.4519  0.2464  0.1876
 1726SOL    HW116637   3.884   2.864   6.620 -0.0949 -0.1875  0.2137
 1726SOL    HW216638   3.890   2.732   6.685  1.0159 -0.7003 -0.2617
 1727SOL     OW16639   3.601   1.001   5.986 -0.4677  0.3042 -0.0034
 1727SOL    HW116640   3.610   0.906   5.978  1.9409  0.3555  2.0153
 1727SOL    HW216641   3.554   1.008   6.068 -1.9410 -0.4530 -0.7859
 1728SOL     OW16642   2.122   4.053   6.165 -0.3517 -0.0252  0.4514
 1728SOL    HW116643   2.046   4.048   6.222 -0.7827 -0.5914 -0.1638
 1728SOL    HW216644   2.161   3.966   6.174  1.9832  1.0578  0.8592
 1729SOL     OW16645   4.341   1.119   9.755 -0.1015 -0.4929  0.8207
 1729SOL    HW116646   4.247   1.101   9.758 -0.0870 -0.6551  0.2949
 1729SOL    HW216647   4.350   1.182   9.827 -0.8669 -2.6285  2.8024
 1730SOL     OW16648   0.593   1.692   3.821  0.0603  0.4303  0.1710
 1730SOL    HW116649   0.624   1.604   3.804 -1.5600 -0.3502  1.2010
 1730SOL    HW216650   0.665   1.728   3.873  0.5078 -1.3411  0.7491
 1731SOL     OW16651   1.420   1.393   2.678 -0.4863 -0.4605 -0.2996
 1731SOL    HW116652   1.476   1.331   2.724  0.6202 -0.3908 -1.5570
 1731SOL    HW216653   1.336   1.377   2.721 -1.0011 -0.8059 -1.4590
 1732SOL     OW16654   0.475   0.438   5.324 -0.1924 -0.4683 -0.6549
 1732SOL    HW116655   0.512   0.350   5.329 -0.7587 -0.5710  1.5893
 1732SOL    HW216656   0.539   0.490   5.372 -0.5767 -1.5597  1.0655
 1733SOL     OW16657   0.999   2.659   5.199 -0.6707 -0.2699  0.2454
 1733SOL    HW116658   1.039   2.648   5.285 -1.7123 -0.7666  0.6582
 1733SOL    HW216659   1.069   2.696   5.145  1.1566  0.0158  2.8509
 1734SOL     OW16660   1.377   0.750  16.381  0.5257 -0.1246 -0.0428
 1734SOL    HW116661   1.423   0.789  16.456 -1.2800 -0.7154  1.3723
 1734SOL    HW216662   1.313   0.817  16.357  0.9085  0.9438  1.8936
 1735SOL     OW16663   3.415   1.083  15.839  0.7305  0.0069  0.1384
 1735SOL    HW116664   3.353   1.136  15.788  0.7996 -0.1640 -0.1226
 1735SOL    HW216665   3.380   0.999  15.808  0.0221  0.8220 -1.2566
 1736SOL     OW16666   4.173   0.105   7.170 -0.0547 -0.0167 -0.0454
 1736SOL    HW116667   4.215   0.191   7.168 -0.2992  0.1589  2.1722
 1736SOL    HW216668   4.245   0.047   7.146 -0.9673 -0.4984 -1.6605
 1737SOL     OW16669   4.311   3.389   8.898  0.3113 -0.0010 -0.1982
 1737SOL    HW116670   4.247   3.440   8.948 -0.2358 -0.8738 -0.0105
 1737SOL    HW216671   4.325   3.449   8.824  0.0077  0.5474  0.1880
 1738SOL     OW16672   0.567   4.304   1.188  0.3589  0.3751  0.3251
 1738SOL    HW116673   0.475   4.312   1.214  0.3990  2.7864 -0.2349
 1738SOL    HW216674   0.611   4.314   1.272  0.8516 -2.0786  0.3540
 1739SOL     OW16675   4.497   0.561   7.188  0.3008  0.4407 -0.0661
 1739SOL    HW116676   4.560   0.535   7.121 -0.2322  0.5414 -0.6008
 1739SOL    HW216677   4.456   0.640   7.152  1.1641  0.4818 -0.9603
 1740SOL     OW16678   0.424   0.766   6.173  0.1967  0.6653  0.0895
 1740SOL    HW116679   0.518   0.772   6.187  0.7338 -1.1873 -2.8286
 1740SOL    HW216680   0.422   0.705   6.099  3.6466 -0.5825  1.0449
 1741SOL     OW16681   3.238   2.684   4.614  0.3518  0.2068 -0.9684
 1741SOL    HW116682   3.283   2.656   4.534  4.3151 -0.5320  1.5377
 1741SOL    HW216683   3.277   2.637   4.688 -0.3670  0.8347 -0.1925
 1742SOL     OW16684   3.863   4.036   7.389 -0.2645 -0.4743 -0.2336
 1742SOL    HW116685   3.940   3.992   7.352 -0.1428 -1.2474  0.9190
 1742SOL    HW216686   3.898   4.044   7.478  4.1648  3.2739 -2.3078
 1743SOL     OW16687   3.947   3.978   8.085 -0.3465 -0.2681  0.8249
 1743SOL    HW116688   3.986   4.042   8.026 -0.3589 -0.8508  0.1772
 1743SOL    HW216689   3.907   4.040   8.146 -1.2105  0.9765 -1.0424
 1744SOL     OW16690   2.919   4.602  17.254  0.0434 -0.6314 -0.0590
 1744SOL    HW116691   2.855   4.565  17.315 -1.3491  1.1078 -0.4585
 1744SOL    HW216692   2.880   4.690  17.251  0.2104 -0.5955 -1.1624
 1745SOL     OW16693   4.022   1.473  15.332  0.3148  0.1375  0.3737
 1745SOL    HW116694   3.992   1.563  15.320  2.0425  0.4558 -1.4996
 1745SOL    HW216695   3.963   1.428  15.272  1.2885  1.3793 -1.4972
 1746SOL     OW16696   3.292   0.719   7.099  0.0734  0.0907  0.8146
 1746SOL    HW116697   3.359   0.748   7.161  0.1471 -0.1409  0.8412
 1746SOL    HW216698   3.258   0.633   7.119 -1.1075  0.8565  2.0758
 1747SOL     OW16699   1.188   1.687   4.971 -0.2124 -0.4705 -0.1218
 1747SOL    HW116700   1.246   1.763   4.970  3.0509 -2.9978 -0.6275
 1747SOL    HW216701   1.165   1.682   4.878 -1.9527  0.4546  0.2702
 1748SOL     OW16702   4.228   3.258  15.918 -0.1246  0.0559  0.0225
 1748SOL    HW116703   4.316   3.264  15.955 -0.1762 -0.6184  0.2565
 1748SOL    HW216704   4.209   3.344  15.880 -2.4375 -1.0115 -1.2479
 1749SOL     OW16705   4.092   3.662   5.970 -0.1177  0.0784 -0.1286
 1749SOL    HW116706   4.115   3.584   5.919  0.1190  1.6141 -2.3832
 1749SOL    HW216707   4.090   3.616   6.053  2.2989 -0.0423 -0.1211
 1750SOL     OW16708   3.289   2.763   3.563  0.0882 -0.0973  0.4022
 1750SOL    HW116709   3.194   2.774   3.566  0.4155  2.4044  1.7415
 1750SOL    HW216710   3.288   2.674   3.529 -0.9706  0.7203 -1.6766
 1751SOL     OW16711   0.396   0.608   6.477 -0.1329  0.0196 -0.3592
 1751SOL    HW116712   0.338   0.558   6.534  0.3111 -0.4453 -0.3139
 1751SOL    HW216713   0.453   0.538   6.446  0.6587  0.0786  0.9246
 1752SOL     OW16714   2.988   3.017   1.534 -0.3852 -0.0574  0.2602
 1752SOL    HW116715   3.027   2.956   1.471  0.2278  1.6954 -1.0419
 1752SOL    HW216716   2.895   3.030   1.513 -0.4355 -0.2528  0.3601
 1753SOL     OW16717   3.811   3.175   3.173  0.6243  0.3440 -0.7741
 1753SOL    HW116718   3.752   3.101   3.184 -1.1430  1.7647 -0.5752
 1753SOL    HW216719   3.781   3.225   3.097  0.2872  0.7146 -0.4004
 1754SOL     OW16720   3.414   4.698  12.556 -0.2196 -0.6300 -0.3289
 1754SOL    HW116721   3.360   0.029  12.497  0.8351  0.3233 -0.4444
 1754SOL    HW216722   3.353   4.643  12.604 -1.1958  1.8273  1.1991
 1755SOL     OW16723   0.812   3.063   1.109 -0.7665  0.6039  0.7101
 1755SOL    HW116724   0.907   3.069   1.122 -0.6335 -2.0837  0.9450
 1755SOL    HW216725   0.770   3.110   1.180 -0.6425 -1.4467  2.1373
 1756SOL     OW16726   4.690   3.163   5.096  0.2845 -0.8928 -0.0359
 1756SOL    HW116727   4.667   3.080   5.054  1.6196 -0.7689 -1.0085
 1756SOL    HW216728   0.044   3.138   5.148  0.2777  2.4218  1.6035
 1757SOL     OW16729   2.139   2.509   8.600 -0.3349 -0.3202  0.1595
 1757SOL    HW116730   2.129   2.604   8.599  2.4956 -0.0252 -0.9688
 1757SOL    HW216731   2.231   2.505   8.574 -0.8733 -1.8066 -1.5116
 1758SOL     OW16732   0.691   1.165   2.331  0.0971  0.0094 -0.4030
 1758SOL    HW116733   0.747   1.115   2.391  0.4640 -1.1630 -1.7257
 1758SOL    HW216734   0.611   1.114   2.345  1.1336 -1.3830  0.5608
 1759SOL     OW16735   2.884   3.283  10.772 -0.3665 -0.2808 -0.0994
 1759SOL    HW116736   2.907   3.204  10.821  0.7704  0.5309  0.6821
 1759SOL    HW216737   2.829   3.256  10.699 -0.4914  1.4537 -0.6351
 1760SOL     OW16738   3.674   0.792  15.749  0.5074 -0.2142  0.1263
 1760SOL    HW116739   3.733   0.765  15.819 -1.4325  0.5910  2.0501
 1760SOL    HW216740   3.738   0.846  15.701  1.5103 -0.9385  0.6397
 1761SOL     OW16741   0.031   3.032   6.926 -0.0742 -0.3566  0.7621
 1761SOL    HW116742   4.675   3.085   6.906 -0.2913 -0.1220  2.2541
 1761SOL    HW216743   0.087   3.014   6.850  0.1875  1.8283  0.4448
 1762SOL     OW16744   0.901   1.145   5.095  0.0591 -0.4649  0.5218
 1762SOL    HW116745   0.978   1.105   5.057 -0.4162  0.3280 -1.2959
 1762SOL    HW216746   0.882   1.091   5.171 -2.7680  1.1026  0.9639
 1763SOL     OW16747   2.047   2.041   5.296  0.4174  0.2899 -0.1629
 1763SOL    HW116748   1.996   1.982   5.240  1.8898 -2.7126  1.6592
 1763SOL    HW216749   2.128   2.052   5.245 -0.0247 -2.6453 -1.5053
 1764SOL     OW16750   0.170   2.999  13.316  0.0966 -0.1838  0.4047
 1764SOL    HW116751   0.242   3.058  13.339  0.4431 -0.2067 -0.6086
 1764SOL    HW216752   0.220   2.935  13.266 -0.8577 -1.2218  0.7822
 1765SOL     OW16753   0.843   0.483   7.042  0.5122  0.9698  0.2577
 1765SOL    HW116754   0.888   0.509   7.123 -1.2139  1.8640  0.9262
 1765SOL    HW216755   0.814   0.394   7.063 -0.4726  0.8971 -1.4691
 1766SOL     OW16756   0.518   3.255   6.476 -0.1582  1.0092 -0.7483
 1766SOL    HW116757   0.496   3.306   6.399  0.5469 -0.6690 -2.0544
 1766SOL    HW216758   0.594   3.208   6.441 -1.7554 -1.9609 -0.1799
 1767SOL     OW16759   4.379   1.241   8.110  0.1605  0.3447 -0.2098
 1767SOL    HW116760   4.354   1.165   8.056  1.9170 -1.8229  2.0105
 1767SOL    HW216761   4.306   1.262   8.168 -1.5671  0.0718 -2.3008
 1768SOL     OW16762   3.499   0.407   7.199  0.4771  0.0459  0.4336
 1768SOL    HW116763   3.407   0.433   7.196 -0.3784 -2.8177  1.6022
 1768SOL    HW216764   3.500   0.355   7.119  3.3167 -0.3866  0.7291
 1769SOL     OW16765   0.426   1.566   5.661  0.1525  0.0909 -0.4841
 1769SOL    HW116766   0.344   1.570   5.710  0.6359 -0.3206  0.3627
 1769SOL    HW216767   0.477   1.638   5.698 -2.0194  1.5213 -0.2776
 1770SOL     OW16768   2.349   4.397   8.742 -0.2224  0.0504  0.1384
 1770SOL    HW116769   2.437   4.408   8.706 -0.5502  1.2969 -0.2852
 1770SOL    HW216770   2.345   4.305   8.768 -0.3718  0.0080 -0.0350
 1771SOL     OW16771   4.165   0.255   5.143 -0.0568 -0.0202 -0.0389
 1771SOL    HW116772   4.206   0.302   5.216 -0.3282 -1.9200  1.3071
 1771SOL    HW216773   4.211   0.281   5.063  0.8996  1.6194  1.0457
 1772SOL     OW16774   2.137   0.455   3.377  0.0404  0.3834 -0.1781
 1772SOL    HW116775   2.103   0.487   3.293 -0.9340  1.7541  0.7456
 1772SOL    HW216776   2.060   0.415   3.417 -0.0972  0.0125 -0.8124
 1773SOL     OW16777   2.803   2.279  13.996 -0.8500 -0.2798 -0.0571
 1773SOL    HW116778   2.729   2.227  13.966 -0.5510 -0.5633 -0.2964
 1773SOL    HW216779   2.834   2.233  14.074  1.1980  2.1890  0.5750
 1774SOL     OW16780   3.388   0.820   5.561 -0.2359 -0.2628 -0.4186
 1774SOL    HW116781   3.361   0.907   5.591 -0.3991 -0.9788  1.5256
 1774SOL    HW216782   3.413   0.843   5.472  1.5896  0.6803  0.3293
 1775SOL     OW16783   2.530   1.647   8.723  0.9755  0.3396 -0.0309
 1775SOL    HW116784   2.536   1.735   8.759  2.3419 -0.1331  0.9220
 1775SOL    HW216785   2.484   1.601   8.793 -0.8597 -1.0913 -2.1840
 1776SOL     OW16786   3.861   2.530   2.730 -0.0637 -0.3586  0.2745
 1776SOL    HW116787   3.916   2.461   2.768 -2.4079 -1.2882  1.9219
 1776SOL    HW216788   3.777   2.489   2.709  0.0739  0.2723 -1.4830
 1777SOL     OW16789   4.414   2.106  17.073 -0.6630  0.5262  0.1958
 1777SOL    HW116790   4.436   2.185  17.024 -2.2831  1.5902  1.1625
 1777SOL    HW216791   4.444   2.037  17.013  0.4372  0.7200  0.5271
 1778SOL     OW16792   2.088   0.293   2.508  0.0444  0.1994  0.4182
 1778SOL    HW116793   2.109   0.200   2.499 -0.7534  0.0036  0.5681
 1778SOL    HW216794   2.151   0.332   2.448 -1.5730  1.6768 -0.3285
 1779SOL     OW16795   2.862   1.979  14.125 -0.1841  0.4279  0.2050
 1779SOL    HW116796   2.770   1.972  14.148 -0.3692 -0.0099 -0.6640
 1779SOL    HW216797   2.905   1.897  14.147 -1.1679 -0.5456 -1.5101
 1780SOL     OW16798   4.291   4.449   3.877 -0.4975 -0.7731 -0.0226
 1780SOL    HW116799   4.261   4.369   3.920 -2.6952  1.2972  2.3306
 1780SOL    HW216800   4.212   4.487   3.838 -1.0752 -1.5363  0.4239
 1781SOL     OW16801   2.075   4.153   2.672  0.1198 -0.8029 -0.5192
 1781SOL    HW116802   2.062   4.246   2.652 -1.7707 -1.2177 -1.2628
 1781SOL    HW216803   2.099   4.157   2.764  0.1120 -0.0536 -0.5510
 1782SOL     OW16804   4.456   2.741  16.031 -0.2864  0.4517 -0.1313
 1782SOL    HW116805   4.484   2.765  15.943 -2.7801 -1.3727 -1.4158
 1782SOL    HW216806   4.400   2.818  16.044  0.1452  0.8259 -0.4849
 1783SOL     OW16807   4.442   3.867   1.761  0.7649  0.1210  0.2321
 1783SOL    HW116808   4.394   3.846   1.841 -0.7084 -1.9806 -1.2342
 1783SOL    HW216809   4.415   3.800   1.699  2.4614 -0.5825  0.2487
 1784SOL     OW16810   4.638   0.585   8.476 -0.2725 -0.4788 -0.0991
 1784SOL    HW116811   4.547   0.605   8.500 -0.1045 -0.2113  0.3292
 1784SOL    HW216812   4.681   0.580   8.562 -0.2153 -0.3898 -0.1221
 1785SOL     OW16813   2.664   2.990  10.223 -0.1956  0.5189 -0.3304
 1785SOL    HW116814   2.716   3.024  10.151  1.3093 -0.5762  0.2352
 1785SOL    HW216815   2.576   3.017  10.197 -1.3356 -1.5432  1.4282
 1786SOL     OW16816   1.350   0.725   5.564  0.2678 -0.2719  0.4747
 1786SOL    HW116817   1.346   0.681   5.649 -2.5517 -1.6413 -0.3876
 1786SOL    HW216818   1.379   0.812   5.591  1.8289 -0.6425  0.0001
 1787SOL     OW16819   2.418   1.479  10.275 -0.1012  0.6147 -0.0089
 1787SOL    HW116820   2.475   1.492  10.351 -2.1169 -1.0221  1.8026
 1787SOL    HW216821   2.346   1.535  10.305  0.4708  1.3859 -0.0474
 1788SOL     OW16822   1.611   3.315  12.102  0.1671  0.8058 -0.5501
 1788SOL    HW116823   1.600   3.406  12.077 -2.5940  0.4259 -0.7293
 1788SOL    HW216824   1.533   3.277  12.060  0.0210 -2.3161  2.5068
 1789SOL     OW16825   1.383   4.358   0.590 -0.2472 -0.0318  0.7537
 1789SOL    HW116826   1.402   4.310   0.509 -2.7243  0.1109  0.0790
 1789SOL    HW216827   1.436   4.316   0.657  0.9465  1.1802  0.5558
 1790SOL     OW16828   3.695   4.020   5.039 -0.0138  0.7038  0.2652
 1790SOL    HW116829   3.632   3.989   4.974 -0.2698 -0.3091  1.0015
 1790SOL    HW216830   3.639   4.040   5.114 -0.9830  0.0576 -0.2723
 1791SOL     OW16831   3.375   3.982   2.951  0.3683 -0.3788  0.4862
 1791SOL    HW116832   3.341   3.974   2.862  1.8795 -0.3968 -0.0778
 1791SOL    HW216833   3.339   3.904   2.994  1.5743 -1.2768 -0.1495
 1792SOL     OW16834   1.593   1.179   6.271 -0.1505  0.3970 -0.3214
 1792SOL    HW116835   1.557   1.214   6.353  0.5197  1.5235 -0.5153
 1792SOL    HW216836   1.563   1.088   6.268 -0.6820  0.5956 -0.9071
 1793SOL     OW16837   1.402   3.409   7.000  0.4186 -0.1292  0.0855
 1793SOL    HW116838   1.448   3.339   7.046  0.8165 -0.2779 -0.5314
 1793SOL    HW216839   1.328   3.406   7.061  0.4194  0.0052  0.0939
 1794SOL     OW16840   0.295   1.667   4.639 -0.6965 -0.4796 -0.2975
 1794SOL    HW116841   0.338   1.624   4.713 -2.1463  1.3085  1.5855
 1794SOL    HW216842   0.239   1.599   4.602  0.8714 -1.1613 -1.4096
 1795SOL     OW16843   1.356   4.222  15.537 -0.1557  0.2117 -0.1990
 1795SOL    HW116844   1.385   4.155  15.599 -1.1081 -1.9267 -2.0372
 1795SOL    HW216845   1.338   4.300  15.589  1.1513  0.1997  0.2731
 1796SOL     OW16846   3.680   2.532   1.995 -0.0809 -0.4647  0.2336
 1796SOL    HW116847   3.653   2.447   2.031  0.2036  0.0469  1.6258
 1796SOL    HW216848   3.597   2.575   1.972  1.0449  1.5225 -0.1486
 1797SOL     OW16849   3.139   3.458   4.774  0.7768 -0.4113  0.0596
 1797SOL    HW116850   3.119   3.393   4.707  1.8757 -1.7447  1.0328
 1797SOL    HW216851   3.149   3.395   4.846  2.8202  0.5948  0.6583
 1798SOL     OW16852   4.144   4.188  10.110  0.2738  0.7450 -0.4455
 1798SOL    HW116853   4.146   4.110  10.166  0.4485  2.5979  2.1465
 1798SOL    HW216854   4.104   4.158  10.029 -0.4044 -0.6914  0.4271
 1799SOL     OW16855   1.710   1.387   9.398  0.4094 -0.2611  0.1933
 1799SOL    HW116856   1.752   1.472   9.384 -1.2870  0.2912 -1.5351
 1799SOL    HW216857   1.778   1.321   9.391  0.7802  0.2208 -0.7898
 1800SOL     OW16858   3.337   3.441   1.075  0.0896  0.1335 -0.2808
 1800SOL    HW116859   3.423   3.418   1.111  0.7179 -0.9868 -2.5689
 1800SOL    HW216860   3.274   3.382   1.115  0.0667 -0.2501 -0.8980
 1801SOL     OW16861   4.089   2.648   7.823  0.4081  0.3401  0.5083
 1801SOL    HW116862   4.133   2.718   7.775  0.5065 -0.4553 -0.5720
 1801SOL    HW216863   4.006   2.688   7.850 -0.0258 -0.5034  0.4426
 1802SOL     OW16864   3.995   4.520   4.872  0.2551  0.1359  0.7033
 1802SOL    HW116865   4.035   4.606   4.886  2.5083 -0.9979  1.1886
 1802SOL    HW216866   3.922   4.540   4.814  0.0999  1.1428  1.2403
 1803SOL     OW16867   1.259   2.275   2.210  0.0983  0.0953  0.0562
 1803SOL    HW116868   1.234   2.183   2.212  0.5866 -0.0289  0.4293
 1803SOL    HW216869   1.179   2.319   2.238 -1.0660 -0.7814 -1.8967
 1804SOL     OW16870   0.817   3.950  11.777  0.3108 -0.1148 -0.0056
 1804SOL    HW116871   0.786   3.981  11.692  2.2389 -0.9205 -1.0150
 1804SOL    HW216872   0.907   3.983  11.782  0.8889 -1.7486  0.3740
 1805SOL     OW16873   0.899   4.230  14.461 -0.2486 -0.1289 -0.3677
 1805SOL    HW116874   0.860   4.311  14.429  1.8754  0.9048 -0.3007
 1805SOL    HW216875   0.988   4.245  14.431  1.3833 -3.6503  2.7492
 1806SOL     OW16876   1.773   2.421   6.061  0.5071  0.2825 -0.4831
 1806SOL    HW116877   1.851   2.366   6.051  0.0319 -0.2984 -1.0245
 1806SOL    HW216878   1.818   2.498   6.095 -1.3417  0.6480  1.1434
 1807SOL     OW16879   1.249   2.247   0.826 -0.1352  0.0626 -0.2330
 1807SOL    HW116880   1.191   2.321   0.814 -0.6507 -0.5053 -1.2057
 1807SOL    HW216881   1.322   2.264   0.767  0.3633  0.2110  0.4192
 1808SOL     OW16882   2.887   2.210   8.493  0.4965 -0.3756 -0.6128
 1808SOL    HW116883   2.897   2.289   8.441  0.9433  0.0109  0.0681
 1808SOL    HW216884   2.954   2.155   8.452 -1.0498 -1.2876 -1.9231
 1809SOL     OW16885   3.307   3.135  10.159 -0.6002  0.3539  1.1960
 1809SOL    HW116886   3.359   3.102  10.086 -1.1001 -0.5577  1.2658
 1809SOL    HW216887   3.226   3.086  10.152 -1.6121  2.1593  0.2614
 1810SOL     OW16888   0.711   0.741   0.047 -0.6697 -0.0330  0.2439
 1810SOL    HW116889   0.738   0.760   0.137 -0.2161 -1.9592  0.5193
 1810SOL    HW216890   0.667   0.657   0.061  0.5588 -1.1967 -2.7443
 1811SOL     OW16891   4.128   2.935   4.949  0.2355  0.0387 -0.3363
 1811SOL    HW116892   4.073   3.009   4.975  0.5751  0.0568  0.3323
 1811SOL    HW216893   4.156   2.925   5.040  0.8505  0.7234 -0.4426
 1812SOL     OW16894   1.296   1.393   4.072  0.3620 -0.4822 -0.6714
 1812SOL    HW116895   1.248   1.377   4.153  0.4754  2.5894 -0.0004
 1812SOL    HW216896   1.276   1.307   4.035 -1.1088  0.3478 -1.8545
 1813SOL     OW16897   2.533   0.118   0.470  0.2553  0.9385 -0.0230
 1813SOL    HW116898   2.480   0.197   0.473  1.2316  1.4993  2.7754
 1813SOL    HW216899   2.471   0.064   0.420 -0.0114  1.1197  0.1114
 1814SOL     OW16900   4.587   1.928  11.106 -0.4833 -0.4458 -0.2184
 1814SOL    HW116901   4.677   1.912  11.135 -0.3904  2.8324  1.2112
 1814SOL    HW216902   4.590   2.023  11.110  1.6941 -0.4463 -1.9987
 1815SOL     OW16903   3.280   4.122   4.818 -0.1284  0.3339 -0.2865
 1815SOL    HW116904   3.343   4.177   4.772  0.1429 -0.3891 -0.7827
 1815SOL    HW216905   3.344   4.056   4.845  0.0433 -0.2713 -2.1325
 1816SOL     OW16906   0.242   4.000  15.115 -0.2556  0.3059 -0.1139
 1816SOL    HW116907   0.163   3.982  15.065 -1.4213 -0.1453  1.8796
 1816SOL    HW216908   0.233   3.941  15.191  2.2401  0.9330  0.6686
 1817SOL     OW16909   4.282   3.145   3.378  0.2306  0.1161  0.1844
 1817SOL    HW116910   4.217   3.082   3.410 -0.4015  0.7712  0.2135
 1817SOL    HW216911   4.256   3.220   3.433  1.4113  0.9636 -0.4164
 1818SOL     OW16912   4.556   3.038   8.878 -0.1565 -0.0412  0.2688
 1818SOL    HW116913   4.555   3.046   8.973  0.5331  1.0370  0.1912
 1818SOL    HW216914   4.622   3.100   8.847 -2.5589  1.0701 -2.6691
 1819SOL     OW16915   0.920   4.600   9.745 -0.1865 -0.4822  0.3876
 1819SOL    HW116916   0.832   4.635   9.733 -0.1501 -1.7288 -3.3680
 1819SOL    HW216917   0.955   4.640   9.666  0.2929  0.1564  0.9208
 1820SOL     OW16918   4.265   0.086   3.727 -0.3555  0.8510  0.0443
 1820SOL    HW116919   4.191   0.025   3.736  0.6720 -0.7589 -2.3657
 1820SOL    HW216920   4.325   0.038   3.670  0.3638 -0.8554  2.2887
 1821SOL     OW16921   2.578   3.687   0.504  0.4904  0.1967 -0.1622
 1821SOL    HW116922   2.491   3.710   0.535  0.6471 -2.3629  2.1350
 1821SOL    HW216923   2.540   3.630   0.437 -0.0249 -0.4577  0.6895
 1822SOL     OW16924   0.916   1.909   8.911  0.4767 -0.7759 -0.0155
 1822SOL    HW116925   1.008   1.895   8.887  0.7974  2.0879 -0.3620
 1822SOL    HW216926   0.927   1.904   9.006  2.5182 -0.5115 -0.2366
 1823SOL     OW16927   0.179   1.243   3.793  0.3267 -0.1043 -0.0919
 1823SOL    HW116928   0.231   1.282   3.864  0.0946  0.4198 -0.2050
 1823SOL    HW216929   0.191   1.302   3.719 -3.3763  0.9649  0.1783
 1824SOL     OW16930   3.749   4.568   2.577 -0.2112 -0.5585  0.3517
 1824SOL    HW116931   3.680   4.604   2.633  1.9469  1.5706  1.6075
 1824SOL    HW216932   3.826   4.623   2.590  1.1969 -2.4991  0.2881
 1825SOL     OW16933   1.981   4.666  13.099  0.3528 -0.5900  0.1594
 1825SOL    HW116934   2.028   4.589  13.066  1.9617  0.9239 -1.1170
 1825SOL    HW216935   1.914   4.683  13.033  0.2064 -1.4929  0.0706
 1826SOL     OW16936   0.114   3.026   6.672 -0.0465  0.5324  0.1974
 1826SOL    HW116937   0.201   3.034   6.633 -0.8155 -0.2128 -1.6643
 1826SOL    HW216938   0.079   2.942   6.645  1.5078 -0.4523  1.2685
 1827SOL     OW16939   4.609   2.425  15.026 -0.2577  0.4748 -0.0327
 1827SOL    HW116940   4.629   2.512  15.059  2.6193 -0.0361 -0.4974
 1827SOL    HW216941   4.537   2.456  14.971 -0.7547  1.5557  1.2218
 1828SOL     OW16942   2.380   2.721   9.241 -0.4478 -0.1221 -0.4150
 1828SOL    HW116943   2.347   2.786   9.304  1.1623  0.2778  0.0118
 1828SOL    HW216944   2.323   2.646   9.254 -0.0410 -0.2573  0.5642
 1829SOL     OW16945   0.094   3.229  17.602  0.3546  0.2708  0.5043
 1829SOL    HW116946   0.066   3.160  17.663 -1.7094  0.0089 -0.7264
 1829SOL    HW216947   0.100   3.187  17.516 -2.8584  0.1606  0.3265
 1830SOL     OW16948   4.128   2.949  12.078 -0.1610 -0.1090  0.6942
 1830SOL    HW116949   4.186   2.997  12.137  1.8662 -0.1546 -1.2423
 1830SOL    HW216950   4.191   2.909  12.017 -1.9860  0.2835 -1.4372
 1831SOL     OW16951   2.257   1.859  15.974 -0.0788 -0.2759 -0.3402
 1831SOL    HW116952   2.275   1.911  15.895 -0.7284 -2.1317 -1.7037
 1831SOL    HW216953   2.220   1.780  15.937  1.2270 -0.5241 -1.1015
 1832SOL     OW16954   2.258   2.609   1.685  0.5275  0.1595  0.0658
 1832SOL    HW116955   2.230   2.528   1.729  0.8598  0.1002  0.1667
 1832SOL    HW216956   2.181   2.665   1.697 -0.8164 -1.5858 -0.4904
 1833SOL     OW16957   3.713   4.194   0.961  0.3500 -0.2063 -0.0431
 1833SOL    HW116958   3.626   4.165   0.935  0.9134 -3.3738  1.6384
 1833SOL    HW216959   3.755   4.203   0.875 -2.1015  0.5907 -1.1419
 1834SOL     OW16960   1.042   4.649   9.520 -0.0249 -0.0454  0.2316
 1834SOL    HW116961   1.020   4.676   9.431 -0.7851 -0.3297  0.3285
 1834SOL    HW216962   1.123   4.697   9.534  0.7400 -1.4672  0.6707
 1835SOL     OW16963   2.753   0.810   6.280  0.5229 -0.0540  0.2467
 1835SOL    HW116964   2.703   0.847   6.354  0.3140 -1.4980  0.8247
 1835SOL    HW216965   2.692   0.826   6.208  1.3971 -2.8213 -1.1059
 1836SOL     OW16966   4.356   1.740   4.506 -0.3799 -0.4046 -0.4353
 1836SOL    HW116967   4.381   1.688   4.582  0.0238 -0.1204 -0.3730
 1836SOL    HW216968   4.360   1.829   4.539 -1.2583 -0.2582 -0.7259
 1837SOL     OW16969   1.080   0.510  11.207 -0.2918  0.0517  0.7058
 1837SOL    HW116970   1.024   0.470  11.273 -0.0750 -0.8463  0.3375
 1837SOL    HW216971   1.154   0.538  11.261  0.4789 -0.2871 -0.1697
 1838SOL     OW16972   2.615   0.382  15.956  0.4532  0.3243 -0.2652
 1838SOL    HW116973   2.586   0.396  15.866 -1.6486 -0.7101  0.2537
 1838SOL    HW216974   2.662   0.460  15.983 -0.1506  0.4215  0.5075
 1839SOL     OW16975   0.886   3.126  10.444 -0.1646  0.5974 -0.9049
 1839SOL    HW116976   0.960   3.186  10.436 -0.9481  1.5199 -1.1958
 1839SOL    HW216977   0.854   3.152  10.531  0.2535 -1.4190 -0.1320
 1840SOL     OW16978   0.857   1.785   5.807 -0.7335 -0.5982  0.2016
 1840SOL    HW116979   0.872   1.865   5.857  3.0123 -0.3001 -1.3884
 1840SOL    HW216980   0.880   1.815   5.719 -1.4750 -0.6951 -0.0259
 1841SOL     OW16981   1.049   1.094   4.230  0.1347 -0.3085 -0.1375
 1841SOL    HW116982   0.996   1.037   4.176  0.2813  0.7199 -1.3586
 1841SOL    HW216983   1.031   1.051   4.314 -1.2148 -1.9892 -1.3033
 1842SOL     OW16984   4.316   3.341   6.529  0.3404 -0.0123 -0.0629
 1842SOL    HW116985   4.392   3.292   6.497  0.8842  2.0099 -1.8584
 1842SOL    HW216986   4.258   3.265   6.523  0.2390  0.0959 -0.5206
 1843SOL     OW16987   3.202   4.273   0.754  0.3708  0.1955  0.1925
 1843SOL    HW116988   3.136   4.216   0.794  0.1786 -0.6112 -1.2878
 1843SOL    HW216989   3.265   4.281   0.825 -2.1070  4.6341  1.9085
 1844SOL     OW16990   1.807   1.128  13.043  0.4240 -0.3663  0.4859
 1844SOL    HW116991   1.807   1.032  13.049  2.1706 -0.4655 -1.2599
 1844SOL    HW216992   1.824   1.157  13.133  2.3110 -3.5897  1.2039
 1845SOL     OW16993   3.126   4.710  17.659  0.3488  0.4867  0.2879
 1845SOL    HW116994   3.034   4.710  17.633  0.7932 -0.2984 -1.2693
 1845SOL    HW216995   3.157   4.664  17.581 -1.7909 -0.3360 -0.0638
 1846SOL     OW16996   2.376   2.193  11.787  0.0535  0.1373  0.0533
 1846SOL    HW116997   2.455   2.232  11.824  0.5404 -1.5273  0.7590
 1846SOL    HW216998   2.389   2.206  11.694 -2.5850  2.1658 -0.0469
 1847SOL     OW16999   0.399   2.467  10.606 -0.2437  0.1439  0.7654
 1847SOL    HW117000   0.477   2.455  10.551 -0.7008  1.0665 -0.0933
 1847SOL    HW217001   0.434   2.527  10.672 -2.3280  1.2535  0.8754
 1848SOL     OW17002   0.800   4.675   0.422 -0.0034 -0.2875 -0.0125
 1848SOL    HW117003   0.895   4.682   0.425  0.1227 -0.7167 -2.3992
 1848SOL    HW217004   0.773   4.718   0.503  1.1840  2.9873 -1.3766
 1849SOL     OW17005   2.345   1.440   5.288  0.6321  0.2518  0.5663
 1849SOL    HW117006   2.318   1.382   5.216 -0.8302 -1.6438  2.6423
 1849SOL    HW217007   2.428   1.400   5.315  0.3507 -0.3381  0.5711
 1850SOL     OW17008   3.720   3.673   7.819  0.3588  0.3776 -0.0425
 1850SOL    HW117009   3.735   3.690   7.912  1.1177  0.3600 -0.1571
 1850SOL    HW217010   3.710   3.765   7.792 -0.0199  0.4374  0.2958
 1851SOL     OW17011   0.691   2.798   0.128  0.0481 -0.4005  0.3419
 1851SOL    HW117012   0.639   2.857   0.073  0.7439  1.2453  1.4501
 1851SOL    HW217013   0.688   2.713   0.083  0.7699 -0.7964  1.0437
 1852SOL     OW17014   4.332   2.799   7.069  0.6627  0.3757  0.2066
 1852SOL    HW117015   4.341   2.710   7.102 -0.9453  0.7759  1.7390
 1852SOL    HW217016   4.402   2.843   7.119  1.5971  0.8359 -1.5140
 1853SOL     OW17017   3.548   0.526   4.884  0.1013 -0.2692 -0.1881
 1853SOL    HW117018   3.533   0.620   4.891  1.8729 -0.1606  2.1632
 1853SOL    HW217019   3.634   0.516   4.925 -0.3178 -0.1228  0.7404
 1854SOL     OW17020   3.823   2.744  16.709  0.2490 -0.1213  0.2060
 1854SOL    HW117021   3.755   2.792  16.663  0.6716 -0.0453 -0.3382
 1854SOL    HW217022   3.771   2.677  16.753 -1.5468  1.1530  0.0093
 1855SOL     OW17023   0.435   1.683  10.328  0.1200  0.0281 -0.1955
 1855SOL    HW117024   0.449   1.588  10.327  2.6407  0.4236 -1.2255
 1855SOL    HW217025   0.344   1.697  10.355  0.2387 -1.8086  1.2230
 1856SOL     OW17026   2.941   4.534  10.910  0.0484 -0.6526 -0.0670
 1856SOL    HW117027   2.919   4.537  10.817  0.2042  0.9237 -0.0586
 1856SOL    HW217028   3.017   4.592  10.908  0.3201 -0.9620  1.1125
 1857SOL     OW17029   0.965   0.892   4.067  0.1006  0.0929  0.4105
 1857SOL    HW117030   0.940   0.900   3.975 -0.5679 -1.6870  0.4530
 1857SOL    HW217031   0.900   0.833   4.103  1.6248 -1.1383  1.1685
 1858SOL     OW17032   0.212   1.025  11.576  0.1007  0.1151  0.4626
 1858SOL    HW117033   0.222   1.083  11.651 -1.8708 -1.4779  1.9691
 1858SOL    HW217034   0.116   1.027  11.571  0.1563 -0.0161 -0.5211
 1859SOL     OW17035   1.073   3.743  16.325 -0.0745 -0.2321  0.3896
 1859SOL    HW117036   0.985   3.739  16.362 -0.3410  1.4214 -0.0628
 1859SOL    HW217037   1.115   3.668  16.366  0.3795 -0.5292 -0.6108
 1860SOL     OW17038   0.694   0.698   1.381  0.3475 -0.3184  0.3486
 1860SOL    HW117039   0.751   0.639   1.332  0.8162  1.1998 -0.9351
 1860SOL    HW217040   0.714   0.657   1.465  1.9974  1.1881  0.6880
 1861SOL     OW17041   3.332   4.553   7.000  0.7268  0.5550  0.7397
 1861SOL    HW117042   3.384   4.537   6.921 -0.8155 -0.6722 -0.0205
 1861SOL    HW217043   3.288   4.468   7.010 -0.1154  0.8021 -0.8315
 1862SOL     OW17044   3.604   3.149   2.836  0.2901 -0.5156 -0.2909
 1862SOL    HW117045   3.568   3.123   2.751 -1.6989  0.1210  0.3500
 1862SOL    HW217046   3.662   3.211   2.794 -1.5934  0.9611 -0.7302
 1863SOL     OW17047   3.900   3.228   0.215 -0.5793  0.1569  0.4824
 1863SOL    HW117048   3.894   3.323   0.199  3.0228  0.4223  0.6666
 1863SOL    HW217049   3.823   3.208   0.162  0.5513 -0.4573 -0.9295
 1864SOL     OW17050   1.131   4.463   2.158  0.2083 -0.3478 -0.0574
 1864SOL    HW117051   1.221   4.437   2.177  0.9323  2.0208 -0.2354
 1864SOL    HW217052   1.103   4.407   2.086 -0.2748  0.6314 -0.6390
 1865SOL     OW17053   1.276   1.345   6.219  0.1271 -0.3679  0.8512
 1865SOL    HW117054   1.282   1.317   6.311 -0.5284 -0.8824  0.7393
 1865SOL    HW217055   1.268   1.262   6.173  1.0143 -0.0823  0.1948
 1866SOL     OW17056   4.459   1.939   8.527  0.0313 -0.1845  0.8183
 1866SOL    HW117057   4.435   1.987   8.606  1.7044 -0.7127  1.6633
 1866SOL    HW217058   4.425   1.851   8.539 -1.7816  0.3027 -0.7836
 1867SOL     OW17059   3.105   0.165   5.193  0.0383  0.3024 -0.5324
 1867SOL    HW117060   3.102   0.256   5.223 -0.3601 -0.2944  1.2375
 1867SOL    HW217061   3.168   0.178   5.122  0.2236  1.2289 -0.1952
 1868SOL     OW17062   2.634   3.421  11.096 -0.0504  0.0257 -0.2326
 1868SOL    HW117063   2.697   3.460  11.035  2.5425 -1.7557  1.2734
 1868SOL    HW217064   2.625   3.333  11.058  6.0166 -0.5827 -0.3880
 1869SOL     OW17065   0.210   1.911   4.566 -0.1976 -0.4321 -0.1637
 1869SOL    HW117066   0.277   1.886   4.503 -1.1181 -1.3990 -0.7692
 1869SOL    HW217067   0.240   1.850   4.633  1.1028 -0.6562 -0.9402
 1870SOL     OW17068   2.635   1.988   2.568 -0.1640  0.7405 -0.5335
 1870SOL    HW117069   2.709   2.003   2.627  0.6336 -1.0675 -1.0891
 1870SOL    HW217070   2.650   2.069   2.519 -0.7004  1.5691  0.6824
 1871SOL     OW17071   2.916   0.001  11.291  0.0248  0.1060  0.3706
 1871SOL    HW117072   2.858   0.018  11.365 -0.3162 -0.1589  0.1589
 1871SOL    HW217073   2.986   0.060  11.322 -0.1208 -0.7715  2.3741
 1872SOL     OW17074   2.517   3.106  17.203  0.3068  0.1133 -0.1835
 1872SOL    HW117075   2.520   3.199  17.221  1.6124 -0.4465  2.4409
 1872SOL    HW217076   2.425   3.087  17.186 -0.0418  0.3307  1.4458
 1873SOL     OW17077   3.081   1.872   5.560  0.3138  0.4112  0.1720
 1873SOL    HW117078   3.166   1.906   5.531  2.0052 -3.0291  1.1592
 1873SOL    HW217079   3.037   1.947   5.602  1.3073  1.7038 -1.0834
 1874SOL     OW17080   0.528   0.072   5.115  0.4068 -0.3616  0.1877
 1874SOL    HW117081   0.593   0.126   5.070  1.1119 -2.4509 -1.3219
 1874SOL    HW217082   0.447   0.123   5.110  2.0187  2.4485  3.1890
 1875SOL     OW17083   3.838   4.132   4.161  0.3741  0.1435  0.6462
 1875SOL    HW117084   3.847   4.197   4.092 -1.4793  0.7952  1.0091
 1875SOL    HW217085   3.876   4.186   4.230  1.4498 -1.2462  1.1357
 1876SOL     OW17086   4.373   2.334   2.681 -0.3717  0.2972  0.1789
 1876SOL    HW117087   4.284   2.347   2.650 -0.9409 -2.1511  0.8025
 1876SOL    HW217088   4.351   2.288   2.762  2.0760 -2.1763 -0.5371
 1877SOL     OW17089   0.179   1.167   0.702  0.9221  0.1371 -0.5276
 1877SOL    HW117090   0.178   1.260   0.726  1.1563  0.1875 -0.7181
 1877SOL    HW217091   0.196   1.129   0.789 -0.7826 -2.6195 -1.4047
 1878SOL     OW17092   2.205   0.443   5.160 -0.2358  0.9303 -0.1906
 1878SOL    HW117093   2.150   0.403   5.228  0.2213 -1.2761 -1.1109
 1878SOL    HW217094   2.141   0.509   5.134 -1.5237  0.3752  1.5111
 1879SOL     OW17095   2.628   4.662  13.494  0.3651  0.0446  0.1606
 1879SOL    HW117096   2.558   0.002  13.518  2.0222  0.5760  3.4646
 1879SOL    HW217097   2.666   4.634  13.576 -0.0180 -0.3049  0.2204
 1880SOL     OW17098   1.613   0.996   3.019 -0.5864 -0.2456  0.2712
 1880SOL    HW117099   1.689   1.021   2.966  0.0630  2.1071  2.2674
 1880SOL    HW217100   1.543   1.032   2.965  0.4612  1.2916 -0.0900
 1881SOL     OW17101   0.983   2.588   1.084  0.2449  0.2194  0.6230
 1881SOL    HW117102   0.888   2.581   1.078  0.7445 -2.6819 -4.0149
 1881SOL    HW217103   1.009   2.496   1.083 -0.5449  0.0131 -0.8079
 1882SOL     OW17104   3.467   3.556   3.711  0.2390  0.0535 -0.2308
 1882SOL    HW117105   3.438   3.467   3.692 -0.0637  0.5751 -2.2493
 1882SOL    HW217106   3.386   3.584   3.754  0.3315  2.1418 -1.4176
 1883SOL     OW17107   1.721   1.899  16.916  0.3606  0.0224  0.2283
 1883SOL    HW117108   1.732   1.989  16.947 -1.1831 -0.0403  0.9158
 1883SOL    HW217109   1.663   1.908  16.841 -1.6036  0.0511  1.7683
 1884SOL     OW17110   0.406   2.963   3.373 -0.0893 -0.0290  0.4586
 1884SOL    HW117111   0.456   3.019   3.313  1.2132 -0.7741  0.8572
 1884SOL    HW217112   0.406   3.016   3.453  1.3691 -1.3011  1.2843
 1885SOL     OW17113   2.784   4.084   9.600 -0.1299 -0.0852 -0.2120
 1885SOL    HW117114   2.841   4.008   9.611  0.7698  0.6539  0.2001
 1885SOL    HW217115   2.710   4.050   9.651 -0.2500 -0.1357 -0.4196
 1886SOL     OW17116   0.096   2.796   1.607  0.2769  0.2087  0.5337
 1886SOL    HW117117   0.027   2.809   1.541  0.1856  0.0735  0.6011
 1886SOL    HW217118   0.081   2.701   1.604 -1.2721  0.4373  1.1633
 1887SOL     OW17119   1.742   0.638   9.838  0.1566 -0.0216  0.2578
 1887SOL    HW117120   1.713   0.597   9.756 -0.1412  0.7303 -0.0146
 1887SOL    HW217121   1.663   0.677   9.876 -1.3627 -1.0181 -1.8588
 1888SOL     OW17122   1.748   0.390  11.508  0.2121  0.6160 -0.6117
 1888SOL    HW117123   1.822   0.369  11.566 -2.7678 -2.5746  2.0076
 1888SOL    HW217124   1.806   0.427  11.441  1.5174 -0.1880  0.0525
 1889SOL     OW17125   2.272   1.584   7.240 -0.6855 -0.1806 -0.1229
 1889SOL    HW117126   2.268   1.654   7.176  0.3510  0.5761  0.6364
 1889SOL    HW217127   2.193   1.578   7.293  0.2481  0.1507  1.3206
 1890SOL     OW17128   2.310   2.075  12.485  0.1986  0.1019  0.1760
 1890SOL    HW117129   2.340   2.009  12.422  0.8412  0.4190  0.1509
 1890SOL    HW217130   2.220   2.045  12.497 -0.0922  0.5760 -0.8643
 1891SOL     OW17131   3.934   3.999   1.018 -0.3829 -0.5923 -0.0463
 1891SOL    HW117132   3.878   4.077   1.029  0.5366 -0.0082  0.4318
 1891SOL    HW217133   3.866   3.932   1.017  0.4116 -1.3738 -1.4252
 1892SOL     OW17134   3.007   4.678   3.503 -0.5266 -0.0321 -0.3074
 1892SOL    HW117135   2.964   0.028   3.456 -1.1129 -1.6444 -2.1931
 1892SOL    HW217136   3.048   4.633   3.430 -0.2046  2.2513 -1.5548
 1893SOL     OW17137   3.387   3.045   8.704 -0.2301 -0.7674 -0.1223
 1893SOL    HW117138   3.442   2.995   8.765  0.3238  1.0060  0.8426
 1893SOL    HW217139   3.315   2.983   8.695 -1.1190 -0.2236  2.9649
 1894SOL     OW17140   4.423   2.786  17.438 -0.1052  0.2197 -0.8247
 1894SOL    HW117141   4.469   2.850  17.493  0.9534 -0.7235 -0.6258
 1894SOL    HW217142   4.483   2.717  17.465 -1.9498  0.1835  3.2484
 1895SOL     OW17143   0.590   4.606  11.943  0.1287 -0.1705 -0.6677
 1895SOL    HW117144   0.598   4.519  11.982 -0.3456  0.2811  0.4383
 1895SOL    HW217145   0.553   4.661  12.012 -1.4918 -0.9121 -0.9513
 1896SOL     OW17146   0.529   1.441   7.447  0.2239  0.0004  0.6737
 1896SOL    HW117147   0.615   1.463   7.411  0.6200 -0.6318  1.2357
 1896SOL    HW217148   0.527   1.345   7.438 -1.2433  0.1545 -0.7141
 1897SOL     OW17149   1.951   1.996  10.283 -0.2257  0.2901  0.3615
 1897SOL    HW117150   2.028   2.052  10.288  0.1844 -0.4312  2.1020
 1897SOL    HW217151   1.891   2.028  10.350  1.4338  0.1087  1.9115
 1898SOL     OW17152   2.696   3.404   6.809  0.1689  0.1336 -0.3201
 1898SOL    HW117153   2.706   3.375   6.900  0.4768 -1.7932 -0.9539
 1898SOL    HW217154   2.601   3.398   6.798  0.3894 -0.1759 -2.0690
 1899SOL     OW17155   0.973   3.835   3.617 -0.1420 -0.4688  0.2120
 1899SOL    HW117156   0.995   3.812   3.707  0.6368 -1.1539 -0.1569
 1899SOL    HW217157   0.932   3.919   3.636 -3.2184 -2.1977  1.1963
 1900SOL     OW17158   4.536   2.954  17.609 -0.3222  0.9728 -0.1444
 1900SOL    HW117159   4.620   2.971  17.651 -0.4322  1.8529 -0.2850
 1900SOL    HW217160   4.488   2.907  17.678  0.0613  0.5673 -0.1537
 1901SOL     OW17161   4.636   1.774  15.643  0.0653  0.5225  0.5185
 1901SOL    HW117162   4.612   1.845  15.703  0.6065  2.1191 -1.1805
 1901SOL    HW217163   4.706   1.815  15.593  1.0949 -0.1439  1.4029
 1902SOL     OW17164   4.097   1.703   2.038  0.0113 -0.2098  0.1645
 1902SOL    HW117165   4.164   1.639   2.016 -0.1909 -0.4270  0.1874
 1902SOL    HW217166   4.040   1.650   2.092  0.1060  0.9104  1.3744
 1903SOL     OW17167   0.692   4.403  15.475  0.1543  0.4162  0.2992
 1903SOL    HW117168   0.711   4.365  15.389 -2.9361 -3.1212  1.1669
 1903SOL    HW217169   0.610   4.362  15.503  2.0002 -2.2893  1.7663
 1904SOL     OW17170   0.483   4.606   3.461 -0.3778 -0.8885 -0.8989
 1904SOL    HW117171   0.518   4.620   3.549  1.1400  1.5134 -1.8802
 1904SOL    HW217172   0.529   4.524   3.442  0.0600  0.0684 -3.9331
 1905SOL     OW17173   2.073   1.983  12.564  0.1762  0.3212  0.5578
 1905SOL    HW117174   2.014   2.057  12.572  0.7409  0.5936  2.0967
 1905SOL    HW217175   2.108   1.980  12.653  1.9018 -1.0071 -0.1459
 1906SOL     OW17176   2.134   2.104   2.202  0.4544  0.3195 -0.1237
 1906SOL    HW117177   2.054   2.059   2.231 -0.0901  1.6196  0.4005
 1906SOL    HW217178   2.089   2.149   2.130 -1.8888 -0.4556  0.8563
 1907SOL     OW17179   1.557   1.901   6.814  0.4508 -0.0657  0.6576
 1907SOL    HW117180   1.550   1.950   6.896 -2.1479  0.8689 -0.0961
 1907SOL    HW217181   1.651   1.887   6.804  0.3502 -0.3982  0.1685
 1908SOL     OW17182   1.568   4.202   8.803  0.1221  0.3133  0.3822
 1908SOL    HW117183   1.625   4.251   8.745 -0.3862 -0.0346 -0.4078
 1908SOL    HW217184   1.574   4.116   8.762 -2.4795 -0.1575  0.9615
 1909SOL     OW17185   4.363   1.414   4.651 -0.0861  0.7968 -0.4068
 1909SOL    HW117186   4.392   1.323   4.657  1.9789  1.4282 -0.6851
 1909SOL    HW217187   4.416   1.449   4.579  1.1904  0.3543  0.3078
 1910SOL     OW17188   0.890   2.862   3.059  0.6486 -0.1838 -0.3945
 1910SOL    HW117189   0.844   2.782   3.086  0.4194  0.2042  0.3722
 1910SOL    HW217190   0.847   2.863   2.973 -0.7134  0.1954  0.2853
 1911SOL     OW17191   4.374   0.868   7.216 -0.2451  0.1429 -0.1943
 1911SOL    HW117192   4.292   0.899   7.254  0.5909 -0.1527  1.8053
 1911SOL    HW217193   4.422   0.950   7.232 -1.3062  0.8221 -0.4528
 1912SOL     OW17194   1.317   2.599   8.457  0.5764 -0.5363 -0.2450
 1912SOL    HW117195   1.347   2.539   8.388 -1.7010 -0.1850 -1.5097
 1912SOL    HW217196   1.276   2.535   8.516 -0.8285  1.6427  1.1030
 1913SOL     OW17197   2.170   1.618  15.833 -0.0498 -0.2795 -0.0614
 1913SOL    HW117198   2.232   1.613  15.760 -0.6901 -1.6624 -0.5189
 1913SOL    HW217199   2.186   1.533  15.874  2.8125  1.4930  2.4924
 1914SOL     OW17200   0.555   1.729  16.858 -0.3741  0.5950 -1.0141
 1914SOL    HW117201   0.461   1.717  16.867 -0.2464  1.6153  1.5514
 1914SOL    HW217202   0.593   1.661  16.913 -0.4697  1.2423 -0.1568
 1915SOL     OW17203   1.387   2.620   8.111  0.4450  0.6011  0.0385
 1915SOL    HW117204   1.473   2.638   8.148  0.1478  1.1661  0.4456
 1915SOL    HW217205   1.420   2.612   8.021 -0.6570  2.4706 -0.5332
 1916SOL     OW17206   2.219   3.821   1.880  0.4249  0.2228  0.0544
 1916SOL    HW117207   2.146   3.794   1.824 -1.5785  1.7197  1.9533
 1916SOL    HW217208   2.282   3.750   1.875 -0.7760 -0.9320  1.2059
 1917SOL     OW17209   3.709   3.922   0.495 -0.2706 -0.2118 -0.3738
 1917SOL    HW117210   3.655   3.967   0.430 -0.5860 -1.7276 -1.1442
 1917SOL    HW217211   3.747   3.856   0.437 -1.5528 -1.3369  0.0742
 1918SOL     OW17212   1.809   4.250   7.516  0.4366  0.3447  0.0410
 1918SOL    HW117213   1.750   4.297   7.458  0.8340 -2.3933 -2.6102
 1918SOL    HW217214   1.744   4.186   7.545 -0.0981  0.9758  0.2107
 1919SOL     OW17215   1.059   3.248   3.899  0.0691 -0.3729 -0.5059
 1919SOL    HW117216   1.104   3.199   3.968  1.1502  1.5496  0.1399
 1919SOL    HW217217   1.019   3.173   3.855 -0.9957 -1.1317  1.7557
 1920SOL     OW17218   0.292   2.732   6.468 -0.0981 -0.0936  0.5146
 1920SOL    HW117219   0.270   2.661   6.528  0.1428 -0.8034 -0.2424
 1920SOL    HW217220   0.374   2.769   6.500 -0.0834  1.4405 -1.2698
 1921SOL     OW17221   0.510   4.253  16.210  0.0961  0.2524  0.1418
 1921SOL    HW117222   0.477   4.170  16.176 -0.3997  0.3530  0.3893
 1921SOL    HW217223   0.581   4.268  16.146 -0.9232  2.1853 -0.5295
 1922SOL     OW17224   2.158   0.097   1.995 -0.4005 -0.2830  0.0520
 1922SOL    HW117225   2.174   0.127   1.906 -2.5776 -0.7377 -0.4989
 1922SOL    HW217226   2.195   0.008   1.989 -0.1048 -0.0129 -2.2877
 1923SOL     OW17227   2.314   0.439   1.431  0.0471  0.5720 -0.1882
 1923SOL    HW117228   2.374   0.438   1.506  0.8669 -1.0037 -0.8746
 1923SOL    HW217229   2.232   0.467   1.473  0.0316 -1.6747  1.3405
 1924SOL     OW17230   0.362   1.325   8.453  0.2828  0.2581  0.3856
 1924SOL    HW117231   0.434   1.360   8.401 -0.2479  0.0840 -0.4857
 1924SOL    HW217232   0.304   1.402   8.449 -0.3945 -0.3253 -1.3408
 1925SOL     OW17233   2.931   2.509   1.688  0.6394  0.3826  0.1776
 1925SOL    HW117234   2.866   2.563   1.644 -1.3953 -3.3480 -1.3992
 1925SOL    HW217235   3.007   2.517   1.630 -0.1804 -0.4220 -1.0138
 1926SOL     OW17236   3.116   2.006   2.674  0.2888  0.4952  0.2761
 1926SOL    HW117237   3.187   2.054   2.632  3.0158 -0.3982  3.9339
 1926SOL    HW217238   3.096   1.940   2.607  2.2924 -0.0079  0.1883
 1927SOL     OW17239   4.038   4.688   7.748  0.2936  0.2836 -0.4346
 1927SOL    HW117240   4.091   0.037   7.710 -0.5695  2.0816  1.7151
 1927SOL    HW217241   3.956   4.696   7.699  0.4308  0.1562 -0.6848
 1928SOL     OW17242   4.019   4.166   7.886  0.4185 -0.5710  0.4689
 1928SOL    HW117243   4.008   4.259   7.906  0.0251 -0.2534 -1.2053
 1928SOL    HW217244   4.097   4.167   7.829 -0.5244  3.4547 -0.7920
 1929SOL     OW17245   2.657   3.045   2.976 -0.2580  0.0691  0.6837
 1929SOL    HW117246   2.678   2.986   2.904 -0.3167  1.5856 -0.5502
 1929SOL    HW217247   2.632   3.128   2.937  0.2655  0.3397  0.9145
 1930SOL     OW17248   2.000   0.559   2.187 -0.5732  0.0044  0.6889
 1930SOL    HW117249   1.913   0.527   2.208 -2.5996  2.4772 -4.0860
 1930SOL    HW217250   2.000   0.540   2.093  0.5507 -1.7369  1.0409
 1931SOL     OW17251   2.079   4.719   9.067 -0.0264  0.2566 -0.0446
 1931SOL    HW117252   2.117   4.652   9.010 -0.8413 -0.2392 -0.0059
 1931SOL    HW217253   2.162   0.042   9.087  0.5576 -0.6367 -0.4911
 1932SOL     OW17254   0.499   4.671  17.657 -0.0667 -0.3933 -0.1404
 1932SOL    HW117255   0.592   4.692  17.670 -0.0535 -0.5256 -0.0161
 1932SOL    HW217256   0.482   4.614   0.045  2.4923  0.6001  1.1680
 1933SOL     OW17257   2.012   1.597  13.461  0.3018  0.4729 -0.7111
 1933SOL    HW117258   2.017   1.643  13.377 -0.0931  1.8873  0.0412
 1933SOL    HW217259   2.102   1.566  13.471  0.5133  1.7826  1.5504
 1934SOL     OW17260   2.632   4.105   4.455  0.6764 -0.4317  0.7362
 1934SOL    HW117261   2.615   4.199   4.466 -0.7510 -0.7740  1.4325
 1934SOL    HW217262   2.727   4.105   4.458  0.7683  1.8030 -2.4511
 1935SOL     OW17263   0.128   4.019   4.111 -0.3346 -0.2190 -0.4752
 1935SOL    HW117264   0.074   3.978   4.179 -1.1566  1.6436  0.0168
 1935SOL    HW217265   0.212   3.984   4.141  0.6891  1.9705 -0.7889
 1936SOL     OW17266   1.363   3.337   4.408  0.1196 -0.6251  0.1490
 1936SOL    HW117267   1.394   3.427   4.416  0.7562 -0.4927 -4.0946
 1936SOL    HW217268   1.397   3.310   4.323  2.8369 -0.4393  1.1793
 1937SOL     OW17269   0.126   0.073   1.714  0.4198  0.2522 -0.3215
 1937SOL    HW117270   0.077   0.113   1.642  0.0265  1.9493  0.8951
 1937SOL    HW217271   0.098   4.703   1.703  0.2422  0.4876 -1.8170
 1938SOL     OW17272   3.912   4.534   3.364  0.7909  0.3353 -0.4100
 1938SOL    HW117273   3.864   4.523   3.282 -0.5353 -0.9188  0.5623
 1938SOL    HW217274   3.837   4.563   3.414  0.1833 -0.1384 -1.0503
 1939SOL     OW17275   0.379   2.886  14.973 -0.0569  0.0310 -0.5073
 1939SOL    HW117276   0.337   2.972  14.985 -0.6829 -0.4062  0.4926
 1939SOL    HW217277   0.466   2.926  14.974 -0.5568  1.0990  0.3433
 1940SOL     OW17278   2.663   4.288   3.942  0.4195 -0.2484 -0.4713
 1940SOL    HW117279   2.581   4.307   3.896 -1.5519 -1.6053  2.4640
 1940SOL    HW217280   2.623   4.265   4.026  0.0467  1.1098 -0.2797
 1941SOL     OW17281   1.658   4.663  13.691 -0.0348  0.6628  0.1522
 1941SOL    HW117282   1.675   4.715  13.613  1.1668 -2.6642 -1.7898
 1941SOL    HW217283   1.732   4.602  13.694 -2.2853 -2.2382 -2.3740
 1942SOL     OW17284   2.753   2.042   7.289  0.1494  0.0120  0.2554
 1942SOL    HW117285   2.749   2.123   7.237 -0.1962  0.7635  1.4559
 1942SOL    HW217286   2.660   2.025   7.299 -0.2452  1.2719 -1.2148
 1943SOL     OW17287   2.434   0.414   7.986 -0.1302 -0.1293  0.1076
 1943SOL    HW117288   2.497   0.432   8.056  1.6033 -1.7381 -1.0163
 1943SOL    HW217289   2.471   0.334   7.947 -0.6628 -0.7961  0.9612
 1944SOL     OW17290   1.246   1.740   9.031  0.0828 -0.1731  0.0147
 1944SOL    HW117291   1.192   1.755   9.109  1.8322  0.1486  1.1654
 1944SOL    HW217292   1.331   1.779   9.053 -0.0856  1.0497 -1.4630
 1945SOL     OW17293   2.266   1.204   1.095 -0.0838  0.4542  0.2931
 1945SOL    HW117294   2.335   1.270   1.084  0.8040 -0.7860 -1.5250
 1945SOL    HW217295   2.192   1.264   1.103 -0.3904  0.3388 -1.6878
 1946SOL     OW17296   0.502   3.344   8.108 -0.4064  0.1099  0.1389
 1946SOL    HW117297   0.564   3.394   8.054 -1.6972  1.0748 -0.4391
 1946SOL    HW217298   0.530   3.359   8.198 -0.0782  2.0294 -0.2961
 1947SOL     OW17299   2.345   1.693   5.625 -0.1639 -0.1738  0.1295
 1947SOL    HW117300   2.296   1.715   5.705  0.0890  2.3524 -0.4405
 1947SOL    HW217301   2.405   1.623   5.653  0.0432 -0.3983 -0.8809
 1948SOL     OW17302   3.118   3.852   1.873 -0.2934  0.3732 -0.4639
 1948SOL    HW117303   3.206   3.818   1.892  0.7130  1.1200 -3.6730
 1948SOL    HW217304   3.121   3.921   1.939  2.1446 -1.3632  1.2338
 1949SOL     OW17305   0.687   2.243  16.326  0.1323 -0.3835 -0.7799
 1949SOL    HW117306   0.616   2.191  16.363 -1.2822  1.8160 -0.4494
 1949SOL    HW217307   0.708   2.199  16.243  2.9068  1.8833 -1.2824
 1950SOL     OW17308   1.331   3.072   9.330 -0.1146 -0.1283 -0.2227
 1950SOL    HW117309   1.321   3.082   9.425 -0.2385 -1.0796 -0.1401
 1950SOL    HW217310   1.424   3.092   9.314  0.0565 -1.1312 -0.4717
 1951SOL     OW17311   2.341   3.654   6.413 -0.3503  0.1161 -0.2021
 1951SOL    HW117312   2.299   3.650   6.499 -1.2192 -0.7527 -0.6689
 1951SOL    HW217313   2.283   3.599   6.361  2.7919 -1.3665 -2.1088
 1952SOL     OW17314   1.099   4.304  12.833 -0.3451 -0.5945  0.0251
 1952SOL    HW117315   1.118   4.354  12.913 -3.1407  0.1914  0.2182
 1952SOL    HW217316   1.113   4.216  12.867  1.8891 -0.5301 -0.7652
 1953SOL     OW17317   0.053   4.143   6.187 -0.0091  0.5280 -0.5424
 1953SOL    HW117318   0.082   4.221   6.235 -0.4632  0.4586 -0.1611
 1953SOL    HW217319   0.134   4.094   6.194 -1.2410 -1.3063  0.6763
 1954SOL     OW17320   1.328   4.138   6.087 -0.2966 -0.1257 -0.2278
 1954SOL    HW117321   1.306   4.205   6.023 -1.8458 -1.4993 -1.1268
 1954SOL    HW217322   1.243   4.119   6.128 -0.4475  0.5145 -0.2393
 1955SOL     OW17323   0.521   0.877  10.008  0.3673  0.5298 -0.3086
 1955SOL    HW117324   0.500   0.859  10.100 -1.6843  1.3018 -0.6208
 1955SOL    HW217325   0.602   0.827  10.000  0.6249  0.2924  3.8974
 1956SOL     OW17326   3.868   4.067  16.067 -0.0164  0.0294 -0.1383
 1956SOL    HW117327   3.842   4.098  15.980 -0.7873 -0.9919 -0.2628
 1956SOL    HW217328   3.786   4.021  16.083 -0.3080  1.3534  2.1675
 1957SOL     OW17329   1.767   4.484  10.704 -0.8610 -0.5057 -0.4049
 1957SOL    HW117330   1.698   4.471  10.769  0.0028 -4.0391 -0.1722
 1957SOL    HW217331   1.828   4.427  10.752 -0.9417  0.5504  0.9480
 1958SOL     OW17332   3.412   0.820  15.726  0.0532  0.1253  0.1553
 1958SOL    HW117333   3.507   0.817  15.713  0.0972 -0.2866  0.5920
 1958SOL    HW217334   3.407   0.793  15.818 -1.9672  2.1976  0.6346
 1959SOL     OW17335   0.535   0.207   6.960  0.6060 -0.1136  0.1204
 1959SOL    HW117336   0.507   0.209   6.868 -0.6323 -1.5427  0.4600
 1959SOL    HW217337   0.505   0.120   6.987  0.6819 -0.0596  0.3723
 1960SOL     OW17338   2.776   0.304   4.412 -0.1793  0.0929  0.1967
 1960SOL    HW117339   2.860   0.260   4.411  0.7168  1.8481 -0.5045
 1960SOL    HW217340   2.771   0.365   4.338  1.5976  2.3781  1.9632
 1961SOL     OW17341   0.041   1.693   3.502 -0.3453 -0.6413 -0.6519
 1961SOL    HW117342   4.686   1.636   3.486 -1.4305  0.6309 -0.0086
 1961SOL    HW217343   0.036   1.737   3.417  0.6298  1.7974  0.5853
 1962SOL     OW17344   1.951   3.386   2.374  0.7365 -0.1032  0.0374
 1962SOL    HW117345   1.878   3.325   2.362 -0.6891  1.1653  2.3452
 1962SOL    HW217346   1.985   3.358   2.459 -0.9336  0.5726  0.9415
 1963SOL     OW17347   3.951   4.683   8.952 -0.3321  0.2008 -0.7804
 1963SOL    HW117348   3.905   4.689   9.036  0.6084 -1.2689 -0.1538
 1963SOL    HW217349   4.003   0.042   8.959  1.6432 -1.1175 -0.2895
 1964SOL     OW17350   2.468   2.764   1.578 -0.4433 -0.1960  0.0049
 1964SOL    HW117351   2.472   2.805   1.664 -0.3185 -0.6094  0.1926
 1964SOL    HW217352   2.399   2.698   1.588 -0.2774 -0.2366  0.8831
 1965SOL     OW17353   2.726   1.872  10.261 -0.3326 -0.0956  0.2447
 1965SOL    HW117354   2.659   1.901  10.324  0.4441 -0.7953  1.3847
 1965SOL    HW217355   2.729   1.947  10.201  2.4318  1.1566  1.9464
 1966SOL     OW17356   0.227   3.018   5.509  0.0411 -0.1066  0.1191
 1966SOL    HW117357   0.250   2.928   5.533  0.8842  0.2686  0.7370
 1966SOL    HW217358   0.259   3.071   5.582 -0.3902 -1.2273  1.1317
 1967SOL     OW17359   0.551   3.119   8.401  0.1588  0.2411  0.1005
 1967SOL    HW117360   0.627   3.098   8.455  0.1094  0.3029  0.1929
 1967SOL    HW217361   0.511   3.033   8.389 -0.8103  1.0124 -2.3363
 1968SOL     OW17362   3.125   0.668  16.404  0.3482 -0.4733  0.5386
 1968SOL    HW117363   3.113   0.709  16.318  1.3407  0.8168  1.0090
 1968SOL    HW217364   3.168   0.740  16.450 -0.7513  0.1100  0.6652
 1969SOL     OW17365   0.748   1.994   2.714  0.0727  0.8148 -0.1786
 1969SOL    HW117366   0.811   2.049   2.667  0.8785  0.2497  0.2327
 1969SOL    HW217367   0.745   2.031   2.802 -0.9368 -0.2164  0.2234
 1970SOL     OW17368   2.613   1.820   8.026 -0.5095  0.2075  0.0282
 1970SOL    HW117369   2.592   1.888   8.090 -0.3142  0.5622 -0.2898
 1970SOL    HW217370   2.658   1.766   8.091  0.9852  0.5587 -0.7129
 1971SOL     OW17371   3.615   2.044   7.670 -0.1968  0.6830  0.3229
 1971SOL    HW117372   3.691   2.100   7.651 -0.9476  1.3387 -0.7757
 1971SOL    HW217373   3.664   1.967   7.700  0.6126  1.3787  0.7883
 1972SOL     OW17374   2.308   1.963   0.485  0.5317  0.5437 -0.1538
 1972SOL    HW117375   2.330   1.888   0.429 -1.1511 -0.0613 -0.0132
 1972SOL    HW217376   2.337   2.030   0.423  2.5951  0.0518  0.2818
 1973SOL     OW17377   3.373   2.986   6.398 -0.5074  0.8420 -0.0017
 1973SOL    HW117378   3.442   2.988   6.464  1.1183 -0.5483 -1.6539
 1973SOL    HW217379   3.352   3.079   6.390  2.8410  1.6107  0.2581
 1974SOL     OW17380   3.740   0.218   7.236 -0.3013 -0.2504  0.2262
 1974SOL    HW117381   3.728   0.132   7.195 -0.7616 -0.5443  0.9785
 1974SOL    HW217382   3.684   0.278   7.186 -0.3246 -0.3062  0.1857
 1975SOL     OW17383   0.841   3.637   4.030  0.6465  0.2754 -0.0900
 1975SOL    HW117384   0.883   3.574   3.971  1.6862 -1.0595  2.0838
 1975SOL    HW217385   0.902   3.636   4.104 -0.1936 -2.8250  0.5555
 1976SOL     OW17386   2.437   0.955   9.407  0.4307 -0.2330  0.0601
 1976SOL    HW117387   2.386   1.008   9.468  0.3380  0.4605 -0.6273
 1976SOL    HW217388   2.484   1.019   9.355 -0.8837 -0.3934 -1.3285
 1977SOL     OW17389   2.391   1.814   3.797  0.1577 -0.7671 -0.0789
 1977SOL    HW117390   2.349   1.887   3.751 -0.7095 -0.3981  1.2964
 1977SOL    HW217391   2.382   1.848   3.886  4.8144 -1.6709  0.7100
 1978SOL     OW17392   0.166   1.642   2.613 -0.1128 -0.1132  0.2217
 1978SOL    HW117393   0.132   1.623   2.701 -0.2355  1.7890  0.6032
 1978SOL    HW217394   0.179   1.736   2.628 -0.4757 -0.3170  1.8943
 1979SOL     OW17395   0.496   3.217   4.971 -0.1116  0.4772 -0.6092
 1979SOL    HW117396   0.418   3.243   5.019  0.2801 -0.8819  0.7576
 1979SOL    HW217397   0.554   3.292   4.984  1.5276 -0.6665 -1.2100
 1980SOL     OW17398   1.126   4.246  16.606 -0.5960 -0.2627 -0.3288
 1980SOL    HW117399   1.201   4.188  16.591 -0.8219 -0.7550  0.4147
 1980SOL    HW217400   1.063   4.191  16.653 -2.3885  0.9754 -1.3116
 1981SOL     OW17401   2.596   2.766   3.763  0.0206  0.2272  0.7444
 1981SOL    HW117402   2.530   2.831   3.787 -1.8670 -0.8773 -1.4974
 1981SOL    HW217403   2.592   2.764   3.667 -0.3694  0.1921  0.7636
 1982SOL     OW17404   1.039   2.074   3.218  0.1846 -0.0858 -0.3527
 1982SOL    HW117405   1.064   2.064   3.310 -2.5195  2.5025  0.6490
 1982SOL    HW217406   0.980   2.000   3.231  0.2424 -0.2809 -1.1832
 1983SOL     OW17407   3.094   4.267   2.709  0.7994 -0.2304  0.6524
 1983SOL    HW117408   2.999   4.262   2.697  1.4580 -1.4145 -4.1191
 1983SOL    HW217409   3.094   4.308   2.795 -1.6590  0.3269  0.3888
 1984SOL     OW17410   0.617   3.893   6.203  0.2354 -0.0519  0.1276
 1984SOL    HW117411   0.680   3.929   6.142 -1.4262  0.5867 -1.2171
 1984SOL    HW217412   0.660   3.808   6.204  1.0453  0.3679  0.4009
 1985SOL     OW17413   4.153   4.147   0.869 -0.6529  0.1155  0.2037
 1985SOL    HW117414   4.067   4.109   0.886 -0.5325 -0.4645 -0.5086
 1985SOL    HW217415   4.130   4.199   0.792 -1.9994  0.5528  0.8895
 1986SOL     OW17416   2.645   2.111   7.591 -0.6307 -0.1630 -0.2605
 1986SOL    HW117417   2.681   2.087   7.506  3.2000  0.1979  1.2686
 1986SOL    HW217418   2.585   2.180   7.564 -0.3975 -0.1961 -0.8494
 1987SOL     OW17419   3.778   2.913  13.952  0.2299 -0.1417  0.0104
 1987SOL    HW117420   3.741   2.883  13.869 -2.5729 -0.1892  1.2935
 1987SOL    HW217421   3.799   2.831  13.997 -0.2708 -0.5124 -0.4234
 1988SOL     OW17422   4.113   1.414   4.371  0.1223 -0.0027  0.1581
 1988SOL    HW117423   4.071   1.420   4.457 -0.9800  1.0570 -0.4467
 1988SOL    HW217424   4.039   1.435   4.315  0.6058 -2.0143 -1.2164
 1989SOL     OW17425   3.268   0.776   6.630 -0.0504  0.6006 -0.0240
 1989SOL    HW117426   3.210   0.849   6.610 -0.0432  0.5961 -0.0608
 1989SOL    HW217427   3.222   0.702   6.590  0.7785 -0.9943  1.9503
 1990SOL     OW17428   1.195   2.731   3.837 -0.8850 -0.1137  0.0506
 1990SOL    HW117429   1.180   2.744   3.743  0.3174 -1.2481 -0.3070
 1990SOL    HW217430   1.223   2.641   3.821  0.9172  0.2002  1.4764
 1991SOL     OW17431   1.755   0.227   9.584  0.1408 -0.1588 -0.0726
 1991SOL    HW117432   1.789   0.303   9.536 -0.7438 -0.0208 -0.4672
 1991SOL    HW217433   1.665   0.243   9.613  0.8733  0.0677  2.1046
 1992SOL     OW17434   3.383   1.449   1.623  0.8026  0.5575  0.4070
 1992SOL    HW117435   3.303   1.437   1.572  0.6356 -0.1792  0.8353
 1992SOL    HW217436   3.373   1.404   1.707  0.4169  0.6366  0.4018
 1993SOL     OW17437   3.883   1.063   8.250 -0.9342 -0.5700 -0.0279
 1993SOL    HW117438   3.845   1.106   8.173  0.4792  0.4775 -0.1440
 1993SOL    HW217439   3.952   1.121   8.281  0.8864 -1.7590 -1.8591
 1994SOL     OW17440   2.685   4.250   5.304  1.0244  0.6578 -0.4568
 1994SOL    HW117441   2.601   4.273   5.345 -0.1694 -0.7069 -2.1596
 1994SOL    HW217442   2.712   4.333   5.265 -0.2797  1.6803  0.8058
 1995SOL     OW17443   1.819   4.208   5.818  0.1146 -0.0799 -0.7971
 1995SOL    HW117444   1.853   4.288   5.858 -0.1438  0.6429 -2.0254
 1995SOL    HW217445   1.877   4.196   5.743  1.8251  1.6303  0.2571
 1996SOL     OW17446   3.011   1.079   5.759 -0.8224 -0.1296  0.8245
 1996SOL    HW117447   2.924   1.086   5.798 -0.9742  1.4931  0.2193
 1996SOL    HW217448   3.047   0.999   5.797 -1.2393 -0.4597  0.5290
 1997SOL     OW17449   4.672   3.132   5.517 -0.3327  0.0593  0.0616
 1997SOL    HW117450   4.688   3.207   5.460  0.0450  0.0704  0.1861
 1997SOL    HW217451   0.022   3.071   5.502 -2.2142 -2.1699  0.1493
 1998SOL     OW17452   2.585   0.398   0.680  0.0631 -0.2295  0.1197
 1998SOL    HW117453   2.588   0.492   0.662 -1.9158 -0.3123 -0.6855
 1998SOL    HW217454   2.528   0.373   0.607 -2.7103  1.3433  1.7281
 1999SOL     OW17455   2.744   1.208   3.127  0.3398 -0.1373  0.1944
 1999SOL    HW117456   2.822   1.261   3.144  0.5792 -0.3569 -0.2102
 1999SOL    HW217457   2.687   1.243   3.195  0.4373 -2.3472  1.4242
 2000SOL     OW17458   3.769   2.690   7.934  0.1715  0.3358 -0.0537
 2000SOL    HW117459   3.683   2.718   7.967 -0.0747  1.4454 -1.6623
 2000SOL    HW217460   3.807   2.700   8.022  1.2534  1.6353 -0.6722
 2001SOL     OW17461   3.170   1.066  15.607  0.2801 -0.3329 -0.3740
 2001SOL    HW117462   3.157   1.147  15.558 -2.3860 -0.0810  0.7424
 2001SOL    HW217463   3.123   1.085  15.688 -0.6511 -0.6710 -0.8428
 2002SOL     OW17464   3.179   0.408   6.511 -0.1741 -0.1371 -0.1792
 2002SOL    HW117465   3.184   0.444   6.599 -0.2099  0.6456 -0.4956
 2002SOL    HW217466   3.270   0.402   6.481  0.0647 -1.9702  0.9203
 2003SOL     OW17467   3.753   4.050   9.753  0.3480  0.3521 -0.3105
 2003SOL    HW117468   3.678   4.041   9.695  0.6783  1.4525 -0.8975
 2003SOL    HW217469   3.806   4.012   9.683 -1.3489  0.1177 -1.4728
 2004SOL     OW17470   1.806   3.327   4.362  0.3384  0.3821  0.6863
 2004SOL    HW117471   1.716   3.345   4.334  0.6657  1.5598  0.3834
 2004SOL    HW217472   1.813   3.397   4.427  0.5176  1.4294 -0.4658
 2005SOL     OW17473   3.791   2.665   6.132 -0.0894  0.0848  0.8065
 2005SOL    HW117474   3.825   2.735   6.187 -0.3837  1.7992 -1.2073
 2005SOL    HW217475   3.821   2.591   6.185  1.7154 -0.3685 -0.8742
 2006SOL     OW17476   0.044   1.510   2.379  0.4050 -0.9788 -0.3367
 2006SOL    HW117477   0.060   1.586   2.323  0.1481  0.1786  1.1397
 2006SOL    HW217478   0.081   1.541   2.462  1.3041 -0.8548 -0.7860
 2007SOL     OW17479   3.634   0.043  14.079  0.6284 -0.1971  0.1998
 2007SOL    HW117480   3.589   0.025  13.996 -0.5960 -0.7391  0.9900
 2007SOL    HW217481   3.681   0.126  14.065 -1.7561  0.9237 -1.2176
 2008SOL     OW17482   1.029   3.232   8.762 -0.0175  0.3011  0.1013
 2008SOL    HW117483   1.063   3.160   8.814 -1.2953 -0.8785 -0.6688
 2008SOL    HW217484   1.102   3.245   8.702 -1.5963  0.6959 -1.7594
 2009SOL     OW17485   1.507   4.565  14.355 -0.5522  0.4582 -0.3685
 2009SOL    HW117486   1.413   4.549  14.344 -0.8768  0.3686  2.5308
 2009SOL    HW217487   1.528   4.517  14.434 -2.4662  1.3901  0.7014
 2010SOL     OW17488   3.437   2.077  10.011 -0.2118  0.7495  0.4212
 2010SOL    HW117489   3.380   2.002  10.029  0.5923 -0.8136 -3.6522
 2010SOL    HW217490   3.401   2.152  10.059  1.6398  0.1464  2.7925
 2011SOL     OW17491   3.663   0.453  12.987  0.2480 -0.5302 -0.1203
 2011SOL    HW117492   3.724   0.379  12.993  0.3706 -0.3615  0.7340
 2011SOL    HW217493   3.678   0.491  12.900 -3.6490  1.3919  0.0404
 2012SOL     OW17494   2.579   4.432   4.701 -0.7542 -0.3041  0.3822
 2012SOL    HW117495   2.522   4.508   4.693  1.7610  1.7413  1.8530
 2012SOL    HW217496   2.555   4.404   4.789  1.4913  0.0320  1.0970
 2013SOL     OW17497   2.352   1.830  11.555 -0.2880  0.2824  0.0272
 2013SOL    HW117498   2.335   1.756  11.497 -0.1174  0.4220 -0.2017
 2013SOL    HW217499   2.294   1.897  11.519 -0.8329 -1.4637 -2.3452
 2014SOL     OW17500   1.327   3.116   4.699  0.1539 -0.5443  0.3432
 2014SOL    HW117501   1.411   3.112   4.652 -0.1574  3.7004 -0.6051
 2014SOL    HW217502   1.348   3.183   4.763 -2.2517 -2.0775  2.7134
 2015SOL     OW17503   3.339   4.717   5.906  0.0226 -0.0608  0.0929
 2015SOL    HW117504   3.255   0.006   5.951 -0.4553  3.2951 -1.5505
 2015SOL    HW217505   3.320   0.035   5.821  0.6041  0.9463  0.4222
 2016SOL     OW17506   2.322   3.720   2.186 -0.2740 -0.7873  0.5032
 2016SOL    HW117507   2.259   3.749   2.119  0.2881  0.3069  0.4391
 2016SOL    HW217508   2.262   3.665   2.236 -0.9418  0.6946  1.3520
 2017SOL     OW17509   1.390   3.541  12.266  0.0354 -0.9065  0.0437
 2017SOL    HW117510   1.459   3.563  12.329 -1.2377  1.6429  0.5203
 2017SOL    HW217511   1.409   3.602  12.195 -2.1305  0.6231  0.7895
 2018SOL     OW17512   2.252   2.405   5.977 -0.0121 -0.3993 -0.7736
 2018SOL    HW117513   2.254   2.485   6.031  0.3628 -0.4604 -0.6962
 2018SOL    HW217514   2.303   2.344   6.030  3.1767  1.1997 -1.9902
 2019SOL     OW17515   4.627   0.774   5.075 -0.4667 -0.4570  0.6705
 2019SOL    HW117516   4.560   0.710   5.099 -0.3555 -0.2551  1.5151
 2019SOL    HW217517   4.572   0.853   5.077 -0.7160 -0.6040 -0.2632
 2020SOL     OW17518   1.190   1.181  14.706 -0.6293 -0.1687  0.1528
 2020SOL    HW117519   1.132   1.126  14.760 -0.4485 -0.6691 -0.1725
 2020SOL    HW217520   1.128   1.245  14.669 -0.2987 -0.6236 -1.1639
 2021SOL     OW17521   3.092   3.991   2.129 -0.1259 -0.3526 -0.2842
 2021SOL    HW117522   2.996   3.999   2.130 -0.2194 -1.5727  0.6033
 2021SOL    HW217523   3.116   3.937   2.204  0.0584 -0.5017 -0.4479
 2022SOL     OW17524   3.859   4.404   7.372 -0.1091  0.0920  0.0173
 2022SOL    HW117525   3.863   4.318   7.414  3.8540  0.2195 -0.1550
 2022SOL    HW217526   3.920   4.397   7.299 -0.8216  0.1907 -0.5936
 2023SOL     OW17527   3.170   1.139   4.523  0.0096  0.5572  0.1760
 2023SOL    HW117528   3.188   1.048   4.547  0.3742  0.4611 -0.4528
 2023SOL    HW217529   3.110   1.151   4.597 -0.1084  0.4858  0.0910
 2024SOL     OW17530   4.379   1.768   8.139  0.2283 -0.0720  0.0734
 2024SOL    HW117531   4.350   1.679   8.121 -0.5432 -0.1173  1.5307
 2024SOL    HW217532   4.317   1.818   8.086 -0.0353  1.0219  1.4140
 2025SOL     OW17533   1.748   2.428   7.298 -0.3239  0.8967  0.1509
 2025SOL    HW117534   1.783   2.342   7.321  0.7516  0.9284 -1.3304
 2025SOL    HW217535   1.819   2.482   7.334  0.0798  0.1814  0.4285
 2026SOL     OW17536   2.846   1.559  12.346 -0.1791  0.5260 -0.5367
 2026SOL    HW117537   2.813   1.640  12.308  0.5640  0.1230 -2.0706
 2026SOL    HW217538   2.891   1.596  12.421  0.2123 -0.7764 -0.1311
 2027SOL     OW17539   0.977   2.496   6.837  0.0406 -0.0404  0.4598
 2027SOL    HW117540   0.886   2.473   6.853 -0.0559  0.7705  1.0488
 2027SOL    HW217541   1.015   2.410   6.819  1.0169  0.7297 -1.1399
 2028SOL     OW17542   0.953   3.142   8.481 -0.0801 -0.6987 -1.0384
 2028SOL    HW117543   0.929   3.205   8.549 -0.9881 -1.4599 -0.6611
 2028SOL    HW217544   1.044   3.168   8.471 -0.8214  1.4998 -2.0303
 2029SOL     OW17545   1.598   3.954  12.931  0.3278 -0.3649 -0.1635
 2029SOL    HW117546   1.626   3.880  12.876 -1.5702 -1.3645  0.2104
 2029SOL    HW217547   1.672   3.963  12.990 -0.7859  2.9682  0.7125
 2030SOL     OW17548   4.525   1.645   7.543 -0.0934 -0.0876  0.2488
 2030SOL    HW117549   4.531   1.591   7.621  1.8901  0.9758  0.8472
 2030SOL    HW217550   4.535   1.581   7.473  1.6235  1.1073 -0.6250
 2031SOL     OW17551   4.570   1.244   4.141 -0.1120  0.1898 -0.1003
 2031SOL    HW117552   4.512   1.232   4.066 -1.3059 -1.3608  1.0884
 2031SOL    HW217553   4.503   1.245   4.210  1.2264 -0.4082  1.2058
 2032SOL     OW17554   4.249   1.039  13.933 -0.5695  0.4612 -0.1258
 2032SOL    HW117555   4.169   1.086  13.956  0.0521  1.3433  0.2201
 2032SOL    HW217556   4.213   0.981  13.866  0.7312 -0.9352  0.3824
 2033SOL     OW17557   0.627   0.439   7.527  0.4623 -0.8022 -0.0150
 2033SOL    HW117558   0.715   0.464   7.555  0.0523  0.5384  0.0457
 2033SOL    HW217559   0.622   0.480   7.441 -2.0681  2.3692  1.6160
 2034SOL     OW17560   3.358   3.739   6.815  0.1875  0.6563  0.8469
 2034SOL    HW117561   3.424   3.807   6.822  0.0177  0.9139 -0.1074
 2034SOL    HW217562   3.342   3.726   6.908  1.9012  0.8581  1.1498
 2035SOL     OW17563   0.484   4.642   6.716  0.4843 -0.7344 -0.3956
 2035SOL    HW117564   0.509   4.555   6.685  0.5507 -0.7052 -0.4237
 2035SOL    HW217565   0.508   4.701   6.645 -1.6805 -0.8320 -1.2001
 2036SOL     OW17566   4.703   3.443   6.349  0.6781  0.0791 -0.1043
 2036SOL    HW117567   4.624   3.473   6.305  0.1702  0.3149  0.9712
 2036SOL    HW217568   0.042   3.422   6.278 -2.4451 -0.8179 -2.5059
 2037SOL     OW17569   4.484   3.942   5.733  0.0945 -0.3975 -0.0472
 2037SOL    HW117570   4.418   3.995   5.688  2.6287  2.1189 -0.8081
 2037SOL    HW217571   4.489   3.981   5.820  0.7216  1.4241 -0.8858
 2038SOL     OW17572   0.770   2.448  10.011  0.3142  0.1521  0.5172
 2038SOL    HW117573   0.863   2.461   9.997  0.6117 -1.4873  1.0041
 2038SOL    HW217574   0.757   2.353  10.004  0.7859  0.2250 -1.4998
 2039SOL     OW17575   4.696   0.600  17.093  0.1187  0.4969 -0.0439
 2039SOL    HW117576   0.023   0.538  17.147  0.3682 -1.0585 -2.0543
 2039SOL    HW217577   4.702   0.555  17.009  2.6880  2.6812 -1.0041
 2040SOL     OW17578   3.001   0.719   4.362 -0.4698  0.6310  0.9169
 2040SOL    HW117579   2.918   0.721   4.314 -0.9794 -1.2168  1.7357
 2040SOL    HW217580   2.982   0.763   4.445  0.6094  0.7281  1.1104
 2041SOL     OW17581   2.523   4.219   6.154  0.4540  0.0933 -0.5090
 2041SOL    HW117582   2.460   4.181   6.215  0.9875 -0.6263 -0.4149
 2041SOL    HW217583   2.554   4.137   6.116  0.7343 -1.0688  2.2121
 2042SOL     OW17584   3.398   0.890   7.474  0.3934  0.1059 -0.3062
 2042SOL    HW117585   3.383   0.976   7.433 -1.8286 -1.0288 -1.8749
 2042SOL    HW217586   3.429   0.923   7.558 -0.7934  0.0533  0.1539
 2043SOL     OW17587   0.372   0.147  16.443  0.1619 -0.0883 -0.5566
 2043SOL    HW117588   0.278   0.136  16.458  0.0202 -1.0244 -2.0931
 2043SOL    HW217589   0.407   0.072  16.491  1.9704 -0.3950 -2.3486
 2044SOL     OW17590   4.421   1.959   3.603  0.2727 -0.4870  0.0649
 2044SOL    HW117591   4.358   2.018   3.563  1.9185  0.4587 -1.1445
 2044SOL    HW217592   4.499   1.993   3.558  0.1722 -0.6564 -0.2412
 2045SOL     OW17593   2.686   3.526  13.119 -0.7818  0.0479 -0.2099
 2045SOL    HW117594   2.679   3.432  13.139  1.0398 -0.2097 -0.7619
 2045SOL    HW217595   2.725   3.561  13.198 -0.8730 -0.7588  0.1973
 2046SOL     OW17596   4.424   3.860   4.300 -0.6552 -0.8720  0.1386
 2046SOL    HW117597   4.450   3.810   4.223 -0.4465 -0.6937  0.0938
 2046SOL    HW217598   4.462   3.806   4.370 -1.4782 -0.1778  1.1188
 2047SOL     OW17599   4.516   2.760   3.295  0.3791  0.0825  0.4854
 2047SOL    HW117600   4.426   2.747   3.325 -0.4178  0.5982 -1.7175
 2047SOL    HW217601   4.535   2.853   3.311 -2.3739  0.5378  0.9703
 2048SOL     OW17602   2.219   3.389   6.394  0.1792 -0.2042  0.3309
 2048SOL    HW117603   2.275   3.326   6.347  0.1852 -1.4397  1.9776
 2048SOL    HW217604   2.261   3.385   6.480  1.3678 -2.4358 -0.3417
 2049SOL     OW17605   0.860   4.635   0.176  0.2837 -0.2631  0.0347
 2049SOL    HW117606   0.886   0.006   0.170  2.5445 -0.9470 -0.8964
 2049SOL    HW217607   0.809   4.644   0.257  0.0072  0.4081 -0.2113
 2050SOL     OW17608   2.715   0.739  16.577  0.2103  0.4254 -0.1250
 2050SOL    HW117609   2.747   0.798  16.510  0.1929  1.8106  1.0903
 2050SOL    HW217610   2.719   0.656  16.530 -0.3539  1.5131 -2.0821
 2051SOL     OW17611   1.251   2.643   0.375  0.0780  0.3565  0.3499
 2051SOL    HW117612   1.240   2.730   0.412 -2.5767  0.4942 -0.7720
 2051SOL    HW217613   1.345   2.630   0.386  0.8200  3.8400 -1.7674
 2052SOL     OW17614   2.957   4.266   5.098 -0.2527 -0.4719  0.0835
 2052SOL    HW117615   2.882   4.284   5.041 -1.5600 -0.7662  1.7046
 2052SOL    HW217616   2.987   4.185   5.057 -1.1549 -0.9612  0.3905
 2053SOL     OW17617   4.259   0.664  15.330  0.1465 -0.8722 -0.0421
 2053SOL    HW117618   4.201   0.697  15.399  0.7865  1.0073 -0.3867
 2053SOL    HW217619   4.216   0.701  15.252 -1.0382  1.1569  1.5896
 2054SOL     OW17620   3.811   4.177   4.844 -0.1530 -0.0646  0.3672
 2054SOL    HW117621   3.763   4.133   4.914  1.0490  1.0898  1.9198
 2054SOL    HW217622   3.796   4.116   4.772 -0.2607 -0.6214  0.8616
 2055SOL     OW17623   1.563   4.014   9.098  0.2514  0.8293 -0.0702
 2055SOL    HW117624   1.487   4.013   9.038 -0.8329 -1.7280  1.3501
 2055SOL    HW217625   1.574   3.919   9.098 -0.9745  0.6816  0.6911
 2056SOL     OW17626   2.644   3.496  17.516  0.0452  0.4507  0.0540
 2056SOL    HW117627   2.606   3.523  17.599 -1.9429  0.9194 -1.0063
 2056SOL    HW217628   2.730   3.537  17.524 -0.8437  2.0512  1.1766
 2057SOL     OW17629   0.795   0.223   7.090  0.0690 -0.0028 -0.2954
 2057SOL    HW117630   0.728   0.239   7.023  0.5080 -0.4303 -0.8348
 2057SOL    HW217631   0.754   0.161   7.151 -1.0345  0.3812 -0.6567
 2058SOL     OW17632   3.295   1.712   6.104  0.2524  0.2331  0.4258
 2058SOL    HW117633   3.322   1.623   6.082  0.5075  0.9102 -1.9281
 2058SOL    HW217634   3.208   1.722   6.067  1.1550 -0.1236 -1.7741
 2059SOL     OW17635   4.241   3.044   4.435 -0.6450  0.1234 -0.5211
 2059SOL    HW117636   4.239   2.949   4.449  0.6305  0.2186  0.2507
 2059SOL    HW217637   4.147   3.065   4.434 -0.9868 -1.3057  1.8953
 2060SOL     OW17638   1.217   3.233   8.512  0.1705  0.2970 -0.1506
 2060SOL    HW117639   1.244   3.178   8.586  0.3259 -1.8666 -1.8109
 2060SOL    HW217640   1.295   3.288   8.510 -1.0700  2.0573 -0.3557
 2061SOL     OW17641   0.564   1.813   2.930 -0.4935  0.3768  0.5304
 2061SOL    HW117642   0.578   1.907   2.933 -1.8276  0.5942  0.1300
 2061SOL    HW217643   0.470   1.805   2.947 -0.3210 -0.5214  1.0775
 2062SOL     OW17644   3.554   2.814   4.679  0.1021 -0.0362 -0.1106
 2062SOL    HW117645   3.639   2.833   4.717  0.1164  0.9977 -0.6448
 2062SOL    HW217646   3.498   2.820   4.756  0.8987  0.3947  0.4317
 2063SOL     OW17647   3.593   2.115   3.284 -0.3648 -0.4719 -0.4927
 2063SOL    HW117648   3.569   2.166   3.361 -1.2719 -1.8452  0.1434
 2063SOL    HW217649   3.530   2.148   3.220 -0.2416  0.6179 -0.0510
 2064SOL     OW17650   2.079   4.181   1.884  0.2885 -0.1779 -0.1383
 2064SOL    HW117651   2.015   4.132   1.936  0.4089 -1.0542 -0.8186
 2064SOL    HW217652   2.032   4.177   1.801  0.9524 -2.3777 -0.3999
 2065SOL     OW17653   0.807   4.459  14.325  0.2606  0.0154 -0.1341
 2065SOL    HW117654   0.869   4.498  14.263 -0.2882 -1.6295 -1.7504
 2065SOL    HW217655   0.829   4.504  14.406 -0.9529 -0.6121  0.5430
 2066SOL     OW17656   1.574   2.588   3.076  0.7110 -0.4843 -0.3703
 2066SOL    HW117657   1.514   2.564   3.005  1.2980  0.6249 -1.2553
 2066SOL    HW217658   1.515   2.626   3.140  0.1508 -1.4544 -0.3101
 2067SOL     OW17659   2.298   4.423   3.312 -0.2068  0.2287  0.2738
 2067SOL    HW117660   2.265   4.512   3.324 -0.7671  0.1510 -0.6862
 2067SOL    HW217661   2.359   4.426   3.386  2.2846  1.0786 -1.7967
 2068SOL     OW17662   3.588   3.296   1.038 -0.9055 -0.8876  0.1740
 2068SOL    HW117663   3.558   3.205   1.035 -0.0605 -1.1353 -0.7698
 2068SOL    HW217664   3.652   3.287   0.967  0.4712  0.0811  1.3042
 2069SOL     OW17665   3.584   4.572  14.731  0.5246 -0.0412  0.1306
 2069SOL    HW117666   3.636   4.557  14.653  0.2267 -0.9366  0.1124
 2069SOL    HW217667   3.552   4.483  14.742 -1.6411  0.5315 -1.5955
 2070SOL     OW17668   3.487   3.707   1.333  0.0223  0.4054  0.3788
 2070SOL    HW117669   3.453   3.725   1.245  2.9546 -1.2578 -1.0831
 2070SOL    HW217670   3.523   3.619   1.323 -0.8884 -0.1002  1.4665
 2071SOL     OW17671   4.122   4.422   3.565  0.2225 -0.4589  0.1004
 2071SOL    HW117672   4.080   4.365   3.629  0.3712 -2.3038 -1.4580
 2071SOL    HW217673   4.087   4.506   3.595  0.5405  0.2450 -1.4652
 2072SOL     OW17674   0.375   0.112   0.424  0.1669 -0.2634  0.5293
 2072SOL    HW117675   0.288   0.078   0.447 -1.0301  2.5660  0.2008
 2072SOL    HW217676   0.380   0.198   0.466  0.3081 -0.6567  1.3270
 2073SOL     OW17677   3.942   0.525   7.364 -0.6113  0.1065 -0.0711
 2073SOL    HW117678   3.847   0.517   7.377 -0.3167 -2.5704  0.4178
 2073SOL    HW217679   3.964   0.432   7.362  0.5120  0.3736 -0.0815
 2074SOL     OW17680   2.075   1.735  12.805  0.0156  0.0543 -0.0066
 2074SOL    HW117681   2.059   1.641  12.820 -2.5707  0.4230 -0.4792
 2074SOL    HW217682   2.145   1.753  12.868  0.8087 -0.0632 -0.8557
 2075SOL     OW17683   1.116   2.673   5.972  0.0956 -0.0257 -0.0042
 2075SOL    HW117684   1.194   2.634   6.010 -0.1232 -0.7597 -0.3181
 2075SOL    HW217685   1.132   2.668   5.878 -0.9003 -1.8453 -0.0754
 2076SOL     OW17686   4.245   2.905   3.737  0.0115  0.4422  0.0714
 2076SOL    HW117687   4.193   2.968   3.687 -0.2978 -1.4153 -1.9380
 2076SOL    HW217688   4.330   2.949   3.732 -0.5679  1.7759  1.9285
 2077SOL     OW17689   4.657   1.833   2.904 -0.1361  0.0751 -0.0088
 2077SOL    HW117690   4.653   1.922   2.872 -1.7023  1.0512  2.8734
 2077SOL    HW217691   4.606   1.791   2.835 -0.3421 -0.1728  0.2923
 2078SOL     OW17692   1.754   2.937   2.956  0.1622 -0.1255 -0.4067
 2078SOL    HW117693   1.709   2.907   3.035  1.2262  0.0273  0.2610
 2078SOL    HW217694   1.822   2.869   2.958 -0.4058 -0.6593  0.4641
 2079SOL     OW17695   3.088   4.583   3.770  0.8730 -0.3958  0.3124
 2079SOL    HW117696   3.030   4.617   3.701 -0.7675 -1.2963  1.2350
 2079SOL    HW217697   3.177   4.604   3.742  1.3806  0.3830  2.5334
 2080SOL     OW17698   2.591   1.418   6.866  0.5812 -0.0910  0.1292
 2080SOL    HW117699   2.654   1.365   6.915  0.7552  0.8959  0.9669
 2080SOL    HW217700   2.646   1.470   6.808 -0.9214  0.9162 -0.3967
 2081SOL     OW17701   3.944   3.612   4.515  0.2967 -0.3274  0.5863
 2081SOL    HW117702   3.973   3.553   4.585 -1.0882 -3.2629 -1.3167
 2081SOL    HW217703   3.850   3.615   4.532  0.1922  1.2793 -0.3909
 2082SOL     OW17704   2.220   1.208   6.795 -0.1337 -0.2858 -0.2216
 2082SOL    HW117705   2.144   1.169   6.838  1.0945 -1.6207  0.7211
 2082SOL    HW217706   2.227   1.300   6.822  1.4563 -1.0294  1.8843
 2083SOL     OW17707   0.973   1.912   8.586  0.5246 -0.7329 -0.3854
 2083SOL    HW117708   1.050   1.951   8.629  0.5650  0.0226 -1.1449
 2083SOL    HW217709   0.908   1.928   8.655  1.5121  3.0307 -0.3287
 2084SOL     OW17710   0.752   2.529  11.698 -0.1774 -0.3125 -0.3762
 2084SOL    HW117711   0.845   2.520  11.676 -0.4664 -0.2229 -1.6496
 2084SOL    HW217712   0.727   2.439  11.719  0.9533 -0.5418 -0.0334
 2085SOL     OW17713   3.512   2.839   8.938  0.4879  0.3840  0.0804
 2085SOL    HW117714   3.422   2.826   8.906  0.9152  1.5328 -1.6100
 2085SOL    HW217715   3.530   2.750   8.970  0.1997  0.4392  0.3899
 2086SOL     OW17716   0.789   1.339   2.660 -0.2319 -0.7311  0.9023
 2086SOL    HW117717   0.801   1.267   2.599 -1.3235  0.8628 -1.1903
 2086SOL    HW217718   0.739   1.290   2.726  0.2588  0.3587  2.0954
 2087SOL     OW17719   2.983   0.981  16.575 -0.1333  0.2347  0.2415
 2087SOL    HW117720   2.895   0.999  16.543  0.5890  0.1635 -1.8297
 2087SOL    HW217721   3.007   0.921  16.504  0.4489  0.0555  0.5930
 2088SOL     OW17722   2.985   3.979  17.640  0.0175 -0.1085  0.5266
 2088SOL    HW117723   2.953   3.901  17.684 -0.7341 -0.5497 -0.8051
 2088SOL    HW217724   3.073   3.943  17.629 -0.9857 -2.1727 -0.6851
 2089SOL     OW17725   0.219   4.097   9.019 -0.1380  0.5462 -0.0105
 2089SOL    HW117726   0.291   4.118   8.960 -0.0044  2.0872  0.7056
 2089SOL    HW217727   0.214   4.169   9.082  0.4744 -1.6289  2.5306
 2090SOL     OW17728   0.403   2.866   8.329 -0.6974 -0.3100 -0.6834
 2090SOL    HW117729   0.353   2.868   8.247 -1.6175  3.7698 -0.0157
 2090SOL    HW217730   0.336   2.898   8.388  2.4619  2.2136  1.5679
 2091SOL     OW17731   3.035   4.529   8.263  0.4135  0.0221  0.3640
 2091SOL    HW117732   2.951   4.493   8.293 -0.8810 -0.3291 -3.6462
 2091SOL    HW217733   3.039   4.604   8.321  0.3777  0.6517 -0.4482
 2092SOL     OW17734   2.561   3.514   4.846 -0.1493  0.2122 -0.2592
 2092SOL    HW117735   2.558   3.458   4.769  2.3397  0.9121 -0.8915
 2092SOL    HW217736   2.469   3.541   4.847  0.0231  0.7319  1.5813
 2093SOL     OW17737   3.395   3.940  10.210  0.2374 -0.0189  0.0455
 2093SOL    HW117738   3.320   3.881  10.204  1.1061 -0.8419 -2.7564
 2093SOL    HW217739   3.363   4.010  10.268 -1.9247  1.2224 -2.6547
 2094SOL     OW17740   1.233   1.710   2.403  0.3478  0.0850  0.4838
 2094SOL    HW117741   1.147   1.684   2.436 -0.1433 -0.5651 -1.3429
 2094SOL    HW217742   1.210   1.735   2.313 -0.3713 -0.0343  0.6354
 2095SOL     OW17743   0.914   0.178  14.152 -0.1183  0.3899 -0.1434
 2095SOL    HW117744   0.887   0.241  14.085 -2.0381 -1.4232 -1.0686
 2095SOL    HW217745   1.009   0.186  14.156  0.0798 -2.6739  1.0146
 2096SOL     OW17746   1.001   2.693   7.918  0.0798 -0.3740  0.2346
 2096SOL    HW117747   0.920   2.655   7.952  1.0160 -1.3043  1.4411
 2096SOL    HW217748   1.048   2.713   7.999  0.3491 -4.1508  1.0307
 2097SOL     OW17749   2.328   2.764   3.403 -0.7697 -0.2267 -0.2516
 2097SOL    HW117750   2.324   2.848   3.450  0.3202 -0.7220  0.7584
 2097SOL    HW217751   2.235   2.761   3.381 -0.4223 -1.4416 -1.5095
 2098SOL     OW17752   3.075   0.875   0.811 -0.8870  0.0622 -0.0716
 2098SOL    HW117753   3.112   0.792   0.840 -1.6008  0.2857  1.4322
 2098SOL    HW217754   3.042   0.849   0.725 -0.1343 -1.9428  0.2568
 2099SOL     OW17755   1.255   3.133   6.928  0.1939 -0.0437 -0.5692
 2099SOL    HW117756   1.281   3.179   7.008 -0.6184 -2.0671  0.8692
 2099SOL    HW217757   1.246   3.040   6.952  2.1124 -0.0887 -0.0221
 2100SOL     OW17758   2.725   3.662   7.278  0.1296  0.0573 -0.2290
 2100SOL    HW117759   2.779   3.729   7.319 -1.1999  1.0420 -0.0677
 2100SOL    HW217760   2.791   3.609   7.233 -0.7066 -0.3457 -0.9787
 2101SOL     OW17761   2.942   1.312   1.447 -0.9027 -0.2281 -0.2611
 2101SOL    HW117762   2.878   1.373   1.412  0.4677  1.6314  0.4910
 2101SOL    HW217763   2.978   1.282   1.363  0.9462  0.8801  0.1318
 2102SOL     OW17764   0.757   3.076   5.832  0.1219  0.1867 -0.2598
 2102SOL    HW117765   0.819   3.040   5.896 -0.2580 -1.1954 -0.6608
 2102SOL    HW217766   0.681   3.022   5.853 -0.3591  0.0814 -2.2876
 2103SOL     OW17767   1.147   1.739   5.716 -0.1434  0.1206  0.6417
 2103SOL    HW117768   1.204   1.793   5.662 -1.1774  1.4479  0.8870
 2103SOL    HW217769   1.127   1.671   5.652  0.6968 -0.4251  0.9673
 2104SOL     OW17770   0.082   1.104   4.125  0.0450 -0.0056  0.4200
 2104SOL    HW117771   0.067   1.010   4.135 -0.1201 -0.2312 -1.8674
 2104SOL    HW217772   4.715   1.137   4.107  0.2028  0.7794  1.0722
 2105SOL     OW17773   2.596   2.494   1.860 -0.4421  0.7399 -0.2187
 2105SOL    HW117774   2.689   2.510   1.873  0.1454 -0.5759 -2.6874
 2105SOL    HW217775   2.599   2.430   1.788  2.2087 -1.4394  1.8551
 2106SOL     OW17776   1.989   1.612   7.031  0.0048  0.6171 -0.7046
 2106SOL    HW117777   1.903   1.572   7.018  0.1665  0.0743 -0.1153
 2106SOL    HW217778   2.024   1.602   7.120  1.2875 -0.7857 -1.3653
 2107SOL     OW17779   1.054   0.091   2.383 -0.2043 -0.4041  0.2016
 2107SOL    HW117780   0.965   0.121   2.368 -0.4233 -1.7772 -1.2837
 2107SOL    HW217781   1.115   0.163   2.370  1.5180 -1.1867  3.7752
 2108SOL     OW17782   1.961   1.808   4.687 -0.4369  0.3268  0.6815
 2108SOL    HW117783   2.049   1.773   4.671  0.7555  3.2820  0.7476
 2108SOL    HW217784   1.955   1.808   4.782  1.0289 -1.5713  0.7710
 2109SOL     OW17785   0.900   1.153  11.737 -0.1569 -0.2023  0.2154
 2109SOL    HW117786   0.938   1.081  11.788 -0.9209  0.1689  1.3066
 2109SOL    HW217787   0.979   1.183  11.693  0.5201  0.2323  1.7400
 2110SOL     OW17788   4.395   1.577   3.694  0.0506  0.4169  0.4424
 2110SOL    HW117789   4.474   1.544   3.736  0.1965  1.0829  0.6834
 2110SOL    HW217790   4.426   1.631   3.621  0.5620 -0.2975  0.1335
 2111SOL     OW17791   2.572   2.758   8.135 -0.2060  0.4599 -0.6875
 2111SOL    HW117792   2.584   2.788   8.045  0.3490  2.0471 -0.0813
 2111SOL    HW217793   2.529   2.836   8.170 -0.9540 -0.9166  1.4321
 2112SOL     OW17794   3.062   2.913   1.777  0.2282 -0.7380  0.3086
 2112SOL    HW117795   3.019   2.936   1.695  0.6287 -2.4969 -0.3931
 2112SOL    HW217796   2.995   2.866   1.826  0.2446 -2.4316 -1.2970
 2113SOL     OW17797   1.391   2.775  15.489  0.0538 -0.3817 -0.2268
 2113SOL    HW117798   1.369   2.867  15.473 -0.4766 -0.1917  1.5933
 2113SOL    HW217799   1.479   2.779  15.528  1.0683  2.8059 -2.7792
 2114SOL     OW17800   1.604   3.005   9.153 -0.0185  0.0620  0.7373
 2114SOL    HW117801   1.595   3.083   9.207 -1.2336  0.4623 -0.0445
 2114SOL    HW217802   1.695   2.977   9.159 -1.0885 -3.6476 -0.7296
 2115SOL     OW17803   0.032   3.293   0.715 -0.4367  0.1394 -0.5503
 2115SOL    HW117804   0.029   3.302   0.811 -1.5046 -1.5686 -0.4267
 2115SOL    HW217805   0.014   3.200   0.708 -1.5077  0.1358  2.1609
 2116SOL     OW17806   2.874   1.045   0.712 -0.4664 -0.1388  0.0948
 2116SOL    HW117807   2.953   1.014   0.757  0.2862 -0.2394 -1.2914
 2116SOL    HW217808   2.920   1.085   0.639  2.0600 -2.0026  0.6638
 2117SOL     OW17809   1.678   1.377  11.083  0.4421 -0.1753 -0.2663
 2117SOL    HW117810   1.744   1.354  11.017 -0.7720 -0.7607 -1.2952
 2117SOL    HW217811   1.627   1.296  11.090  1.0833 -0.6826 -1.4732
 2118SOL     OW17812   3.235   3.624   0.463 -0.4069 -0.5810 -0.7938
 2118SOL    HW117813   3.189   3.634   0.547  1.5971 -0.9096  0.3389
 2118SOL    HW217814   3.254   3.532   0.480 -1.3415 -1.0067 -2.0122
 2119SOL     OW17815   3.171   4.384  17.497  0.0287 -0.1221 -0.3402
 2119SOL    HW117816   3.175   4.302  17.447  0.3656 -0.7817  0.7841
 2119SOL    HW217817   3.081   4.375  17.529 -0.8528 -1.5274 -3.2044
 2120SOL     OW17818   1.424   4.463  16.467 -0.4103  0.0880 -0.3526
 2120SOL    HW117819   1.402   4.544  16.421 -0.6970 -1.0980 -2.2926
 2120SOL    HW217820   1.461   4.413  16.394  0.7348 -0.3149  0.4985
 2121SOL     OW17821   4.157   1.312   8.210 -0.4813  0.0095 -0.1311
 2121SOL    HW117822   4.067   1.337   8.188  0.0668  1.2831 -0.8525
 2121SOL    HW217823   4.156   1.295   8.305  1.6723 -1.3921 -0.3529
 2122SOL     OW17824   4.711   4.719   3.761 -0.0032 -0.2507  0.1034
 2122SOL    HW117825   0.055   4.682   3.820 -0.2548 -1.1689 -0.1891
 2122SOL    HW217826   4.658   4.639   3.751 -0.6143  0.4110 -2.0466
 2123SOL     OW17827   3.675   0.498   0.404  0.5630  0.4414  0.0168
 2123SOL    HW117828   3.707   0.427   0.460  0.7597  1.2418  0.9300
 2123SOL    HW217829   3.698   0.477   0.314 -0.7013 -0.3823 -0.1045
 2124SOL     OW17830   1.922   2.093   3.203  0.5227 -0.0573  0.0169
 2124SOL    HW117831   2.002   2.138   3.230 -0.8849  0.7915  2.7101
 2124SOL    HW217832   1.876   2.100   3.287  0.5774  0.6976 -0.0085
 2125SOL     OW17833   3.582   3.112  11.727 -0.7757  0.0858 -0.6863
 2125SOL    HW117834   3.595   3.029  11.681 -0.1130 -0.7010  0.9115
 2125SOL    HW217835   3.514   3.149  11.671 -0.4996  0.4696 -0.7693
 2126SOL     OW17836   2.848   2.362   2.787 -0.0482  0.1992  0.0560
 2126SOL    HW117837   2.756   2.358   2.814 -0.1757  2.3212 -0.0378
 2126SOL    HW217838   2.892   2.414   2.855  0.5658 -0.4499  0.1453
 2127SOL     OW17839   3.112   0.892  17.240 -0.0978  0.2037  0.4776
 2127SOL    HW117840   3.200   0.922  17.263  0.6719 -0.3504 -1.7055
 2127SOL    HW217841   3.141   0.850  17.159  0.3120 -2.0101  1.7614
 2128SOL     OW17842   3.360   2.163   7.255  0.0200 -0.3185 -0.1056
 2128SOL    HW117843   3.432   2.166   7.192  2.3717 -0.1369  2.6200
 2128SOL    HW217844   3.383   2.098   7.321  0.0053 -0.3247 -0.1065
 2129SOL     OW17845   2.951   0.982   4.127  0.2112 -0.2774  0.1704
 2129SOL    HW117846   3.029   1.012   4.174  0.6124 -0.0033 -0.6855
 2129SOL    HW217847   2.878   1.004   4.186  0.7580 -0.5707  0.9511
 2130SOL     OW17848   1.923   0.730  10.565  0.0173 -0.3859 -0.1148
 2130SOL    HW117849   1.910   0.688  10.479 -1.7104 -0.7387  0.3257
 2130SOL    HW217850   2.015   0.758  10.565 -0.6544  1.8075  1.2580
 2131SOL     OW17851   0.248   1.735   6.108  0.1343  0.0098  0.2754
 2131SOL    HW117852   0.203   1.654   6.082 -2.0538  1.7373 -1.3215
 2131SOL    HW217853   0.330   1.716   6.062  0.7738  2.4646  0.4002
 2132SOL     OW17854   3.102   2.696   3.210 -0.2568  0.2801  0.3708
 2132SOL    HW117855   3.192   2.670   3.231 -0.3155  0.1656  0.4826
 2132SOL    HW217856   3.092   2.782   3.250  1.4837  0.4651  0.4391
 2133SOL     OW17857   4.129   4.051  12.293  0.6045  0.1295 -0.3445
 2133SOL    HW117858   4.086   3.975  12.255  1.1076 -0.4424  0.2239
 2133SOL    HW217859   4.219   4.019  12.284 -0.3921 -2.7265 -0.0525
 2134SOL     OW17860   3.203   3.524   2.473  0.2096 -0.8884  0.4884
 2134SOL    HW117861   3.117   3.564   2.462  1.4196  1.3819 -0.8210
 2134SOL    HW217862   3.255   3.578   2.532  0.3612 -0.2243 -0.2569
 2135SOL     OW17863   1.649   0.037   3.139  0.2099  0.0778 -0.1661
 2135SOL    HW117864   1.646   0.128   3.166 -2.4474 -0.9016  2.8279
 2135SOL    HW217865   1.649   4.719   3.226 -2.0453 -1.9183 -1.0432
 2136SOL     OW17866   0.403   4.374   8.835 -0.4271  0.9803  0.1240
 2136SOL    HW117867   0.328   4.323   8.803 -0.8710  0.0023  2.7117
 2136SOL    HW217868   0.360   4.458   8.846 -1.3285  0.6078 -0.4912
 2137SOL     OW17869   1.982   3.655  17.589  0.0093 -0.2014  0.2367
 2137SOL    HW117870   1.983   3.744  17.554 -0.8082  0.1405  1.0927
 2137SOL    HW217871   1.888   3.648  17.604  0.0583  1.5350  1.3304
 2138SOL     OW17872   0.309   4.166   0.816  0.0420 -0.5267 -0.0268
 2138SOL    HW117873   0.277   4.226   0.884  0.1983  0.9777 -1.2903
 2138SOL    HW217874   0.363   4.108   0.870  0.1170  0.6166  1.1304
 2139SOL     OW17875   3.985   4.240   3.225  0.1315  0.4258  0.1989
 2139SOL    HW117876   3.937   4.294   3.288  0.8893  0.9588  0.3242
 2139SOL    HW217877   4.069   4.225   3.270  0.3146 -0.1950 -0.3552
 2140SOL     OW17878   3.625   3.363   3.006  0.0826  0.8927  0.2386
 2140SOL    HW117879   3.552   3.400   3.054 -1.5923 -0.2208 -1.4590
 2140SOL    HW217880   3.593   3.280   2.969  0.1552  0.5526  0.9310
 2141SOL     OW17881   0.460   4.530   6.113 -0.1572  0.2915 -0.2627
 2141SOL    HW117882   0.470   4.443   6.150 -1.3653  0.5325  0.6198
 2141SOL    HW217883   0.503   4.515   6.029  2.8397  2.0505  0.9499
 2142SOL     OW17884   4.287   0.104   4.483 -0.1080 -0.0340  0.0011
 2142SOL    HW117885   4.372   0.134   4.515 -0.3329  1.6203 -0.9232
 2142SOL    HW217886   4.279   0.012   4.508 -0.4746 -0.2688 -0.9480
 2143SOL     OW17887   2.287   1.995   0.193  0.4244  0.3795  0.1481
 2143SOL    HW117888   2.308   1.904   0.215 -0.0922 -0.0414 -1.0845
 2143SOL    HW217889   2.268   1.992   0.099 -1.2379  0.8169  0.4796
 2144SOL     OW17890   2.828   0.558   8.005 -0.4323 -0.5251  0.1037
 2144SOL    HW117891   2.784   0.530   7.925 -1.5271  1.9543 -0.1716
 2144SOL    HW217892   2.766   0.531   8.072  0.5910  1.3347  1.8238
 2145SOL     OW17893   4.126   0.670   6.345  0.1106  0.8229 -0.2330
 2145SOL    HW117894   4.039   0.632   6.347  1.1801 -1.8011 -3.6079
 2145SOL    HW217895   4.122   0.721   6.264 -0.7233  1.6518  0.3283
 2146SOL     OW17896   3.297   1.362   9.331  0.2493 -0.3806 -0.2013
 2146SOL    HW117897   3.258   1.447   9.350 -1.7029 -1.3798  0.2543
 2146SOL    HW217898   3.294   1.327   9.420 -2.8190  0.1830 -0.0813
 2147SOL     OW17899   1.353   2.095   4.670 -0.4847 -0.5969  0.6903
 2147SOL    HW117900   1.369   2.154   4.744  2.3046 -0.9714  0.3881
 2147SOL    HW217901   1.258   2.103   4.666 -0.4003 -0.2248 -0.4930
 2148SOL     OW17902   1.512   0.634   2.256 -0.3240 -0.1572 -0.4942
 2148SOL    HW117903   1.511   0.651   2.350 -2.4634 -0.4079 -0.4733
 2148SOL    HW217904   1.446   0.565   2.255 -1.0182  0.5196 -1.5783
 2149SOL     OW17905   0.749   4.129   4.367 -0.2973  0.3503 -0.1597
 2149SOL    HW117906   0.699   4.085   4.298  0.8845 -1.4927  0.1775
 2149SOL    HW217907   0.771   4.060   4.429 -1.0976  2.1762  2.1295
 2150SOL     OW17908   2.684   4.584   9.148 -0.4244 -0.4655 -0.3955
 2150SOL    HW117909   2.780   4.579   9.139 -0.2884 -0.4474  1.1796
 2150SOL    HW217910   2.679   4.657   9.210  0.4560  0.1396 -1.0205
 2151SOL     OW17911   3.197   0.663  11.283 -0.2579 -0.1195 -0.1399
 2151SOL    HW117912   3.111   0.705  11.276  0.9023  2.2719  0.2584
 2151SOL    HW217913   3.249   0.734  11.245  0.6787 -0.3564  0.6923
 2152SOL     OW17914   1.036   1.500  15.381  0.1907  0.2110 -0.3070
 2152SOL    HW117915   1.102   1.519  15.448  1.1533 -1.7120 -0.7132
 2152SOL    HW217916   0.958   1.517  15.433  0.0411 -0.0553 -0.4477
 2153SOL     OW17917   4.179   0.499  14.321  0.1787  0.8110  0.1982
 2153SOL    HW117918   4.159   0.509  14.414 -0.0587 -0.6139  0.2977
 2153SOL    HW217919   4.245   0.567  14.308  1.0294  0.1225  0.9684
 2154SOL     OW17920   0.209   1.891   2.668  0.0873  0.1978  0.1486
 2154SOL    HW117921   0.299   1.921   2.655  0.7763 -1.5047  1.0455
 2154SOL    HW217922   0.195   1.923   2.757  2.8730  0.2686  0.5467
 2155SOL     OW17923   4.513   3.709   2.962 -0.3640  0.5864  0.2604
 2155SOL    HW117924   4.522   3.614   2.970  0.4998  0.4030 -2.7400
 2155SOL    HW217925   4.578   3.720   2.892  1.3864 -1.8267  1.5403
 2156SOL     OW17926   2.631   4.016   6.015 -0.6187  0.2767 -0.4161
 2156SOL    HW117927   2.604   3.931   5.980  0.1388 -0.1167 -0.0387
 2156SOL    HW217928   2.721   4.032   5.986 -1.3075  0.4347 -2.4898
 2157SOL     OW17929   4.329   2.617   4.374 -0.5138  0.2285 -0.0092
 2157SOL    HW117930   4.414   2.603   4.333  1.3351  2.4000  3.1428
 2157SOL    HW217931   4.273   2.621   4.296  0.2346 -1.3988 -0.6341
 2158SOL     OW17932   2.977   3.624  16.098 -0.2768 -0.1510  0.2511
 2158SOL    HW117933   3.060   3.593  16.135  0.1404  2.8175  1.8605
 2158SOL    HW217934   2.914   3.572  16.148 -1.0853 -0.0445 -0.6575
 2159SOL     OW17935   4.199   3.998  17.381 -0.1989 -0.2263 -0.2935
 2159SOL    HW117936   4.142   3.987  17.304  0.3642  2.1266 -1.0621
 2159SOL    HW217937   4.171   4.079  17.424  2.1407  0.1208  0.5384
 2160SOL     OW17938   3.768   2.774   2.575 -0.4708 -0.5509 -0.3509
 2160SOL    HW117939   3.790   2.770   2.482  0.8051  0.0139 -0.0768
 2160SOL    HW217940   3.678   2.742   2.569  0.1830 -2.5777  0.7034
 2161SOL     OW17941   2.614   3.821  17.554 -0.5025 -1.0515  0.0910
 2161SOL    HW117942   2.544   3.755  17.554  0.0469 -1.6074 -3.7083
 2161SOL    HW217943   2.665   3.805  17.634 -2.4267  1.1812  1.7808
 2162SOL     OW17944   3.252   3.357   7.613  0.3605 -0.0103 -0.0768
 2162SOL    HW117945   3.271   3.265   7.599 -1.7560 -0.6157  0.9866
 2162SOL    HW217946   3.159   3.347   7.635  0.2576  1.1666  0.0265
 2163SOL     OW17947   0.767   1.053   7.747  0.2387 -0.3517  0.2524
 2163SOL    HW117948   0.808   0.969   7.767  1.6313  0.2617 -0.0073
 2163SOL    HW217949   0.823   1.113   7.795 -0.7701 -0.1301  1.1565
 2164SOL     OW17950   1.535   4.307  15.340 -0.0542  0.2962  0.5791
 2164SOL    HW117951   1.536   4.396  15.373  1.9411  0.6642 -0.4571
 2164SOL    HW217952   1.467   4.267  15.393 -0.8838 -2.2322 -2.4067
 2165SOL     OW17953   4.294   3.935   6.530  0.1563 -0.3293 -0.2809
 2165SOL    HW117954   4.349   3.869   6.489  0.4590 -0.7079  0.7435
 2165SOL    HW217955   4.241   3.887   6.593 -0.2836  1.0465  0.4060
 2166SOL     OW17956   2.934   1.998   8.053 -0.2968 -0.4570  0.0603
 2166SOL    HW117957   2.866   1.967   7.994  0.1759 -1.1352 -0.1319
 2166SOL    HW217958   3.007   2.025   7.998  0.7284 -0.1245  1.5698
 2167SOL     OW17959   0.916   2.919   6.315 -0.0008  0.2566 -0.3832
 2167SOL    HW117960   0.838   2.866   6.333  0.3132 -0.4893 -1.1925
 2167SOL    HW217961   0.988   2.862   6.343  0.9203  0.6377 -1.9537
 2168SOL     OW17962   3.516   2.024   0.531  0.1805 -0.6852 -0.7516
 2168SOL    HW117963   3.532   1.946   0.477  0.7760 -1.8430  1.0814
 2168SOL    HW217964   3.553   2.091   0.474 -1.4375  1.2773  0.4891
 2169SOL     OW17965   0.800   4.534  10.184 -0.1039  0.1177 -0.0839
 2169SOL    HW117966   0.883   4.502  10.221 -0.5526  0.9704  1.6650
 2169SOL    HW217967   0.837   4.617  10.153  1.5344 -0.8833 -0.8105
 2170SOL     OW17968   3.840   3.355  15.196 -0.0911 -0.1959 -0.6187
 2170SOL    HW117969   3.872   3.371  15.107  1.7165 -0.1620  0.0334
 2170SOL    HW217970   3.843   3.444  15.230 -0.6387  0.2457 -1.7061
 2171SOL     OW17971   0.923   4.269   4.177 -0.6409 -0.1500 -0.3448
 2171SOL    HW117972   0.850   4.293   4.120 -0.1070  2.4784  0.0624
 2171SOL    HW217973   0.867   4.219   4.237 -0.6215  0.8193  0.4911
 2172SOL     OW17974   2.999   3.278   4.329  0.0587  0.0990 -0.1516
 2172SOL    HW117975   2.913   3.291   4.289  0.7881 -1.1283 -2.1085
 2172SOL    HW217976   3.032   3.210   4.270  0.6743  0.9157 -0.7368
 2173SOL     OW17977   1.908   2.481   4.545 -0.3445 -0.6316  0.2263
 2173SOL    HW117978   1.931   2.521   4.629 -1.1927  2.1690 -0.9131
 2173SOL    HW217979   1.949   2.395   4.557 -2.0463 -1.2791  1.4397
 2174SOL     OW17980   1.914   4.233   0.929 -0.3531  0.0326  0.0537
 2174SOL    HW117981   1.836   4.282   0.956 -1.0301  0.3002 -2.4660
 2174SOL    HW217982   1.898   4.169   0.999 -0.4956 -2.4283 -2.2561
 2175SOL     OW17983   3.956   3.419   3.826  0.1217  0.4793  0.5598
 2175SOL    HW117984   3.864   3.435   3.849 -0.0373  0.2066  0.1095
 2175SOL    HW217985   3.970   3.489   3.763  3.2148  0.3211  1.0608
 2176SOL     OW17986   4.669   3.113  12.142  0.3061  0.5075 -0.2411
 2176SOL    HW117987   4.632   3.187  12.189  0.3395  0.6631 -0.4614
 2176SOL    HW217988   4.711   3.067  12.214 -0.4165 -0.3836 -0.3870
 2177SOL     OW17989   2.989   0.042   4.697 -0.5349  0.6266 -0.1781
 2177SOL    HW117990   3.043   4.686   4.679 -1.1451  0.6404 -2.0624
 2177SOL    HW217991   2.971   0.069   4.607  0.4232  1.6272 -0.0749
 2178SOL     OW17992   1.934   4.037  15.171  0.3324  0.5328 -0.0954
 2178SOL    HW117993   1.891   4.105  15.223  2.7787  1.7175  0.3558
 2178SOL    HW217994   2.025   4.041  15.199  0.7575  1.1061 -1.5530
 2179SOL     OW17995   0.932   0.501   4.417 -0.0731 -0.2835  0.3488
 2179SOL    HW117996   0.876   0.558   4.365  0.1328  1.4982  2.0690
 2179SOL    HW217997   1.005   0.562   4.430 -1.9983  1.4970  2.7095
 2180SOL     OW17998   1.269   3.179   4.108 -0.1668 -0.1686 -0.4265
 2180SOL    HW117999   1.299   3.112   4.169  0.5984  0.4722 -0.0871
 2180SOL    HW218000   1.183   3.197   4.146  0.2340  2.5352 -0.7319
 2181SOL     OW18001   1.598   4.261   5.672 -0.3944 -0.1805 -0.2429
 2181SOL    HW118002   1.652   4.215   5.735  0.0045  0.4301 -0.1449
 2181SOL    HW218003   1.670   4.313   5.637 -0.2449 -0.1569  0.1074
 2182SOL     OW18004   3.772   3.919   2.862  0.2435 -0.2679  0.7291
 2182SOL    HW118005   3.865   3.945   2.860 -0.0839  0.8347 -0.3216
 2182SOL    HW218006   3.723   4.001   2.875  1.8060  0.2355  3.5902
 2183SOL     OW18007   4.509   2.611   3.037 -0.0581  0.4156 -0.6700
 2183SOL    HW118008   4.585   2.643   2.989  0.2409  1.5464  0.5393
 2183SOL    HW218009   4.490   2.687   3.092  4.1751 -0.1301  1.5645
 2184SOL     OW18010   2.246   4.317   3.614 -0.1328 -0.8623  0.0724
 2184SOL    HW118011   2.212   4.239   3.659  1.5174 -2.8566 -2.1289
 2184SOL    HW218012   2.168   4.348   3.567 -0.1089 -1.8890 -0.6633
 2185SOL     OW18013   0.589   1.862   7.931  0.5932  0.0766  0.5694
 2185SOL    HW118014   0.598   1.956   7.945  0.2601  0.2659 -0.4722
 2185SOL    HW218015   0.495   1.849   7.924  0.1364  3.8767 -0.1016
 2186SOL     OW18016   2.086   0.585  10.850  0.1071 -0.0073 -0.0430
 2186SOL    HW118017   2.178   0.570  10.825 -0.1629 -0.5183 -0.7199
 2186SOL    HW218018   2.075   0.680  10.844 -0.4265  0.1042  3.0003
 2187SOL     OW18019   2.652   4.381   7.255 -0.0577  0.6758  0.0765
 2187SOL    HW118020   2.666   4.358   7.347 -2.1400  0.2161  0.2757
 2187SOL    HW218021   2.653   4.476   7.263 -0.7566  0.6056  0.9789
 2188SOL     OW18022   1.794   2.405   5.558 -0.1345  0.2359  0.0396
 2188SOL    HW118023   1.846   2.417   5.479 -1.1742  2.3264 -0.3371
 2188SOL    HW218024   1.717   2.357   5.527 -1.9457  1.7477  2.1351
 2189SOL     OW18025   2.637   4.406  10.923 -1.1481 -0.2668 -0.0118
 2189SOL    HW118026   2.726   4.439  10.905 -1.4539  1.2487  1.3082
 2189SOL    HW218027   2.646   4.362  11.007  0.8289 -1.9034 -1.0755
 2190SOL     OW18028   1.182   1.473   5.990  0.0067 -0.1893 -0.1380
 2190SOL    HW118029   1.228   1.430   5.918  3.7634  2.1585  0.8533
 2190SOL    HW218030   1.233   1.439   6.064 -1.2286  0.5778  1.0626
 2191SOL     OW18031   3.168   2.129   8.446  0.4807  0.1230 -0.4315
 2191SOL    HW118032   3.130   2.074   8.378  0.8316 -0.3822 -0.2172
 2191SOL    HW218033   3.195   2.207   8.397  0.4337  1.5901  1.8487
 2192SOL     OW18034   4.314   2.357  15.748 -0.3368 -0.1122 -0.6139
 2192SOL    HW118035   4.337   2.433  15.695 -0.7055  0.0664 -0.5225
 2192SOL    HW218036   4.320   2.396  15.835  0.0457 -2.3196  0.3350
 2193SOL     OW18037   4.040   2.842   8.485  0.3494 -0.3817  0.0860
 2193SOL    HW118038   4.081   2.791   8.416  0.3489 -0.3196  0.0393
 2193SOL    HW218039   4.057   2.788   8.562 -1.7232  0.3172  1.0170
 2194SOL     OW18040   1.844   4.310  10.886  0.1552 -0.2048 -0.0218
 2194SOL    HW118041   1.802   4.327  10.971  1.5513  0.3882  0.5448
 2194SOL    HW218042   1.798   4.238  10.842 -0.2350  1.5462 -2.4917
 2195SOL     OW18043   4.445   1.703   6.573 -0.0115 -0.1216  0.0786
 2195SOL    HW118044   4.540   1.706   6.558 -0.3341 -1.2438 -2.2376
 2195SOL    HW218045   4.437   1.622   6.623  1.7087  0.3899  1.1506
 2196SOL     OW18046   2.550   3.572   7.458 -0.2203  0.0358 -0.9389
 2196SOL    HW118047   2.612   3.585   7.529 -1.2516  1.2685 -0.2712
 2196SOL    HW218048   2.596   3.606   7.381 -0.1508  0.5592 -0.6633
 2197SOL     OW18049   3.502   4.504   8.960  0.0945  0.2900 -0.2500
 2197SOL    HW118050   3.458   4.572   9.011  3.7634  2.3464  0.1731
 2197SOL    HW218051   3.450   4.429   8.989 -0.0532  0.1279 -0.9287
 2198SOL     OW18052   3.279   3.342   0.629 -0.1964  0.3416 -0.4795
 2198SOL    HW118053   3.354   3.391   0.661 -0.0472 -0.1124 -0.1388
 2198SOL    HW218054   3.236   3.326   0.713 -3.1761  1.7736 -1.7131
 2199SOL     OW18055   2.694   0.034   5.090  0.1591 -0.0487 -0.0815
 2199SOL    HW118056   2.616   0.088   5.090  1.5060  1.8865  0.5549
 2199SOL    HW218057   2.709   0.025   4.996  1.5914  1.7531 -0.0172
 2200SOL     OW18058   0.754   0.875  12.104 -1.2022  0.4154  0.6531
 2200SOL    HW118059   0.790   0.787  12.098 -1.6224  0.2565  0.4495
 2200SOL    HW218060   0.709   0.890  12.020 -1.5049 -2.4017  0.3318
 2201SOL     OW18061   1.412   4.042   7.051  0.1388 -0.6890  0.0897
 2201SOL    HW118062   1.422   3.949   7.075 -0.3049 -1.0211 -0.9973
 2201SOL    HW218063   1.410   4.088   7.135 -2.8263  0.4229 -0.5991
 2202SOL     OW18064   1.316   1.016  13.732 -0.7661 -0.4702 -0.0888
 2202SOL    HW118065   1.387   1.076  13.711  0.0840 -0.5890  2.3953
 2202SOL    HW218066   1.352   0.930  13.711  2.1803  0.1839  2.2381
 2203SOL     OW18067   3.026   0.822   2.730  0.0559  0.1221  0.0881
 2203SOL    HW118068   3.084   0.850   2.659 -0.1561  1.6298  0.5099
 2203SOL    HW218069   2.958   0.770   2.687 -0.8192 -0.7552  2.5519
 2204SOL     OW18070   0.774   4.638  15.146 -0.0776 -0.4669  1.2574
 2204SOL    HW118071   0.761   0.010  15.134 -1.3503 -0.4155  3.0425
 2204SOL    HW218072   0.759   4.627  15.240  0.6374 -0.1296  1.4075
 2205SOL     OW18073   1.234   1.887   7.847 -0.1772  0.2808 -0.1541
 2205SOL    HW118074   1.306   1.933   7.804  1.5278 -2.2621 -0.0044
 2205SOL    HW218075   1.203   1.948   7.913  0.3809  2.2635 -1.7430
 2206SOL     OW18076   1.039   0.286   8.422 -0.6435  0.8319  0.2782
 2206SOL    HW118077   1.066   0.241   8.502  0.1781  1.6341  0.4456
 2206SOL    HW218078   0.982   0.222   8.377 -0.5061  0.4717  0.6186
 2207SOL     OW18079   4.159   1.828  11.829  0.0293 -0.5557  0.0624
 2207SOL    HW118080   4.163   1.906  11.774  0.3060 -0.3933  0.3088
 2207SOL    HW218081   4.081   1.838  11.883  0.3048 -0.3491  0.4289
 2208SOL     OW18082   4.116   2.247  12.164 -0.0812  0.4640  0.2573
 2208SOL    HW118083   4.158   2.188  12.228 -3.5982  0.1924  2.3327
 2208SOL    HW218084   4.175   2.322  12.166 -2.2963  2.1751  1.8779
 2209SOL     OW18085   4.060   0.358  11.754  0.0957  0.2949  0.0326
 2209SOL    HW118086   4.105   0.301  11.816 -0.4798 -0.6195 -0.3979
 2209SOL    HW218087   4.120   0.360  11.679  0.8162  0.0491  0.6002
 2210SOL     OW18088   0.742   2.014   6.168 -0.4066 -0.0142  0.2160
 2210SOL    HW118089   0.757   1.963   6.247  2.4022  1.8227  0.8545
 2210SOL    HW218090   0.693   2.089   6.204 -0.8494  0.8698 -2.2260
 2211SOL     OW18091   0.832   2.020  13.267 -0.3464  0.6843  0.7475
 2211SOL    HW118092   0.805   1.929  13.279 -2.2104  1.2095  0.6188
 2211SOL    HW218093   0.752   2.069  13.286 -0.8706  0.3131 -0.5695
 2212SOL     OW18094   0.107   0.845  15.874  0.0209  0.0963  0.4936
 2212SOL    HW118095   0.165   0.815  15.943  1.5575  0.9985 -0.4072
 2212SOL    HW218096   0.073   0.916  15.927 -2.8878 -1.9667  1.3924
 2213SOL     OW18097   3.663   0.093   1.991  0.2982  0.0864 -0.0991
 2213SOL    HW118098   3.596   0.043   1.946 -0.7523 -0.0514  1.6135
 2213SOL    HW218099   3.677   0.164   1.928 -1.9132  0.8474  0.2755
 2214SOL     OW18100   2.722   1.277   4.913 -0.0402  0.1110  0.5426
 2214SOL    HW118101   2.697   1.251   5.001  1.7368 -0.9331  0.7467
 2214SOL    HW218102   2.808   1.315   4.932 -0.6285  0.3654  2.7039
 2215SOL     OW18103   4.051   3.014   3.167 -0.2317 -0.0334 -0.2009
 2215SOL    HW118104   4.083   3.072   3.236 -3.1567  2.5895 -1.0508
 2215SOL    HW218105   3.955   3.018   3.166 -0.2466  0.6261  2.5121
 2216SOL     OW18106   2.468   3.879   2.932  0.1921 -0.8096 -0.5867
 2216SOL    HW118107   2.423   3.831   3.002  3.5285 -0.2423  1.9200
 2216SOL    HW218108   2.473   3.815   2.861  4.9533 -1.9781  0.8264
 2217SOL     OW18109   3.759   4.075   4.569  0.5621 -0.3696  0.4167
 2217SOL    HW118110   3.815   4.004   4.538 -0.8488 -1.4942  0.4161
 2217SOL    HW218111   3.678   4.051   4.524  0.2620  1.2823  0.0854
 2218SOL     OW18112   2.940   3.163   2.052  0.0423 -0.0278  0.0048
 2218SOL    HW118113   2.935   3.128   2.141 -1.0211  2.7830  1.0391
 2218SOL    HW218114   3.029   3.199   2.060  0.0765 -0.2150  0.4945
 2219SOL     OW18115   0.303   4.296   1.319 -0.0548 -0.3149  0.3528
 2219SOL    HW118116   0.284   4.208   1.287  3.0823 -1.1608  0.8805
 2219SOL    HW218117   0.269   4.294   1.409  2.1321  2.2274  1.2208
 2220SOL     OW18118   2.301   2.439   5.707  0.0609 -0.0166 -0.5816
 2220SOL    HW118119   2.291   2.421   5.801 -0.3393  0.9742 -0.4392
 2220SOL    HW218120   2.364   2.509   5.722  2.6580 -2.2319 -1.2029
 2221SOL     OW18121   4.512   1.095  12.664  0.2630  0.3425  0.4651
 2221SOL    HW118122   4.573   1.048  12.721  1.2337  0.2485 -0.6452
 2221SOL    HW218123   4.558   1.096  12.580 -1.2213 -1.4010 -0.3658
 2222SOL     OW18124   1.366   4.527   8.470 -0.4227 -0.2919  0.1581
 2222SOL    HW118125   1.406   4.613   8.481 -0.6216 -0.2588  0.6191
 2222SOL    HW218126   1.343   4.519   8.377  1.7877  1.0545 -0.4877
 2223SOL     OW18127   3.382   2.372   6.548 -0.0583  0.8011 -0.5376
 2223SOL    HW118128   3.288   2.364   6.528 -0.7421  1.1075  2.4866
 2223SOL    HW218129   3.430   2.364   6.466  0.1475  1.6020 -0.4962
 2224SOL     OW18130   1.490   2.343   7.831 -0.0974 -0.3272  0.4053
 2224SOL    HW118131   1.482   2.368   7.739 -1.8702  0.0086  0.6511
 2224SOL    HW218132   1.502   2.430   7.868 -1.3593  0.8789 -2.0206
 2225SOL     OW18133   1.138   3.894   1.710 -0.6400  0.3408  0.5335
 2225SOL    HW118134   1.234   3.901   1.715 -0.5789  0.2379 -0.5931
 2225SOL    HW218135   1.129   3.868   1.619 -1.5093 -0.4518  0.8518
 2226SOL     OW18136   2.116   0.172   8.038 -0.0048  0.2613 -0.4762
 2226SOL    HW118137   2.080   0.145   8.123  2.4178  1.1332  0.8217
 2226SOL    HW218138   2.154   0.090   8.008 -1.6345 -0.1594 -1.4097
 2227SOL     OW18139   3.683   0.821   3.575 -1.1259 -0.3492  0.1454
 2227SOL    HW118140   3.732   0.873   3.511 -1.4596  0.2290  0.3554
 2227SOL    HW218141   3.723   0.824   3.661  1.2928  3.6418 -1.1308
 2228SOL     OW18142   4.637   1.956   7.158  0.2947 -0.1252  0.2619
 2228SOL    HW118143   4.624   2.046   7.131  0.8512 -0.2491 -0.4285
 2228SOL    HW218144   4.707   1.956   7.223 -1.2156  1.2441  1.8797
 2229SOL     OW18145   1.329   4.146   2.853  0.0945  0.7098  0.6292
 2229SOL    HW118146   1.365   4.057   2.845 -1.5366 -0.0254  1.5207
 2229SOL    HW218147   1.258   4.145   2.789  0.4739  0.7060  0.2065
 2230SOL     OW18148   0.948   1.184  15.138 -0.0524 -0.2629 -0.2460
 2230SOL    HW118149   0.887   1.133  15.192  0.4671  1.6613  2.1945
 2230SOL    HW218150   1.014   1.182  15.209 -1.6895 -0.4592  1.2695
 2231SOL     OW18151   2.762   4.082   0.091 -0.0794 -0.2498 -0.0842
 2231SOL    HW118152   2.853   4.058   0.074  0.5006  1.7783  0.1998
 2231SOL    HW218153   2.732   4.003   0.136 -1.7860 -0.6218 -1.8423
 2232SOL     OW18154   1.766   1.299   3.302 -0.5821  0.0935 -0.5493
 2232SOL    HW118155   1.692   1.320   3.245 -0.2593 -0.5933 -1.2079
 2232SOL    HW218156   1.745   1.344   3.384  2.2341  1.9443 -0.8409
 2233SOL     OW18157   4.217   0.356   7.412 -0.3104  0.3517 -0.1230
 2233SOL    HW118158   4.128   0.327   7.392 -0.8635  2.9747 -1.4285
 2233SOL    HW218159   4.198   0.447   7.435 -1.4982  0.0689 -0.0229
 2234SOL     OW18160   1.153   3.617  16.000 -0.0132  0.1898 -0.1542
 2234SOL    HW118161   1.163   3.708  16.028  0.0997 -0.8012  2.9373
 2234SOL    HW218162   1.190   3.570  16.074 -1.1380 -2.3769 -1.2281
 2235SOL     OW18163   1.744   1.900  13.458  0.0205 -0.6199 -0.3690
 2235SOL    HW118164   1.837   1.920  13.449 -0.9536  2.8907 -2.6494
 2235SOL    HW218165   1.714   1.946  13.379 -1.2495 -2.1788 -0.7910
 2236SOL     OW18166   4.235   2.833   3.061  0.0905  0.2622 -0.8889
 2236SOL    HW118167   4.162   2.890   3.083 -0.2207 -0.6353  0.3659
 2236SOL    HW218168   4.188   2.773   3.003  0.5769 -1.6779  0.7160
 2237SOL     OW18169   1.876   2.629   8.177 -0.4499 -0.1522  0.2852
 2237SOL    HW118170   1.916   2.556   8.224  0.2000 -1.0215 -1.6147
 2237SOL    HW218171   1.923   2.706   8.210  2.1984 -1.5644 -0.2325
 2238SOL     OW18172   1.869   2.886   5.725  0.6341  0.3335 -0.2254
 2238SOL    HW118173   1.863   2.873   5.820  0.2641 -0.9777 -0.4360
 2238SOL    HW218174   1.782   2.925   5.715  0.6162  0.9606  2.2415
 2239SOL     OW18175   3.562   0.791  12.098  0.1667 -0.6295 -0.1233
 2239SOL    HW118176   3.639   0.820  12.048 -1.1416 -2.5252 -3.2633
 2239SOL    HW218177   3.602   0.707  12.122 -1.5384 -1.3743  0.0928
 2240SOL     OW18178   0.779   1.660   8.236  0.3003  0.2589  0.1877
 2240SOL    HW118179   0.828   1.741   8.255 -0.1072  0.1631  1.6650
 2240SOL    HW218180   0.785   1.616   8.321  0.2470  0.9019  0.5268
 2241SOL     OW18181   2.892   1.499   6.262  0.4063 -0.2872  1.0545
 2241SOL    HW118182   2.940   1.432   6.311  0.7084 -2.1366 -1.7637
 2241SOL    HW218183   2.940   1.580   6.278 -0.6184  0.3049  1.1204
 2242SOL     OW18184   2.949   4.325  12.465  0.0468 -1.1524  0.4878
 2242SOL    HW118185   2.949   4.334  12.370 -0.1082  0.6770  0.6437
 2242SOL    HW218186   3.039   4.351  12.486  0.0681 -1.5185  0.8501
 2243SOL     OW18187   3.036   3.852   3.472  0.1803  0.0833 -0.1686
 2243SOL    HW118188   3.054   3.770   3.425 -1.2294 -0.9155  1.0249
 2243SOL    HW218189   2.944   3.851   3.445  0.6522  0.4024 -1.7834
 2244SOL     OW18190   0.226   4.551  15.330 -0.2554  0.5873  0.5018
 2244SOL    HW118191   0.147   4.500  15.309 -0.2768  0.8327 -0.0142
 2244SOL    HW218192   0.236   4.512  15.417  3.5811  0.3485 -0.0630
 2245SOL     OW18193   0.300   2.166  10.649  0.3890 -0.1552 -0.0197
 2245SOL    HW118194   0.369   2.230  10.662  2.0726 -1.7898 -0.9080
 2245SOL    HW218195   0.220   2.213  10.676 -0.6131 -1.7485 -0.1975
 2246SOL     OW18196   4.145   2.719   5.520 -0.3544  0.0142 -0.0265
 2246SOL    HW118197   4.056   2.685   5.532  0.0293 -1.0860 -0.3247
 2246SOL    HW218198   4.190   2.664   5.456 -1.9663  0.7111 -1.7463
 2247SOL     OW18199   0.152   3.907   1.720  0.2611 -0.2208 -0.5239
 2247SOL    HW118200   0.098   3.848   1.773 -2.8396  1.9678 -1.2302
 2247SOL    HW218201   0.211   3.948   1.783  0.5321 -2.3102  0.5851
 2248SOL     OW18202   0.222   0.300   1.904 -0.5610 -0.1632  0.1651
 2248SOL    HW118203   0.195   0.215   1.870  1.9400 -2.0136  2.7519
 2248SOL    HW218204   0.228   0.277   1.997  0.1978 -0.3812  0.0624
 2249SOL     OW18205   0.615   1.157  10.390 -0.5583  0.1795 -0.4857
 2249SOL    HW118206   0.553   1.093  10.425 -0.5859 -0.1546 -1.1409
 2249SOL    HW218207   0.666   1.106  10.327 -0.9868 -0.2768 -0.4627
 2250SOL     OW18208   2.198   1.871   8.495  0.0759 -0.4476 -0.0653
 2250SOL    HW118209   2.218   1.878   8.402  0.0681  0.5117  0.0113
 2250SOL    HW218210   2.233   1.954   8.526 -0.0508 -0.6405  0.5972
 2251SOL     OW18211   3.752   0.186   7.748  0.3480 -0.1947  0.1410
 2251SOL    HW118212   3.734   0.260   7.689 -0.4674 -0.9350 -0.5470
 2251SOL    HW218213   3.761   0.107   7.695  0.8988  0.3243 -0.5433
 2252SOL     OW18214   3.364   3.400   6.799 -0.0767  0.1656  0.7248
 2252SOL    HW118215   3.351   3.451   6.719  1.8901 -1.4984 -0.6436
 2252SOL    HW218216   3.271   3.390   6.822  0.1672  0.6549  1.9290
 2253SOL     OW18217   4.247   4.295   1.073 -1.1217  0.0366 -0.0294
 2253SOL    HW118218   4.181   4.280   1.141 -0.0854  0.1128  0.9928
 2253SOL    HW218219   4.228   4.234   1.002 -0.0964 -2.6022  1.9669
 2254SOL     OW18220   1.017   4.499   3.474  0.2108 -0.0428 -0.0480
 2254SOL    HW118221   1.061   4.421   3.507  0.1371  0.9958  2.5259
 2254SOL    HW218222   1.014   4.546   3.558 -2.5564  0.1279 -0.2508
 2255SOL     OW18223   3.377   2.952  17.336  0.2584  0.1501  0.3777
 2255SOL    HW118224   3.419   2.873  17.370 -0.6342 -0.3642  0.3068
 2255SOL    HW218225   3.449   3.011  17.356 -0.4183  1.0709  0.0709
 2256SOL     OW18226   3.641   3.530   3.438  0.1244  0.3182 -0.2924
 2256SOL    HW118227   3.676   3.550   3.525  1.0031 -0.8127 -0.3817
 2256SOL    HW218228   3.681   3.445   3.418  4.2975  2.8807 -2.9523
 2257SOL     OW18229   0.680   3.361  11.204 -0.0354 -0.3473 -0.4248
 2257SOL    HW118230   0.586   3.375  11.207  0.4775  2.5124  2.4523
 2257SOL    HW218231   0.706   3.329  11.291  0.1233  1.0689  0.0404
 2258SOL     OW18232   1.900   2.207   6.296  0.2161  0.1409 -0.0708
 2258SOL    HW118233   1.919   2.252   6.214  1.0065 -2.0134 -1.0619
 2258SOL    HW218234   1.918   2.118   6.266 -0.3112  0.4858 -1.3767
 2259SOL     OW18235   4.312   0.742   2.286 -0.2087 -0.5418 -0.1963
 2259SOL    HW118236   4.374   0.697   2.229 -0.5111 -0.2337 -0.7671
 2259SOL    HW218237   4.362   0.732   2.367 -0.9658  2.6958  0.6957
 2260SOL     OW18238   0.875   0.481   3.195  0.1305 -0.0097 -0.0181
 2260SOL    HW118239   0.957   0.438   3.170 -0.0726  0.6816 -1.8199
 2260SOL    HW218240   0.828   0.405   3.230  2.1283 -1.4347 -0.4275
 2261SOL     OW18241   3.848   2.061  14.381  0.0449  0.0361  0.0054
 2261SOL    HW118242   3.799   1.986  14.347 -0.0495  1.4131 -2.8632
 2261SOL    HW218243   3.928   2.056  14.329 -0.9714 -0.7227 -1.4858
 2262SOL     OW18244   4.589   3.437  13.749 -0.3681 -0.3635 -0.3075
 2262SOL    HW118245   4.515   3.389  13.712  1.2404 -1.5904 -1.9484
 2262SOL    HW218246   4.583   3.403  13.838 -2.2863  0.6300 -0.0645
 2263SOL     OW18247   1.631   4.533   7.621 -1.0594 -0.0434  0.5361
 2263SOL    HW118248   1.589   4.474   7.559 -2.1194  0.5151  0.7234
 2263SOL    HW218249   1.679   4.589   7.559  0.8353  2.1295  3.9110
 2264SOL     OW18250   1.800   4.318   7.036  0.5972  0.3265 -0.1004
 2264SOL    HW118251   1.831   4.314   6.946 -0.5065  3.2456 -0.6170
 2264SOL    HW218252   1.784   4.224   7.042 -0.9373  0.6714  1.3058
 2265SOL     OW18253   1.904   2.470   3.371 -0.5377 -0.1619 -0.0088
 2265SOL    HW118254   1.978   2.522   3.340  0.1049 -1.0472  0.0355
 2265SOL    HW218255   1.858   2.448   3.290 -1.6102  1.3956  0.1849
 2266SOL     OW18256   0.557   2.459   6.570  0.3512 -0.3134 -0.3046
 2266SOL    HW118257   0.469   2.491   6.590  0.1261 -1.0340 -0.1488
 2266SOL    HW218258   0.583   2.523   6.503 -2.8062  0.3323 -0.9154
 2267SOL     OW18259   2.305   3.856   9.567 -0.3132 -0.0555 -0.4012
 2267SOL    HW118260   2.381   3.856   9.508  0.0279  1.4780  0.0376
 2267SOL    HW218261   2.329   3.796   9.637  2.4139  1.3384 -0.1300
 2268SOL     OW18262   2.944   2.755   5.736 -0.4378  0.2660  0.4147
 2268SOL    HW118263   3.003   2.809   5.684 -2.3978  1.6533 -0.3832
 2268SOL    HW218264   2.873   2.819   5.744  0.2305  1.1495 -0.7538
 2269SOL     OW18265   0.969   0.130   5.188  0.2687  0.7768 -0.3536
 2269SOL    HW118266   1.015   0.207   5.222 -0.2533  1.3911 -1.0407
 2269SOL    HW218267   0.979   0.140   5.094 -0.7556  1.4055 -0.4022
 2270SOL     OW18268   1.803   3.633   1.991  0.2710  0.2436 -0.9823
 2270SOL    HW118269   1.821   3.643   2.084  2.5116 -1.0572 -1.2762
 2270SOL    HW218270   1.857   3.558   1.967  0.6590  0.2696 -0.1962
 2271SOL     OW18271   2.386   2.591   6.988  0.4537 -0.2220 -0.5391
 2271SOL    HW118272   2.355   2.537   6.915  0.6179 -0.0987 -0.7000
 2271SOL    HW218273   2.459   2.634   6.943  0.5069 -1.3950 -1.5717
 2272SOL     OW18274   1.760   0.516   2.291 -0.4251 -0.3858 -0.2298
 2272SOL    HW118275   1.687   0.573   2.266 -0.1681 -0.2686 -0.7097
 2272SOL    HW218276   1.716   0.479   2.368 -1.4573  1.4743  0.0702
 2273SOL     OW18277   2.093   0.387   4.233  0.0674  0.2314  0.3474
 2273SOL    HW118278   2.121   0.299   4.209 -2.2087 -0.3036 -0.3525
 2273SOL    HW218279   2.178   0.427   4.214 -1.6775  3.6188 -0.4063
 2274SOL     OW18280   0.305   2.433   3.155  0.0087 -0.2697  0.2775
 2274SOL    HW118281   0.348   2.511   3.121  0.7234 -0.5659  0.4973
 2274SOL    HW218282   0.376   2.402   3.213 -2.1621 -0.7134  2.7046
 2275SOL     OW18283   4.357   2.686   8.271 -0.1039 -0.2669  0.1020
 2275SOL    HW118284   4.427   2.670   8.207 -0.3188  0.8832 -0.4294
 2275SOL    HW218285   4.401   2.659   8.351 -1.6543  1.5798  1.5928
 2276SOL     OW18286   1.461   3.409   9.281  0.2512  0.3030 -0.7964
 2276SOL    HW118287   1.370   3.379   9.283  0.2464  0.3366 -0.4559
 2276SOL    HW218288   1.505   3.327   9.305  0.9663  0.1741 -2.5912
 2277SOL     OW18289   4.434   0.651  11.701 -0.1312  0.4283  0.1882
 2277SOL    HW118290   4.341   0.642  11.678 -0.2331 -2.6573  1.8277
 2277SOL    HW218291   4.418   0.650  11.795 -1.4917  0.2809 -0.0491
 2278SOL     OW18292   0.682   2.175   7.349  0.0019  0.4325  0.4552
 2278SOL    HW118293   0.705   2.193   7.258 -2.2468  0.5582 -0.0871
 2278SOL    HW218294   0.724   2.091   7.369 -1.1344 -0.4022 -0.6668
 2279SOL     OW18295   3.091   4.461   6.138 -0.1687 -0.3096  0.0477
 2279SOL    HW118296   3.187   4.460   6.131 -0.1975 -0.3717 -0.3694
 2279SOL    HW218297   3.071   4.551   6.110 -0.7522 -0.7861 -1.0555
 2280SOL     OW18298   2.932   2.738  13.892  0.6875 -0.2743 -0.6064
 2280SOL    HW118299   2.903   2.778  13.810 -2.2351 -0.0129  0.5505
 2280SOL    HW218300   3.020   2.706  13.871  2.0487  3.0074 -0.0223
 2281SOL     OW18301   0.481   4.434   5.184 -0.0209  0.4904  0.3516
 2281SOL    HW118302   0.523   4.421   5.269  0.3142  0.1524  0.1354
 2281SOL    HW218303   0.557   4.457   5.132 -0.8024  0.7548 -0.6731
 2282SOL     OW18304   3.293   0.371  10.741 -0.5227 -0.0895 -0.2510
 2282SOL    HW118305   3.203   0.338  10.751 -0.3497 -0.0683  1.3650
 2282SOL    HW218306   3.281   0.453  10.789 -0.8537 -0.3551  0.1284
 2283SOL     OW18307   3.180   0.264  10.376 -0.4555  0.2034 -0.4732
 2283SOL    HW118308   3.218   0.299  10.296  1.0819 -1.2227 -0.3755
 2283SOL    HW218309   3.102   0.217  10.348 -0.8877  0.8442 -0.3283
 2284SOL     OW18310   4.663   1.071   2.410  0.7407 -0.7933 -0.0030
 2284SOL    HW118311   0.027   1.043   2.444 -0.8000 -3.5743  1.5855
 2284SOL    HW218312   4.688   1.137   2.346 -0.1485 -1.0708 -0.6317
 2285SOL     OW18313   3.825   1.850   3.412 -0.3307 -0.3521  0.1926
 2285SOL    HW118314   3.833   1.914   3.341 -0.1069 -1.4440 -0.7675
 2285SOL    HW218315   3.915   1.840   3.442 -0.2386  2.2233  0.7700
 2286SOL     OW18316   4.172   3.756   7.582  0.4886 -0.2447  0.5242
 2286SOL    HW118317   4.268   3.746   7.584  0.4414 -0.9086 -1.3258
 2286SOL    HW218318   4.168   3.799   7.668  1.4463 -1.3219  1.1071
 2287SOL     OW18319   0.985   3.895   4.254 -0.5976  0.6359  0.7606
 2287SOL    HW118320   0.906   3.919   4.303  0.6360  4.1760  1.0157
 2287SOL    HW218321   1.047   3.927   4.320 -1.5627  2.4192  0.8065
 2288SOL     OW18322   0.189   3.091  15.677  0.3466 -0.5067  0.7189
 2288SOL    HW118323   0.274   3.048  15.675  0.5421 -0.0972  0.2529
 2288SOL    HW218324   0.175   3.119  15.587  0.1443  0.4088  1.0285
 2289SOL     OW18325   1.107   1.461   3.541  0.3264  0.6453  0.2089
 2289SOL    HW118326   1.016   1.431   3.536  0.0510  1.4697  0.3051
 2289SOL    HW218327   1.144   1.374   3.523 -1.4438  0.4391 -2.4859
 2290SOL     OW18328   0.331   2.758   8.630 -0.1012  0.2727 -0.4461
 2290SOL    HW118329   0.323   2.665   8.651  0.1558  0.0087 -1.4988
 2290SOL    HW218330   0.270   2.758   8.557 -0.3873 -3.2816 -0.2167
 2291SOL     OW18331   0.162   1.556  17.161  0.4301  0.0505 -0.0916
 2291SOL    HW118332   0.122   1.527  17.243  2.4377 -1.4364  0.3549
 2291SOL    HW218333   0.155   1.482  17.100  0.1833 -0.0965  0.1139
 2292SOL     OW18334   1.199   2.556   4.130 -0.1918  0.0722 -0.1717
 2292SOL    HW118335   1.227   2.560   4.221  1.1337  1.2670 -0.6352
 2292SOL    HW218336   1.279   2.519   4.093  0.1434 -0.5841  1.1787
 2293SOL     OW18337   2.384   4.519   6.548  0.2711  0.1784  0.8614
 2293SOL    HW118338   2.445   4.478   6.487 -0.0260  1.7723 -0.5066
 2293SOL    HW218339   2.409   4.476   6.629 -0.0163 -0.1076  0.7956
 2294SOL     OW18340   4.484   2.562   3.847  0.3474  0.3780 -0.0379
 2294SOL    HW118341   4.552   2.577   3.782 -1.3489  2.8101 -1.2693
 2294SOL    HW218342   4.444   2.645   3.870  1.4206  1.1731 -1.0667
 2295SOL     OW18343   0.016   4.204   7.006 -0.0737  0.2984  0.3940
 2295SOL    HW118344   0.068   4.243   7.076 -0.1129  1.4194 -0.2014
 2295SOL    HW218345   4.690   4.136   7.053 -2.6208  1.0200 -1.1121
 2296SOL     OW18346   2.769   0.708   3.627 -0.2664  0.7636 -0.1528
 2296SOL    HW118347   2.785   0.743   3.539  1.3151 -0.8396 -0.4937
 2296SOL    HW218348   2.847   0.739   3.673 -1.1236  0.4275  1.5474
 2297SOL     OW18349   3.407   1.866  15.578  0.1081  0.2174 -0.1540
 2297SOL    HW118350   3.325   1.891  15.535  0.6515 -0.7942 -1.7875
 2297SOL    HW218351   3.470   1.897  15.513 -0.1387 -0.8230 -0.8883
 2298SOL     OW18352   3.865   0.994   1.490  0.7941 -0.0622  0.2916
 2298SOL    HW118353   3.788   0.943   1.466  0.9539 -0.5902  0.9037
 2298SOL    HW218354   3.898   0.944   1.564 -3.2853  1.4274  3.1111
 2299SOL     OW18355   1.741   3.646   2.561 -0.0132 -0.4791  0.3932
 2299SOL    HW118356   1.747   3.709   2.489  1.0820 -1.9240 -0.7842
 2299SOL    HW218357   1.649   3.648   2.587 -0.0167 -2.3785  0.5049
 2300SOL     OW18358   4.311   1.597   2.343 -0.1146 -0.4003  0.8468
 2300SOL    HW118359   4.379   1.538   2.375  0.1103 -0.5692  0.0484
 2300SOL    HW218360   4.260   1.534   2.292 -2.0967  0.7054  1.4347
 2301SOL     OW18361   0.530   1.226   3.996  0.0252 -0.7982  0.3897
 2301SOL    HW118362   0.550   1.243   4.088 -1.6318  1.1357  0.3955
 2301SOL    HW218363   0.440   1.259   3.988  0.5529  0.2078 -1.3070
 2302SOL     OW18364   0.640   2.816   4.791 -0.6508  0.4614  0.3833
 2302SOL    HW118365   0.681   2.772   4.865  0.2186 -1.6385 -1.3517
 2302SOL    HW218366   0.551   2.782   4.784 -0.1872 -0.2166 -2.4248
 2303SOL     OW18367   3.562   1.273   7.714  0.2570  0.0906 -0.3386
 2303SOL    HW118368   3.502   1.308   7.779  0.6384 -0.2353  0.1843
 2303SOL    HW218369   3.542   1.343   7.651  0.8123 -1.1260 -1.8634
 2304SOL     OW18370   3.261   3.751   6.064 -0.0280  0.2521 -0.5678
 2304SOL    HW118371   3.213   3.763   6.146  2.0905  0.0242  0.7244
 2304SOL    HW218372   3.281   3.658   6.054 -1.1347 -0.0417 -0.0232
 2305SOL     OW18373   3.333   3.797   8.471 -0.0221 -0.0574 -0.6485
 2305SOL    HW118374   3.370   3.848   8.543 -2.6677  0.2368  0.5307
 2305SOL    HW218375   3.369   3.847   8.398  1.1885 -1.7016 -1.1527
 2306SOL     OW18376   2.556   0.249   7.737  0.3092 -0.3542  0.0280
 2306SOL    HW118377   2.535   0.161   7.703  1.8933  0.0193 -1.9332
 2306SOL    HW218378   2.648   0.254   7.711  0.7645  0.4849  1.7842
 2307SOL     OW18379   1.865   4.402   2.839  0.2809  0.1283 -0.2049
 2307SOL    HW118380   1.801   4.365   2.779 -0.2384 -0.4615  0.6976
 2307SOL    HW218381   1.807   4.467   2.879  2.1628  1.0750  0.9786
 2308SOL     OW18382   0.316   3.364   0.090  0.0421 -0.3137 -0.3524
 2308SOL    HW118383   0.260   3.318   0.027  1.8019 -2.0210 -0.6620
 2308SOL    HW218384   0.252   3.390   0.157 -0.5127  0.3885 -1.1494
 2309SOL     OW18385   3.073   0.341   3.805 -0.6407 -0.0209 -0.0959
 2309SOL    HW118386   3.141   0.402   3.777  0.5388 -1.9084 -1.3520
 2309SOL    HW218387   3.087   0.263   3.752 -0.7990 -0.7126  0.8837
 2310SOL     OW18388   3.944   0.092  17.346 -0.2990  0.5859  0.1932
 2310SOL    HW118389   3.982   0.068  17.261  0.3005 -0.6010  0.7926
 2310SOL    HW218390   3.904   0.175  17.319 -3.6165 -0.2068  2.7319
 2311SOL     OW18391   0.553   3.457  17.666 -0.1136 -0.4348 -0.6118
 2311SOL    HW118392   0.517   3.539  17.631 -0.0944 -0.6406 -1.1183
 2311SOL    HW218393   0.472   3.420   0.015 -1.0011 -0.0062 -2.1128
 2312SOL     OW18394   4.689   2.054  10.730 -0.0162 -0.0291 -0.0997
 2312SOL    HW118395   4.619   2.075  10.670  0.6865 -1.4986 -1.4173
 2312SOL    HW218396   0.014   2.138  10.731  1.1735 -0.6724  0.4310
 2313SOL     OW18397   3.049   4.205   3.843 -0.0239 -0.1327  0.1944
 2313SOL    HW118398   3.137   4.212   3.805 -0.5287 -1.3513 -1.2383
 2313SOL    HW218399   3.059   4.271   3.912  0.7027  0.4378 -0.4450
 2314SOL     OW18400   3.919   0.287   2.923 -0.6425 -0.0327  0.3066
 2314SOL    HW118401   3.982   0.257   2.989 -2.1205 -1.9649  0.8387
 2314SOL    HW218402   3.889   0.203   2.888  3.2563 -2.4515  2.7083
 2315SOL     OW18403   3.904   1.978  17.115 -0.0127  0.2484 -0.6001
 2315SOL    HW118404   3.850   1.920  17.167 -1.8568  1.4150 -1.2130
 2315SOL    HW218405   3.845   2.029  17.059 -1.9677  0.4180  1.6303
 2316SOL     OW18406   2.270   2.193   7.713  0.1217  0.2253  0.3490
 2316SOL    HW118407   2.338   2.126   7.727  0.0732 -0.9199 -4.8841
 2316SOL    HW218408   2.258   2.196   7.618  0.6362 -1.9109  0.2277
 2317SOL     OW18409   2.608   0.992   8.461  0.1457 -0.5022 -0.2750
 2317SOL    HW118410   2.670   0.978   8.389  0.1160 -2.2326  0.0370
 2317SOL    HW218411   2.655   1.067   8.498 -2.0086  0.5774  0.2444
 2318SOL     OW18412   0.050   3.272  13.216 -0.3064 -0.2312 -0.3543
 2318SOL    HW118413   0.092   3.289  13.132 -1.9545  0.2582 -1.0577
 2318SOL    HW218414   0.015   3.359  13.237  0.3129 -0.2557  0.7905
 2319SOL     OW18415   0.339   1.908  12.450  0.2044  0.4546 -0.4877
 2319SOL    HW118416   0.402   1.955  12.395 -0.4303  0.4840 -1.1890
 2319SOL    HW218417   0.342   1.816  12.426  0.2824  0.1174  0.8228
 2320SOL     OW18418   1.698   1.525  11.893 -0.9427 -0.1628 -0.2910
 2320SOL    HW118419   1.621   1.482  11.927 -1.1017 -0.6904 -1.3034
 2320SOL    HW218420   1.678   1.618  11.906  1.3860  0.4884 -1.1243
 2321SOL     OW18421   1.318   1.423  14.791 -0.7256  0.3364 -0.0660
 2321SOL    HW118422   1.291   1.338  14.757 -0.6032  0.1160  0.3919
 2321SOL    HW218423   1.376   1.459  14.723 -0.1991 -2.2669 -0.9914
 2322SOL     OW18424   4.168   4.138   0.144 -0.1344 -0.0486  0.3513
 2322SOL    HW118425   4.219   4.152   0.064  2.7887  0.4853  2.2934
 2322SOL    HW218426   4.179   4.044   0.155 -0.5404 -0.2340 -0.9493
 2323SOL     OW18427   3.511   2.433  14.600  0.6107 -0.1646  0.2280
 2323SOL    HW118428   3.480   2.360  14.653  0.2165 -0.2660 -0.1482
 2323SOL    HW218429   3.553   2.382  14.530 -1.1197 -1.2513 -0.0092
 2324SOL     OW18430   0.553   1.073  14.994 -0.9316 -0.1035  0.1414
 2324SOL    HW118431   0.465   1.096  14.964 -0.0200  1.9265 -0.9429
 2324SOL    HW218432   0.533   1.010  15.063  0.9011  1.5985  2.2251
 2325SOL     OW18433   1.888   0.812   4.833 -0.2264 -0.1319  0.0209
 2325SOL    HW118434   1.879   0.877   4.902 -1.0014 -0.4037  0.1866
 2325SOL    HW218435   1.828   0.744   4.866 -0.8501 -0.7876 -2.4390
 2326SOL     OW18436   3.962   3.135   5.001 -0.0860 -0.2115 -0.0920
 2326SOL    HW118437   3.977   3.182   5.083  1.8403  0.5220 -0.8841
 2326SOL    HW218438   3.872   3.100   5.005  0.1833 -1.1333 -2.6600
 2327SOL     OW18439   1.520   2.939   6.238 -0.4719 -0.1293  0.0309
 2327SOL    HW118440   1.528   2.883   6.161 -1.9526 -1.8491  1.1175
 2327SOL    HW218441   1.575   3.008   6.201 -0.0198  1.0758  2.9286
 2328SOL     OW18442   3.112   4.326   4.108 -0.0694  0.4241  0.4273
 2328SOL    HW118443   3.043   4.268   4.141  2.1070 -2.1074  0.5802
 2328SOL    HW218444   3.095   4.408   4.154  1.6268 -0.5244  2.7391
 2329SOL     OW18445   0.894   0.518   7.547 -0.2034 -0.1614  0.4445
 2329SOL    HW118446   0.933   0.494   7.630 -0.1717  0.1584  0.5242
 2329SOL    HW218447   0.958   0.500   7.478 -0.9820  1.1354 -0.6236
 2330SOL     OW18448   3.649   2.401   7.843  0.2933 -1.1939  0.1031
 2330SOL    HW118449   3.635   2.494   7.860  2.0299 -1.4944  3.2028
 2330SOL    HW218450   3.727   2.401   7.789  0.2609 -2.2315  0.0593
 2331SOL     OW18451   0.108   0.702   6.852 -0.0286 -0.1093 -0.7862
 2331SOL    HW118452   0.090   0.671   6.763 -2.8419 -0.5213 -0.0532
 2331SOL    HW218453   0.021   0.699   6.892  0.6132  0.6152  0.6670
 2332SOL     OW18454   0.737   3.235   5.619  0.3211  0.2564  0.3690
 2332SOL    HW118455   0.729   3.172   5.691 -1.8726  0.9097  0.7079
 2332SOL    HW218456   0.710   3.183   5.544 -0.2383 -2.1701  2.2412
 2333SOL     OW18457   0.644   0.980  17.609  0.5723  0.4027  0.2445
 2333SOL    HW118458   0.680   1.026  17.685 -0.8183 -1.0882  1.7994
 2333SOL    HW218459   0.681   0.894  17.631 -1.5599 -0.2611  1.2059
 2334SOL     OW18460   0.084   3.188   6.432 -0.5237  0.1963  0.4691
 2334SOL    HW118461   0.115   3.278   6.425  1.9885 -0.7119 -0.4709
 2334SOL    HW218462   0.132   3.147   6.504  0.5368 -1.5367 -1.2153
 2335SOL     OW18463   4.430   3.537  14.143  0.4096  0.5384  0.5665
 2335SOL    HW118464   4.335   3.537  14.130  1.1017 -0.2307 -4.2417
 2335SOL    HW218465   4.445   3.629  14.123 -2.1315  0.7055 -0.5910
 2336SOL     OW18466   2.205   0.750  10.527 -0.2807  0.0122 -0.0535
 2336SOL    HW118467   2.270   0.719  10.590  0.4091  2.4704  0.4401
 2336SOL    HW218468   2.262   0.756  10.450  0.1601 -1.0178  0.1992
 2337SOL     OW18469   1.935   2.530   7.514  0.1291  0.0753 -0.0224
 2337SOL    HW118470   1.945   2.605   7.573  0.3979 -0.5027  0.6697
 2337SOL    HW218471   2.024   2.508   7.489  0.4828  2.4983 -0.9277
 2338SOL     OW18472   0.852   4.362  13.964 -0.2022  0.1597 -0.0141
 2338SOL    HW118473   0.797   4.336  14.038  0.0669 -2.4033 -0.6951
 2338SOL    HW218474   0.886   4.275  13.941  1.1464  0.9035 -0.8693
 2339SOL     OW18475   2.466   4.091  14.703  0.6790 -0.3637 -0.0834
 2339SOL    HW118476   2.420   4.018  14.661  2.2085 -0.3640 -1.7875
 2339SOL    HW218477   2.521   4.051  14.770  0.3665 -0.7829 -0.0791
 2340SOL     OW18478   1.198   0.808   6.408 -0.0853  0.2595  0.1500
 2340SOL    HW118479   1.223   0.719   6.431 -0.0564  0.0834 -0.5664
 2340SOL    HW218480   1.242   0.862   6.474  2.2108  0.1936 -1.3446
 2341SOL     OW18481   2.994   0.748   6.533 -0.4031  0.2012 -0.5040
 2341SOL    HW118482   2.982   0.720   6.442  0.8305  0.5520 -0.7643
 2341SOL    HW218483   2.910   0.722   6.572 -0.6514 -1.1031 -1.9023
 2342SOL     OW18484   4.176   0.760  14.001  0.2507  0.4227  0.1181
 2342SOL    HW118485   4.230   0.834  14.030  1.0625  0.2658 -0.9790
 2342SOL    HW218486   4.111   0.750  14.070  0.2316 -2.7469 -0.3502
 2343SOL     OW18487   4.395   0.936   9.324 -0.2666  0.2431 -0.0759
 2343SOL    HW118488   4.453   0.985   9.383  1.2205 -1.4511 -0.1343
 2343SOL    HW218489   4.393   1.011   9.265  0.1860  1.4920  1.4778
 2344SOL     OW18490   3.114   0.216  14.345  0.1884 -0.4688  0.1942
 2344SOL    HW118491   3.064   0.281  14.296 -1.2311 -1.3578  0.4548
 2344SOL    HW218492   3.057   0.141  14.330 -0.1838 -0.3062  0.7943
 2345SOL     OW18493   0.809   3.128   2.641  0.2455 -0.2212 -0.2104
 2345SOL    HW118494   0.755   3.192   2.596 -0.3879  0.3909  1.4508
 2345SOL    HW218495   0.888   3.122   2.587  1.2632  1.2011  1.1148
 2346SOL     OW18496   1.901   4.208   6.765  0.6617  0.3126 -0.1497
 2346SOL    HW118497   1.834   4.190   6.699 -1.1105  2.3772  1.0855
 2346SOL    HW218498   1.935   4.290   6.730 -3.1868  1.3221 -1.5824
 2347SOL     OW18499   1.948   3.974  10.880  0.2124 -0.1394  0.6466
 2347SOL    HW118500   1.877   4.024  10.840  0.2555  0.0701  0.8265
 2347SOL    HW218501   1.998   3.946  10.803  1.7976  0.1926  1.5414
 2348SOL     OW18502   3.201   0.147   3.653 -0.4602  0.0037 -0.2120
 2348SOL    HW118503   3.266   0.083   3.682  0.2634 -0.0653 -2.0385
 2348SOL    HW218504   3.141   0.086   3.611 -0.2567  1.7989 -3.1138
 2349SOL     OW18505   3.222   1.373   4.326  0.2850 -0.3175 -0.4468
 2349SOL    HW118506   3.291   1.387   4.391 -1.5505 -0.7879  1.5744
 2349SOL    HW218507   3.169   1.337   4.397  2.6220 -2.3351  0.2879
 2350SOL     OW18508   1.629   0.811  12.104 -0.0644 -0.4091 -0.5218
 2350SOL    HW118509   1.596   0.786  12.018 -2.4349 -0.2066  0.3255
 2350SOL    HW218510   1.696   0.862  12.059 -1.0740  0.6567 -0.8194
 2351SOL     OW18511   2.874   1.719   7.618  0.8604 -0.1400  0.3436
 2351SOL    HW118512   2.874   1.631   7.654  1.3638 -1.3831 -2.6890
 2351SOL    HW218513   2.806   1.757   7.674  1.4702  0.1511  0.8821
 2352SOL     OW18514   2.317   1.120  13.458 -0.3759 -0.1623  0.2098
 2352SOL    HW118515   2.304   1.101  13.551  1.4524  1.2954  0.7681
 2352SOL    HW218516   2.280   1.043  13.415 -1.4654  1.3055 -1.5076
 2353SOL     OW18517   0.905   0.979   6.848 -0.0150 -0.1637  0.7461
 2353SOL    HW118518   0.980   1.001   6.902  1.4138  2.1261 -2.1841
 2353SOL    HW218519   0.900   1.050   6.783 -1.8654  0.1432  1.2132
 2354SOL     OW18520   3.200   4.247  13.440  0.2017  0.6296  0.9913
 2354SOL    HW118521   3.232   4.162  13.472 -1.9410  1.0726  4.2958
 2354SOL    HW218522   3.243   4.305  13.503  1.4398  1.0398 -0.2249
 2355SOL     OW18523   0.697   3.541   5.511  0.1766  0.4270 -0.4104
 2355SOL    HW118524   0.691   3.598   5.434  0.0202 -0.0042 -0.7210
 2355SOL    HW218525   0.606   3.543   5.541  0.8737  0.2113  1.6725
 2356SOL     OW18526   3.395   3.579   3.342 -0.5580 -0.2132 -0.9099
 2356SOL    HW118527   3.400   3.658   3.288 -2.2525  1.4954  1.4363
 2356SOL    HW218528   3.486   3.567   3.369 -0.5364 -0.4330 -1.0793
 2357SOL     OW18529   4.093   2.630   2.252  0.0112  0.2713  0.0881
 2357SOL    HW118530   4.177   2.640   2.208  0.0526  0.1252  0.1333
 2357SOL    HW218531   4.108   2.673   2.337 -1.6184  1.3877 -0.1901
 2358SOL     OW18532   1.955   4.092   7.331  0.8945 -0.7760  0.4395
 2358SOL    HW118533   1.904   4.139   7.397  0.2944 -1.0584  0.1776
 2358SOL    HW218534   1.992   4.019   7.381  0.8729  0.9032  2.8879
 2359SOL     OW18535   3.231   3.040   2.719  0.0935 -0.2916 -0.7494
 2359SOL    HW118536   3.312   3.032   2.770 -1.3841  0.9320  1.7751
 2359SOL    HW218537   3.234   3.132   2.692  2.7529 -0.0774  0.2066
 2360SOL     OW18538   3.881   3.238   5.646 -0.1757 -0.2407 -0.1020
 2360SOL    HW118539   3.875   3.147   5.675 -2.8879 -0.3820 -1.1214
 2360SOL    HW218540   3.787   3.254   5.658  0.0070  0.6637  0.0746
 2361SOL     OW18541   0.246   0.062   3.538 -0.4208  0.1076 -0.0297
 2361SOL    HW118542   0.339   0.055   3.515 -0.5757 -0.9240 -0.3254
 2361SOL    HW218543   0.245   0.062   3.634 -1.7949 -0.9377 -0.0480
 2362SOL     OW18544   2.513   2.410   6.457 -0.2206 -0.2842 -0.7695
 2362SOL    HW118545   2.589   2.363   6.422 -0.5450 -0.8821 -0.6660
 2362SOL    HW218546   2.451   2.339   6.440  0.9798 -1.0089 -2.1332
 2363SOL     OW18547   3.073   2.654  11.740 -0.2227 -0.6862 -0.0519
 2363SOL    HW118548   3.088   2.587  11.674 -0.4239 -0.3562 -0.4336
 2363SOL    HW218549   3.149   2.713  11.731 -1.7277  1.6203  2.1741
 2364SOL     OW18550   2.042   3.554   7.572  0.2266  0.1778 -0.5963
 2364SOL    HW118551   2.106   3.624   7.557  1.2362 -0.2287  1.8826
 2364SOL    HW218552   2.007   3.589   7.654  1.0495  1.3283 -0.7371
 2365SOL     OW18553   0.890   2.020  10.270  0.1474 -0.0529  0.0433
 2365SOL    HW118554   0.826   1.953  10.248  0.9053 -0.8405  0.2388
 2365SOL    HW218555   0.928   1.985  10.351  0.3893  1.1013  0.4313
 2366SOL     OW18556   2.677   2.119   6.580  0.2764  0.0624  0.0747
 2366SOL    HW118557   2.660   2.026   6.595 -0.5377  0.3837  1.1989
 2366SOL    HW218558   2.609   2.149   6.641 -0.6078  0.3725 -1.0465
 2367SOL     OW18559   2.935   1.411   4.631  0.4812 -0.2416  0.2565
 2367SOL    HW118560   3.004   1.478   4.631 -0.8444  1.1525 -0.3939
 2367SOL    HW218561   2.980   1.339   4.674  1.0012  0.3832  0.7462
 2368SOL     OW18562   3.858   4.661   9.198  0.3290 -0.4923  0.1764
 2368SOL    HW118563   3.920   4.590   9.181  0.9183 -0.6262  2.7667
 2368SOL    HW218564   3.782   4.625   9.243  0.8674 -1.5458  0.2489
 2369SOL     OW18565   2.530   0.940   5.203  0.0324  0.3661 -0.1909
 2369SOL    HW118566   2.501   0.849   5.190  1.8786 -0.5550  2.0439
 2369SOL    HW218567   2.558   0.934   5.295  0.8634  1.6971 -0.3674
 2370SOL     OW18568   4.477   3.416   7.596  0.3705 -0.4985 -0.0952
 2370SOL    HW118569   4.393   3.457   7.577  0.1110 -0.3472  1.3460
 2370SOL    HW218570   4.513   3.464   7.671  2.9743  1.4786 -2.5991
 2371SOL     OW18571   2.307   2.874   6.051  0.1584 -0.0876 -0.1681
 2371SOL    HW118572   2.329   2.945   6.112  0.4551  0.1747 -0.5829
 2371SOL    HW218573   2.375   2.885   5.985  0.1352  0.6916 -0.0554
 2372SOL     OW18574   2.661   3.184  17.526  0.4307 -0.0715 -0.2893
 2372SOL    HW118575   2.743   3.158  17.569 -1.4499 -2.5373  1.8223
 2372SOL    HW218576   2.682   3.273  17.497  0.2129 -0.0042 -0.2370
 2373SOL     OW18577   0.678   0.831   3.765 -0.7112  0.5401  0.1445
 2373SOL    HW118578   0.615   0.854   3.696 -0.5447 -0.1370 -0.2278
 2373SOL    HW218579   0.680   0.904   3.827 -1.0222  0.7904 -0.1365
 2374SOL     OW18580   3.969   3.147   4.472  0.6483 -0.1675 -0.0055
 2374SOL    HW118581   3.880   3.160   4.438  0.1749  1.0416  1.6684
 2374SOL    HW218582   3.956   3.087   4.545 -0.0815 -0.6233 -0.5119
 2375SOL     OW18583   2.612   2.887   0.591  0.2125 -0.3218  0.1351
 2375SOL    HW118584   2.575   2.955   0.647 -1.1531 -0.2567 -0.8512
 2375SOL    HW218585   2.669   2.933   0.529 -0.3058 -0.8053 -0.6967
 2376SOL     OW18586   0.487   1.210   7.247 -0.1648 -0.1009  0.2718
 2376SOL    HW118587   0.408   1.264   7.242  0.9411  1.5566  1.1210
 2376SOL    HW218588   0.465   1.124   7.282  0.8161 -0.4325  0.0579
 2377SOL     OW18589   1.580   3.537   2.212 -0.3883 -0.1168  0.0031
 2377SOL    HW118590   1.565   3.502   2.125  0.0798 -0.1183 -0.0798
 2377SOL    HW218591   1.533   3.476   2.269 -0.5008  0.3497  0.4101
 2378SOL     OW18592   3.914   2.574   1.866  0.1431  0.1872 -0.3991
 2378SOL    HW118593   3.882   2.526   1.790  1.0497 -1.0637  0.0031
 2378SOL    HW218594   3.835   2.553   1.917  1.1306 -1.4419  0.4412
 2379SOL     OW18595   3.989   0.511   4.638 -0.3582  0.2567  0.1875
 2379SOL    HW118596   4.031   0.425   4.631  0.2558  0.8132 -2.6946
 2379SOL    HW218597   3.975   0.526   4.545  2.6825 -0.0060 -0.3182
 2380SOL     OW18598   2.978   2.746   7.681  0.8935  0.3931  0.5350
 2380SOL    HW118599   2.962   2.806   7.607  1.0664  2.9298  2.5604
 2380SOL    HW218600   3.059   2.709   7.645  0.1537  0.0388 -0.7713
 2381SOL     OW18601   1.767   3.277   2.065  0.2006  0.1743  0.0194
 2381SOL    HW118602   1.755   3.282   2.160 -1.1835  0.0080 -0.1575
 2381SOL    HW218603   1.849   3.226   2.066 -0.0177 -0.1780 -0.6981
 2382SOL     OW18604   2.153   3.007   3.514 -0.3838  0.1716  0.0150
 2382SOL    HW118605   2.175   3.100   3.511  1.6647 -0.2099  3.0334
 2382SOL    HW218606   2.159   2.992   3.419  0.2219 -0.2207  0.1169
 2383SOL     OW18607   4.399   3.273   8.033 -0.1461 -0.3058  0.0293
 2383SOL    HW118608   4.326   3.211   8.028 -1.0058  0.7717 -0.6409
 2383SOL    HW218609   4.435   3.232   8.112  0.5692  1.5538  0.6556
 2384SOL     OW18610   1.203   1.487   5.132  0.0648 -0.3450 -0.4233
 2384SOL    HW118611   1.202   1.551   5.061 -0.9417 -0.2628 -0.3282
 2384SOL    HW218612   1.110   1.478   5.151  0.0769  0.9001  0.1966
 2385SOL     OW18613   1.124   1.682   3.204  0.2906 -0.2748 -0.2070
 2385SOL    HW118614   1.203   1.695   3.152  0.1467 -1.7040 -0.7892
 2385SOL    HW218615   1.173   1.655   3.283  0.3517 -0.2191 -0.2252
 2386SOL     OW18616   1.223   2.528   6.618 -0.1318  0.0267  0.2889
 2386SOL    HW118617   1.142   2.477   6.614 -0.6722  1.1088 -2.7543
 2386SOL    HW218618   1.196   2.604   6.669  1.1092 -0.7408  2.1004
 2387SOL     OW18619   2.146   2.385   7.125 -0.1762  0.2258 -0.0486
 2387SOL    HW118620   2.189   2.331   7.059  1.8111  1.0675  0.5597
 2387SOL    HW218621   2.110   2.452   7.066  0.5734 -1.8266 -2.8349
 2388SOL     OW18622   1.067   0.994   8.510  0.1909  0.1273 -0.1998
 2388SOL    HW118623   1.066   0.908   8.468  1.0735 -0.0974  0.2437
 2388SOL    HW218624   0.974   1.003   8.534 -0.0166  1.0077 -1.3397
 2389SOL     OW18625   3.067   1.424   4.052  0.1522 -0.0457 -0.0556
 2389SOL    HW118626   3.017   1.372   4.114  1.5547 -1.5028 -0.1443
 2389SOL    HW218627   3.021   1.506   4.034 -0.3086 -0.1587  0.6197
 2390SOL     OW18628   0.356   1.247   6.370 -0.4193  0.4765 -0.5634
 2390SOL    HW118629   0.428   1.212   6.318 -0.0277 -0.1648  0.4014
 2390SOL    HW218630   0.292   1.180   6.347  1.2576 -0.5139 -2.3282
 2391SOL     OW18631   3.499   3.599   4.938  0.7098  0.0153  0.3238
 2391SOL    HW118632   3.459   3.514   4.953 -0.0969  0.0833 -1.5036
 2391SOL    HW218633   3.450   3.644   5.008 -0.6158 -0.5854 -0.2193
 2392SOL     OW18634   4.145   4.269   1.357  0.5258 -0.4858  0.0978
 2392SOL    HW118635   4.066   4.293   1.406 -1.2154 -0.8160 -2.5190
 2392SOL    HW218636   4.211   4.329   1.392 -0.0540 -0.0475  0.4370
 2393SOL     OW18637   2.502   0.245  17.298 -0.2657 -0.6361  0.0318
 2393SOL    HW118638   2.545   0.160  17.284 -2.5834 -1.8881  0.5308
 2393SOL    HW218639   2.539   0.293  17.224  0.1303 -0.3129  0.4464
 2394SOL     OW18640   3.598   3.215   0.267  0.1915 -0.3620 -0.0046
 2394SOL    HW118641   3.503   3.206   0.275 -0.0522  1.4473 -0.8655
 2394SOL    HW218642   3.613   3.213   0.173 -3.0446  2.0508 -0.5896
 2395SOL     OW18643   3.846   1.366   6.667 -0.1901  0.1964 -0.1149
 2395SOL    HW118644   3.869   1.459   6.679 -2.5517  0.3535  3.1968
 2395SOL    HW218645   3.913   1.323   6.721 -0.2237  2.4419  1.7289
 2396SOL     OW18646   0.415   4.703  15.504 -0.3884  0.3555 -0.5572
 2396SOL    HW118647   0.367   4.623  15.528 -1.0099  0.8742 -0.0652
 2396SOL    HW218648   0.381   0.038  15.573  0.7757 -0.9814  1.1188
 2397SOL     OW18649   0.654   2.893   6.343 -0.0511 -0.4869 -0.4580
 2397SOL    HW118650   0.582   2.912   6.283  1.3769  0.1746 -1.9743
 2397SOL    HW218651   0.633   2.804   6.371 -0.2966  0.1322  1.3038
 2398SOL     OW18652   2.051   4.366   4.060  0.1402  0.2793 -0.3050
 2398SOL    HW118653   2.072   4.410   4.142 -1.0686  1.3023 -0.5402
 2398SOL    HW218654   2.080   4.431   3.996  0.7641  0.9102  0.6201
 2399SOL     OW18655   4.668   2.465   5.352  0.2211 -0.3860  0.1547
 2399SOL    HW118656   4.583   2.486   5.313  0.5293  0.6671  0.0595
 2399SOL    HW218657   4.646   2.405   5.423  1.1674  0.3236  1.0327
 2400SOL     OW18658   0.617   4.698  17.109 -0.1719  0.5850 -0.1866
 2400SOL    HW118659   0.531   4.687  17.149 -0.4208  1.0085 -0.6111
 2400SOL    HW218660   0.666   4.618  17.128  1.2519  1.5368  0.1115
 2401SOL     OW18661   3.071   1.054  11.724 -1.0624 -0.8888 -0.2708
 2401SOL    HW118662   3.102   0.971  11.687 -0.6646 -1.8636  2.2387
 2401SOL    HW218663   3.012   1.074  11.651 -0.4619  2.9979  0.3148
 2402SOL     OW18664   2.621   3.674   1.947  0.5452 -0.7980  0.0299
 2402SOL    HW118665   2.658   3.680   2.035  0.8099  1.6095 -0.2450
 2402SOL    HW218666   2.617   3.769   1.933 -0.3252 -0.6747  1.0877
 2403SOL     OW18667   1.934   1.257   4.780 -0.5984  0.2967  0.2681
 2403SOL    HW118668   1.949   1.324   4.713  1.3179  0.5293  0.9310
 2403SOL    HW218669   1.892   1.193   4.722  0.2973 -1.1591  1.2256
 2404SOL     OW18670   4.082   1.475   5.897 -0.1012 -0.2507  0.6997
 2404SOL    HW118671   4.130   1.530   5.835 -0.3358 -1.6614 -0.7377
 2404SOL    HW218672   4.150   1.426   5.943  2.6913  1.2635 -1.8389
 2405SOL     OW18673   1.914   3.928   1.521  0.0861 -0.4822  0.0020
 2405SOL    HW118674   1.928   3.991   1.592  1.5465 -0.1391 -0.5957
 2405SOL    HW218675   1.879   3.977   1.447 -0.3864 -0.8775 -0.0415
 2406SOL     OW18676   2.694   0.279  12.529  0.0202  0.3181  0.3118
 2406SOL    HW118677   2.610   0.311  12.562  0.1654  0.0825  0.8986
 2406SOL    HW218678   2.704   0.198  12.578 -3.1490  0.2924  0.9169
 2407SOL     OW18679   2.051   2.259   4.509 -0.2375  0.4432 -0.7987
 2407SOL    HW118680   2.091   2.214   4.583 -0.6134  0.1935 -0.7480
 2407SOL    HW218681   2.115   2.241   4.439  0.2515 -0.7318 -0.0481
 2408SOL     OW18682   2.370   2.138   8.516 -0.1159  0.1614  0.4902
 2408SOL    HW118683   2.450   2.188   8.502 -0.6482  0.8721 -0.0265
 2408SOL    HW218684   2.318   2.162   8.439 -2.3379 -1.0746  1.6075
 2409SOL     OW18685   3.585   0.308   2.719 -0.0360 -0.1753  0.3299
 2409SOL    HW118686   3.656   0.333   2.660 -1.5477 -0.5900 -1.6709
 2409SOL    HW218687   3.516   0.278   2.660  1.2520 -0.4985 -0.9937
 2410SOL     OW18688   3.126   4.411   2.980  0.1425 -0.0934  0.1388
 2410SOL    HW118689   3.115   4.503   3.004 -1.8277 -0.2286 -0.1873
 2410SOL    HW218690   3.221   4.399   2.977  0.2335  0.7542 -0.3418
 2411SOL     OW18691   1.031   3.591   1.146  0.0618  0.4629 -0.3033
 2411SOL    HW118692   0.960   3.643   1.184 -1.3519  0.5684 -3.1732
 2411SOL    HW218693   1.058   3.639   1.068  2.5396 -1.2539 -0.4867
 2412SOL     OW18694   2.355   2.051   4.898  0.3328 -0.7020  0.0932
 2412SOL    HW118695   2.396   2.109   4.962  1.4450 -0.8875 -0.4471
 2412SOL    HW218696   2.409   1.975   4.920 -0.4888 -1.9785 -2.3159
 2413SOL     OW18697   3.563   0.122   6.074 -0.3022 -0.6429  0.3400
 2413SOL    HW118698   3.577   0.029   6.058  0.6327  0.1323 -3.5046
 2413SOL    HW218699   3.644   0.130   6.125  1.6506  2.1300 -3.1474
 2414SOL     OW18700   3.771   2.279   6.190 -0.1972  0.1346  0.1357
 2414SOL    HW118701   3.847   2.294   6.135 -1.2552 -0.4863 -1.5158
 2414SOL    HW218702   3.747   2.187   6.180  0.7699 -0.0934 -0.0585
 2415SOL     OW18703   2.440   0.723   4.776 -0.4437 -0.0462 -0.5229
 2415SOL    HW118704   2.487   0.798   4.739 -1.6524  0.8613 -0.2101
 2415SOL    HW218705   2.421   0.756   4.864  0.6537  0.6632 -0.5542
 2416SOL     OW18706   2.468   1.714   4.715 -0.4385  0.3659 -0.2167
 2416SOL    HW118707   2.421   1.643   4.759 -0.3220  0.1344 -0.4646
 2416SOL    HW218708   2.405   1.728   4.644  1.3792  1.4524 -1.6110
 2417SOL     OW18709   0.389   2.375   7.688 -0.8096 -0.4232 -0.3702
 2417SOL    HW118710   0.324   2.306   7.676 -1.2379  0.2054 -1.6301
 2417SOL    HW218711   0.461   2.314   7.707 -1.2421 -0.9532 -0.4602
 2418SOL     OW18712   0.025   3.044  12.391  0.0398 -0.2289 -0.1392
 2418SOL    HW118713   0.098   3.097  12.360  0.4236  0.9263  2.7266
 2418SOL    HW218714   4.698   3.089  12.460  0.4923 -1.8298  1.2246
 2419SOL     OW18715   3.215   2.944   8.471  0.0561 -0.5224  0.5649
 2419SOL    HW118716   3.138   2.893   8.446  1.0019 -0.3963 -2.5789
 2419SOL    HW218717   3.188   3.030   8.440 -0.6981 -1.1944 -0.6607
 2420SOL     OW18718   1.023   4.095   6.462  0.6536 -0.6086 -0.0552
 2420SOL    HW118719   1.002   4.002   6.454  0.7321 -0.4724 -1.8841
 2420SOL    HW218720   0.972   4.124   6.537  1.8886  0.2480  0.4593
 2421SOL     OW18721   2.144   3.543   9.446  0.7545  0.1326  0.3441
 2421SOL    HW118722   2.214   3.571   9.387  0.6099 -0.2521 -0.0123
 2421SOL    HW218723   2.077   3.610   9.434  0.0725 -0.5140  0.5729
 2422SOL     OW18724   2.700   2.897   4.971  0.0062 -0.4063 -0.0727
 2422SOL    HW118725   2.707   2.902   5.066 -0.7290  1.3640 -0.1165
 2422SOL    HW218726   2.608   2.873   4.964 -0.5751  2.3780 -1.6844
 2423SOL     OW18727   2.852   4.478  11.152 -0.1399 -0.2174 -0.2384
 2423SOL    HW118728   2.867   4.558  11.202  2.6500 -0.7649 -0.1975
 2423SOL    HW218729   2.887   4.501  11.066  3.0539  1.3260  1.4804
 2424SOL     OW18730   2.512   0.608   0.059  0.2010 -0.3869  0.4409
 2424SOL    HW118731   2.453   0.587   0.131  0.4502  1.5722  1.2005
 2424SOL    HW218732   2.556   0.523   0.064 -1.7415 -1.5183 -1.5808
 2425SOL     OW18733   2.416   1.983   4.071  0.0179 -0.3917 -0.1931
 2425SOL    HW118734   2.328   1.950   4.086  0.3731 -1.7117 -0.9702
 2425SOL    HW218735   2.399   2.077   4.064  2.4018 -0.2177 -3.6532
 2426SOL     OW18736   4.234   0.457   3.005  0.1554  0.2446 -0.6336
 2426SOL    HW118737   4.295   0.469   2.932 -0.1356  4.0499 -0.2506
 2426SOL    HW218738   4.291   0.417   3.071 -0.8059  1.3358  0.8721
 2427SOL     OW18739   3.476   3.861   3.335 -0.1683 -0.6568 -0.2796
 2427SOL    HW118740   3.570   3.878   3.325 -0.5547  1.7642  0.2819
 2427SOL    HW218741   3.439   3.933   3.284 -1.7840 -1.9783 -0.9569
 2428SOL     OW18742   4.184   1.703   5.724  0.5503  0.0103 -0.5669
 2428SOL    HW118743   4.150   1.788   5.694  0.3168 -0.2652 -1.0855
 2428SOL    HW218744   4.153   1.655   5.648  2.9679  0.8591 -2.0713
 2429SOL     OW18745   0.452   1.983   2.622 -0.8284  0.0922  0.2812
 2429SOL    HW118746   0.438   1.981   2.527  1.6066 -0.5311 -0.0720
 2429SOL    HW218747   0.548   1.981   2.628 -0.8419  0.2134  0.5150
 2430SOL     OW18748   1.737   0.342   0.786  0.3397  0.3736 -0.0267
 2430SOL    HW118749   1.735   0.249   0.809 -0.5746  0.0446 -1.4414
 2430SOL    HW218750   1.805   0.363   0.850  2.0565 -1.3778 -1.2983
 2431SOL     OW18751   4.199   3.081   2.128 -0.1289  0.6441 -0.3851
 2431SOL    HW118752   4.120   3.075   2.075 -0.4247 -1.3941  0.3092
 2431SOL    HW218753   4.233   3.167   2.104  1.2614  1.0069  2.9436
 2432SOL     OW18754   2.215   4.581  17.205  0.4762  0.1676 -0.6514
 2432SOL    HW118755   2.223   4.676  17.214 -2.1670  0.4625 -1.7013
 2432SOL    HW218756   2.305   4.557  17.182  0.9047 -0.1197  1.2652
 2433SOL     OW18757   2.079   2.440   3.843 -0.1157  0.4051  0.4823
 2433SOL    HW118758   2.157   2.406   3.798 -0.7265 -1.4749  0.8693
 2433SOL    HW218759   2.094   2.534   3.832 -0.6311  0.2938 -1.2151
 2434SOL     OW18760   3.385   2.882   3.269  0.4455 -0.0259 -0.0532
 2434SOL    HW118761   3.328   2.910   3.341 -1.3778 -2.9189 -0.3554
 2434SOL    HW218762   3.413   2.964   3.229 -0.2457  0.6080  0.7606
 2435SOL     OW18763   4.115   1.745   5.307 -0.3681  0.2419  0.2411
 2435SOL    HW118764   4.096   1.652   5.296 -0.1736  0.1945  0.3110
 2435SOL    HW218765   4.187   1.748   5.243 -0.4238 -0.7628  0.1357
 2436SOL     OW18766   1.590   0.445   8.269 -0.0483  0.5380  0.7537
 2436SOL    HW118767   1.680   0.467   8.292  0.4122  0.2663 -0.7604
 2436SOL    HW218768   1.588   0.502   8.192 -1.2329  2.2584  2.0393
 2437SOL     OW18769   1.296   1.308   3.193  0.3387  0.4145 -0.3654
 2437SOL    HW118770   1.377   1.294   3.143  0.2521  2.6619 -1.1426
 2437SOL    HW218771   1.320   1.383   3.246 -1.9370  0.1681  1.0012
 2438SOL     OW18772   1.899   0.788   8.760  0.0744 -0.0153  0.1965
 2438SOL    HW118773   1.849   0.722   8.808 -0.8012 -0.1024 -0.8391
 2438SOL    HW218774   1.969   0.787   8.826  1.7760 -3.1701 -1.6214
 2439SOL     OW18775   2.975   0.984   0.309  0.0841 -0.2469 -0.3128
 2439SOL    HW118776   3.039   1.048   0.340  0.0353  0.1232 -0.9894
 2439SOL    HW218777   2.898   1.023   0.349 -1.2317 -2.8307 -0.2902
 2440SOL     OW18778   3.582   1.574  12.486  0.1159 -0.1288  0.0994
 2440SOL    HW118779   3.608   1.503  12.428 -0.6663  0.2095 -0.6571
 2440SOL    HW218780   3.547   1.642  12.428 -0.9981  1.0172  2.0791
 2441SOL     OW18781   3.723   4.175   0.660 -0.2350 -0.0294  0.5000
 2441SOL    HW118782   3.655   4.214   0.606  0.1987  0.8424  0.5838
 2441SOL    HW218783   3.737   4.098   0.605  0.2180 -0.5581  1.3402
 2442SOL     OW18784   4.320   1.506   8.023  0.2837 -0.6129  0.0754
 2442SOL    HW118785   4.225   1.516   8.012  0.7196  0.3528 -2.8277
 2442SOL    HW218786   4.334   1.413   8.040  1.4052 -0.3769  0.4191
 2443SOL     OW18787   3.108   0.842  14.333 -0.1208  0.0818  0.0421
 2443SOL    HW118788   3.183   0.784  14.322 -1.5110 -1.8007  0.4323
 2443SOL    HW218789   3.054   0.819  14.257  0.2423 -1.3278  0.2041
 2444SOL     OW18790   4.142   4.473   7.001 -0.0324 -0.4455  0.5973
 2444SOL    HW118791   4.224   4.442   6.964 -0.3776 -0.5239 -0.1076
 2444SOL    HW218792   4.165   4.517   7.083  3.3825 -1.6736  0.2733
 2445SOL     OW18793   3.290   0.256   4.352  0.4651  0.4262 -0.6637
 2445SOL    HW118794   3.343   0.256   4.273 -1.0759 -0.2914 -1.6859
 2445SOL    HW218795   3.255   0.345   4.357 -1.3701 -0.3307 -0.3932
 2446SOL     OW18796   1.162   2.639  11.504  0.1761  0.3157  0.5458
 2446SOL    HW118797   1.243   2.622  11.457  0.7908  2.6557  0.7798
 2446SOL    HW218798   1.135   2.718  11.458 -1.8966  0.2040  1.5526
 2447SOL     OW18799   0.522   3.887  16.745 -0.7200 -0.5573  0.0489
 2447SOL    HW118800   0.438   3.876  16.701 -1.4569  1.0689  1.0645
 2447SOL    HW218801   0.549   3.974  16.714 -0.2842 -0.3699  0.9217
 2448SOL     OW18802   2.479   1.082   6.866  0.1529  0.5057  0.4005
 2448SOL    HW118803   2.422   1.020   6.912  1.0835 -1.3601 -0.9554
 2448SOL    HW218804   2.427   1.162   6.866 -0.0034  0.4077 -0.7837
 2449SOL     OW18805   1.769   1.185   7.406  0.3978  0.2958 -0.1466
 2449SOL    HW118806   1.742   1.159   7.318 -0.0595  0.6924 -0.1219
 2449SOL    HW218807   1.728   1.114   7.455  0.7994  0.1935  0.0450
 2450SOL     OW18808   1.952   2.471   1.265  0.2748 -0.3586 -0.0591
 2450SOL    HW118809   2.033   2.452   1.312  0.0526  0.9511  0.8768
 2450SOL    HW218810   1.915   2.547   1.311  0.8509 -1.3164  1.9951
 2451SOL     OW18811   1.977   0.956   6.207  0.0429  0.3336 -0.5412
 2451SOL    HW118812   2.062   0.997   6.191  0.0708 -0.1976 -1.7654
 2451SOL    HW218813   2.002   0.902   6.282 -1.1909 -1.2108 -1.2382
 2452SOL     OW18814   1.579   2.150   2.934 -0.4193  0.2345  0.0536
 2452SOL    HW118815   1.538   2.081   2.882  0.3286 -0.5623  0.5081
 2452SOL    HW218816   1.566   2.118   3.024 -1.2994 -0.0272 -0.1620
 2453SOL     OW18817   3.208   2.907   7.871  0.5737 -0.3798 -0.0755
 2453SOL    HW118818   3.282   2.871   7.823  1.4582  1.9208 -0.4513
 2453SOL    HW218819   3.146   2.835   7.867  1.6851 -1.1926 -2.6554
 2454SOL     OW18820   2.211   0.376   7.823 -0.1517 -0.0699 -0.8708
 2454SOL    HW118821   2.274   0.430   7.870 -2.8477  0.4455  2.1367
 2454SOL    HW218822   2.183   0.324   7.898  1.7788  1.1347  0.6789
 2455SOL     OW18823   3.748   2.245   5.171  0.5254 -0.4309  0.4631
 2455SOL    HW118824   3.747   2.242   5.076  1.0143  0.1481  0.4430
 2455SOL    HW218825   3.696   2.166   5.185 -0.0006 -0.2921 -0.7273
 2456SOL     OW18826   3.501   2.283   6.033 -0.3607 -0.2445  0.0330
 2456SOL    HW118827   3.533   2.351   5.974 -2.1404 -1.1593 -1.9573
 2456SOL    HW218828   3.584   2.234   6.038  0.2852  0.8981  0.4433
 2457SOL     OW18829   1.179   1.856   9.311  0.6094  0.0507 -0.2779
 2457SOL    HW118830   1.189   1.771   9.355  0.2166 -0.2437 -0.7598
 2457SOL    HW218831   1.224   1.913   9.373  0.5773 -1.8256  1.5050
 2458SOL     OW18832   3.827   1.311  12.570  0.5709  0.2397 -0.0598
 2458SOL    HW118833   3.792   1.348  12.651 -0.6392 -0.5900 -0.1860
 2458SOL    HW218834   3.768   1.236  12.557  0.6569 -0.0120  0.9477
 2459SOL     OW18835   2.654   1.734  11.527 -0.3197  0.5922  0.9366
 2459SOL    HW118836   2.573   1.697  11.491 -0.2134  0.1062  1.1837
 2459SOL    HW218837   2.668   1.803  11.463 -0.0279 -1.0269 -0.7473
 2460SOL     OW18838   0.829   4.066  13.403 -0.2955 -0.2607  0.3164
 2460SOL    HW118839   0.866   4.137  13.350  1.5358 -1.7872 -0.4086
 2460SOL    HW218840   0.820   4.101  13.491  0.5888 -0.1014  0.3408
 2461SOL     OW18841   2.540   1.725   7.414  0.3010  0.1914  0.3634
 2461SOL    HW118842   2.624   1.681   7.429  0.0159  0.0808  1.6243
 2461SOL    HW218843   2.547   1.743   7.320 -1.1502  4.5429  1.0733
 2462SOL     OW18844   3.072   0.506  16.987 -0.0541 -0.4848 -0.1804
 2462SOL    HW118845   3.000   0.454  16.951  0.2809 -0.7820 -0.4057
 2462SOL    HW218846   3.143   0.461  16.943  0.4394  2.4326 -2.3248
 2463SOL     OW18847   2.104   0.017  11.716 -0.2662  0.0118 -0.1803
 2463SOL    HW118848   2.175   4.675  11.725  0.4368  0.8046 -0.0484
 2463SOL    HW218849   2.154   0.099  11.706  0.0576 -0.0131  1.1755
 2464SOL     OW18850   3.097   0.746   0.162 -0.5937  0.2395  0.8755
 2464SOL    HW118851   3.140   0.719   0.243 -1.6816 -0.0780  1.3506
 2464SOL    HW218852   3.054   0.829   0.184 -0.2883  0.5135  0.4385
 2465SOL     OW18853   1.059   0.346   1.402  1.0651 -0.6359  0.0727
 2465SOL    HW118854   1.066   0.418   1.464  0.6016 -0.4342 -0.1080
 2465SOL    HW218855   1.137   0.293   1.417  0.3409 -2.5966 -3.0036
 2466SOL     OW18856   2.262   2.662   2.541 -0.0786  0.7257 -0.2444
 2466SOL    HW118857   2.285   2.723   2.470 -1.5146  0.2538 -1.1389
 2466SOL    HW218858   2.341   2.612   2.525  0.6142  2.3042 -1.8545
 2467SOL     OW18859   3.136   0.146   6.430 -0.1053 -0.1874 -0.1562
 2467SOL    HW118860   3.196   0.139   6.357  1.8362  0.0377  1.4044
 2467SOL    HW218861   3.159   0.237   6.452  0.2108  0.1999 -2.1065
 2468SOL     OW18862   2.524   3.149   3.371  0.4274  0.3840 -0.0890
 2468SOL    HW118863   2.590   3.121   3.435 -0.0313 -0.1536  0.1463
 2468SOL    HW218864   2.522   3.080   3.304 -0.3260 -0.6216  0.9706
 2469SOL     OW18865   3.981   4.379   7.666 -0.4633  0.3146  0.1692
 2469SOL    HW118866   3.900   4.404   7.710  0.5545  1.4080  1.4248
 2469SOL    HW218867   4.035   4.438   7.718  0.9485  1.0713 -2.1790
 2470SOL     OW18868   2.820   3.687   3.166 -0.1289 -0.3665  0.1101
 2470SOL    HW118869   2.901   3.701   3.214  0.1014  0.6768 -0.5831
 2470SOL    HW218870   2.770   3.765   3.191  0.7281  0.9496 -2.2775
 2471SOL     OW18871   1.712   3.304   3.291  0.4028  0.3311 -0.3843
 2471SOL    HW118872   1.803   3.289   3.317  0.7913 -0.0677 -1.9792
 2471SOL    HW218873   1.701   3.399   3.297  0.8507  0.2666  1.3113
 2472SOL     OW18874   3.471   2.949   6.659 -0.2706 -0.3629  0.8044
 2472SOL    HW118875   3.404   3.014   6.680  1.5666  1.8322 -0.1532
 2472SOL    HW218876   3.434   2.878   6.712 -1.2464 -0.4030  0.0828
 2473SOL     OW18877   0.250   4.387   0.994 -0.1574  0.2492  0.1418
 2473SOL    HW118878   0.155   4.384   0.998 -0.1490 -0.4612 -0.4144
 2473SOL    HW218879   0.278   4.375   1.085  1.1982 -1.3292 -0.4854
 2474SOL     OW18880   2.478   1.679  10.726  0.4875  0.1006 -0.5125
 2474SOL    HW118881   2.571   1.663  10.737  0.0985 -2.8223 -1.5643
 2474SOL    HW218882   2.477   1.722  10.640  0.3618 -1.6477 -1.3746
 2475SOL     OW18883   2.077   3.791   8.351 -0.6416 -0.0196 -0.2873
 2475SOL    HW118884   2.133   3.754   8.420 -0.6035  1.1216  0.2949
 2475SOL    HW218885   2.066   3.719   8.288 -0.2308  1.7307 -2.3543
 2476SOL     OW18886   4.654   0.023   6.968  0.4663 -0.1843  0.1440
 2476SOL    HW118887   4.692   4.664   6.933 -0.6994 -1.8239  2.5982
 2476SOL    HW218888   4.689   0.017   7.057  1.1456 -1.6078 -0.2193
 2477SOL     OW18889   3.568   3.239   1.379  0.3433  0.0691  0.1532
 2477SOL    HW118890   3.611   3.304   1.436  1.2733 -0.6482  0.2818
 2477SOL    HW218891   3.478   3.243   1.409  0.5338  1.2251  0.5799
 2478SOL     OW18892   4.702   0.826   3.364 -0.4275 -0.0640 -0.6549
 2478SOL    HW118893   4.721   0.814   3.457  0.0590 -0.2286 -0.7761
 2478SOL    HW218894   4.620   0.875   3.369 -0.6657 -0.7040  1.9315
 2479SOL     OW18895   0.573   0.231  12.059 -0.1325  0.2248  0.1456
 2479SOL    HW118896   0.540   0.142  12.073 -0.0805  0.4398  1.6816
 2479SOL    HW218897   0.564   0.258  12.150  0.1944 -0.1622  0.2942
 2480SOL     OW18898   3.280   4.658  13.708 -0.0777  0.8421 -0.7103
 2480SOL    HW118899   3.211   4.719  13.681 -0.5725  0.9644  0.8414
 2480SOL    HW218900   3.225   4.582  13.688 -0.3125  0.2540  2.1915
 2481SOL     OW18901   3.769   3.412   8.337 -0.3763  0.2173  0.6783
 2481SOL    HW118902   3.783   3.334   8.390  1.2701  0.1190  0.1099
 2481SOL    HW218903   3.745   3.475   8.405  0.6913  0.9510  0.3694
 2482SOL     OW18904   4.009   0.448   7.889 -0.0688 -0.6163  0.3443
 2482SOL    HW118905   4.036   0.397   7.965 -1.8532 -2.2551 -0.1226
 2482SOL    HW218906   3.916   0.427   7.881 -0.1278 -0.4047  0.4707
 2483SOL     OW18907   0.343   4.081   1.916 -0.2677  0.0333 -0.0627
 2483SOL    HW118908   0.385   4.083   1.830  0.4725 -1.4614  0.2664
 2483SOL    HW218909   0.268   4.135   1.890  0.4739 -0.3385 -3.0017
 2484SOL     OW18910   4.577   2.174  15.614 -0.5417 -0.2548 -0.5125
 2484SOL    HW118911   4.599   2.247  15.557  0.3204 -0.6634 -0.7056
 2484SOL    HW218912   4.505   2.138  15.562  0.8398 -2.2183 -1.0995
 2485SOL     OW18913   1.194   3.247   9.059  0.0537 -0.0040 -0.8698
 2485SOL    HW118914   1.185   3.249   9.154  0.2664  2.4428 -0.9003
 2485SOL    HW218915   1.106   3.220   9.030  0.2554 -0.1987 -1.3089
 2486SOL     OW18916   3.822   4.149  14.907 -0.1861 -0.5209 -0.8612
 2486SOL    HW118917   3.849   4.125  14.818  0.4310 -0.8615 -0.5846
 2486SOL    HW218918   3.891   4.107  14.959 -0.0461  0.9090  0.1090
 2487SOL     OW18919   2.163   4.053   6.858  0.2276 -0.2357  0.3097
 2487SOL    HW118920   2.081   4.090   6.825  1.2673  1.9956  0.2371
 2487SOL    HW218921   2.155   4.061   6.953 -2.1382 -1.6736  0.2244
 2488SOL     OW18922   1.286   3.944   1.021 -0.1551  0.3397  0.3457
 2488SOL    HW118923   1.276   3.860   0.975  0.5913  0.6673 -0.4194
 2488SOL    HW218924   1.198   3.953   1.056 -0.9131 -2.6903 -0.7628
 2489SOL     OW18925   4.272   4.262  15.415  0.5124  0.5993 -0.5808
 2489SOL    HW118926   4.325   4.182  15.411  2.6770  2.0421 -0.8145
 2489SOL    HW218927   4.339   4.308  15.466  0.2129  0.8607 -0.4286
 2490SOL     OW18928   4.178   3.558   6.500 -0.5010  0.2311  0.2538
 2490SOL    HW118929   4.248   3.621   6.480 -1.5737  1.3235 -0.0235
 2490SOL    HW218930   4.228   3.479   6.519 -1.5254 -0.2918  0.7368
 2491SOL     OW18931   3.766   4.704   6.221  0.1493 -0.3657  0.1571
 2491SOL    HW118932   3.749   4.610   6.225 -0.1447 -0.2668  1.2252
 2491SOL    HW218933   3.854   4.707   6.184  0.5482 -2.3838  0.9905
 2492SOL     OW18934   4.410   4.220  15.082 -0.8190  0.6463  0.0585
 2492SOL    HW118935   4.388   4.311  15.100  2.7149  1.4110  0.5170
 2492SOL    HW218936   4.467   4.198  15.157 -2.7127 -0.0498  1.2962
 2493SOL     OW18937   3.860   4.120  17.469 -0.2629  1.4984 -0.1953
 2493SOL    HW118938   3.888   4.048  17.413 -1.3415  0.5615  0.4473
 2493SOL    HW218939   3.765   4.112  17.456  0.0391  0.2974 -1.6186
 2494SOL     OW18940   4.464   2.347   3.093 -0.2545  0.7399 -0.1337
 2494SOL    HW118941   4.529   2.319   3.157  1.7459  2.7392 -1.2879
 2494SOL    HW218942   4.499   2.435   3.082  0.1810  0.4728 -0.9417
 2495SOL     OW18943   3.431   3.222   3.457  0.0292 -0.4697 -0.0639
 2495SOL    HW118944   3.525   3.235   3.445  0.1776 -0.5983  0.9157
 2495SOL    HW218945   3.426   3.136   3.498  0.3106 -0.3182  0.2909
 2496SOL     OW18946   0.488   0.934   6.541 -0.4458 -0.0459 -0.2562
 2496SOL    HW118947   0.397   0.928   6.569 -1.1038 -1.4368 -2.7406
 2496SOL    HW218948   0.533   0.899   6.618  0.5111  1.0869 -0.3027
 2497SOL     OW18949   0.411   1.443   6.093  0.4275  0.0539  0.4896
 2497SOL    HW118950   0.413   1.347   6.087 -1.6786  0.0670 -0.3537
 2497SOL    HW218951   0.490   1.459   6.144  3.0314  1.2853 -3.9477
 2498SOL     OW18952   4.413   4.028  15.369  0.3413 -0.4519 -0.4621
 2498SOL    HW118953   4.467   3.964  15.415  0.0446  0.0447  0.5792
 2498SOL    HW218954   4.437   4.020  15.276 -1.1246 -1.9352 -0.7099
 2499SOL     OW18955   2.351   2.167  16.064  0.4537  0.2664  0.2658
 2499SOL    HW118956   2.255   2.170  16.060  0.4572  1.3053  1.0272
 2499SOL    HW218957   2.360   2.195  16.155 -0.0050 -4.2003  1.6794
 2500SOL     OW18958   1.462   3.291   6.139 -0.2864 -0.0749  0.4328
 2500SOL    HW118959   1.449   3.367   6.196 -1.3974 -0.3211  0.5149
 2500SOL    HW218960   1.383   3.246   6.169 -0.2105 -0.4499  0.0720
 2501SOL     OW18961   0.122   1.447   4.178  0.0524 -0.2845 -0.6699
 2501SOL    HW118962   0.087   1.533   4.201  1.3904 -0.3904  1.7206
 2501SOL    HW218963   0.042   1.396   4.168 -0.2722  0.1959 -0.5126
 2502SOL     OW18964   1.118   2.972   5.246  0.1781  0.0638 -0.1839
 2502SOL    HW118965   1.059   3.047   5.256 -0.5875 -0.7445  1.4115
 2502SOL    HW218966   1.090   2.915   5.318 -0.1679  0.7041  0.1895
 2503SOL     OW18967   3.014   0.277   1.021 -0.2198  0.1420  0.2008
 2503SOL    HW118968   3.061   0.219   0.962 -0.0328 -1.6432  2.1098
 2503SOL    HW218969   3.079   0.287   1.090 -1.2107 -0.9959  1.2915
 2504SOL     OW18970   1.667   2.984   7.374  0.3552  0.3731 -0.0037
 2504SOL    HW118971   1.705   3.029   7.299  1.1347  0.4401  0.4329
 2504SOL    HW218972   1.617   2.919   7.325  0.1080 -2.0803  3.4493
 2505SOL     OW18973   3.841   1.190   3.733  0.2098  0.3141  0.6267
 2505SOL    HW118974   3.786   1.237   3.671 -0.4762  0.4517  1.3406
 2505SOL    HW218975   3.814   1.241   3.810 -0.0676 -3.2494  2.8941
 2506SOL     OW18976   1.520   2.600   7.883  0.0479 -0.3224 -0.0345
 2506SOL    HW118977   1.583   2.663   7.918  0.9211 -0.5925 -1.1294
 2506SOL    HW218978   1.483   2.652   7.812  0.4354 -0.2023 -0.1475
 2507SOL     OW18979   2.995   1.364  13.337 -0.5853  0.4916  0.0522
 2507SOL    HW118980   3.086   1.369  13.308  0.1780 -0.3231  2.2970
 2507SOL    HW218981   2.968   1.298  13.273 -0.2421  2.5859 -2.2596
 2508SOL     OW18982   1.165   2.036  17.319  0.4162 -0.6245  0.0267
 2508SOL    HW118983   1.179   1.953  17.365 -2.0799 -1.4636 -0.7189
 2508SOL    HW218984   1.129   2.094  17.386  1.2982  0.0416 -0.0859
 2509SOL     OW18985   3.947   4.583   3.035 -0.7921 -0.2311 -0.0636
 2509SOL    HW118986   3.978   4.492   3.032 -1.6914 -0.4617 -2.4883
 2509SOL    HW218987   3.857   4.570   3.062 -0.3003 -0.8212  1.2805
 2510SOL     OW18988   0.840   4.390   4.429 -0.1636  0.2193 -0.0942
 2510SOL    HW118989   0.781   4.456   4.393  1.6388  1.4496 -0.8014
 2510SOL    HW218990   0.800   4.313   4.388  0.3506 -0.6777  1.0718
 2511SOL     OW18991   1.687   1.229   8.769  0.3643  0.1404 -0.5162
 2511SOL    HW118992   1.773   1.224   8.727  1.3154  0.4444  1.4268
 2511SOL    HW218993   1.698   1.244   8.863 -1.0172 -0.9807 -0.1876
 2512SOL     OW18994   0.200   2.802   3.150 -0.5745  0.2684 -0.3817
 2512SOL    HW118995   0.200   2.843   3.236 -1.6998 -2.8263  1.0926
 2512SOL    HW218996   0.137   2.731   3.159 -0.2306  0.0146  0.0098
 2513SOL     OW18997   0.191   4.613   2.459  0.2918  0.0700 -0.2968
 2513SOL    HW118998   0.240   4.531   2.467  0.2805  0.3251  2.3964
 2513SOL    HW218999   0.110   4.588   2.502  0.5634 -0.9877 -0.4028
 2514SOL     OW19000   0.405   2.443   1.997 -0.2157  0.3693 -0.4250
 2514SOL    HW119001   0.467   2.412   2.063  0.2887 -0.9634 -1.5224
 2514SOL    HW219002   0.322   2.416   2.038 -0.0117  1.0781  0.4658
 2515SOL     OW19003   2.861   0.339  10.764 -0.0473 -0.5374 -0.0239
 2515SOL    HW119004   2.917   0.332  10.687 -0.7107  0.6263 -0.6086
 2515SOL    HW219005   2.931   0.314  10.824 -1.3302 -0.5030  1.4859
 2516SOL     OW19006   2.712   3.481  11.462 -0.8805  0.0136 -0.4412
 2516SOL    HW119007   2.797   3.519  11.487 -0.2289 -0.7945 -1.4493
 2516SOL    HW219008   2.729   3.389  11.480 -0.9885 -0.1505 -1.1935
 2517SOL     OW19009   0.312   1.892   8.127  0.1725  0.2929  0.0561
 2517SOL    HW119010   0.344   1.890   8.218 -0.9983  0.2778  0.4630
 2517SOL    HW219011   0.331   1.984   8.110 -4.3092  1.1791  0.0595
 2518SOL     OW19012   1.711   2.791   4.612  0.4385 -0.0161 -0.0795
 2518SOL    HW119013   1.778   2.774   4.545  1.1110  0.5112  0.4672
 2518SOL    HW219014   1.730   2.882   4.630  0.0817  0.1202 -0.3799
 2519SOL     OW19015   0.435   4.070   3.208  0.6815  0.2951  0.0629
 2519SOL    HW119016   0.491   4.132   3.254  0.2741  1.0384 -0.4604
 2519SOL    HW219017   0.500   3.999   3.207 -3.0823 -3.1601 -1.4854
 2520SOL     OW19018   4.400   2.547   7.016 -0.3381  0.5885  0.4967
 2520SOL    HW119019   4.480   2.553   7.068  0.3913  0.0031 -0.5645
 2520SOL    HW219020   4.435   2.497   6.943 -1.7595  0.1880  0.0890
 2521SOL     OW19021   0.178   4.263  14.651  0.3201 -0.1460  0.0850
 2521SOL    HW119022   0.172   4.271  14.747  1.2522  2.2319 -0.0403
 2521SOL    HW219023   0.258   4.215  14.633  0.8393  1.0524 -0.7611
 2522SOL     OW19024   1.970   1.136   5.526  0.6231  0.1138 -0.2135
 2522SOL    HW119025   1.946   1.221   5.490 -0.4395 -1.5333 -3.4432
 2522SOL    HW219026   2.037   1.164   5.588 -0.6086  0.5533  0.9198
 2523SOL     OW19027   3.163   3.300   9.809 -0.4084  0.0720  0.2383
 2523SOL    HW119028   3.109   3.317   9.886  0.8009 -0.3849  1.1838
 2523SOL    HW219029   3.170   3.205   9.819 -1.0695  0.1790  1.6966
 2524SOL     OW19030   4.344   2.534   7.506 -0.3907 -0.5166 -0.0372
 2524SOL    HW119031   4.418   2.478   7.485 -0.6508 -1.0757  0.5455
 2524SOL    HW219032   4.391   2.611   7.537 -3.5749  0.5674  2.1203
 2525SOL     OW19033   1.128   1.458   9.592  0.5378  0.0245  0.2193
 2525SOL    HW119034   1.043   1.426   9.623  1.0180 -1.0323  0.4451
 2525SOL    HW219035   1.184   1.405   9.650 -1.9779 -0.9482  1.7810
 2526SOL     OW19036   0.613   3.229   9.969 -0.0006  0.3091  0.0304
 2526SOL    HW119037   0.557   3.184  10.032  1.3195 -0.8064  0.4295
 2526SOL    HW219038   0.700   3.224  10.010  0.2038 -0.4392 -0.4953
 2527SOL     OW19039   4.544   3.560   5.284  0.1847 -0.4824  0.4528
 2527SOL    HW119040   4.551   3.480   5.232  4.6318 -0.3999  0.9001
 2527SOL    HW219041   4.499   3.612   5.218 -0.1209  0.8986  1.7443
 2528SOL     OW19042   3.322   1.093  11.051 -0.2337 -0.0272  0.2702
 2528SOL    HW119043   3.330   1.052  11.137  0.0950  1.2623  0.8617
 2528SOL    HW219044   3.350   1.019  10.997  1.1336 -0.5049  1.6117
 2529SOL     OW19045   1.055   3.596   4.208 -0.1476 -0.0185 -0.7233
 2529SOL    HW119046   1.110   3.540   4.263  1.5807  0.9267 -1.4861
 2529SOL    HW219047   1.042   3.676   4.257 -0.0405  0.0528 -0.8101
 2530SOL     OW19048   2.510   0.147   9.808 -0.3403 -0.0425 -0.2896
 2530SOL    HW119049   2.419   0.121   9.792 -0.8677  0.9580  1.0513
 2530SOL    HW219050   2.512   0.233   9.766  0.2297  0.5267  0.9074
 2531SOL     OW19051   2.721   0.106  15.960 -0.2942  0.1006  0.4321
 2531SOL    HW119052   2.715   0.197  15.929 -2.9115  0.2495  1.4137
 2531SOL    HW219053   2.641   0.099  16.012 -0.0276  0.8191  0.9361
 2532SOL     OW19054   0.747   3.389   6.185 -0.5912 -0.2574 -0.1218
 2532SOL    HW119055   0.835   3.355   6.170 -0.4891  0.1387 -0.4203
 2532SOL    HW219056   0.724   3.319   6.246 -2.4418  0.5738  0.1218
 2533SOL     OW19057   1.219   2.694  14.648  0.1334  0.3931 -0.3114
 2533SOL    HW119058   1.288   2.760  14.647 -0.3900  0.9024 -2.0549
 2533SOL    HW219059   1.223   2.662  14.558 -0.7327  0.4296 -0.3663
 2534SOL     OW19060   0.318   0.416   4.720 -0.6105  0.5699 -0.0825
 2534SOL    HW119061   0.312   0.457   4.806  1.1882  0.4290  0.1066
 2534SOL    HW219062   0.263   0.468   4.661  0.4862  0.0322 -1.5884
 2535SOL     OW19063   0.889   2.392   3.571 -0.1340 -1.2833 -0.6873
 2535SOL    HW119064   0.836   2.368   3.495  0.6218 -0.8582 -1.3505
 2535SOL    HW219065   0.870   2.317   3.627 -0.2591 -2.7325 -2.7191
 2536SOL     OW19066   2.893   2.085   6.935  0.0147  0.6122  0.2179
 2536SOL    HW119067   2.911   2.079   6.842 -2.0346  0.5546 -0.1805
 2536SOL    HW219068   2.923   1.999   6.966 -0.4407  0.3458 -0.0829
 2537SOL     OW19069   1.761   2.480   2.659 -0.4248  0.1269  0.1954
 2537SOL    HW119070   1.763   2.390   2.625  0.2703 -0.3090  1.3616
 2537SOL    HW219071   1.808   2.520   2.586 -0.7279  0.5390  0.2323
 2538SOL     OW19072   2.275   0.116   8.574 -0.1434  0.5341  0.1740
 2538SOL    HW119073   2.207   0.128   8.641 -1.9331  0.0360 -1.5785
 2538SOL    HW219074   2.223   0.068   8.511 -0.7680  1.2533  0.1452
 2539SOL     OW19075   2.435   2.956   3.975 -0.0883 -0.5150 -0.0821
 2539SOL    HW119076   2.414   3.035   4.025 -1.6402 -1.8619  1.3568
 2539SOL    HW219077   2.464   2.895   4.043  1.6047 -0.2432 -0.5701
 2540SOL     OW19078   2.539   0.642   2.244  0.6694 -0.4915  0.1280
 2540SOL    HW119079   2.486   0.655   2.165 -1.7522 -1.2323  1.6450
 2540SOL    HW219080   2.628   0.672   2.225  0.5669 -0.1834  0.1315
 2541SOL     OW19081   4.096   2.647   3.965  0.1433 -0.1260  0.3571
 2541SOL    HW119082   4.133   2.607   4.044 -1.1620 -1.1312  0.4663
 2541SOL    HW219083   4.035   2.577   3.940  0.0802 -1.0723  3.1675
 2542SOL     OW19084   1.260   1.865  17.514 -0.4729  0.2247  0.0389
 2542SOL    HW119085   1.341   1.879  17.563  0.8760  1.9106 -2.7258
 2542SOL    HW219086   1.259   1.769  17.515  3.0317  0.1958  0.4121
 2543SOL     OW19087   1.019   0.404  10.386 -0.2788  0.2459 -0.1634
 2543SOL    HW119088   0.930   0.379  10.360 -0.7373  0.4158  1.2499
 2543SOL    HW219089   0.995   0.492  10.415  1.0825  0.8563 -0.8849
 2544SOL     OW19090   2.780   2.149   4.274 -0.2196  0.1391 -0.1289
 2544SOL    HW119091   2.847   2.084   4.294  0.5004  1.3609  1.4412
 2544SOL    HW219092   2.813   2.226   4.321  0.7043  0.7520 -1.7788
 2545SOL     OW19093   4.131   1.755   4.343 -0.3848 -0.1398 -0.0575
 2545SOL    HW119094   4.131   1.666   4.308 -1.4732  0.1713 -0.8580
 2545SOL    HW219095   4.185   1.740   4.421  0.2986 -1.0664 -0.7028
 2546SOL     OW19096   2.585   2.234   3.339 -0.6322 -0.1520  0.2228
 2546SOL    HW119097   2.663   2.284   3.315  0.6630 -2.5601 -0.6425
 2546SOL    HW219098   2.553   2.276   3.419  1.2419  0.7417  0.4978
 2547SOL     OW19099   0.912   3.704   7.290  0.1439  0.1379  0.4066
 2547SOL    HW119100   0.865   3.651   7.224 -1.1143 -2.5728  3.4858
 2547SOL    HW219101   0.915   3.781   7.233  2.0989 -0.0241  0.3034
 2548SOL     OW19102   1.311   4.431   4.233  0.6062  0.2316 -0.2812
 2548SOL    HW119103   1.305   4.336   4.224 -1.9831  0.3792 -0.2257
 2548SOL    HW219104   1.233   4.448   4.286  0.5399  1.3107 -0.7293
 2549SOL     OW19105   1.960   0.717   8.255 -0.4060  0.1608  0.0868
 2549SOL    HW119106   1.916   0.745   8.335 -1.3454 -1.1257  0.0242
 2549SOL    HW219107   1.929   0.790   8.201 -0.4680  1.1261  1.4219
 2550SOL     OW19108   0.186   0.644   8.119  0.0241 -0.4432 -0.7984
 2550SOL    HW119109   0.210   0.736   8.123 -0.5296 -0.3513  0.3768
 2550SOL    HW219110   0.099   0.657   8.081  1.5691  3.8132 -2.8856
 2551SOL     OW19111   1.503   0.301  12.222  0.7016 -0.5151  0.4107
 2551SOL    HW119112   1.587   0.314  12.180 -0.1199  1.0915 -0.7415
 2551SOL    HW219113   1.434   0.346  12.172  0.1323 -2.9643 -0.9641
 2552SOL     OW19114   0.187   1.639   8.062 -0.5303 -0.2252 -0.0913
 2552SOL    HW119115   0.236   1.720   8.081 -0.9510  0.0386 -0.1344
 2552SOL    HW219116   0.106   1.656   8.110  0.9508  1.5476  1.7962
 2553SOL     OW19117   3.576   3.989   4.173  0.2388 -0.1957  0.4631
 2553SOL    HW119118   3.623   4.028   4.099 -1.3727 -0.1119 -0.5247
 2553SOL    HW219119   3.486   3.988   4.141  0.9391 -1.8562 -1.4431
 2554SOL     OW19120   3.527   1.813  12.874  0.1345 -0.1937 -0.1384
 2554SOL    HW119121   3.502   1.826  12.966  1.3811 -1.8625  0.4226
 2554SOL    HW219122   3.516   1.899  12.833  0.4090  0.9095  2.1115
 2555SOL     OW19123   2.039   3.841   3.906  0.0023  0.4417  0.8633
 2555SOL    HW119124   1.973   3.823   3.839  1.2306 -3.5001  0.7211
 2555SOL    HW219125   2.067   3.753   3.932  1.1302  0.4302 -0.4361
 2556SOL     OW19126   4.650   2.069   3.490 -0.2243  0.3882  0.3178
 2556SOL    HW119127   4.718   2.083   3.557  0.2909 -0.3900 -0.0378
 2556SOL    HW219128   4.705   2.062   3.412  0.4326 -0.7252  0.8722
 2557SOL     OW19129   1.048   3.776   3.156 -0.1200  0.5767 -0.1316
 2557SOL    HW119130   1.115   3.725   3.111  0.2390  0.6604  0.3091
 2557SOL    HW219131   0.984   3.705   3.161 -0.4491  0.9238  0.5666
 2558SOL     OW19132   0.133   0.050  11.213  0.4127  0.0078  0.9395
 2558SOL    HW119133   0.062   4.707  11.212  0.7223 -0.3441  1.6679
 2558SOL    HW219134   0.103   0.104  11.286  2.1683 -1.2717  2.6295
 2559SOL     OW19135   1.407   4.102   4.756  0.1648  0.8002  0.3340
 2559SOL    HW119136   1.398   4.137   4.668  0.5446 -1.3215 -0.5371
 2559SOL    HW219137   1.485   4.155   4.772 -0.0988  0.9851  1.0108
 2560SOL     OW19138   0.698   3.841  16.131 -0.1121 -0.3209 -0.4694
 2560SOL    HW119139   0.764   3.807  16.071 -3.3329 -2.6408 -2.7356
 2560SOL    HW219140   0.742   3.811  16.211 -0.1341 -1.7335 -0.9843
 2561SOL     OW19141   4.117   4.440  15.808 -0.3851 -0.4225  0.3762
 2561SOL    HW119142   4.081   4.393  15.733  0.3267 -1.4336  0.6670
 2561SOL    HW219143   4.172   4.373  15.849 -0.9764 -2.1169 -1.5838
 2562SOL     OW19144   3.042   3.763   0.352  0.0313 -0.3433 -0.4612
 2562SOL    HW119145   3.122   3.728   0.391  0.1447 -0.3173 -0.6693
 2562SOL    HW219146   2.979   3.705   0.396 -0.5113  0.0111 -0.7733
 2563SOL     OW19147   1.747   4.191   8.453 -0.3720  0.3073 -0.1854
 2563SOL    HW119148   1.742   4.285   8.433 -0.1918  0.3662  0.0394
 2563SOL    HW219149   1.811   4.180   8.524 -1.3350 -3.8626  0.0069
 2564SOL     OW19150   2.413   1.877   1.580 -0.5130 -0.3674  0.1054
 2564SOL    HW119151   2.426   1.943   1.647  2.7863 -1.7288  0.8158
 2564SOL    HW219152   2.451   1.916   1.501 -2.3128 -1.1182 -1.1306
 2565SOL     OW19153   3.678   1.938   3.628 -0.2157 -0.7175 -0.3048
 2565SOL    HW119154   3.715   1.895   3.551  0.1235 -1.5811  0.3434
 2565SOL    HW219155   3.736   2.014   3.630  1.7300 -2.2171  0.6727
 2566SOL     OW19156   0.934   4.031   2.272  0.0373 -0.2636 -0.1997
 2566SOL    HW119157   0.889   4.044   2.356  0.9508 -0.2094  0.2816
 2566SOL    HW219158   0.892   4.103   2.226  0.5149  0.6471  0.7798
 2567SOL     OW19159   4.577   3.700   3.707  0.0260 -1.0027 -0.6871
 2567SOL    HW119160   4.622   3.777   3.672 -2.5052  1.2410  0.9043
 2567SOL    HW219161   4.492   3.708   3.664  0.1892  0.5475 -0.7314
 2568SOL     OW19162   3.903   2.533   3.606  0.0001  0.0007 -0.0620
 2568SOL    HW119163   3.808   2.532   3.603 -0.0665  0.0331  2.1996
 2568SOL    HW219164   3.924   2.483   3.685 -0.1631  1.6099  1.0054
 2569SOL     OW19165   2.985   0.034   2.480 -0.4546  0.0615  0.1033
 2569SOL    HW119166   3.059   0.094   2.466 -0.5574  1.0232  3.6069
 2569SOL    HW219167   2.940   0.045   2.396 -0.5749  0.9059  0.2842
 2570SOL     OW19168   4.517   0.108   2.811  0.5831 -0.1694  0.1505
 2570SOL    HW119169   4.553   0.023   2.835  0.5455 -0.9381 -2.4795
 2570SOL    HW219170   4.424   0.088   2.798  0.3231 -0.5315  2.6300
 2571SOL     OW19171   1.207   3.292   2.981  0.2891  0.0574  0.0694
 2571SOL    HW119172   1.115   3.270   2.966  0.5421 -0.7628 -0.2756
 2571SOL    HW219173   1.207   3.317   3.074 -3.0062  2.3703 -0.5366
 2572SOL     OW19174   2.692   2.131  10.089 -0.1566  0.5383 -0.0803
 2572SOL    HW119175   2.730   2.214  10.119 -1.0121  1.0005 -0.2938
 2572SOL    HW219176   2.752   2.115  10.017  0.2504 -4.5872  1.4233
 2573SOL     OW19177   3.576   4.365   3.910  0.2433  0.8697 -0.0205
 2573SOL    HW119178   3.610   4.276   3.910 -0.8179  0.4645 -0.6001
 2573SOL    HW219179   3.494   4.342   3.952  0.4629 -1.4544 -0.8591
 2574SOL     OW19180   3.871   2.306   3.244 -0.2052  0.4997 -0.1177
 2574SOL    HW119181   3.820   2.364   3.188 -1.3378 -2.2127 -1.8776
 2574SOL    HW219182   3.939   2.368   3.271 -1.6784  1.0556  2.2649
 2575SOL     OW19183   1.584   4.073   3.059 -0.5181  0.2030  0.0058
 2575SOL    HW119184   1.652   4.016   3.095 -0.1371  0.4846 -0.2635
 2575SOL    HW219185   1.522   4.008   3.024  0.1050 -0.0379 -0.6570
 2576SOL     OW19186   0.766   3.198   7.428  0.7193 -0.4157  0.2444
 2576SOL    HW119187   0.735   3.266   7.487 -0.1299 -1.3393  0.8470
 2576SOL    HW219188   0.792   3.135   7.495 -0.4026  1.6149  2.5908
 2577SOL     OW19189   4.429   3.712   6.454 -0.5531 -0.1127 -0.5258
 2577SOL    HW119190   4.451   3.705   6.361 -1.5779 -0.2718 -0.7569
 2577SOL    HW219191   4.508   3.679   6.497 -0.5261  2.9547  1.7438
 2578SOL     OW19192   3.885   0.270  16.731  0.4251 -0.0390  0.4290
 2578SOL    HW119193   3.888   0.269  16.635  0.8952 -2.8202  0.4602
 2578SOL    HW219194   3.844   0.184  16.742  0.3177 -0.0224  0.1643
 2579SOL     OW19195   3.680   3.434   5.427  0.0957  0.7327  0.6403
 2579SOL    HW119196   3.749   3.496   5.408 -1.5662  2.2762 -0.3577
 2579SOL    HW219197   3.662   3.436   5.521  0.6271 -1.5142  0.7914
 2580SOL     OW19198   2.541   0.045   6.980  0.3451 -0.2696 -0.5439
 2580SOL    HW119199   2.595   4.717   6.918  1.6290 -0.2912  0.5778
 2580SOL    HW219200   2.604   0.058   7.052 -1.8384  2.0320  0.9294
 2581SOL     OW19201   2.048   3.834   7.412  0.2742  0.3858  0.1398
 2581SOL    HW119202   2.045   3.839   7.507 -4.2606  2.3770 -0.1111
 2581SOL    HW219203   2.131   3.788   7.399 -1.4898 -2.6123 -0.6440
 2582SOL     OW19204   3.650   3.759   4.276  0.1512 -0.2235 -0.2716
 2582SOL    HW119205   3.627   3.848   4.247 -2.3641 -1.7403 -2.8947
 2582SOL    HW219206   3.619   3.711   4.199 -1.0895  1.5970 -0.9229
 2583SOL     OW19207   0.624   4.320   6.941  0.6655  0.2243 -1.0743
 2583SOL    HW119208   0.592   4.267   7.014  1.7091 -1.1916 -1.6490
 2583SOL    HW219209   0.708   4.277   6.928  1.4105  1.4261 -0.3163
 2584SOL     OW19210   0.501   3.247   7.333  0.0565  0.0722 -0.2492
 2584SOL    HW119211   0.592   3.235   7.361 -0.1611  1.0371  0.8458
 2584SOL    HW219212   0.455   3.179   7.381 -1.1688  0.6309 -0.6226
 2585SOL     OW19213   1.382   0.476  17.168  0.1670  0.0832  0.1774
 2585SOL    HW119214   1.384   0.479  17.264  2.4954  0.9999  0.0929
 2585SOL    HW219215   1.458   0.534  17.156  1.0489 -0.2629  3.7902
 2586SOL     OW19216   3.239   1.727   3.138 -0.1212  0.2406  0.4044
 2586SOL    HW119217   3.162   1.677   3.112  0.5899  0.0051 -1.2363
 2586SOL    HW219218   3.223   1.734   3.232  3.7369 -0.6200  1.1258
 2587SOL     OW19219   3.881   0.000   8.240  0.0162 -0.2679  0.0810
 2587SOL    HW119220   3.862   0.084   8.282  1.5796  0.4146 -0.5698
 2587SOL    HW219221   3.885   0.014   8.145 -0.8316  3.3809  0.5985
 2588SOL     OW19222   1.442   1.127   7.630 -0.4870 -0.2271 -0.1670
 2588SOL    HW119223   1.376   1.187   7.597 -0.1904  0.2811  0.1629
 2588SOL    HW219224   1.391   1.047   7.621  0.3424 -0.8942  1.1431
 2589SOL     OW19225   0.889   0.951   5.324  0.0685  0.0971 -0.1913
 2589SOL    HW119226   0.884   0.919   5.414  0.8498  0.0143 -0.1762
 2589SOL    HW219227   0.980   0.928   5.305  0.5810  3.0605 -1.3033
 2590SOL     OW19228   1.767   3.217  15.997 -0.1306 -0.4486  0.0737
 2590SOL    HW119229   1.801   3.198  15.909 -0.5079 -0.0755 -0.1556
 2590SOL    HW219230   1.756   3.312  15.992  0.3186 -0.3763  0.4965
 2591SOL     OW19231   2.850   2.459  14.947  0.1598  0.0990 -0.1224
 2591SOL    HW119232   2.899   2.377  14.937 -0.4708 -0.3992  0.9029
 2591SOL    HW219233   2.759   2.437  14.928  0.4240 -1.3592  0.2595
 2592SOL     OW19234   3.384   1.512   7.525 -0.0393  0.4897 -0.2168
 2592SOL    HW119235   3.308   1.466   7.561  0.1165  1.2064  1.0410
 2592SOL    HW219236   3.389   1.469   7.440 -0.8661 -2.1641  1.0856
 2593SOL     OW19237   4.247   1.614   1.091 -0.0574  0.7110  0.2012
 2593SOL    HW119238   4.281   1.549   1.030 -2.2543 -0.0497 -0.1930
 2593SOL    HW219239   4.329   1.658   1.113  0.1940 -1.1700  2.9254
 2594SOL     OW19240   2.283   3.696   1.535  0.1443 -0.1715  0.1606
 2594SOL    HW119241   2.197   3.688   1.578 -0.0725 -0.0326 -0.2505
 2594SOL    HW219242   2.300   3.606   1.507 -2.2779 -0.9057  1.0434
 2595SOL     OW19243   2.249   1.949  11.809 -0.9133  0.0731  0.6638
 2595SOL    HW119244   2.289   2.032  11.834  1.0677 -0.5348 -0.4635
 2595SOL    HW219245   2.325   1.908  11.768 -0.5991  0.2348  1.0788
 2596SOL     OW19246   3.507   1.544   5.196  0.5878 -0.7607  0.1357
 2596SOL    HW119247   3.493   1.622   5.143 -1.4963  0.6063  2.7488
 2596SOL    HW219248   3.424   1.521   5.237  0.2039  1.4770  0.6033
 2597SOL     OW19249   3.093   1.638   6.619  0.0883 -0.2351  0.0480
 2597SOL    HW119250   3.108   1.549   6.649 -0.0551 -0.1617  0.3389
 2597SOL    HW219251   3.147   1.643   6.540 -1.6081  1.7686 -0.9998
 2598SOL     OW19252   0.081   3.574   3.199  0.4494  0.8595 -0.3282
 2598SOL    HW119253   0.020   3.508   3.166 -0.4036  1.7656 -0.5285
 2598SOL    HW219254   0.154   3.514   3.217 -0.6016 -1.0217 -2.3765
 2599SOL     OW19255   2.154   1.185   7.411 -0.3871  0.0289 -0.1754
 2599SOL    HW119256   2.079   1.236   7.441 -0.3153 -1.3058  2.2467
 2599SOL    HW219257   2.153   1.205   7.317  2.1054  0.1954 -0.1507
 2600SOL     OW19258   3.301   0.256  11.226 -0.6637 -0.3188  0.1886
 2600SOL    HW119259   3.293   0.199  11.150 -1.2567 -1.3217  1.0041
 2600SOL    HW219260   3.358   0.327  11.197  0.5139 -0.8097  1.2890
 2601SOL     OW19261   3.675   0.350   5.854  0.7823  0.1723 -0.2113
 2601SOL    HW119262   3.588   0.324   5.826  0.6804  0.1450  0.1286
 2601SOL    HW219263   3.686   0.295   5.932  0.1794  2.1169  1.2671
 2602SOL     OW19264   3.199   1.134   3.736  0.1107  0.2375  0.3101
 2602SOL    HW119265   3.228   1.059   3.684 -0.1898 -0.6434  1.4166
 2602SOL    HW219266   3.106   1.112   3.741  0.2339 -0.1214  1.0465
 2603SOL     OW19267   0.401   3.099   3.625 -0.0740 -0.1015  0.1469
 2603SOL    HW119268   0.480   3.067   3.668 -0.4945 -3.1646 -1.4112
 2603SOL    HW219269   0.369   3.157   3.695 -2.1267 -0.6068 -0.3628
 2604SOL     OW19270   1.481   0.557   7.747 -0.5369  0.1549 -0.0657
 2604SOL    HW119271   1.445   0.473   7.774 -0.2246 -0.0657 -0.3357
 2604SOL    HW219272   1.532   0.527   7.672  1.7496  2.5415  0.5594
 2605SOL     OW19273   2.946   4.434   5.813  0.5664  1.0340  0.0369
 2605SOL    HW119274   2.990   4.361   5.769 -2.7619 -0.2363 -1.2216
 2605SOL    HW219275   2.886   4.388   5.872  1.1338  0.3721  0.1005
 2606SOL     OW19276   3.816   4.107  14.603  0.4431  0.0217 -0.2994
 2606SOL    HW119277   3.789   4.105  14.511  2.0559 -0.7603 -0.7489
 2606SOL    HW219278   3.909   4.089  14.592  0.5125  0.5778 -0.6415
 2607SOL     OW19279   4.076   2.042   4.785 -0.1880  0.5926  0.4911
 2607SOL    HW119280   4.127   2.023   4.706 -0.0349  0.0625  0.7197
 2607SOL    HW219281   4.120   1.995   4.855 -0.4520 -1.5315 -0.7747
 2608SOL     OW19282   1.050   1.756   5.232 -0.7094  0.1574 -0.6406
 2608SOL    HW119283   1.100   1.680   5.203 -2.6258 -2.0400  1.7207
 2608SOL    HW219284   1.001   1.784   5.155  0.6616  1.8974 -0.8759
 2609SOL     OW19285   3.076   1.452   0.554 -0.7486 -0.4416 -0.7291
 2609SOL    HW119286   2.991   1.463   0.597 -0.9053 -0.6368 -0.9978
 2609SOL    HW219287   3.131   1.449   0.632 -0.4955  2.5408 -0.7923
 2610SOL     OW19288   4.351   2.261   8.465 -0.2860  0.3174  0.3397
 2610SOL    HW119289   4.369   2.184   8.519 -0.2365 -1.5327 -2.3586
 2610SOL    HW219290   4.411   2.321   8.509 -1.2279 -0.1008  2.2199
 2611SOL     OW19291   3.411   0.328  12.962 -0.6593  0.2696  0.0824
 2611SOL    HW119292   3.346   0.394  12.988 -1.2266 -0.4468  0.4899
 2611SOL    HW219293   3.495   0.369  12.981 -0.2405 -0.2309 -0.7095
 2612SOL     OW19294   3.836   3.846  17.638 -0.2669 -0.1468  0.0801
 2612SOL    HW119295   3.851   3.894   0.031  1.3535 -2.1894  0.9901
 2612SOL    HW219296   3.922   3.848  17.596  0.1014 -0.7406  0.8087
 2613SOL     OW19297   3.746   3.888   3.352 -0.1474 -0.2400 -0.4879
 2613SOL    HW119298   3.796   3.890   3.434 -1.5893  1.4017  0.3405
 2613SOL    HW219299   3.793   3.829   3.294 -0.1874 -0.5293 -0.2287
 2614SOL     OW19300   3.499   0.843   0.953 -0.2418 -0.3341  0.5234
 2614SOL    HW119301   3.492   0.765   1.007 -1.1868 -1.6795 -1.5471
 2614SOL    HW219302   3.546   0.905   1.009 -0.8995  1.3687 -0.8226
 2615SOL     OW19303   4.047   2.192   5.014 -0.3360 -0.4110 -0.1339
 2615SOL    HW119304   4.060   2.138   4.936  0.0568  0.9303 -0.9834
 2615SOL    HW219305   3.963   2.231   4.991  0.0538  0.3401 -0.2857
 2616SOL     OW19306   1.188   0.943   8.934  0.1237  0.0697  0.2824
 2616SOL    HW119307   1.214   1.001   8.863 -1.1321 -0.4385 -0.5914
 2616SOL    HW219308   1.115   0.996   8.968  0.3033  1.2043 -1.1099
 2617SOL     OW19309   0.370   1.155   2.672  0.1806 -0.0104 -0.1868
 2617SOL    HW119310   0.449   1.148   2.725  0.9427  2.7628 -0.9664
 2617SOL    HW219311   0.391   1.234   2.622 -1.0480  0.5432  0.1822
 2618SOL     OW19312   2.360   0.078   2.604 -0.0184 -0.2685  0.0473
 2618SOL    HW119313   2.390   0.079   2.513 -1.1352 -0.8774 -0.3315
 2618SOL    HW219314   2.271   0.047   2.585  0.3799 -2.5673  1.9512
 2619SOL     OW19315   3.723   3.791   8.675 -0.3001 -0.1965  0.2399
 2619SOL    HW119316   3.765   3.839   8.603  2.3504 -0.9899  1.2631
 2619SOL    HW219317   3.767   3.818   8.756 -0.0932  1.5509 -0.4485
 2620SOL     OW19318   1.515   3.606   4.447 -0.0822 -1.2092  0.2414
 2620SOL    HW119319   1.484   3.674   4.387 -0.3036 -2.5028 -1.1214
 2620SOL    HW219320   1.547   3.654   4.523 -1.3608 -1.0192  0.6524
 2621SOL     OW19321   1.462   4.112   2.027  0.3605  0.2308 -0.0445
 2621SOL    HW119322   1.388   4.140   2.082  2.6314 -0.2683  3.3098
 2621SOL    HW219323   1.412   4.076   1.954  0.0995 -1.4501  0.9807
 2622SOL     OW19324   0.196   0.831   6.368 -0.0583 -0.9470  0.1268
 2622SOL    HW119325   0.288   0.811   6.351 -0.5982 -2.1678 -1.3460
 2622SOL    HW219326   0.162   0.745   6.393  0.0715 -0.6895  1.2186
 2623SOL     OW19327   4.715   3.472   8.432 -0.1009  0.0474  0.5950
 2623SOL    HW119328   0.041   3.443   8.354 -3.6505  0.8349 -1.8336
 2623SOL    HW219329   0.059   3.465   8.502  1.4393  1.5759 -0.7102
 2624SOL     OW19330   0.230   1.053   2.459  0.2672  1.1828 -0.3559
 2624SOL    HW119331   0.272   1.066   2.544 -0.8137 -2.9972  0.8211
 2624SOL    HW219332   0.239   1.136   2.412  1.6402  0.6333 -1.0641
 2625SOL     OW19333   0.298   3.293   5.172 -0.2443  0.5019 -0.1893
 2625SOL    HW119334   0.317   3.331   5.258 -1.8955 -0.2006  0.4949
 2625SOL    HW219335   0.287   3.201   5.193  0.9056  0.1999 -0.9351
 2626SOL     OW19336   0.664   3.121  14.971 -0.0938 -0.3420 -0.3443
 2626SOL    HW119337   0.597   3.165  15.023 -0.2562 -0.6718 -0.2733
 2626SOL    HW219338   0.735   3.184  14.959  0.8147 -1.1330  0.8961
 2627SOL     OW19339   1.684   1.844   8.478 -0.0297  0.1176  1.0455
 2627SOL    HW119340   1.776   1.869   8.471  0.7254 -2.4843  1.6866
 2627SOL    HW219341   1.652   1.914   8.535 -0.8689  2.4739 -2.2936
 2628SOL     OW19342   3.337   1.824  10.718 -0.0049  0.0310  0.1582
 2628SOL    HW119343   3.394   1.846  10.791 -0.7269  2.3072  0.0303
 2628SOL    HW219344   3.261   1.802  10.771  1.5382  0.2883  2.4542
 2629SOL     OW19345   3.715   2.403  15.271  0.1081 -0.8319 -0.0041
 2629SOL    HW119346   3.753   2.321  15.240  0.9998  0.4342 -2.2901
 2629SOL    HW219347   3.735   2.396  15.364  2.9378  1.0053 -0.4946
 2630SOL     OW19348   0.582   1.203  11.034  0.2423  0.0313 -0.1411
 2630SOL    HW119349   0.589   1.130  11.094  2.0291  0.4368  0.1328
 2630SOL    HW219350   0.509   1.245  11.081 -0.3505 -0.1706 -0.8732
 2631SOL     OW19351   3.499   2.955   1.833  0.2800 -0.6564  0.2994
 2631SOL    HW119352   3.460   2.937   1.918 -0.4760  1.0210  0.3064
 2631SOL    HW219353   3.433   2.924   1.771  0.4146 -1.1833  0.4183
 2632SOL     OW19354   0.942   0.063  10.158  0.0057  0.8806 -0.1170
 2632SOL    HW119355   0.977   0.125  10.093  0.0223  0.9590 -0.0326
 2632SOL    HW219356   1.017   0.029  10.206 -0.4113 -1.5608 -1.2239
 2633SOL     OW19357   2.677   3.978   7.171 -0.5657  0.3628 -0.0501
 2633SOL    HW119358   2.655   3.905   7.114  0.3451  0.2513 -0.2615
 2633SOL    HW219359   2.618   4.048   7.144  0.3244  0.8219 -0.7994
 2634SOL     OW19360   1.581   0.460   3.957 -0.5139 -0.5833  0.2896
 2634SOL    HW119361   1.670   0.433   3.977  0.4915  1.4311 -1.4994
 2634SOL    HW219362   1.563   0.512   4.036 -0.5096  2.0325 -1.4087
 2635SOL     OW19363   2.382   3.103   2.482 -0.1889  0.1450  0.0723
 2635SOL    HW119364   2.355   3.194   2.467  0.5299  0.4731  0.8041
 2635SOL    HW219365   2.463   3.092   2.433 -0.1203  1.8694 -0.2023
 2636SOL     OW19366   2.465   3.232   8.833  0.3711  0.0172  0.2666
 2636SOL    HW119367   2.454   3.243   8.928  2.2564  0.4180  0.4414
 2636SOL    HW219368   2.559   3.222   8.824  0.2145 -1.8590  0.6141
 2637SOL     OW19369   1.783   2.276   4.816 -0.3397  0.0240 -0.1559
 2637SOL    HW119370   1.775   2.246   4.726  1.7070  0.0238 -0.3322
 2637SOL    HW219371   1.769   2.370   4.805 -0.1443  0.0882  0.1530
 2638SOL     OW19372   3.280   0.967   7.918  0.2920  0.4325  0.0367
 2638SOL    HW119373   3.303   0.964   7.825  0.2043  0.6079  0.0091
 2638SOL    HW219374   3.363   1.001   7.951  1.4477 -0.6303 -1.8135
 2639SOL     OW19375   3.727   3.463   2.408 -0.1122 -0.0350 -0.2499
 2639SOL    HW119376   3.651   3.516   2.433 -1.1451 -0.9817 -1.3507
 2639SOL    HW219377   3.802   3.507   2.447 -0.5923  0.6628 -0.1115
 2640SOL     OW19378   0.788   0.258   1.320  0.5564  0.4206  0.2098
 2640SOL    HW119379   0.875   0.283   1.352  0.7801  0.3486 -0.3462
 2640SOL    HW219380   0.744   0.233   1.401  0.1353 -0.4225 -0.2867
 2641SOL     OW19381   4.717   0.840   7.867  0.3797  0.2643  0.0428
 2641SOL    HW119382   4.671   0.779   7.924  0.6323  0.4433  0.4395
 2641SOL    HW219383   4.711   0.798   7.782 -2.1394  0.2411  0.2409
 2642SOL     OW19384   4.175   4.258   4.020  0.3983  0.4312  0.2297
 2642SOL    HW119385   4.184   4.171   3.981 -0.9396  1.1694 -1.7316
 2642SOL    HW219386   4.084   4.286   4.017 -0.1508 -1.4430 -0.4263
 2643SOL     OW19387   3.261   1.242   2.197 -0.0776  0.4241 -0.0694
 2643SOL    HW119388   3.337   1.244   2.256 -0.9890  0.9028  1.0905
 2643SOL    HW219389   3.250   1.147   2.192 -0.9681  0.4934  0.6088
 2644SOL     OW19390   3.503   2.321   3.807  0.4357 -0.1085 -0.1518
 2644SOL    HW119391   3.541   2.237   3.831 -0.3321 -0.1441  0.9357
 2644SOL    HW219392   3.420   2.329   3.853 -0.2809  0.7235 -1.5518
 2645SOL     OW19393   3.238   3.662   7.239  0.2696 -0.2327 -0.2250
 2645SOL    HW119394   3.216   3.573   7.212  4.0481 -0.7744 -1.4527
 2645SOL    HW219395   3.220   3.644   7.331 -0.5003 -1.7106 -0.6574
 2646SOL     OW19396   2.977   3.017   2.831 -0.5144  0.2646  0.4380
 2646SOL    HW119397   2.971   3.112   2.845  0.8738  0.6167 -1.3223
 2646SOL    HW219398   3.051   3.016   2.770 -0.2880  4.3112  0.6300
 2647SOL     OW19399   2.779   0.688  10.956  0.0063 -0.3099  0.3584
 2647SOL    HW119400   2.763   0.710  10.864 -1.7751  0.6870  0.9098
 2647SOL    HW219401   2.873   0.680  10.970  0.1437  0.9520  0.1866
 2648SOL     OW19402   3.816   1.523   7.153  0.4682  0.1215  0.4815
 2648SOL    HW119403   3.895   1.568   7.125  0.3577 -0.2820 -0.4691
 2648SOL    HW219404   3.848   1.488   7.236  0.4419 -2.6468 -0.7035
 2649SOL     OW19405   0.424   4.508   5.621 -0.3057 -0.7358 -0.0996
 2649SOL    HW119406   0.344   4.559   5.609 -1.1135 -1.4674  2.3316
 2649SOL    HW219407   0.391   4.428   5.662  0.7079 -1.7911 -1.3168
 2650SOL     OW19408   4.657   3.180   3.531  0.2753 -0.1018 -0.3126
 2650SOL    HW119409   0.013   3.216   3.488  0.1795 -0.1756 -0.5502
 2650SOL    HW219410   4.613   3.262   3.554  0.7582 -0.7298  2.7771
 2651SOL     OW19411   0.986   2.160  15.852 -0.4929 -0.2397 -0.3408
 2651SOL    HW119412   0.960   2.237  15.903  2.2295 -0.0615  0.7999
 2651SOL    HW219413   1.078   2.172  15.827 -0.4806  0.2774 -0.0439
 2652SOL     OW19414   2.948   3.755   8.301 -0.1885  0.3325 -0.3410
 2652SOL    HW119415   2.867   3.707   8.317 -0.1978  1.8383  4.0736
 2652SOL    HW219416   2.962   3.788   8.390  1.7658  2.7613 -1.5512
 2653SOL     OW19417   0.633   3.892   3.254  0.1041 -0.1327  0.4093
 2653SOL    HW119418   0.719   3.919   3.284 -0.7140  3.0942 -0.1545
 2653SOL    HW219419   0.635   3.796   3.246 -1.5531 -0.3419  2.3911
 2654SOL     OW19420   3.374   1.225  10.307 -0.6608  0.7402  0.5960
 2654SOL    HW119421   3.321   1.302  10.287 -0.5517  1.0211  1.3854
 2654SOL    HW219422   3.416   1.247  10.390 -1.3526 -0.8296  1.3363
 2655SOL     OW19423   1.210   1.249   6.492  0.0221 -0.4191 -0.0350
 2655SOL    HW119424   1.266   1.258   6.569 -2.0533  2.5472  1.1409
 2655SOL    HW219425   1.137   1.208   6.538 -0.6166 -0.2635 -0.9056
 2656SOL     OW19426   1.664   3.748   7.269  0.2102  0.4019 -0.4666
 2656SOL    HW119427   1.571   3.727   7.267  0.2658  0.0328  0.6501
 2656SOL    HW219428   1.693   3.664   7.234  1.0930  0.2619  0.5807
 2657SOL     OW19429   4.194   0.101  13.844 -0.3679 -0.2301  0.0762
 2657SOL    HW119430   4.237   0.177  13.882 -0.9657  0.0675  0.1510
 2657SOL    HW219431   4.252   0.075  13.772 -0.3637 -1.1044  0.3901
 2658SOL     OW19432   3.870   3.223   7.644 -0.0410 -0.5651 -0.0548
 2658SOL    HW119433   3.798   3.220   7.707 -1.7251  1.7962 -1.8182
 2658SOL    HW219434   3.824   3.282   7.583 -1.6176 -0.8557  0.8567
 2659SOL     OW19435   2.590   0.400   6.794 -1.1035  0.4555  0.2901
 2659SOL    HW119436   2.676   0.431   6.765 -1.6143  1.3241 -0.3051
 2659SOL    HW219437   2.538   0.480   6.803  0.4430  1.4879  0.0851
 2660SOL     OW19438   3.202   3.929   5.555 -0.1461  0.2076 -0.1364
 2660SOL    HW119439   3.222   3.872   5.629  0.5491  2.0850  1.1019
 2660SOL    HW219440   3.264   3.898   5.489  1.1063 -0.1230  1.2021
 2661SOL     OW19441   3.074   1.636   5.440 -0.2269  0.0527 -0.0191
 2661SOL    HW119442   3.076   1.723   5.479  2.7257 -0.5378  1.1467
 2661SOL    HW219443   3.006   1.595   5.493  0.5372 -0.6170  0.4400
 2662SOL     OW19444   2.325   0.908   5.897  0.0977 -0.3899  1.0631
 2662SOL    HW119445   2.318   0.817   5.869 -0.3636  0.3551 -1.2290
 2662SOL    HW219446   2.255   0.912   5.962 -2.3556 -2.1310 -1.4809
 2663SOL     OW19447   2.925   3.496   1.734  0.6682 -0.5121  0.0731
 2663SOL    HW119448   2.948   3.442   1.659 -1.9485 -3.0948  1.1277
 2663SOL    HW219449   2.846   3.546   1.714  0.2847 -0.2198  2.2959
 2664SOL     OW19450   1.737   2.039  10.969  0.2645  0.8492 -0.7472
 2664SOL    HW119451   1.797   1.995  10.909  0.8321 -1.4562  1.5377
 2664SOL    HW219452   1.787   2.113  11.004  0.5593  1.4075 -2.3142
 2665SOL     OW19453   0.841   2.088   1.059 -0.6564 -0.2239  0.3280
 2665SOL    HW119454   0.793   2.086   1.142 -0.2977 -2.1177  0.4898
 2665SOL    HW219455   0.772   2.086   0.993 -0.4576  0.6260  0.0869
 2666SOL     OW19456   2.042   0.859   2.833 -0.0364  0.2190 -0.0046
 2666SOL    HW119457   2.107   0.919   2.868  1.8994 -1.6622 -0.3394
 2666SOL    HW219458   2.018   0.888   2.745 -0.5203  0.2572  0.1380
 2667SOL     OW19459   1.722   1.092  10.947 -0.1046 -0.0160 -0.5952
 2667SOL    HW119460   1.740   1.064  10.857  0.8471  0.3852 -0.5366
 2667SOL    HW219461   1.795   1.053  10.995  0.3626 -0.4615 -1.6611
 2668SOL     OW19462   4.190   4.393   2.374 -0.0478  0.6560 -0.1003
 2668SOL    HW119463   4.169   4.485   2.361 -3.1692 -0.1885 -1.2016
 2668SOL    HW219464   4.282   4.397   2.398  0.1360 -0.2792 -0.6503
 2669SOL     OW19465   0.509   2.546   2.326  1.2717  0.3022 -0.0532
 2669SOL    HW119466   0.491   2.461   2.285  0.4032 -0.3347  1.6534
 2669SOL    HW219467   0.604   2.540   2.333  1.2734 -2.0753 -1.9491
 2670SOL     OW19468   2.912   2.305   2.199 -0.4786  0.2232 -0.1965
 2670SOL    HW119469   2.931   2.260   2.281 -0.2309  0.7297  0.0207
 2670SOL    HW219470   2.975   2.259   2.143  0.7873  1.8557 -0.0907
 2671SOL     OW19471   1.508   0.607   4.174 -0.0359 -0.5182  0.0437
 2671SOL    HW119472   1.429   0.568   4.211 -0.2406  1.5297  1.7301
 2671SOL    HW219473   1.470   0.688   4.140 -0.7316 -1.4810 -1.4726
 2672SOL     OW19474   1.352   2.940  11.907  0.6990  0.6012 -0.2868
 2672SOL    HW119475   1.300   3.020  11.919  0.3351  0.4705 -0.9812
 2672SOL    HW219476   1.293   2.890  11.850 -0.6765  2.5676 -0.5980
 2673SOL     OW19477   0.276   1.905   2.307  0.3799  0.4227  0.5677
 2673SOL    HW119478   0.319   1.990   2.302 -0.4537  0.7266 -1.2845
 2673SOL    HW219479   0.190   1.925   2.346  0.5882  0.2817  1.0985
 2674SOL     OW19480   0.761   3.600   8.197  0.1640 -0.0383 -0.6528
 2674SOL    HW119481   0.803   3.533   8.251  2.2749 -0.9330 -3.3932
 2674SOL    HW219482   0.761   3.551   8.115 -1.4482 -0.8934 -0.1431
 2675SOL     OW19483   0.151   3.838   3.218 -0.0592  0.3438  0.7579
 2675SOL    HW119484   0.201   3.825   3.298  0.4992  0.6613  0.4614
 2675SOL    HW219485   0.117   3.750   3.205  0.4200 -0.1154  2.6894
 2676SOL     OW19486   0.174   0.462   5.458  0.1340  0.2048  0.9697
 2676SOL    HW119487   0.198   0.542   5.505  0.7572  0.5371  0.0858
 2676SOL    HW219488   0.143   0.400   5.524  0.9727 -0.0345  1.1370
 2677SOL     OW19489   0.179   0.092   8.388 -0.3792 -0.0829 -0.3861
 2677SOL    HW119490   0.225   0.008   8.384  0.2815  0.1789  1.6875
 2677SOL    HW219491   0.092   0.066   8.358 -0.8656  0.7787  0.2662
 2678SOL     OW19492   1.830   3.104   7.575  0.1854 -0.1187  0.2129
 2678SOL    HW119493   1.916   3.096   7.534 -0.4862 -0.2534 -1.1634
 2678SOL    HW219494   1.773   3.072   7.505 -0.0443 -1.4927  1.0154
 2679SOL     OW19495   1.787   3.996   2.652 -0.2442 -0.3692 -0.4019
 2679SOL    HW119496   1.871   4.040   2.662  0.2828 -1.2755 -0.8453
 2679SOL    HW219497   1.773   3.980   2.558  0.9552 -1.3851 -0.3975
 2680SOL     OW19498   0.850   1.579   2.121 -0.1159  0.1200  0.0189
 2680SOL    HW119499   0.853   1.515   2.193  0.1639 -1.1130 -1.0861
 2680SOL    HW219500   0.755   1.573   2.116 -0.0706 -0.2012 -0.4361
 2681SOL     OW19501   1.343   0.863  10.330 -0.3459 -0.1541 -0.9949
 2681SOL    HW119502   1.269   0.818  10.290 -1.0291  1.9636 -2.1620
 2681SOL    HW219503   1.373   0.813  10.406  2.7233  2.8775 -0.1940
 2682SOL     OW19504   3.962   2.751  17.005  0.1402  0.0722 -0.0582
 2682SOL    HW119505   3.893   2.801  17.050  0.1246 -1.2621  1.4175
 2682SOL    HW219506   3.944   2.661  17.032  1.5539  0.8851  3.7022
 2683SOL     OW19507   4.563   2.428  17.463  0.6485 -0.8059  0.5620
 2683SOL    HW119508   4.590   2.377  17.540 -1.6346 -1.0708  1.1796
 2683SOL    HW219509   4.597   2.359  17.406  3.9799  1.3886 -0.1311
 2684SOL     OW19510   0.422   0.318  16.245 -0.7376  0.0162  0.1560
 2684SOL    HW119511   0.405   0.248  16.308 -0.4343  0.1432  0.3778
 2684SOL    HW219512   0.374   0.393  16.281 -0.9929 -0.3113  0.5078
 2685SOL     OW19513   3.941   0.971   4.461  0.2282  0.5778  0.2080
 2685SOL    HW119514   4.030   1.003   4.446  0.1737  0.3020 -0.6752
 2685SOL    HW219515   3.897   1.056   4.467 -0.1988  0.1176  3.3871
 2686SOL     OW19516   2.362   4.618   1.962 -0.3906  0.6981 -0.2966
 2686SOL    HW119517   2.339   4.551   1.898  0.7759 -0.9288  1.0063
 2686SOL    HW219518   2.410   4.684   1.911  0.6116  0.3047  0.1442
 2687SOL     OW19519   1.259   2.563   7.651  0.2452  0.2183  0.0624
 2687SOL    HW119520   1.314   2.640   7.667 -0.7254  1.0573 -0.6221
 2687SOL    HW219521   1.281   2.549   7.560  0.3583  0.2191  0.0895
 2688SOL     OW19522   3.366   4.023   6.626  0.2387  0.5933 -0.3314
 2688SOL    HW119523   3.285   3.977   6.606  0.6733 -0.0703 -0.5517
 2688SOL    HW219524   3.423   3.967   6.574  0.5690  2.4336 -1.9654
 2689SOL     OW19525   1.847   4.080   3.212 -0.1337  0.3360  0.1723
 2689SOL    HW119526   1.815   4.113   3.296  0.0691 -0.7710  0.6958
 2689SOL    HW219527   1.906   4.150   3.184 -0.3442  0.0678 -0.9430
 2690SOL     OW19528   3.226   3.415   3.409 -0.6748  0.0198  0.0779
 2690SOL    HW119529   3.278   3.335   3.416 -1.0701 -0.2313  0.1930
 2690SOL    HW219530   3.295   3.465   3.367  0.4367 -0.0794  1.7799
 2691SOL     OW19531   3.687   3.315   8.820  0.5323  0.3754  0.5709
 2691SOL    HW119532   3.707   3.291   8.729 -0.1330  1.5894  0.1063
 2691SOL    HW219533   3.689   3.229   8.863 -0.9829  0.1516  0.2231
 2692SOL     OW19534   0.733   3.637   2.500  0.3022  0.2414  0.0839
 2692SOL    HW119535   0.752   3.609   2.411 -0.4477 -0.6924  0.2074
 2692SOL    HW219536   0.810   3.692   2.511  0.6590 -0.2804  0.1806
 2693SOL     OW19537   1.485   3.678   5.867  0.4513 -0.7661  0.1190
 2693SOL    HW119538   1.493   3.758   5.919 -1.8254 -0.2433 -0.3021
 2693SOL    HW219539   1.453   3.713   5.783 -3.7118 -1.2644  1.4845
 2694SOL     OW19540   2.229   0.318   4.681 -0.3077 -0.0112  0.3269
 2694SOL    HW119541   2.152   0.327   4.625  0.2225  2.3785  0.0067
 2694SOL    HW219542   2.248   0.407   4.709  0.1347 -0.6138  1.9606
 2695SOL     OW19543   2.921   3.872  14.204  0.0572 -0.3357  0.0405
 2695SOL    HW119544   2.957   3.813  14.137  0.6109  1.6226 -1.3741
 2695SOL    HW219545   2.828   3.850  14.207 -0.0873 -0.0222 -2.1541
 2696SOL     OW19546   2.330   3.039   1.446  0.4691 -0.6123 -0.3962
 2696SOL    HW119547   2.414   3.053   1.402 -0.9473  1.1257 -2.5638
 2696SOL    HW219548   2.270   3.107   1.416 -0.5963 -1.3776 -0.0165
 2697SOL     OW19549   1.200   2.936   1.970  0.0801 -0.1285 -0.6191
 2697SOL    HW119550   1.185   2.843   1.951  0.3314 -0.8215  2.6779
 2697SOL    HW219551   1.165   2.970   1.887 -0.1373 -0.0169 -0.4801
 2698SOL     OW19552   1.119   4.103   8.404 -0.4527  0.3902 -0.0573
 2698SOL    HW119553   1.102   4.012   8.380  1.6307  0.0553 -0.2236
 2698SOL    HW219554   1.196   4.079   8.455 -2.4365 -0.3134  2.6468
 2699SOL     OW19555   3.278   0.543   2.495  0.2167  0.4017  0.1065
 2699SOL    HW119556   3.296   0.545   2.401  2.9706  0.2242  0.6552
 2699SOL    HW219557   3.195   0.495   2.501  0.1598  0.5600  0.6480
 2700SOL     OW19558   0.280   3.744  12.799 -0.0830  0.3163  0.2108
 2700SOL    HW119559   0.334   3.765  12.723  1.4136 -1.0419  0.9032
 2700SOL    HW219560   0.342   3.755  12.871  0.5329  0.4648 -0.3416
 2701SOL     OW19561   1.210   3.885   3.339  0.0243 -0.4816  0.9286
 2701SOL    HW119562   1.192   3.979   3.330 -0.9080 -0.8178 -0.7687
 2701SOL    HW219563   1.144   3.850   3.278 -1.4280  1.6861  1.2165
 2702SOL     OW19564   3.848   3.945  11.258  0.0348  0.2288  0.2680
 2702SOL    HW119565   3.810   3.968  11.173 -2.7475  0.1590  1.4938
 2702SOL    HW219566   3.778   3.965  11.321 -1.0029 -0.0127 -0.8045
 2703SOL     OW19567   0.031   4.064   3.595  0.2980  0.4553 -0.7258
 2703SOL    HW119568   0.055   4.154   3.612 -1.2878  0.8303 -0.4214
 2703SOL    HW219569   4.716   4.046   3.682  1.0700  2.2080 -0.0599
 2704SOL     OW19570   0.526   3.616  10.000 -0.4429 -0.0191  0.3696
 2704SOL    HW119571   0.532   3.525   9.969 -1.8156 -0.2121  0.6912
 2704SOL    HW219572   0.595   3.658   9.948  0.7936 -1.2994  0.9546
 2705SOL     OW19573   0.091   0.593   3.952 -0.4628  0.6919  0.3427
 2705SOL    HW119574   0.083   0.562   3.862 -0.7462  2.2506 -0.1652
 2705SOL    HW219575   0.042   0.674   3.941  0.0902  0.9968  0.1102
 2706SOL     OW19576   2.746   0.468   1.752 -0.4054 -0.4751 -0.3495
 2706SOL    HW119577   2.817   0.422   1.708 -1.4808 -3.1089  0.6891
 2706SOL    HW219578   2.797   0.549   1.757 -0.7389 -0.1536 -2.1675
 2707SOL     OW19579   0.286   4.046   1.129  0.6557  0.3141  0.2117
 2707SOL    HW119580   0.257   3.957   1.107 -0.2995  0.2110  1.9120
 2707SOL    HW219581   0.366   4.049   1.077  0.2755  0.2932 -0.3673
 2708SOL     OW19582   4.579   2.169   4.082 -0.1974 -0.1388 -0.0715
 2708SOL    HW119583   4.541   2.121   4.008  1.3815 -1.1168 -0.2448
 2708SOL    HW219584   4.540   2.256   4.081  1.1655  0.4975  2.0192
 2709SOL     OW19585   2.591   2.213   7.972 -0.3103  0.0472  0.1266
 2709SOL    HW119586   2.607   2.291   8.024 -0.1173 -2.6173  4.0327
 2709SOL    HW219587   2.521   2.244   7.914  0.8419  3.3779  0.5674
 2710SOL     OW19588   0.848   0.190   8.239 -0.5447  0.1774  0.4605
 2710SOL    HW119589   0.764   0.144   8.237  0.0168 -0.7699 -1.3379
 2710SOL    HW219590   0.817   0.281   8.240 -0.2489  0.2643  1.7456
 2711SOL     OW19591   1.855   0.856   8.494  0.0354 -0.5241 -0.2778
 2711SOL    HW119592   1.875   0.852   8.588  0.4245 -0.9317 -0.3780
 2711SOL    HW219593   1.817   0.943   8.486  3.4965  1.0155 -0.3008
 2712SOL     OW19594   2.957   1.608  16.944 -0.1431 -0.3839  0.4342
 2712SOL    HW119595   2.983   1.516  16.951 -0.2727 -0.5533 -1.2695
 2712SOL    HW219596   3.040   1.640  16.979  1.2568 -2.7550 -0.7767
 2713SOL     OW19597   3.963   3.496   3.379  0.0354  0.2785 -0.5048
 2713SOL    HW119598   3.988   3.405   3.363 -1.0367  0.0690 -1.0272
 2713SOL    HW219599   3.991   3.502   3.470 -2.7929 -0.5693  0.4114
 2714SOL     OW19600   1.279   3.659   8.352 -0.5232  0.0707  0.1192
 2714SOL    HW119601   1.356   3.715   8.338 -0.2869 -1.0235 -2.8176
 2714SOL    HW219602   1.320   3.574   8.334  0.0548  0.4781 -0.5177
 2715SOL     OW19603   0.480   3.191  13.645 -0.1603  0.2953 -0.2169
 2715SOL    HW119604   0.566   3.212  13.610  0.7402 -0.1493  1.7011
 2715SOL    HW219605   0.459   3.267  13.700  0.0379  0.3440 -0.2097
 2716SOL     OW19606   4.054   4.488   0.518 -0.1178  0.0806  0.4817
 2716SOL    HW119607   4.039   4.461   0.427 -0.0395 -2.0988  1.1146
 2716SOL    HW219608   4.126   4.551   0.505  1.1695 -1.0123  2.3486
 2717SOL     OW19609   0.848   4.314  12.602  0.5380 -0.2561 -0.0706
 2717SOL    HW119610   0.835   4.234  12.551  1.4524 -1.3208  1.3638
 2717SOL    HW219611   0.762   4.349  12.581  0.6659 -0.0365 -0.2332
 2718SOL     OW19612   3.015   4.316   1.960 -0.0325  0.1753  0.4688
 2718SOL    HW119613   3.091   4.259   1.976  0.4128  0.7741  0.4657
 2718SOL    HW219614   2.962   4.294   2.037  1.3446 -1.9796  0.8193
 2719SOL     OW19615   3.032   4.534  13.721 -0.5374  0.3829  0.0269
 2719SOL    HW119616   3.043   4.470  13.791 -1.1414  0.1761 -0.0637
 2719SOL    HW219617   2.956   4.499  13.674 -1.7527  0.1394  2.1848
 2720SOL     OW19618   2.022   1.216   4.296 -0.2737 -0.2472 -0.4294
 2720SOL    HW119619   2.118   1.215   4.288 -0.1029 -1.3464  1.9747
 2720SOL    HW219620   2.008   1.135   4.246 -3.1775  0.6424 -1.0397
 2721SOL     OW19621   0.522   3.402  12.890 -0.0009 -0.5578  0.3707
 2721SOL    HW119622   0.516   3.494  12.916  0.6031 -0.4720  0.2041
 2721SOL    HW219623   0.615   3.405  12.865  0.3620 -2.9161  1.5121
 2722SOL     OW19624   3.012   4.524   1.801 -0.5267 -0.2293  0.2162
 2722SOL    HW119625   3.000   4.451   1.862  0.4971 -0.4958  0.1062
 2722SOL    HW219626   2.976   4.487   1.721  1.1264 -0.3249 -0.5003
 2723SOL     OW19627   1.391   1.326   5.393 -0.1238  0.2305  0.1368
 2723SOL    HW119628   1.380   1.309   5.299  3.0308 -0.8993 -0.0636
 2723SOL    HW219629   1.323   1.269   5.428  1.5387 -1.3853  0.7401
 2724SOL     OW19630   0.410   1.938   4.348  0.5502 -0.1702  0.3627
 2724SOL    HW119631   0.409   1.958   4.254  3.0984  2.6511  0.9464
 2724SOL    HW219632   0.387   2.028   4.371  1.3529 -0.0425  0.6554
 2725SOL     OW19633   0.773   3.704  16.372 -0.3173  0.2484 -0.2453
 2725SOL    HW119634   0.795   3.612  16.385  2.4415  0.7610 -1.2372
 2725SOL    HW219635   0.692   3.707  16.422 -0.2395  0.4216 -0.1307
 2726SOL     OW19636   0.028   1.411  15.363  0.3413  0.0196 -0.3066
 2726SOL    HW119637   4.656   1.425  15.378  0.6636  1.1868  0.5940
 2726SOL    HW219638   0.019   1.393  15.269  0.5809  1.3551 -0.5866
 2727SOL     OW19639   2.307   1.379   6.197  0.2284  1.0047  0.2509
 2727SOL    HW119640   2.224   1.408   6.161  0.2385 -0.0484 -0.6468
 2727SOL    HW219641   2.355   1.371   6.114 -1.1646  0.7538 -0.5248
 2728SOL     OW19642   1.824   0.509  10.303  0.8744  0.7096 -0.0946
 2728SOL    HW119643   1.749   0.565  10.323  1.2166  0.2142  2.5554
 2728SOL    HW219644   1.788   0.428  10.267  0.7917  1.3156 -1.3799
 2729SOL     OW19645   4.368   2.985   5.480  0.0909 -0.4132  0.4323
 2729SOL    HW119646   4.421   3.009   5.556 -0.6069  1.7542  0.2396
 2729SOL    HW219647   4.283   2.991   5.523  0.0719 -1.9284  0.6109
 2730SOL     OW19648   2.968   4.222   9.264  0.0832  0.0482 -0.1687
 2730SOL    HW119649   2.974   4.169   9.344 -1.7232 -0.4204 -0.3407
 2730SOL    HW219650   3.051   4.195   9.226 -0.2642 -1.4508  0.1581
 2731SOL     OW19651   1.919   4.155  14.375  0.0769 -0.2626 -0.2189
 2731SOL    HW119652   1.960   4.224  14.427  0.5841 -0.4702 -0.3461
 2731SOL    HW219653   1.989   4.091  14.387 -0.3840 -0.6021  0.6914
 2732SOL     OW19654   0.571   0.655   3.456  0.7058  0.1180  0.6480
 2732SOL    HW119655   0.549   0.670   3.364 -1.3973 -0.9929  0.9763
 2732SOL    HW219656   0.487   0.631   3.494 -0.1281  1.6150 -0.2225
 2733SOL     OW19657   1.724   0.998   4.290 -0.4011  0.4682  0.0897
 2733SOL    HW119658   1.817   0.984   4.274 -0.2393  1.6861  0.0165
 2733SOL    HW219659   1.698   0.915   4.331 -0.4519  0.4335 -0.0122
 2734SOL     OW19660   0.050   0.846   4.151 -0.0467 -0.6482  0.5188
 2734SOL    HW119661   0.022   0.799   4.229  0.6394  0.0036  1.1552
 2734SOL    HW219662   4.684   0.876   4.126  0.6139  1.4836  0.7806
 2735SOL     OW19663   4.651   0.253  16.994 -0.9222  0.0233  0.2638
 2735SOL    HW119664   4.688   0.284  17.078 -1.0767  0.2717  0.2403
 2735SOL    HW219665   4.664   0.330  16.938 -1.4664  0.1205  0.2740
 2736SOL     OW19666   0.256   0.976   4.913  0.3414  0.3208 -1.1614
 2736SOL    HW119667   0.202   1.010   4.984  1.3150  0.8456 -0.6739
 2736SOL    HW219668   0.202   0.913   4.866  1.8541 -1.6604 -0.2521
 2737SOL     OW19669   4.642   1.618  13.343 -0.1328  0.0016 -0.3632
 2737SOL    HW119670   4.622   1.591  13.254 -0.1234 -0.8150 -0.1161
 2737SOL    HW219671   4.688   1.540  13.374 -0.6703 -0.3405 -0.4228
 2738SOL     OW19672   2.289   2.479   3.598 -0.0986  0.1146  0.3568
 2738SOL    HW119673   2.271   2.573   3.592 -0.2911 -0.0559 -1.7102
 2738SOL    HW219674   2.362   2.470   3.536 -0.6797 -0.3952 -0.2567
 2739SOL     OW19675   3.812   0.873   2.465  0.8222  0.0820 -0.6995
 2739SOL    HW119676   3.758   0.801   2.430 -2.8674  2.2129  0.6912
 2739SOL    HW219677   3.890   0.867   2.409  0.0822  0.5907 -1.7911
 2740SOL     OW19678   3.881   0.050   7.982 -0.0544 -0.1474  0.3040
 2740SOL    HW119679   3.817   0.068   7.913  2.7616  3.9419 -1.2787
 2740SOL    HW219680   3.947   0.009   7.927  0.4575 -1.4204  1.8587
 2741SOL     OW19681   4.556   1.048  14.261  0.3368 -0.7154 -0.1379
 2741SOL    HW119682   4.474   1.044  14.310 -0.5317 -1.6280 -1.6569
 2741SOL    HW219683   4.594   1.117  14.315  1.4520 -0.4961 -1.2102
 2742SOL     OW19684   2.478   0.293   9.296 -0.6478  0.2714  0.9250
 2742SOL    HW119685   2.465   0.240   9.217  0.2272 -0.3832  1.2113
 2742SOL    HW219686   2.456   0.232   9.367 -0.8013  2.3719  2.6603
 2743SOL     OW19687   2.853   3.230   3.079  0.0986 -0.3130  0.1680
 2743SOL    HW119688   2.808   3.152   3.046 -0.2787 -0.6767  1.5370
 2743SOL    HW219689   2.782   3.289   3.107  1.2862  1.5320 -0.7387
 2744SOL     OW19690   3.274   4.633   4.864 -0.4035 -0.3017 -0.0628
 2744SOL    HW119691   3.288   4.720   4.827 -0.0591 -0.2832  0.1136
 2744SOL    HW219692   3.194   4.642   4.916 -0.0012 -0.5156  0.5925
 2745SOL     OW19693   2.865   1.786  11.689  0.3082  0.7186  0.4146
 2745SOL    HW119694   2.780   1.791  11.645  1.0205 -0.5766 -1.1015
 2745SOL    HW219695   2.828   1.741  11.766  1.8185 -0.4327  0.4507
 2746SOL     OW19696   3.817   2.555   1.192 -0.7465 -0.2852  0.2500
 2746SOL    HW119697   3.869   2.523   1.119 -0.9027  1.3058 -0.5528
 2746SOL    HW219698   3.886   2.559   1.258 -0.4892 -2.4833  0.1217
 2747SOL     OW19699   4.181   3.847   0.186  0.6150  0.0292 -0.4175
 2747SOL    HW119700   4.187   3.761   0.143 -1.1283  0.2555 -1.1157
 2747SOL    HW219701   4.267   3.844   0.228  0.4991  0.6083 -0.1387
 2748SOL     OW19702   3.800   0.629   1.140  0.0144 -0.3802  0.0999
 2748SOL    HW119703   3.888   0.641   1.175 -1.1688  2.2286  2.1927
 2748SOL    HW219704   3.816   0.642   1.047 -0.2185  2.1332  0.4129
 2749SOL     OW19705   2.846   2.794   4.531 -0.0946 -0.2713  0.1641
 2749SOL    HW119706   2.907   2.813   4.460 -2.0873 -2.3919 -2.1016
 2749SOL    HW219707   2.766   2.843   4.515  1.1377  1.1285 -1.7359
 2750SOL     OW19708   2.125   1.092   2.936  0.4025 -0.0566 -0.1253
 2750SOL    HW119709   2.067   1.168   2.929  2.0307  1.2315  0.5854
 2750SOL    HW219710   2.208   1.139   2.934 -0.8358  2.0441 -3.1282
 2751SOL     OW19711   2.768   3.308   3.660 -0.6308  0.4435 -0.1022
 2751SOL    HW119712   2.682   3.327   3.623 -1.6992  1.2333  2.7847
 2751SOL    HW219713   2.745   3.268   3.743 -1.3123 -0.8892 -0.9440
 2752SOL     OW19714   0.513   1.235   0.454  0.4022 -0.3989 -0.1043
 2752SOL    HW119715   0.463   1.282   0.387  0.2914  0.5167  0.6234
 2752SOL    HW219716   0.561   1.177   0.395 -3.1198 -0.6674 -2.6843
 2753SOL     OW19717   2.753   4.468  17.407  0.5635  0.0585  0.1201
 2753SOL    HW119718   2.666   4.468  17.366 -0.5189 -0.6144  2.4751
 2753SOL    HW219719   2.785   4.390  17.362  0.1537 -0.2292  0.3334
 2754SOL     OW19720   3.331   1.997   4.614 -0.7383 -0.3227 -0.3407
 2754SOL    HW119721   3.390   1.929   4.583  1.3786  1.1922  0.3518
 2754SOL    HW219722   3.396   2.067   4.611  1.1831 -2.2170 -2.6639
 2755SOL     OW19723   1.156   3.828   5.142 -0.4609 -0.0432  0.0949
 2755SOL    HW119724   1.217   3.759   5.118 -1.0125 -0.8823  1.1247
 2755SOL    HW219725   1.158   3.873   5.058  1.6613  1.7763  1.1248
 2756SOL     OW19726   0.303   2.568  15.872 -0.2440  0.3588  0.4761
 2756SOL    HW119727   0.302   2.664  15.880  1.4547  0.4855 -0.7964
 2756SOL    HW219728   0.241   2.534  15.936  1.8623 -0.3802  2.1485
 2757SOL     OW19729   0.496   0.355  14.808 -0.2568 -0.4893 -0.1700
 2757SOL    HW119730   0.506   0.265  14.840 -1.9003 -1.4734 -2.4523
 2757SOL    HW219731   0.575   0.404  14.830  0.5417 -0.9702 -2.0345
 2758SOL     OW19732   4.570   0.168   7.776 -0.9216  0.5433 -0.2271
 2758SOL    HW119733   4.504   0.114   7.818  1.8144 -1.0174  2.0915
 2758SOL    HW219734   4.651   0.140   7.820 -2.3995 -4.2049 -0.6030
 2759SOL     OW19735   0.592   3.049   5.445 -0.0173 -0.6218  0.5574
 2759SOL    HW119736   0.617   2.960   5.471  0.1157 -0.7387  0.0258
 2759SOL    HW219737   0.555   3.039   5.357 -2.1308 -1.1296  1.5161
 2760SOL     OW19738   2.063   3.741   9.670  0.3058  0.7647  0.5537
 2760SOL    HW119739   2.120   3.797   9.617 -0.0333 -0.0526 -0.6808
 2760SOL    HW219740   1.991   3.741   9.607  0.3126 -0.6449  0.5428
 2761SOL     OW19741   0.439   2.934   6.203  0.3269  0.0308  0.4174
 2761SOL    HW119742   0.410   3.024   6.216  1.2088  0.1735  1.4168
 2761SOL    HW219743   0.354   2.898   6.178  1.3204 -1.7752 -0.3556
 2762SOL     OW19744   0.391   0.228   4.278 -0.0371 -0.1162  0.2923
 2762SOL    HW119745   0.438   0.190   4.353  2.4602  2.2480 -0.0920
 2762SOL    HW219746   0.395   0.322   4.293 -1.8009  0.2928 -1.7638
 2763SOL     OW19747   3.694   4.432   5.912  0.0245  0.3821 -0.4568
 2763SOL    HW119748   3.709   4.348   5.868  2.6213  1.4722 -1.6667
 2763SOL    HW219749   3.659   4.473   5.833  0.1127 -1.3972 -1.4246
 2764SOL     OW19750   4.564   2.849  12.336 -0.2246  0.5141  0.0673
 2764SOL    HW119751   4.631   2.918  12.343 -0.0815  0.4141 -0.3140
 2764SOL    HW219752   4.486   2.899  12.361 -0.2020 -0.3093  1.7844
 2765SOL     OW19753   0.835   3.856   8.751 -0.0662  0.0563 -0.3763
 2765SOL    HW119754   0.755   3.807   8.734 -0.3073  1.0871 -2.1860
 2765SOL    HW219755   0.864   3.817   8.833 -1.0891  0.3820  0.1314
 2766SOL     OW19756   0.985   2.670   7.622 -0.1794  0.0792  0.1293
 2766SOL    HW119757   1.067   2.623   7.616 -1.0822 -1.1427 -2.7407
 2766SOL    HW219758   0.987   2.694   7.715  0.4617  1.5447 -0.2542
 2767SOL     OW19759   3.581   1.832  16.277 -0.1247  0.2068  0.5603
 2767SOL    HW119760   3.661   1.854  16.325  0.3327 -0.3342  0.0399
 2767SOL    HW219761   3.539   1.766  16.331  1.6649 -0.4582  1.1232
 2768SOL     OW19762   2.007   3.099   2.051  0.0543  0.0290 -0.1642
 2768SOL    HW119763   2.049   3.017   2.075 -3.2698 -1.1882  1.3618
 2768SOL    HW219764   1.988   3.086   1.958 -1.0813  1.5480 -0.1500
 2769SOL     OW19765   3.848   3.731  10.426  0.4856  0.7668 -0.6345
 2769SOL    HW119766   3.820   3.680  10.350 -1.2919  1.5534 -0.5283
 2769SOL    HW219767   3.883   3.664  10.485  1.6388  0.9222 -1.1453
 2770SOL     OW19768   3.724   2.032  15.731 -0.0756  0.1557  0.4126
 2770SOL    HW119769   3.731   2.045  15.826  1.5970  3.0626 -0.1358
 2770SOL    HW219770   3.652   2.092  15.712  2.3912  3.4240  1.3971
 2771SOL     OW19771   0.166   2.911   6.317  0.3827 -0.2076  1.2418
 2771SOL    HW119772   0.079   2.898   6.355 -0.1154 -0.3855  0.0472
 2771SOL    HW219773   0.221   2.890   6.392  1.1479 -2.1481  0.1352
 2772SOL     OW19774   4.301   4.450   7.656  0.1994  0.1537  0.6313
 2772SOL    HW119775   4.303   4.499   7.573 -1.3014 -0.5612  0.1895
 2772SOL    HW219776   4.240   4.383   7.627 -1.4404  2.3159 -0.9564
 2773SOL     OW19777   2.459   2.221   6.085  0.0906 -0.1500 -0.2418
 2773SOL    HW119778   2.407   2.151   6.124  0.3093 -1.1557 -1.7393
 2773SOL    HW219779   2.524   2.160   6.049  0.2411 -0.0338 -0.1683
 2774SOL     OW19780   3.480   1.968  14.426 -0.5474 -0.4505  0.1567
 2774SOL    HW119781   3.478   1.944  14.333  4.3696 -2.7975  0.6568
 2774SOL    HW219782   3.402   2.024  14.423  0.3590  0.7459 -0.9562
 2775SOL     OW19783   2.845   3.919   1.931  0.2509 -0.0937 -0.5356
 2775SOL    HW119784   2.924   3.871   1.904  1.6583  2.1554 -0.4536
 2775SOL    HW219785   2.824   3.865   2.007  1.4126  0.4460  0.1638
 2776SOL     OW19786   4.442   3.512   0.683 -0.4342  0.1722 -0.7507
 2776SOL    HW119787   4.441   3.479   0.773  0.5741  2.4686  0.1132
 2776SOL    HW219788   4.492   3.442   0.640  0.6974 -0.0353  0.8834
 2777SOL     OW19789   3.975   2.524   0.967  0.0619 -0.2296  1.0274
 2777SOL    HW119790   4.068   2.503   0.961  0.2565  0.3875  1.8538
 2777SOL    HW219791   3.978   2.609   0.923 -1.5808 -1.8401 -2.1980
 2778SOL     OW19792   0.466   4.714  12.155 -0.2157  0.6032 -0.2438
 2778SOL    HW119793   0.377   4.689  12.179  0.1011  1.4046  1.7221
 2778SOL    HW219794   0.517   4.693  12.233  0.0380  2.7633  0.1705
 2779SOL     OW19795   0.516   3.953  12.127 -0.5199 -0.1883 -0.7520
 2779SOL    HW119796   0.428   3.919  12.145  0.0091 -1.8599 -1.2794
 2779SOL    HW219797   0.526   3.927  12.035  2.8019  1.3458 -0.7966
 2780SOL     OW19798   4.507   0.332  14.297  0.1347  0.1653 -0.2750
 2780SOL    HW119799   4.568   0.258  14.299 -2.5852 -2.0605  0.4396
 2780SOL    HW219800   4.441   0.317  14.365  0.4755  0.1326  0.0457
 2781SOL     OW19801   3.412   4.516  17.562 -0.5307 -0.0312 -0.3311
 2781SOL    HW119802   3.481   4.518  17.495  0.4160  2.7914  0.7468
 2781SOL    HW219803   3.331   4.487  17.521 -0.6927  0.6990 -0.5242
 2782SOL     OW19804   0.735   3.337   3.694  0.7757 -0.2645 -0.0986
 2782SOL    HW119805   0.750   3.393   3.618 -0.6887  0.8125  0.4017
 2782SOL    HW219806   0.799   3.370   3.757  0.2903 -0.1730  0.3418
 2783SOL     OW19807   1.242   2.808  13.469 -0.1191  0.3481  0.2939
 2783SOL    HW119808   1.207   2.856  13.394 -1.6506 -1.0628  0.0877
 2783SOL    HW219809   1.333   2.806  13.440 -0.2699  0.3296 -0.1868
 2784SOL     OW19810   2.558   1.354   9.574  0.3562 -0.0583  0.1524
 2784SOL    HW119811   2.533   1.373   9.483 -0.6513 -0.5421  0.3321
 2784SOL    HW219812   2.534   1.439   9.610 -2.1079 -0.1010 -1.3934
 2785SOL     OW19813   1.708   1.548   4.511 -0.1590  0.2515  0.3263
 2785SOL    HW119814   1.793   1.505   4.506 -0.1958  0.0637  1.4291
 2785SOL    HW219815   1.669   1.510   4.590 -0.1466 -0.0544  0.1855
 2786SOL     OW19816   2.112   4.479   6.173  0.1909  0.3550  1.0808
 2786SOL    HW119817   2.027   4.505   6.207 -0.3254 -0.6728  0.5645
 2786SOL    HW219818   2.134   4.404   6.229 -0.1743 -0.3962  0.2218
 2787SOL     OW19819   1.706   1.214   7.696 -0.4154  0.0877  0.1693
 2787SOL    HW119820   1.695   1.202   7.790  1.1080  0.1990  0.3607
 2787SOL    HW219821   1.618   1.195   7.664 -0.2216  0.1162 -0.3843
 2788SOL     OW19822   0.740   3.939   5.387  0.3389 -0.5807 -0.4086
 2788SOL    HW119823   0.651   3.963   5.413 -1.0685 -3.4295 -2.5120
 2788SOL    HW219824   0.764   4.017   5.338 -0.3153 -0.4341 -0.5054
 2789SOL     OW19825   3.969   1.211   6.887  0.4168  0.0469 -0.2593
 2789SOL    HW119826   3.922   1.128   6.887 -1.2098  0.9729 -0.6199
 2789SOL    HW219827   4.008   1.215   6.975  1.2248  4.2442 -0.7844
 2790SOL     OW19828   1.620   0.479   1.521 -0.5220  0.1838 -0.3460
 2790SOL    HW119829   1.673   0.551   1.556 -0.9709  0.1692  0.3493
 2790SOL    HW219830   1.645   0.410   1.582 -0.1969 -1.5022 -2.4140
 2791SOL     OW19831   3.052   3.847   7.129  0.0927 -0.3377 -0.0275
 2791SOL    HW119832   3.136   3.837   7.174  1.4537  1.4495 -2.1608
 2791SOL    HW219833   3.007   3.856   7.213  1.6517 -2.2742  1.0090
 2792SOL     OW19834   2.381   1.444  16.640 -0.2350  0.3583  0.5029
 2792SOL    HW119835   2.430   1.493  16.706 -0.2599  0.9138  0.1053
 2792SOL    HW219836   2.310   1.504  16.616 -0.6087  0.2141  1.2406
 2793SOL     OW19837   2.627   2.285   3.967  0.7638  0.2724  0.0330
 2793SOL    HW119838   2.626   2.368   3.919  1.7748  0.0560 -0.3657
 2793SOL    HW219839   2.635   2.224   3.894  0.1645 -2.1753  2.0370
 2794SOL     OW19840   0.427   3.882   5.262  0.1917 -0.4169  0.3196
 2794SOL    HW119841   0.498   3.850   5.206 -0.9139 -2.6906  0.1991
 2794SOL    HW219842   0.353   3.875   5.201 -0.0407 -1.1658  0.6825
 2795SOL     OW19843   3.942   1.523   8.348  0.2050  0.3782  0.3244
 2795SOL    HW119844   3.908   1.435   8.363  0.5975  0.2356  0.3856
 2795SOL    HW219845   3.949   1.528   8.253 -2.3589 -1.6926  0.0307
 2796SOL     OW19846   4.017   1.181   3.483 -0.4582  0.4103  0.5009
 2796SOL    HW119847   4.066   1.160   3.562 -1.6732  2.5616  1.8273
 2796SOL    HW219848   3.946   1.235   3.519  0.4076  1.5555  0.5001
 2797SOL     OW19849   1.350   0.350   7.424  0.6887  0.0001 -0.2152
 2797SOL    HW119850   1.415   0.279   7.419  0.1648 -0.2569 -2.9559
 2797SOL    HW219851   1.271   0.304   7.452 -0.7146  1.2809 -2.0965
 2798SOL     OW19852   1.666   3.738   4.620  0.6129 -0.1274 -0.2450
 2798SOL    HW119853   1.693   3.795   4.692 -1.1082 -0.5721  0.7566
 2798SOL    HW219854   1.658   3.816   4.565 -0.0902  0.4518  0.6723
 2799SOL     OW19855   3.229   4.632   8.779  0.4415 -0.0198  0.6348
 2799SOL    HW119856   3.261   4.711   8.821 -0.1392 -0.1912  1.3886
 2799SOL    HW219857   3.277   4.634   8.696  1.5982 -1.2643  1.2752
 2800SOL     OW19858   2.174   2.778   7.397  0.0897 -0.0320  0.4915
 2800SOL    HW119859   2.184   2.683   7.401 -1.0375 -0.2836 -2.3313
 2800SOL    HW219860   2.223   2.795   7.316 -1.2502  1.0642 -0.0875
 2801SOL     OW19861   1.732   2.769   7.545  0.0623  0.0807 -0.1139
 2801SOL    HW119862   1.672   2.721   7.487 -0.5739  0.0150  0.5986
 2801SOL    HW219863   1.706   2.860   7.533  1.0046  0.6257  2.0020
 2802SOL     OW19864   1.774   2.642  14.439  0.1315  0.4253  0.3303
 2802SOL    HW119865   1.696   2.638  14.494 -1.5359  4.0579 -1.7762
 2802SOL    HW219866   1.751   2.626  14.348 -0.8003 -0.7652  0.7695
 2803SOL     OW19867   2.166   3.007   0.131 -0.1507 -0.0177 -0.3179
 2803SOL    HW119868   2.086   2.955   0.124 -0.9133  1.6306 -3.6392
 2803SOL    HW219869   2.175   3.051   0.047 -2.4729  1.0791 -0.0041
 2804SOL     OW19870   3.493   3.233   8.505  0.1898  0.4024 -0.2035
 2804SOL    HW119871   3.440   3.251   8.428 -0.2200  1.0566  0.2380
 2804SOL    HW219872   3.437   3.190   8.569  2.3312 -1.2278  0.5875
 2805SOL     OW19873   1.771   3.507  15.969  0.3652 -0.9558  0.3296
 2805SOL    HW119874   1.769   3.601  15.950 -0.4458 -1.3870 -1.7977
 2805SOL    HW219875   1.863   3.489  15.950  0.1952 -1.1602 -0.3139
 2806SOL     OW19876   1.637   1.983  11.509  0.3649  0.2056 -0.3511
 2806SOL    HW119877   1.569   1.917  11.492 -0.0072 -0.0631  2.1500
 2806SOL    HW219878   1.625   2.036  11.430  1.4018 -0.3967 -0.9164
 2807SOL     OW19879   3.011   3.385   2.910  0.0757 -0.4265  0.0943
 2807SOL    HW119880   2.926   3.342   2.922  0.4343 -1.3595 -0.7605
 2807SOL    HW219881   2.989   3.478   2.917 -0.2849 -0.3599 -1.8938
 2808SOL     OW19882   2.244   0.367  15.961 -0.1322  0.4001  0.4555
 2808SOL    HW119883   2.149   0.379  15.948  0.1327  0.5958 -1.2258
 2808SOL    HW219884   2.293   0.396  15.884 -0.2905 -0.5325  0.0108
 2809SOL     OW19885   2.285   0.112  11.240  0.3103 -0.3399  0.2267
 2809SOL    HW119886   2.376   0.107  11.269  0.7464  0.3678 -0.9873
 2809SOL    HW219887   2.240   0.081  11.318  0.0027 -0.7661 -0.1186
 2810SOL     OW19888   0.305   3.327   3.762  0.1133  0.7933 -0.4186
 2810SOL    HW119889   0.354   3.410   3.765  0.9690  0.3369 -1.7789
 2810SOL    HW219890   0.218   3.364   3.778 -0.7696 -0.9837 -1.0912
 2811SOL     OW19891   3.721   0.353   0.160  0.5019  0.1044 -0.7358
 2811SOL    HW119892   3.807   0.359   0.119  0.1872 -2.2162 -1.7078
 2811SOL    HW219893   3.700   0.260   0.169 -1.5677  0.6690  0.3753
 2812SOL     OW19894   3.413   2.627   6.621  0.0520 -0.0902  0.5563
 2812SOL    HW119895   3.396   2.533   6.612  1.3654 -0.4365  1.7081
 2812SOL    HW219896   3.429   2.651   6.530 -1.4397 -1.0237  0.0355
 2813SOL     OW19897   1.430   3.468   0.567 -0.4996  0.7472 -0.6547
 2813SOL    HW119898   1.421   3.425   0.481 -1.0189  0.2505 -0.3529
 2813SOL    HW219899   1.525   3.477   0.581 -0.8513 -0.1067  2.1668
 2814SOL     OW19900   3.132   1.620   9.276 -0.4164  0.1240 -0.3908
 2814SOL    HW119901   3.059   1.565   9.245 -1.5940  1.1227  0.6093
 2814SOL    HW219902   3.183   1.629   9.195  1.8006  0.2168  1.0485
 2815SOL     OW19903   0.397   0.985  13.618 -0.1695  0.0661 -0.0038
 2815SOL    HW119904   0.458   1.045  13.575  0.9555  1.1340  3.1228
 2815SOL    HW219905   0.321   1.044  13.612  0.0497  0.1896 -1.7216
 2816SOL     OW19906   0.543   2.598  10.813  0.0665  0.5618  0.3060
 2816SOL    HW119907   0.499   2.630  10.893 -0.9235 -0.6208  0.2254
 2816SOL    HW219908   0.541   2.681  10.765  2.3033 -0.8118 -2.1031
 2817SOL     OW19909   4.088   1.523   3.037  0.3493  0.1461  0.2113
 2817SOL    HW119910   4.095   1.439   3.083  0.5499 -0.2207 -0.4852
 2817SOL    HW219911   4.016   1.499   2.979  0.3386  0.3528  0.1416
 2818SOL     OW19912   1.441   4.560   2.865  0.0302  0.0939  0.0115
 2818SOL    HW119913   1.426   4.487   2.926 -0.2749  1.8653  2.0483
 2818SOL    HW219914   1.526   4.596   2.890 -0.8406  1.0969  1.5031
 2819SOL     OW19915   0.879   0.778   4.611 -0.2142  0.2127  0.0074
 2819SOL    HW119916   0.902   0.706   4.670 -1.1819 -0.6083 -0.6123
 2819SOL    HW219917   0.809   0.738   4.560 -0.1938 -1.4715  1.2901
 2820SOL     OW19918   4.432   1.724   4.787  0.1141  0.0221  0.2027
 2820SOL    HW119919   4.527   1.715   4.793  0.1508 -0.0200 -0.3933
 2820SOL    HW219920   4.406   1.635   4.811 -2.9661  0.9907  0.3974
 2821SOL     OW19921   1.020   1.797  15.118  0.3853 -0.2503 -0.5346
 2821SOL    HW119922   1.075   1.822  15.044  0.0822  2.0905  0.0352
 2821SOL    HW219923   1.026   1.702  15.106  1.1912 -0.2119 -0.4183
 2822SOL     OW19924   3.982   4.033   9.912  0.0565 -0.0219 -0.6103
 2822SOL    HW119925   3.932   4.009   9.990  0.7988 -3.0390 -1.0643
 2822SOL    HW219926   3.909   4.015   9.852 -1.7635  2.3686  0.9063
 2823SOL     OW19927   2.413   3.431  13.063  0.0662 -0.1250  0.2683
 2823SOL    HW119928   2.429   3.389  12.979 -0.0017 -0.0433  0.2145
 2823SOL    HW219929   2.470   3.382  13.122 -0.1845  0.2527  0.8233
 2824SOL     OW19930   2.078   4.288   4.544  1.0179 -0.1166  0.1732
 2824SOL    HW119931   1.998   4.325   4.507  0.0991  0.9036  3.1700
 2824SOL    HW219932   2.109   4.359   4.601  0.8797  0.1691 -0.1023
 2825SOL     OW19933   2.778   1.840   8.423  0.4607 -0.3088 -0.2819
 2825SOL    HW119934   2.745   1.810   8.338 -0.2144  0.1435 -0.1840
 2825SOL    HW219935   2.700   1.811   8.469 -0.3288  0.7353 -0.9516
 2826SOL     OW19936   3.252   0.517  14.939 -0.3241  0.0281 -0.0849
 2826SOL    HW119937   3.217   0.428  14.938  0.2188 -0.1864  0.1945
 2826SOL    HW219938   3.346   0.505  14.928 -0.0053 -0.2053  3.0801
 2827SOL     OW19939   3.714   3.005  17.120  0.5372 -0.2392  0.1145
 2827SOL    HW119940   3.636   2.990  17.066  0.1535 -0.0871  0.6288
 2827SOL    HW219941   3.715   2.924  17.171  0.3633 -0.9120 -0.9471
 2828SOL     OW19942   3.151   4.619  12.077  0.1677  0.4394 -0.2671
 2828SOL    HW119943   3.135   4.634  12.170  0.5044 -3.5282  0.4313
 2828SOL    HW219944   3.167   4.524  12.075  1.8165  0.7345 -1.2112
 2829SOL     OW19945   3.401   2.813   7.717 -0.6273  0.0073  0.1076
 2829SOL    HW119946   3.474   2.870   7.694  0.2800 -1.6219 -0.9835
 2829SOL    HW219947   3.392   2.776   7.630  2.2935 -1.0491  0.2846
 2830SOL     OW19948   2.088   0.156   2.976  0.0213 -0.9753 -0.7759
 2830SOL    HW119949   2.024   0.226   2.966  0.7187 -0.4166 -1.3036
 2830SOL    HW219950   2.153   0.200   3.032 -0.2120 -0.4081 -0.9520
 2831SOL     OW19951   0.121   4.149   0.573  0.5790  0.1950 -0.3306
 2831SOL    HW119952   0.181   4.179   0.640  1.5985  1.8442 -1.9761
 2831SOL    HW219953   0.060   4.223   0.564 -0.4698 -0.3766  2.0403
 2832SOL     OW19954   0.140   1.090   6.304 -0.0645  0.0408 -0.0143
 2832SOL    HW119955   0.123   1.100   6.210 -3.7339  0.6098  0.7084
 2832SOL    HW219956   0.154   0.996   6.318  0.5067 -0.1172 -1.6318
 2833SOL     OW19957   2.154   1.833   6.278 -0.2657 -0.5590 -0.2328
 2833SOL    HW119958   2.065   1.835   6.312 -0.4486  0.2944 -0.7873
 2833SOL    HW219959   2.181   1.741   6.280  2.7699  0.2861 -1.2862
 2834SOL     OW19960   1.369   0.608   5.825 -0.2932 -0.0192  0.0048
 2834SOL    HW119961   1.421   0.532   5.851 -0.2897 -0.0433 -0.0742
 2834SOL    HW219962   1.279   0.583   5.845 -0.5995  1.3208  0.2858
 2835SOL     OW19963   1.701   2.657   9.961  0.0219 -0.7141 -0.1560
 2835SOL    HW119964   1.648   2.662   9.882 -0.1873 -1.7161 -0.0838
 2835SOL    HW219965   1.700   2.565   9.988  1.7013 -0.7004 -0.0310
 2836SOL     OW19966   1.918   0.969  11.098  0.9775  0.1938  0.7485
 2836SOL    HW119967   1.952   1.044  11.148  2.1222  0.4783 -0.4815
 2836SOL    HW219968   1.888   0.918  11.173  0.3708  0.8147  0.9295
 2837SOL     OW19969   4.095   2.634   4.934  0.1191  0.3814  0.4597
 2837SOL    HW119970   4.022   2.602   4.987 -0.0919  1.0565  0.5734
 2837SOL    HW219971   4.128   2.706   4.988 -3.4921  0.8045  2.0962
 2838SOL     OW19972   3.993   0.153  13.611  0.2903  0.5692 -0.1917
 2838SOL    HW119973   4.022   0.149  13.702 -1.7554 -1.5146  0.3542
 2838SOL    HW219974   3.901   0.128  13.619 -0.2899  2.9481  0.6463
 2839SOL     OW19975   1.653   3.662   5.487  0.2793  0.0254 -0.1676
 2839SOL    HW119976   1.737   3.669   5.532 -0.7639  3.5147  1.2457
 2839SOL    HW219977   1.655   3.572   5.455 -1.1072  0.3457 -1.1398
 2840SOL     OW19978   0.252   3.782   4.637 -0.7116 -0.0517  0.2293
 2840SOL    HW119979   0.309   3.856   4.657 -1.3945  0.3605  0.6735
 2840SOL    HW219980   0.316   3.711   4.634  0.3331  0.8915  0.2689
 2841SOL     OW19981   4.647   1.211  11.377 -0.0643  0.2693  0.4920
 2841SOL    HW119982   4.656   1.173  11.289 -0.2557 -0.0380  0.6036
 2841SOL    HW219983   4.552   1.212  11.389 -0.4952 -0.7145 -2.8037
 2842SOL     OW19984   2.728   4.438   7.944  0.2079 -0.1082 -0.4490
 2842SOL    HW119985   2.746   4.354   7.902  0.0475 -1.0101  1.3006
 2842SOL    HW219986   2.674   4.406   8.016  3.6441  0.4206  2.3772
 2843SOL     OW19987   0.150   1.719   7.625 -0.4366 -0.0980 -0.3682
 2843SOL    HW119988   0.226   1.683   7.580  0.3288  0.7350  0.2644
 2843SOL    HW219989   0.085   1.724   7.555 -0.0682  0.8431 -0.6451
 2844SOL     OW19990   3.799   0.230  15.802 -0.5834  0.2048  0.0148
 2844SOL    HW119991   3.758   0.181  15.731 -1.2575 -0.9446  1.2084
 2844SOL    HW219992   3.879   0.259  15.757 -0.3472 -0.4933 -0.0283
 2845SOL     OW19993   4.222   0.573  13.820  0.0114 -0.3428  0.1814
 2845SOL    HW119994   4.213   0.637  13.890  0.7734 -0.6265  0.5421
 2845SOL    HW219995   4.137   0.529  13.828  0.0361 -0.5892 -0.8888
 2846SOL     OW19996   2.126   4.667   7.864  0.2740  0.3253 -0.1495
 2846SOL    HW119997   2.116   4.717   7.783  1.6942 -1.1139 -1.2418
 2846SOL    HW219998   2.074   4.588   7.848  0.7536 -0.8472  4.0225
 2847SOL     OW19999   1.790   0.492  12.247  0.2939  0.5230  0.1288
 2847SOL    HW120000   1.750   0.438  12.179  1.4043 -0.3402  0.1815
 2847SOL    HW220001   1.816   0.415  12.296 -2.4192 -0.7726 -0.4540
 2848SOL     OW20002   0.520   4.183   7.158 -0.1584 -0.0934  0.1433
 2848SOL    HW120003   0.602   4.167   7.205  0.4374  1.6134 -0.3400
 2848SOL    HW220004   0.459   4.129   7.209  0.5161 -0.7032  0.3053
 2849SOL     OW20005   3.091   2.750   2.845 -0.1236  0.6385  0.1702
 2849SOL    HW120006   3.044   2.830   2.869 -0.2253  0.5353  0.3100
 2849SOL    HW220007   3.169   2.754   2.901  0.9649  0.0887 -1.2846
 2850SOL     OW20008   4.015   1.827  15.295  0.1938 -0.1428  0.2194
 2850SOL    HW120009   4.054   1.781  15.221 -1.1582 -0.8717 -0.0455
 2850SOL    HW220010   3.924   1.840  15.267  0.5243  2.4370  0.3574
 2851SOL     OW20011   3.759   0.577  11.786 -0.7210 -0.3947 -0.6075
 2851SOL    HW120012   3.742   0.613  11.873 -0.9829  2.0366 -1.6704
 2851SOL    HW220013   3.767   0.659  11.736  2.4122 -1.9342 -2.6102
 2852SOL     OW20014   1.991   1.288   3.158 -0.4509 -0.2447 -0.2909
 2852SOL    HW120015   1.899   1.295   3.184 -1.0093 -0.0668 -2.3273
 2852SOL    HW220016   2.031   1.260   3.241 -0.5381 -0.1829 -0.2267
 2853SOL     OW20017   0.534   0.301  12.325  0.8577 -0.0802 -0.0356
 2853SOL    HW120018   0.543   0.281  12.418 -0.7501  0.7787  0.3137
 2853SOL    HW220019   0.525   0.395  12.338 -1.7670 -0.4639  1.0380
 2854SOL     OW20020   1.761   4.405   9.724 -0.5493 -0.3710  0.2362
 2854SOL    HW120021   1.685   4.378   9.775 -2.4118 -0.8467 -2.7706
 2854SOL    HW220022   1.820   4.329   9.728  1.1361  0.9010 -0.7439
 2855SOL     OW20023   3.104   1.720   9.529  0.2182  0.0057  0.2541
 2855SOL    HW120024   3.151   1.704   9.447  2.4150 -0.2393  1.5603
 2855SOL    HW220025   3.017   1.700   9.493  0.1284  3.3917 -1.4164
 2856SOL     OW20026   4.192   0.554  12.720 -0.0091  0.3222  0.0230
 2856SOL    HW120027   4.280   0.515  12.719 -0.1786 -0.0612 -0.1764
 2856SOL    HW220028   4.190   0.561  12.815 -1.4046 -1.0595  0.1028
 2857SOL     OW20029   0.306   2.407   7.006 -0.0130 -0.2865  1.0926
 2857SOL    HW120030   0.344   2.487   7.043  0.8744  1.4358 -3.5258
 2857SOL    HW220031   0.382   2.349   7.008  1.0315  1.0308 -0.9407
 2858SOL     OW20032   4.084   1.387   4.627 -0.1089 -0.0490  0.0826
 2858SOL    HW120033   4.177   1.408   4.614  0.5047 -2.8525 -0.1095
 2858SOL    HW220034   4.081   1.359   4.719  1.6071  0.1486  0.1989
 2859SOL     OW20035   2.325   1.279   1.760  0.3581  0.2341 -0.4451
 2859SOL    HW120036   2.245   1.267   1.811  2.0832 -2.5420  1.6221
 2859SOL    HW220037   2.391   1.259   1.827  1.6147  3.1194 -0.8267
 2860SOL     OW20038   0.347   0.969   4.318  0.4039 -0.0792 -0.0466
 2860SOL    HW120039   0.324   1.061   4.326  1.3804  0.3025 -1.6312
 2860SOL    HW220040   0.315   0.942   4.404  2.7544  1.9048  1.4527
 2861SOL     OW20041   3.217   4.383  10.373  0.0505 -0.2819  0.4669
 2861SOL    HW120042   3.303   4.376  10.413  0.6767 -0.9900 -1.0000
 2861SOL    HW220043   3.226   4.309  10.313 -1.5536 -1.4527  1.7128
 2862SOL     OW20044   2.108   1.781  10.262 -0.0425 -0.6202  0.1845
 2862SOL    HW120045   2.050   1.848  10.298  1.5106  1.3018 -0.8820
 2862SOL    HW220046   2.072   1.791  10.174  1.8530  0.5727 -0.4532
 2863SOL     OW20047   3.419   0.711   4.014  0.2879  0.5733 -0.1586
 2863SOL    HW120048   3.397   0.803   3.998  2.6052  1.0469 -0.5583
 2863SOL    HW220049   3.451   0.683   3.929  0.6944  0.8844 -0.1076
 2864SOL     OW20050   1.160   3.534   7.348  0.0141 -0.2478 -0.0164
 2864SOL    HW120051   1.093   3.487   7.397 -0.4200 -1.2293 -1.5535
 2864SOL    HW220052   1.107   3.612   7.330 -0.0200 -0.0898  0.7825
 2865SOL     OW20053   0.568   0.789   7.505 -0.0239 -0.1053  0.2471
 2865SOL    HW120054   0.595   0.710   7.458 -1.8611 -0.9251  0.5521
 2865SOL    HW220055   0.654   0.830   7.503 -0.1615  0.2061  0.6532
 2866SOL     OW20056   3.325   3.176  11.583 -0.3898  0.2357 -0.1917
 2866SOL    HW120057   3.274   3.245  11.626 -0.3131 -0.8192  1.5859
 2866SOL    HW220058   3.356   3.220  11.504  0.4679 -0.3857 -0.2012
 2867SOL     OW20059   3.117   0.771  11.781  1.0757 -0.7243 -0.2095
 2867SOL    HW120060   3.157   0.777  11.694 -0.5796 -0.1499 -0.9365
 2867SOL    HW220061   3.161   0.696  11.821 -0.2825 -1.2481  0.2872
 2868SOL     OW20062   1.758   2.265  11.380  0.1155  0.2982 -0.4796
 2868SOL    HW120063   1.728   2.206  11.311 -0.6281 -0.1889  0.2591
 2868SOL    HW220064   1.803   2.324  11.320 -0.3546 -0.6175 -1.7359
 2869SOL     OW20065   3.169   0.618   5.544 -0.0334  0.5529  0.0390
 2869SOL    HW120066   3.168   0.713   5.528  0.5946 -0.0016 -3.4236
 2869SOL    HW220067   3.260   0.599   5.522 -0.0910  0.2790  0.0449
 2870SOL     OW20068   3.877   3.125  11.633  0.0257  0.5533  0.2187
 2870SOL    HW120069   3.803   3.067  11.655  2.2239 -2.5678 -0.6714
 2870SOL    HW220070   3.945   3.092  11.691 -0.2349  1.6513  1.1418
 2871SOL     OW20071   2.178   0.907   6.447 -0.0611  0.3545  0.2048
 2871SOL    HW120072   2.219   0.907   6.534 -0.7933  2.8709  0.5628
 2871SOL    HW220073   2.105   0.848   6.469  0.8733 -0.9384 -0.2053
 2872SOL     OW20074   4.647   2.831   7.082  0.0971 -0.5431 -0.2617
 2872SOL    HW120075   4.618   2.916   7.046  0.1162 -1.3746 -2.2616
 2872SOL    HW220076   0.019   2.851   7.092 -0.0613  1.1312 -2.1154
 2873SOL     OW20077   4.221   4.709  15.955 -0.4463 -0.0250 -0.0344
 2873SOL    HW120078   4.168   4.638  15.990 -0.7403 -0.1722 -0.7853
 2873SOL    HW220079   4.309   4.674  15.942 -0.0885  0.5796  0.7077
 2874SOL     OW20080   0.881   1.334   3.571  0.5945  0.1769 -0.0033
 2874SOL    HW120081   0.865   1.303   3.661 -3.0189  1.2526 -0.3168
 2874SOL    HW220082   0.876   1.246   3.534 -0.6060  0.9175 -1.5661
 2875SOL     OW20083   3.472   0.002   0.383  0.0358 -0.2555 -0.1695
 2875SOL    HW120084   3.561   0.037   0.387 -0.2271  0.4006 -0.0233
 2875SOL    HW220085   3.483   4.680   0.298  1.1933  0.2264 -0.2657
 2876SOL     OW20086   1.297   1.967   6.728  0.3414 -0.3818 -0.0387
 2876SOL    HW120087   1.258   1.880   6.725  1.0748 -0.6279 -2.3385
 2876SOL    HW220088   1.389   1.941   6.732  0.1992 -0.8058  0.3686
 2877SOL     OW20089   2.580   3.053   5.426 -0.6012  0.8622 -0.3002
 2877SOL    HW120090   2.512   3.112   5.460  0.9097  0.9721  2.4690
 2877SOL    HW220091   2.536   3.013   5.351  0.8822 -0.1295 -0.6315
 2878SOL     OW20092   1.634   2.461  12.140 -0.0736  0.0585 -0.0926
 2878SOL    HW120093   1.621   2.376  12.181 -0.8763 -0.9760 -2.5045
 2878SOL    HW220094   1.717   2.485  12.182 -0.4484  0.0453  0.6586
 2879SOL     OW20095   2.500   2.946   3.191  0.0609  0.8066  0.2401
 2879SOL    HW120096   2.528   2.994   3.113 -0.4560 -1.5833 -1.4182
 2879SOL    HW220097   2.536   2.860   3.170  0.2641  1.1775 -0.9227
 2880SOL     OW20098   0.687   4.707   5.304 -0.1888  0.2515 -0.5736
 2880SOL    HW120099   0.614   0.006   5.244 -2.4093 -0.6960  1.7961
 2880SOL    HW220100   0.686   0.050   5.375 -1.5642  0.2740 -0.6043
 2881SOL     OW20101   3.405   1.065   4.964  0.4239 -0.0458 -0.2402
 2881SOL    HW120102   3.471   1.054   5.033 -0.4822 -1.4480  0.4033
 2881SOL    HW220103   3.366   1.149   4.986  2.6403  0.7030  0.8400
 2882SOL     OW20104   0.634   0.485   3.828 -0.8691  0.2800  0.5250
 2882SOL    HW120105   0.556   0.539   3.824 -1.8325 -1.1793 -0.2462
 2882SOL    HW220106   0.620   0.447   3.915  0.8290  0.3877  0.8537
 2883SOL     OW20107   4.073   4.302   2.974 -0.3763 -0.3916 -0.3366
 2883SOL    HW120108   4.166   4.307   2.997 -1.0160 -0.6720  2.3449
 2883SOL    HW220109   4.039   4.266   3.056  2.6816 -0.4939  0.8873
 2884SOL     OW20110   2.560   4.133  17.598 -0.2857  0.3175  0.4327
 2884SOL    HW120111   2.636   4.146  17.654  0.4972 -1.9866 -0.0893
 2884SOL    HW220112   2.572   4.046  17.561  0.6913  0.6360  0.0182
 2885SOL     OW20113   3.403   1.627   2.553  0.2047  0.3304  0.6206
 2885SOL    HW120114   3.371   1.684   2.483  2.2589  1.4826  0.6013
 2885SOL    HW220115   3.337   1.635   2.621 -0.0558 -0.5850  0.4822
 2886SOL     OW20116   4.565   4.438   1.886 -0.2875 -0.4292 -0.5921
 2886SOL    HW120117   4.542   4.374   1.953 -2.6513  3.9475  2.7792
 2886SOL    HW220118   4.538   4.383   1.812 -0.8099  0.4459 -1.0592
 2887SOL     OW20119   1.182   3.891  12.122  0.2062 -0.7285  0.0320
 2887SOL    HW120120   1.150   3.853  12.203  0.8622 -0.9488  0.1857
 2887SOL    HW220121   1.107   3.950  12.118  0.5259 -0.3329 -0.1445
 2888SOL     OW20122   1.889   4.143  15.587  0.2094  0.4222  0.7364
 2888SOL    HW120123   1.951   4.215  15.577  1.9478 -1.4830 -2.1978
 2888SOL    HW220124   1.834   4.154  15.509 -0.1637  0.4825  1.0054
 2889SOL     OW20125   3.212   2.375  14.740  0.1937  0.2710  0.5442
 2889SOL    HW120126   3.228   2.411  14.652 -2.5853 -2.9735 -1.2955
 2889SOL    HW220127   3.271   2.302  14.758  2.4328  1.8597 -0.2852
 2890SOL     OW20128   2.541   4.314   6.683  0.0937  0.1454  0.2802
 2890SOL    HW120129   2.573   4.276   6.601  2.2596  2.4177  0.0804
 2890SOL    HW220130   2.558   4.240   6.742  1.2210  0.3563  0.2366
 2891SOL     OW20131   2.808   1.334  10.812  0.3081  0.9140 -0.0269
 2891SOL    HW120132   2.838   1.281  10.738 -0.9862 -0.9825  0.8163
 2891SOL    HW220133   2.862   1.413  10.803  2.6603 -0.9159 -2.0629
 2892SOL     OW20134   1.796   2.169   4.560  0.2301 -0.4272  0.5312
 2892SOL    HW120135   1.883   2.202   4.539 -0.1811 -0.6067 -1.4028
 2892SOL    HW220136   1.751   2.177   4.476  1.8997  0.2522 -0.2834
 2893SOL     OW20137   0.480   0.376   7.179  0.1364  0.3954 -0.1111
 2893SOL    HW120138   0.502   0.313   7.111  0.8910  1.1783 -0.5845
 2893SOL    HW220139   0.399   0.338   7.214  2.5405 -2.9150  1.8574
 2894SOL     OW20140   1.844   2.459   7.915  0.0230 -0.3577 -0.2423
 2894SOL    HW120141   1.937   2.453   7.896  0.7149  0.4556  2.8484
 2894SOL    HW220142   1.843   2.526   7.983 -0.3884  0.8798 -1.4815
 2895SOL     OW20143   3.118   2.868   0.967  0.0833 -0.0323 -0.1364
 2895SOL    HW120144   3.089   2.943   0.915 -1.3550 -1.0837 -0.8545
 2895SOL    HW220145   3.180   2.910   1.025 -0.2221 -0.4174  0.4725
 2896SOL     OW20146   2.276   3.176   4.200 -0.4278  0.0399  0.6125
 2896SOL    HW120147   2.306   3.217   4.119  0.9109  2.5228  2.3922
 2896SOL    HW220148   2.298   3.249   4.258  1.5121 -0.1620  0.1318
 2897SOL     OW20149   3.580   3.810  10.538  0.0964 -0.4622  0.5275
 2897SOL    HW120150   3.651   3.845  10.593  0.6439 -0.8390  0.0539
 2897SOL    HW220151   3.630   3.807  10.457 -1.5868  0.4432 -0.5357
 2898SOL     OW20152   3.528   0.604   1.138  0.3206 -0.6798  0.3576
 2898SOL    HW120153   3.620   0.630   1.140  0.2577 -0.3750 -0.3789
 2898SOL    HW220154   3.531   0.518   1.095 -0.1106  0.0097 -1.0684
 2899SOL     OW20155   0.702   1.374   7.147 -0.2388 -0.1670  0.0574
 2899SOL    HW120156   0.784   1.336   7.117 -0.3111  0.9108 -1.4797
 2899SOL    HW220157   0.652   1.295   7.170  1.1386 -1.0833 -0.1305
 2900SOL     OW20158   4.030   3.827  14.634  0.0450 -0.2407  0.8874
 2900SOL    HW120159   4.065   3.745  14.668  0.7751  0.3421  1.5500
 2900SOL    HW220160   4.094   3.897  14.652  0.7219 -0.4833 -0.6309
 2901SOL     OW20161   3.145   0.645   3.485  0.4795 -0.0785  0.5590
 2901SOL    HW120162   3.099   0.708   3.541  0.8364  0.7823 -0.1099
 2901SOL    HW220163   3.155   0.699   3.406  0.3302  1.6718  1.7394
 2902SOL     OW20164   0.340   1.318  11.123 -0.1173 -0.1638 -0.6766
 2902SOL    HW120165   0.298   1.343  11.040 -0.7372 -1.2860 -0.7047
 2902SOL    HW220166   0.278   1.347  11.190  2.1176  0.9243  0.9145
 2903SOL     OW20167   1.138   4.254   7.355  0.3259  0.0428 -0.7387
 2903SOL    HW120168   1.093   4.276   7.437  2.4785  0.0788  0.4279
 2903SOL    HW220169   1.126   4.335   7.305  1.6046  0.9651  0.4508
 2904SOL     OW20170   2.866   0.184  17.384 -0.7189 -0.0660  0.3010
 2904SOL    HW120171   2.844   0.258  17.327 -0.3041 -0.4399 -0.3408
 2904SOL    HW220172   2.787   0.179  17.438 -1.3828  0.3855 -0.6320
 2905SOL     OW20173   0.004   0.427  12.032  0.2676  0.1871  0.0620
 2905SOL    HW120174   4.706   0.377  12.111  1.8609  1.1464  1.0641
 2905SOL    HW220175   0.068   0.366  11.996 -0.2072  0.0074 -0.4567
 2906SOL     OW20176   4.057   2.700   6.371  0.2117 -0.4889 -0.3288
 2906SOL    HW120177   4.029   2.609   6.362  1.3524 -1.2103  3.2966
 2906SOL    HW220178   4.002   2.723   6.446 -0.6000  0.6674 -1.2681
 2907SOL     OW20179   3.994   2.396   2.951  0.6306 -0.4891  0.5914
 2907SOL    HW120180   4.063   2.371   3.012  0.0593 -1.9464  0.6256
 2907SOL    HW220181   3.937   2.320   2.947 -0.7175  0.5519 -0.1885
 2908SOL     OW20182   3.931   0.265  15.348 -0.0327  0.1031 -0.2575
 2908SOL    HW120183   3.945   0.172  15.365  0.7129  0.2851  0.1080
 2908SOL    HW220184   3.845   0.264  15.305  0.7884  0.3559 -1.8939
 2909SOL     OW20185   0.348   4.206   4.354 -0.0376  0.1625  0.4614
 2909SOL    HW120186   0.403   4.130   4.375  0.3891  0.7352  1.3914
 2909SOL    HW220187   0.265   4.174   4.388  0.0310 -0.0862  0.3944
 2910SOL     OW20188   1.717   0.739   3.513  0.6261 -0.3021  0.7818
 2910SOL    HW120189   1.665   0.792   3.453  1.6096 -0.8463 -0.5574
 2910SOL    HW220190   1.657   0.682   3.562  0.5971 -1.8001 -1.0181
 2911SOL     OW20191   0.172   4.551   8.128 -0.4476 -0.9854 -0.0996
 2911SOL    HW120192   0.189   4.508   8.212 -2.6077  0.5992  1.1294
 2911SOL    HW220193   0.098   4.504   8.091 -0.5475 -0.8614 -0.0569
 2912SOL     OW20194   2.912   2.852   6.603 -0.1716  0.2530 -0.6795
 2912SOL    HW120195   2.891   2.940   6.572 -0.1943  1.2640  2.1637
 2912SOL    HW220196   2.987   2.852   6.544  0.6220 -2.1791  0.3315
 2913SOL     OW20197   1.358   0.528  17.434  0.3967 -0.2024 -0.0590
 2913SOL    HW120198   1.446   0.567  17.432 -0.0881  0.8957  0.1071
 2913SOL    HW220199   1.309   0.595  17.481 -1.2941 -0.2364 -1.7615
 2914SOL     OW20200   0.895   3.030  11.244 -0.0247  0.5201 -0.1589
 2914SOL    HW120201   0.893   3.048  11.150 -0.5134 -1.0335 -0.4583
 2914SOL    HW220202   0.989   3.022  11.258 -0.1144 -0.1798  0.0963
 2915SOL     OW20203   2.991   2.501   3.999 -0.0317  0.1879  0.0904
 2915SOL    HW120204   2.984   2.484   3.905 -3.7175  0.1875  0.3629
 2915SOL    HW220205   3.041   2.582   3.989  2.9149 -1.3717  2.1208
 2916SOL     OW20206   0.826   1.582   9.262  0.3470 -0.4076  0.5959
 2916SOL    HW120207   0.789   1.577   9.350  1.2587  2.3453  1.1398
 2916SOL    HW220208   0.863   1.495   9.251  0.8434  0.2632 -3.0522
 2917SOL     OW20209   3.075   3.764   8.872 -0.8720 -0.4353  0.3687
 2917SOL    HW120210   3.112   3.680   8.901  1.5906 -0.7463 -3.6020
 2917SOL    HW220211   3.135   3.830   8.906 -1.2499  1.1023 -1.9792
 2918SOL     OW20212   0.560   2.186   8.542 -0.4452 -0.1334 -0.3361
 2918SOL    HW120213   0.596   2.265   8.501 -2.3149  1.2992  0.7949
 2918SOL    HW220214   0.601   2.194   8.628 -1.1831  0.2359 -0.0179
 2919SOL     OW20215   2.292   3.414   4.388  0.6553 -0.0757 -0.1099
 2919SOL    HW120216   2.230   3.395   4.458  0.2093  1.1725 -0.1686
 2919SOL    HW220217   2.340   3.486   4.428 -1.4433  1.9025 -1.1363
 2920SOL     OW20218   3.389   0.053   0.988  0.3457  0.5874 -0.2861
 2920SOL    HW120219   3.324   0.025   1.052 -0.0013  1.1727 -0.3882
 2920SOL    HW220220   3.394   4.704   0.923  1.4455 -0.4684  0.9521
 2921SOL     OW20221   4.185   1.353   3.695  0.2769 -0.2972 -0.0786
 2921SOL    HW120222   4.135   1.427   3.727  2.6134  1.5379 -0.6290
 2921SOL    HW220223   4.272   1.390   3.679 -0.4947  0.3540 -2.8994
 2922SOL     OW20224   1.126   4.411  10.068 -0.4605  0.1404 -0.4636
 2922SOL    HW120225   1.031   4.422  10.065 -0.5189 -0.1769  0.1773
 2922SOL    HW220226   1.160   4.439   9.983  1.3106  1.9794  0.8499
 2923SOL     OW20227   2.403   0.829   2.427  0.9346  0.0947  0.0292
 2923SOL    HW120228   2.450   0.776   2.363 -0.7487 -0.0840 -1.0733
 2923SOL    HW220229   2.349   0.886   2.371 -0.3271 -0.9183  0.2028
 2924SOL     OW20230   4.613   0.408  12.899 -0.0638 -0.4737 -0.4259
 2924SOL    HW120231   4.629   0.314  12.892  2.3320 -0.0694 -0.4112
 2924SOL    HW220232   4.584   0.404  12.990  0.1630  0.2539 -0.3187
 2925SOL     OW20233   4.534   1.184   4.539 -0.3915  0.3303  0.2833
 2925SOL    HW120234   4.495   1.152   4.621  1.8523 -2.2855  0.3115
 2925SOL    HW220235   4.584   1.109   4.508  1.1921  1.9746 -1.0910
 2926SOL     OW20236   2.436   0.655   1.987  0.0752 -0.1535  0.7055
 2926SOL    HW120237   2.505   0.721   1.986  0.0916 -0.1963 -1.9228
 2926SOL    HW220238   2.388   0.670   1.905  2.6744  1.8731 -0.4359
 2927SOL     OW20239   4.065   3.765   3.876 -0.2674 -0.2308  0.3411
 2927SOL    HW120240   4.086   3.859   3.881 -1.1346 -0.0927  1.4388
 2927SOL    HW220241   3.970   3.765   3.893 -0.2032  0.3217  0.7079
 2928SOL     OW20242   4.556   2.182   8.911 -0.0063  0.2045 -0.6560
 2928SOL    HW120243   4.521   2.205   8.997  2.0255 -1.2553  0.5413
 2928SOL    HW220244   4.609   2.103   8.925 -1.4897 -0.4821  1.0930
 2929SOL     OW20245   2.713   1.960   2.208  0.4481  0.5124  0.2130
 2929SOL    HW120246   2.685   2.045   2.176  1.3859  1.1027  0.9491
 2929SOL    HW220247   2.764   1.930   2.133  0.1817 -3.1814  1.4993
 2930SOL     OW20248   2.080   2.378  11.307 -0.6059 -0.3382 -0.3182
 2930SOL    HW120249   2.149   2.370  11.241  0.8001 -0.1081  1.1317
 2930SOL    HW220250   2.007   2.412  11.255  1.5119  1.8593 -1.8843
 2931SOL     OW20251   3.789   3.830  11.005  0.5767  0.0000 -0.2187
 2931SOL    HW120252   3.884   3.845  11.005  0.5899 -0.0519 -1.2586
 2931SOL    HW220253   3.779   3.774  10.928  0.5007  3.3752 -2.6955
 2932SOL     OW20254   3.284   1.233  17.231 -0.1895 -0.3388  0.2559
 2932SOL    HW120255   3.306   1.150  17.189  2.0607  0.9324 -1.0255
 2932SOL    HW220256   3.367   1.249  17.276 -0.8986  1.0299  1.0611
 2933SOL     OW20257   0.195   0.929   5.853  0.3098 -0.2167 -0.1891
 2933SOL    HW120258   0.112   0.917   5.806  0.3739 -0.8103 -0.1444
 2933SOL    HW220259   0.177   0.874   5.928  2.6798 -0.5577  0.1059
 2934SOL     OW20260   0.095   0.531  16.249 -0.0788 -0.5496  0.0467
 2934SOL    HW120261   0.000   0.543  16.247  0.1270  0.9743 -1.5350
 2934SOL    HW220262   0.098   0.439  16.222 -1.9989 -0.3649 -0.7933
 2935SOL     OW20263   4.177   0.613  11.693 -0.1177  0.2723 -0.4999
 2935SOL    HW120264   4.110   0.672  11.726 -1.5544 -1.2559 -0.6827
 2935SOL    HW220265   4.146   0.589  11.606 -1.8590 -0.3635  0.3019
 2936SOL     OW20266   3.230   2.134  15.628  0.2535  0.0935  0.1430
 2936SOL    HW120267   3.222   2.070  15.699 -2.5452 -0.8323 -1.0237
 2936SOL    HW220268   3.196   2.091  15.550  1.3152 -1.4021  0.5035
 2937SOL     OW20269   4.340   3.015   7.741  0.2531  0.2162 -0.1216
 2937SOL    HW120270   4.254   3.052   7.764  0.2282 -1.5750  2.6525
 2937SOL    HW220271   4.320   2.947   7.677 -0.2935 -0.4327  0.7343
 2938SOL     OW20272   2.456   4.275  13.401 -0.2040 -0.0729 -0.1458
 2938SOL    HW120273   2.439   4.369  13.394  0.1503 -0.0116 -0.2042
 2938SOL    HW220274   2.459   4.248  13.309  0.0773  2.2091 -0.7976
 2939SOL     OW20275   2.478   2.158   0.258  0.5462 -0.1640 -0.0542
 2939SOL    HW120276   2.481   2.216   0.182  0.5236  0.3691  0.3566
 2939SOL    HW220277   2.424   2.090   0.218 -2.0983  1.5561  0.6262
 2940SOL     OW20278   1.110   1.845   7.154 -0.0920 -0.1561 -0.1515
 2940SOL    HW120279   1.204   1.837   7.140 -0.0202  1.0664 -0.3560
 2940SOL    HW220280   1.087   1.767   7.205 -1.5208 -0.3941 -1.1561
 2941SOL     OW20281   1.894   0.855  17.361 -0.1570  0.0024  0.0104
 2941SOL    HW120282   1.950   0.933  17.357 -1.6192  1.2934  4.1871
 2941SOL    HW220283   1.944   0.797  17.305  0.1703 -0.5264  0.8530
 2942SOL     OW20284   1.104   0.625   5.094 -0.6685  0.2857  0.5104
 2942SOL    HW120285   1.131   0.654   5.181 -0.0293  0.1867  0.3465
 2942SOL    HW220286   1.176   0.564   5.074 -1.0574 -0.0529  0.1376
 2943SOL     OW20287   1.452   1.494   8.261 -0.5670  0.0905  0.2561
 2943SOL    HW120288   1.428   1.585   8.278  0.8351  0.7060 -1.1060
 2943SOL    HW220289   1.528   1.520   8.210  0.3156 -0.9458  1.0445
 2944SOL     OW20290   4.685   0.386   5.111  0.3393  0.0298 -0.4436
 2944SOL    HW120291   0.020   0.442   5.057  0.6619  1.0477  0.9588
 2944SOL    HW220292   4.700   0.304   5.064 -0.2661 -1.1542  1.4323
 2945SOL     OW20293   2.774   0.510  16.435  0.1891 -0.7662  0.2018
 2945SOL    HW120294   2.765   0.425  16.477  0.9015 -0.1104  1.7014
 2945SOL    HW220295   2.808   0.480  16.351 -1.0597 -1.6024  0.0013
 2946SOL     OW20296   3.602   1.921   7.181 -0.7394  0.4526 -0.2785
 2946SOL    HW120297   3.563   1.834   7.191  0.1302  0.1370  0.4516
 2946SOL    HW220298   3.660   1.918   7.258  0.0935 -1.1837 -0.9731
 2947SOL     OW20299   3.118   4.432   9.615  0.7715  0.3066 -0.1131
 2947SOL    HW120300   3.049   4.453   9.678  0.3510 -0.9902 -0.1345
 2947SOL    HW220301   3.081   4.459   9.531  0.2444 -3.4469 -1.0586
 2948SOL     OW20302   1.212   1.580  14.980  0.0820 -1.1105 -0.3541
 2948SOL    HW120303   1.217   1.519  14.907 -0.3439  3.0780 -3.8612
 2948SOL    HW220304   1.133   1.541  15.017 -0.7063  2.1006  1.4066
 2949SOL     OW20305   0.450   0.947  10.525  0.6369 -0.6480 -0.2885
 2949SOL    HW120306   0.382   0.945  10.593 -0.8603 -3.8601 -1.9245
 2949SOL    HW220307   0.496   0.865  10.541 -1.7898 -2.3786 -2.2334
 2950SOL     OW20308   1.788   2.442   3.128  0.1221  0.7813  0.2215
 2950SOL    HW120309   1.708   2.485   3.097 -0.7667 -0.9976  0.0758
 2950SOL    HW220310   1.786   2.360   3.080 -1.6070  0.1748  1.3311
 2951SOL     OW20311   1.608   2.658   8.256 -0.2135 -0.0438  0.0357
 2951SOL    HW120312   1.615   2.746   8.294  1.1169 -0.0219 -0.2427
 2951SOL    HW220313   1.699   2.650   8.226 -0.9878 -2.0210 -1.6990
 2952SOL     OW20314   2.350   3.096   4.693 -0.0109  0.1568  0.2325
 2952SOL    HW120315   2.424   3.154   4.677 -1.0125  0.7273 -2.3415
 2952SOL    HW220316   2.344   3.115   4.786 -5.8355 -0.7133  0.0597
 2953SOL     OW20317   1.068   2.260   4.634 -0.1953 -0.3574 -0.5297
 2953SOL    HW120318   1.112   2.342   4.610  0.8831 -1.0790 -0.9956
 2953SOL    HW220319   1.068   2.222   4.546 -0.2981  2.2571 -1.6596
 2954SOL     OW20320   0.179   2.054  15.101  0.0517  0.0265 -0.2701
 2954SOL    HW120321   0.123   2.089  15.171 -0.4741 -2.5971  0.6230
 2954SOL    HW220322   0.126   1.980  15.072 -1.0082  1.3268 -1.6353
 2955SOL     OW20323   3.848   1.282   8.448  0.5019 -0.6171 -0.9139
 2955SOL    HW120324   3.854   1.326   8.533 -1.4242 -0.3365 -0.9168
 2955SOL    HW220325   3.938   1.251   8.445  1.5830  2.4029  0.7404
 2956SOL     OW20326   1.123   2.435   5.037  0.4364 -0.0846  0.3836
 2956SOL    HW120327   1.036   2.419   5.000 -0.3762  1.5834  1.5533
 2956SOL    HW220328   1.103   2.464   5.126 -0.6525  0.0311  0.0988
 2957SOL     OW20329   1.431   0.599   0.579 -0.4809  0.0479  0.4500
 2957SOL    HW120330   1.355   0.654   0.597 -0.4016 -0.1186  1.2951
 2957SOL    HW220331   1.454   0.576   0.669 -0.9900  1.3338  0.9135
 2958SOL     OW20332   1.190   3.718  12.361  0.1648  0.8232  0.1674
 2958SOL    HW120333   1.262   3.666  12.324  0.3021  0.5210  0.8715
 2958SOL    HW220334   1.193   3.708  12.456  2.8184 -0.2215 -0.0382
 2959SOL     OW20335   1.252   2.207   3.859 -0.0561 -0.0350 -0.0094
 2959SOL    HW120336   1.215   2.120   3.874  0.3218 -0.2434 -0.2884
 2959SOL    HW220337   1.193   2.253   3.919 -1.9878 -1.1102 -1.0927
 2960SOL     OW20338   4.381   3.073   9.536 -0.1963 -0.1506 -0.4725
 2960SOL    HW120339   4.467   3.111   9.551  0.0860 -1.0154  0.0966
 2960SOL    HW220340   4.325   3.150   9.540  2.1975  1.5690 -0.6376
 2961SOL     OW20341   3.453   3.572  11.220  0.2346  0.0000  0.7123
 2961SOL    HW120342   3.523   3.638  11.218  1.1738 -1.0899 -2.8520
 2961SOL    HW220343   3.376   3.623  11.246 -0.3851 -0.1784 -0.7976
 2962SOL     OW20344   0.417   1.642   9.471  0.7749  0.0806 -0.1111
 2962SOL    HW120345   0.355   1.698   9.520  0.5129  0.8957 -1.3852
 2962SOL    HW220346   0.411   1.563   9.525 -2.3517  1.7787  2.0695
 2963SOL     OW20347   4.180   2.462   2.477  0.1942 -0.2858  0.3002
 2963SOL    HW120348   4.119   2.401   2.519  1.4277 -1.5437  0.2498
 2963SOL    HW220349   4.168   2.432   2.387  2.4664  0.5477 -0.2787
 2964SOL     OW20350   3.465   1.871   8.328  0.5986  0.2696  0.5633
 2964SOL    HW120351   3.461   1.780   8.356  2.7987 -0.0859 -0.2872
 2964SOL    HW220352   3.492   1.926   8.402 -0.5777 -0.4625  1.5395
 2965SOL     OW20353   3.378   1.816   3.969  0.7315 -0.1003  0.0924
 2965SOL    HW120354   3.350   1.801   3.879  0.3708  1.0059  0.0202
 2965SOL    HW220355   3.335   1.739   4.006  0.3628 -0.1891 -0.5215
 2966SOL     OW20356   1.183   1.299   4.742 -0.7259 -0.6277  0.0132
 2966SOL    HW120357   1.261   1.343   4.706 -0.8554 -0.3697  0.0478
 2966SOL    HW220358   1.212   1.229   4.800  1.0201  0.7740  0.8423
 2967SOL     OW20359   0.638   1.247   3.168 -0.4284 -0.0570  0.6394
 2967SOL    HW120360   0.543   1.257   3.175 -0.4157  0.0694  0.6299
 2967SOL    HW220361   0.658   1.318   3.107  0.9766  0.0491  1.2062
 2968SOL     OW20362   3.050   1.152  17.520 -0.5304  0.5479 -0.3267
 2968SOL    HW120363   3.078   1.203  17.596 -0.8548  0.7001 -0.3096
 2968SOL    HW220364   3.050   1.216  17.449 -2.0081  0.2297 -0.6023
 2969SOL     OW20365   0.254   3.309   4.054 -0.2070 -0.1381  0.0503
 2969SOL    HW120366   0.259   3.218   4.025  1.8085 -0.9312  2.9574
 2969SOL    HW220367   0.331   3.352   4.018 -0.8114  1.5548  0.7833
 2970SOL     OW20368   1.011   1.375   4.541  0.1322 -0.2481 -0.0347
 2970SOL    HW120369   0.925   1.347   4.574  0.5042  2.2842  3.0759
 2970SOL    HW220370   1.066   1.337   4.609  0.0326 -0.4388 -0.0592
 2971SOL     OW20371   0.937   3.865  15.943  0.0343 -0.1353  0.4477
 2971SOL    HW120372   0.962   3.915  15.866 -0.1410  1.1980  1.2486
 2971SOL    HW220373   0.919   3.779  15.905 -1.3349  0.2453  0.2330
 2972SOL     OW20374   3.449   1.253   6.602 -0.0854  0.5391 -0.5105
 2972SOL    HW120375   3.477   1.339   6.570  1.5954  0.9048  1.9511
 2972SOL    HW220376   3.513   1.220   6.665  0.5813 -1.8407 -2.3899
 2973SOL     OW20377   4.156   3.196   0.330  0.0816 -0.1389  0.1165
 2973SOL    HW120378   4.065   3.175   0.311 -0.1387 -1.0953  2.1911
 2973SOL    HW220379   4.205   3.140   0.271  0.6319 -0.7997  1.2102
 2974SOL     OW20380   4.285   1.945   0.434 -0.0786 -0.3307 -0.0173
 2974SOL    HW120381   4.254   1.910   0.351 -3.6472  0.2877  1.0601
 2974SOL    HW220382   4.268   1.873   0.495  0.4068 -0.3120  0.1414
 2975SOL     OW20383   2.722   1.632   4.564  0.2140 -0.4839 -0.0727
 2975SOL    HW120384   2.660   1.662   4.630 -0.4659 -0.5698 -0.6750
 2975SOL    HW220385   2.752   1.552   4.608 -0.8326  0.7077  2.7878
 2976SOL     OW20386   3.600   1.503   2.926 -0.3546 -0.5903  0.2555
 2976SOL    HW120387   3.528   1.450   2.892 -0.5584  0.3596 -0.7728
 2976SOL    HW220388   3.549   1.584   2.926 -0.1235 -0.4418 -0.9872
 2977SOL     OW20389   3.314   3.239   1.456 -0.2037 -0.2999 -0.0378
 2977SOL    HW120390   3.273   3.196   1.531 -1.0882 -0.0094 -0.3460
 2977SOL    HW220391   3.243   3.235   1.391 -1.6851  0.6839  1.5099
 2978SOL     OW20392   2.322   3.963   5.230  0.2138  0.0626 -0.1431
 2978SOL    HW120393   2.387   3.943   5.163  1.1411 -1.9971  1.3535
 2978SOL    HW220394   2.275   4.038   5.194 -1.6292 -0.4173  1.2416
 2979SOL     OW20395   2.810   1.182   5.526 -0.6353 -0.7086  0.0226
 2979SOL    HW120396   2.818   1.223   5.613 -1.0658  1.4881 -0.9728
 2979SOL    HW220397   2.806   1.267   5.482  0.9404 -0.3804  0.5192
 2980SOL     OW20398   0.480   3.199   2.261 -0.3091 -0.2006  0.1931
 2980SOL    HW120399   0.407   3.218   2.202 -0.3638  1.5543  0.8314
 2980SOL    HW220400   0.470   3.106   2.285  1.4752 -0.4519 -0.0366
 2981SOL     OW20401   3.782   3.206   2.454  0.2805 -0.0345  0.3883
 2981SOL    HW120402   3.762   3.282   2.399 -1.8489 -0.5151  0.4901
 2981SOL    HW220403   3.873   3.186   2.433  0.5632 -0.0769  1.6394
 2982SOL     OW20404   2.497   4.563  17.620 -1.0631 -0.5817  0.6964
 2982SOL    HW120405   2.513   4.651  17.585 -0.0695 -1.1231 -0.2282
 2982SOL    HW220406   2.570   4.548  17.681  1.1846  1.6336 -1.4189
 2983SOL     OW20407   3.440   0.384  17.652 -0.2775 -0.2737 -0.2829
 2983SOL    HW120408   3.439   0.297   0.004  2.0596  0.5092  1.4406
 2983SOL    HW220409   3.515   0.392  17.593  0.2119  1.9261  0.6117
 2984SOL     OW20410   1.787   3.276   5.618  0.0631  0.5184  0.0192
 2984SOL    HW120411   1.755   3.353   5.666  1.6417  1.1818 -0.0004
 2984SOL    HW220412   1.880   3.284   5.636 -0.0793 -0.2262  1.0768
 2985SOL     OW20413   0.224   4.162   6.827 -0.6271  0.1905  0.0149
 2985SOL    HW120414   0.155   4.174   6.892  0.5659  2.1381  0.8937
 2985SOL    HW220415   0.213   4.067   6.816 -0.1141  0.1367 -0.0283
 2986SOL     OW20416   0.105   0.169   5.874  0.3813  0.5102 -0.1558
 2986SOL    HW120417   0.081   0.087   5.916 -3.1711  1.0590 -1.1098
 2986SOL    HW220418   0.182   0.195   5.925  0.8735 -1.2899 -0.0022
 2987SOL     OW20419   1.588   4.146  15.100 -0.4934  0.3102 -0.3914
 2987SOL    HW120420   1.529   4.192  15.040 -0.0388 -0.5695 -1.5163
 2987SOL    HW220421   1.583   4.210  15.171  3.6245 -2.1163  2.0442
 2988SOL     OW20422   4.048   3.906  10.486 -0.0323  0.5791 -0.0579
 2988SOL    HW120423   4.026   3.988  10.442 -0.2276  0.5389 -0.0375
 2988SOL    HW220424   3.970   3.858  10.460  0.8814 -0.3061 -1.1287
 2989SOL     OW20425   1.797   2.723   1.273  0.4209 -0.0499  0.7667
 2989SOL    HW120426   1.736   2.649   1.265 -0.8891  0.8910  1.9954
 2989SOL    HW220427   1.787   2.749   1.181 -2.3327  2.9158  1.9049
 2990SOL     OW20428   1.846   1.950   4.195 -0.8171  0.1299  0.1077
 2990SOL    HW120429   1.802   1.894   4.131  1.7329 -0.3248 -1.2356
 2990SOL    HW220430   1.841   1.901   4.277 -0.6490 -1.2066 -0.6796
 2991SOL     OW20431   1.281   4.567   3.736 -0.1033  0.3311 -0.2815
 2991SOL    HW120432   1.288   4.642   3.796  0.5714  1.2044 -1.4548
 2991SOL    HW220433   1.189   4.544   3.746 -0.6463  2.2590 -0.9508
 2992SOL     OW20434   4.256   4.698   1.452  0.0466 -0.3371 -0.6354
 2992SOL    HW120435   4.317   0.050   1.458 -1.2478  0.5754  1.3857
 2992SOL    HW220436   4.183   0.028   1.419  1.6074  0.3058 -3.1253
 2993SOL     OW20437   4.644   0.854   2.141  0.4654  0.1650  0.2193
 2993SOL    HW120438   4.702   0.926   2.114  2.4805 -1.8404 -0.7978
 2993SOL    HW220439   4.557   0.890   2.124  1.0836  0.9174 -1.3973
 2994SOL     OW20440   0.187   4.341   9.156  0.3842 -0.2730  0.4080
 2994SOL    HW120441   0.166   4.433   9.169  3.5622  0.6778 -1.0566
 2994SOL    HW220442   0.097   4.312   9.169  0.2832 -0.8598 -1.5391
 2995SOL     OW20443   4.491   2.442   1.990 -0.1408 -0.2731  0.1474
 2995SOL    HW120444   4.549   2.511   1.958 -1.3268  0.2277 -0.9587
 2995SOL    HW220445   4.527   2.428   2.077  0.8537  0.5085 -0.1376
 2996SOL     OW20446   3.474   3.172  10.372 -0.0710 -0.1426  0.0860
 2996SOL    HW120447   3.433   3.194  10.455  3.0479 -2.7353  2.3103
 2996SOL    HW220448   3.398   3.162  10.315 -0.2872  1.0135  0.1770
 2997SOL     OW20449   4.402   1.054  13.151 -0.2531  0.3447 -0.1574
 2997SOL    HW120450   4.398   1.092  13.238  2.1340  1.2872 -0.4547
 2997SOL    HW220451   4.466   0.986  13.173 -1.8095 -1.1441 -0.2105
 2998SOL     OW20452   1.112   4.417   6.848  0.1701  0.1338  0.3362
 2998SOL    HW120453   1.206   4.402   6.856  0.5457  1.8551 -0.8932
 2998SOL    HW220454   1.107   4.503   6.890 -0.4338 -0.0342  0.6087
 2999SOL     OW20455   1.918   1.697  12.553  0.0649  0.3324  0.1107
 2999SOL    HW120456   1.844   1.747  12.519 -1.4631 -1.9716  0.0100
 2999SOL    HW220457   1.974   1.762  12.595 -0.5301 -0.1912  1.7085
 3000SOL     OW20458   2.995   2.416   4.770  0.2139  0.2183  0.3483
 3000SOL    HW120459   3.072   2.417   4.713  0.1861  0.7248  0.3198
 3000SOL    HW220460   2.984   2.511   4.773  0.2663  0.2320  0.1309
 3001SOL     OW20461   2.634   0.451  10.899  0.0560 -0.2926 -0.2373
 3001SOL    HW120462   2.685   0.531  10.913 -2.3210  1.0619  0.7520
 3001SOL    HW220463   2.701   0.392  10.866  0.4360 -0.1569  0.2808
 3002SOL     OW20464   2.090   3.053   6.272  0.4673 -0.1743 -0.3236
 3002SOL    HW120465   2.151   3.005   6.327 -0.8812 -0.6794  0.7389
 3002SOL    HW220466   2.008   3.006   6.287 -0.6431  1.8687  0.0215
 3003SOL     OW20467   1.362   4.534  10.265  0.6283  0.1884 -0.2860
 3003SOL    HW120468   1.432   4.531  10.329  0.9951  0.6451 -0.6702
 3003SOL    HW220469   1.330   4.444  10.259 -2.7436  1.3911 -0.5367
 3004SOL     OW20470   2.536   1.085  10.509  0.0724 -0.0374 -0.6656
 3004SOL    HW120471   2.591   1.152  10.548 -0.4999 -0.2217  0.4433
 3004SOL    HW220472   2.598   1.012  10.515  0.0745  0.0709  0.5383
 3005SOL     OW20473   2.454   2.401   5.493 -0.5379 -0.1427 -0.1554
 3005SOL    HW120474   2.407   2.395   5.577 -2.1865  2.7589 -0.8654
 3005SOL    HW220475   2.371   2.391   5.446 -0.2122 -1.5703 -0.4405
 3006SOL     OW20476   1.985   0.020   2.780 -0.5314 -0.4093 -0.1433
 3006SOL    HW120477   2.020   0.080   2.846  0.8163 -2.3775  0.9306
 3006SOL    HW220478   1.991   4.657   2.825  1.4496  0.6093  1.5209
 3007SOL     OW20479   0.953   4.284   2.487 -0.6209  0.0798  0.7623
 3007SOL    HW120480   1.010   4.269   2.563  0.6434  0.2357 -0.1651
 3007SOL    HW220481   0.977   4.367   2.447 -1.3030 -1.4294 -2.7710
 3008SOL     OW20482   3.725   0.019   5.463  0.5546 -0.3969 -0.0852
 3008SOL    HW120483   3.758   0.063   5.541  1.5879 -0.7234 -0.3325
 3008SOL    HW220484   3.729   0.083   5.392  2.5571 -0.0095  0.3898
 3009SOL     OW20485   4.607   4.087   4.410 -0.2865  0.0277 -0.0281
 3009SOL    HW120486   4.553   4.166   4.403 -0.0208  0.3687  1.8400
 3009SOL    HW220487   4.552   4.030   4.356  0.5485 -1.3591  0.5899
 3010SOL     OW20488   3.579   2.548   2.943  0.6177 -0.6212  0.0691
 3010SOL    HW120489   3.498   2.560   2.894  0.9381  1.3652  0.0404
 3010SOL    HW220490   3.577   2.452   2.947 -1.0074 -0.6027 -0.0240
 3011SOL     OW20491   0.737   1.177   5.434 -0.4264  0.1390 -0.2456
 3011SOL    HW120492   0.771   1.090   5.411  1.0423  0.7304 -0.3001
 3011SOL    HW220493   0.814   1.199   5.486  0.2441 -1.8686 -0.3780
 3012SOL     OW20494   1.543   1.580   8.832  0.2537 -0.2652 -0.2027
 3012SOL    HW120495   1.638   1.572   8.842  0.1039 -1.9703 -0.1077
 3012SOL    HW220496   1.534   1.653   8.893  1.2969 -0.9115  0.7161
 3013SOL     OW20497   1.291   4.473   4.933 -0.4632 -0.2836  0.4357
 3013SOL    HW120498   1.361   4.491   4.870 -1.1076  1.2378  0.1687
 3013SOL    HW220499   1.207   4.499   4.895 -1.0851  0.0525  2.0625
 3014SOL     OW20500   4.332   4.609   8.648  0.3044  0.3507  0.1509
 3014SOL    HW120501   4.349   4.515   8.653 -0.5386  0.2254  0.6986
 3014SOL    HW220502   4.423   4.636   8.634  0.2370  0.0783 -0.8163
 3015SOL     OW20503   2.467   1.011  11.821 -0.6321 -0.4332 -0.1620
 3015SOL    HW120504   2.440   1.091  11.866  5.1425  0.5810  1.4685
 3015SOL    HW220505   2.432   1.044  11.738 -0.1780  2.3096  0.7264
 3016SOL     OW20506   0.212   0.928   8.114 -0.0952 -0.3056 -0.6047
 3016SOL    HW120507   0.298   0.967   8.099 -0.5148  0.9880  0.3168
 3016SOL    HW220508   0.152   0.958   8.046 -0.5612  0.0197 -0.0499
 3017SOL     OW20509   3.674   1.997  14.612 -0.0891 -0.0806  0.0642
 3017SOL    HW120510   3.603   1.975  14.551 -1.0143 -2.1987  1.9099
 3017SOL    HW220511   3.743   2.022  14.551  1.0315  0.1502  1.4367
 3018SOL     OW20512   0.229   3.083   8.252 -0.0748  0.2655  0.5844
 3018SOL    HW120513   0.283   3.093   8.174 -0.8003 -1.4376 -0.1327
 3018SOL    HW220514   0.170   3.155   8.230  0.4959  0.5383 -0.0398
 3019SOL     OW20515   3.619   3.883   6.806  0.1618  0.3192 -0.0287
 3019SOL    HW120516   3.632   3.947   6.876  0.3636 -1.4629  1.5682
 3019SOL    HW220517   3.668   3.909   6.728 -0.3016 -1.7794 -1.0240
 3020SOL     OW20518   4.324   0.537   5.644  0.6366  0.0621 -0.0643
 3020SOL    HW120519   4.239   0.514   5.682  1.4734 -2.7032  0.1603
 3020SOL    HW220520   4.371   0.458   5.670 -0.7252 -1.5957 -2.5645
 3021SOL     OW20521   3.656   3.936  10.295  0.3287 -0.0554  0.0612
 3021SOL    HW120522   3.586   3.967  10.237 -0.1830 -1.2020  0.0614
 3021SOL    HW220523   3.670   3.855  10.246  0.0457  0.4657 -0.8810
 3022SOL     OW20524   0.840   0.796   2.511 -0.1510  0.6679 -0.1029
 3022SOL    HW120525   0.927   0.756   2.515  0.2868  1.4713 -1.7336
 3022SOL    HW220526   0.815   0.772   2.422  0.8719 -0.6711 -0.0352
 3023SOL     OW20527   4.188   3.305   9.457 -0.3425  0.2564 -0.1738
 3023SOL    HW120528   4.254   3.373   9.472 -1.3285  1.3831 -0.9645
 3023SOL    HW220529   4.114   3.363   9.440  0.0289  0.4156 -1.2285
 3024SOL     OW20530   2.399   0.472   7.653  0.5182 -0.3142 -0.5339
 3024SOL    HW120531   2.459   0.407   7.690 -2.2304 -1.1450  2.5086
 3024SOL    HW220532   2.316   0.462   7.701  1.5182 -1.7502  0.9379
 3025SOL     OW20533   0.127   4.208   2.433  0.7809  0.0498 -0.7962
 3025SOL    HW120534   0.089   4.121   2.425 -0.6765  0.6690 -0.5213
 3025SOL    HW220535   0.205   4.202   2.377  0.3518  0.9394 -1.4860
 3026SOL     OW20536   1.734   4.377  13.054  0.6711 -0.7618  0.1922
 3026SOL    HW120537   1.756   4.297  13.101  1.5918 -1.8612 -2.1246
 3026SOL    HW220538   1.786   4.370  12.974 -0.7592 -0.5296 -0.7627
 3027SOL     OW20539   2.278   1.698  12.017 -0.3781 -0.3531 -0.1800
 3027SOL    HW120540   2.333   1.710  11.939  0.7008  0.8205  0.7668
 3027SOL    HW220541   2.329   1.751  12.078 -3.3047 -0.6255  2.4965
 3028SOL     OW20542   3.677   0.759  17.406  0.0549  0.5328  0.3505
 3028SOL    HW120543   3.629   0.717  17.334  3.7727 -0.2786 -1.6155
 3028SOL    HW220544   3.695   0.837  17.354  3.9486  2.0794  4.0349
 3029SOL     OW20545   2.134   4.056  11.878 -0.4476 -0.0457  0.0212
 3029SOL    HW120546   2.074   4.059  11.952 -1.7977  1.3098 -1.1375
 3029SOL    HW220547   2.084   4.115  11.821  0.4495  2.3717  1.7311
 3030SOL     OW20548   0.558   3.380   8.357  0.5248 -0.2101  0.5739
 3030SOL    HW120549   0.556   3.292   8.395 -0.0367 -0.3227  0.2693
 3030SOL    HW220550   0.649   3.405   8.374  0.4981  0.3499 -0.0780
 3031SOL     OW20551   2.026   0.091  10.756  0.7503  0.4549  0.0396
 3031SOL    HW120552   2.031   0.157  10.825  0.0366 -0.3810  0.8801
 3031SOL    HW220553   2.073   0.020  10.799  1.9317  0.8613 -0.5560
 3032SOL     OW20554   1.205   3.449   7.702  0.5287  0.0523  0.1591
 3032SOL    HW120555   1.143   3.437   7.630  1.9405  0.9506 -1.1997
 3032SOL    HW220556   1.217   3.354   7.711 -2.3449 -0.3787 -0.4902
 3033SOL     OW20557   1.222   2.597   4.396  0.0375  0.1703  0.1931
 3033SOL    HW120558   1.294   2.653   4.366  0.9502  0.0549  2.1325
 3033SOL    HW220559   1.231   2.616   4.489 -1.4541 -0.0628  0.3793
 3034SOL     OW20560   2.334   2.656   2.967  0.2011  0.4153  0.3473
 3034SOL    HW120561   2.317   2.562   2.960 -0.8002  0.7056 -1.2378
 3034SOL    HW220562   2.249   2.673   3.007  0.4402 -1.2134  1.5502
 3035SOL     OW20563   2.341   0.063   6.012 -0.3633  0.1812  0.1487
 3035SOL    HW120564   2.256   0.027   5.987 -1.1528  3.3472 -1.7415
 3035SOL    HW220565   2.366   0.008   6.086 -2.2098 -0.3669  0.3830
 3036SOL     OW20566   1.146   1.542   8.018  0.3496 -0.1075  0.5126
 3036SOL    HW120567   1.053   1.529   7.997 -0.4817  4.9116  1.1869
 3036SOL    HW220568   1.149   1.573   8.108  3.1236 -2.6155  1.2868
 3037SOL     OW20569   3.611   3.748   5.246  0.1248  0.0007 -0.7848
 3037SOL    HW120570   3.662   3.779   5.172  1.2773  1.5908  0.6719
 3037SOL    HW220571   3.652   3.794   5.319 -1.0721  0.7769 -0.6023
 3038SOL     OW20572   0.313   1.666   6.883  0.5161 -0.4916 -0.5514
 3038SOL    HW120573   0.323   1.606   6.956 -0.9395 -0.1185 -0.0487
 3038SOL    HW220574   0.227   1.632   6.859  0.2369  0.0754 -0.3440
 3039SOL     OW20575   1.863   4.354   4.916  0.4201  0.3341 -0.0721
 3039SOL    HW120576   1.910   4.301   4.980  0.7138 -0.3454 -0.8462
 3039SOL    HW220577   1.907   4.438   4.907 -0.7528  1.2319  2.7319
 3040SOL     OW20578   3.481   4.719   7.866 -0.1943  0.4246 -0.0495
 3040SOL    HW120579   3.467   4.628   7.891  0.4320  0.2228 -0.4315
 3040SOL    HW220580   3.463   4.713   7.772 -1.6019  0.3344  0.2333
 3041SOL     OW20581   1.403   1.334   8.737 -0.4644 -0.5613  0.0625
 3041SOL    HW120582   1.370   1.353   8.649 -1.5519  2.3080  1.0901
 3041SOL    HW220583   1.461   1.408   8.757 -0.9473  0.1370 -1.1020
 3042SOL     OW20584   4.416   1.434   6.841  0.0814  0.7494 -0.4627
 3042SOL    HW120585   4.479   1.442   6.769  0.6374  3.2319  0.2597
 3042SOL    HW220586   4.334   1.434   6.792  1.2220  0.5224 -2.3404
 3043SOL     OW20587   2.924   3.121   8.677  0.6012  0.7707  0.6277
 3043SOL    HW120588   2.920   3.035   8.718  0.4107  0.3420 -0.2944
 3043SOL    HW220589   2.858   3.171   8.727  0.0365 -1.4254  2.0587
 3044SOL     OW20590   4.681   1.755   6.388  0.0299 -0.2860  0.3854
 3044SOL    HW120591   0.031   1.817   6.373 -0.8324  0.4894 -0.4226
 3044SOL    HW220592   0.005   1.670   6.383  0.5857 -0.0774  1.6992
 3045SOL     OW20593   2.617   1.017  11.504 -0.2406 -0.2826 -0.0918
 3045SOL    HW120594   2.546   1.076  11.530 -1.9527 -0.7685 -3.6367
 3045SOL    HW220595   2.677   1.086  11.476  1.8887 -1.8058  0.7608
 3046SOL     OW20596   1.046   1.698   3.696 -0.4558  0.2493 -0.4901
 3046SOL    HW120597   1.099   1.645   3.636 -3.0010 -0.2057 -2.3506
 3046SOL    HW220598   1.035   1.637   3.769 -0.0845 -0.4020 -0.9798
 3047SOL     OW20599   2.244   1.738  16.907 -0.0253 -0.2869  0.1303
 3047SOL    HW120600   2.149   1.735  16.907 -0.1295  2.7384  0.7988
 3047SOL    HW220601   2.259   1.827  16.939  2.7044 -0.5754 -0.2946
 3048SOL     OW20602   2.744   3.836   2.428  0.0667 -0.2287  0.0788
 3048SOL    HW120603   2.750   3.903   2.496 -2.3292  1.6138 -1.4955
 3048SOL    HW220604   2.650   3.846   2.409 -0.3228 -1.0741  1.5963
 3049SOL     OW20605   3.985   2.477   0.526 -0.1623  0.2385 -0.0847
 3049SOL    HW120606   3.916   2.480   0.461  0.1607  0.1099 -0.4345
 3049SOL    HW220607   3.939   2.455   0.608  1.5282 -1.8254  0.3231
 3050SOL     OW20608   0.096   4.677   0.262  0.5870  0.6633 -0.4204
 3050SOL    HW120609   0.151   0.016   0.213  0.7767  0.3508 -0.5933
 3050SOL    HW220610   0.097   4.712   0.351 -1.2085  0.9646 -0.5241
 3051SOL     OW20611   1.205   3.393   6.511 -0.3502  0.1268 -0.0612
 3051SOL    HW120612   1.291   3.415   6.475 -0.5997  2.2348  0.6417
 3051SOL    HW220613   1.225   3.341   6.588  1.1518 -0.7995 -1.0697
 3052SOL     OW20614   2.173   0.941  11.793  0.0491  0.2756  0.4184
 3052SOL    HW120615   2.151   1.034  11.790 -0.3870  0.2364  3.1325
 3052SOL    HW220616   2.268   0.939  11.804  0.3596  3.0695 -1.6527
 3053SOL     OW20617   1.599   0.215   7.404  0.0724 -0.4316 -0.4344
 3053SOL    HW120618   1.661   0.224   7.332  0.5601 -2.6499 -0.3094
 3053SOL    HW220619   1.620   0.294   7.453  0.9546  0.5593 -2.4470
 3054SOL     OW20620   2.252   3.770   0.279 -0.1289  0.3551  0.2735
 3054SOL    HW120621   2.257   3.725   0.364 -0.4513 -0.1042  0.0509
 3054SOL    HW220622   2.187   3.718   0.231  0.1656 -0.2499  0.5197
 3055SOL     OW20623   2.895   4.137  11.261 -0.0757 -0.2610 -0.6367
 3055SOL    HW120624   2.964   4.091  11.214 -1.0524  0.8269 -3.1141
 3055SOL    HW220625   2.945   4.203  11.309 -4.1085  1.5024  1.1789
 3056SOL     OW20626   1.455   1.007   3.482 -0.1053  0.5336  0.4104
 3056SOL    HW120627   1.473   1.004   3.388  1.2691  0.6274  0.6718
 3056SOL    HW220628   1.392   0.935   3.489 -2.1750  2.5423  2.3705
 3057SOL     OW20629   3.985   0.773   5.664  0.0303  0.4524  0.2241
 3057SOL    HW120630   3.944   0.851   5.703  1.2732  0.1010  2.2313
 3057SOL    HW220631   3.928   0.699   5.683  0.6044 -0.5674 -2.0321
 3058SOL     OW20632   2.076   1.260  11.113  0.4112  0.0448  0.3842
 3058SOL    HW120633   2.062   1.353  11.129  1.3268  0.0965  0.9114
 3058SOL    HW220634   2.009   1.244  11.047  0.1188  0.4595  0.5845
 3059SOL     OW20635   1.138   1.575   8.299 -0.4238  0.0000 -0.1620
 3059SOL    HW120636   1.084   1.601   8.374  0.0534  0.9198 -0.1339
 3059SOL    HW220637   1.221   1.614   8.325  0.8870 -0.2334 -3.9797
 3060SOL     OW20638   1.964   0.032   5.261  0.2423 -0.2102  0.0158
 3060SOL    HW120639   1.936   0.003   5.348 -1.9905 -0.1044 -0.6504
 3060SOL    HW220640   1.909   4.699   5.204  0.8587 -2.3293  1.4462
 3061SOL     OW20641   0.492   3.392   9.688 -0.2575 -0.1024 -0.3172
 3061SOL    HW120642   0.452   3.427   9.608  1.9871  2.8330 -0.1357
 3061SOL    HW220643   0.415   3.351   9.728 -0.7473  2.4011  1.3287
 3062SOL     OW20644   2.154   0.085   4.507  0.7705 -0.3235 -0.9398
 3062SOL    HW120645   2.083   0.045   4.456  0.5833  0.3566 -1.2173
 3062SOL    HW220646   2.115   0.172   4.521  0.4174 -0.5815 -0.3465
 3063SOL     OW20647   0.957   0.444  11.436  0.3317  0.3072 -0.1608
 3063SOL    HW120648   0.937   0.380  11.504 -2.1108  0.3599 -0.8207
 3063SOL    HW220649   0.931   0.522  11.485 -0.0649  0.7199 -1.0163
 3064SOL     OW20650   1.875   0.339   7.974  0.2676  0.1876  0.3027
 3064SOL    HW120651   1.831   0.294   8.047 -0.9025 -1.1007 -1.1988
 3064SOL    HW220652   1.967   0.327   7.996  0.8532  1.7434 -1.3495
 3065SOL     OW20653   1.315   0.263   6.667 -0.3824  0.0424 -0.2131
 3065SOL    HW120654   1.365   0.211   6.604  1.1354  2.5376 -1.0984
 3065SOL    HW220655   1.388   0.273   6.728 -2.3226  0.1235  2.1330
 3066SOL     OW20656   3.029   3.087   0.806 -0.0820 -0.4002 -0.4750
 3066SOL    HW120657   2.977   3.166   0.791 -1.6446 -1.5344 -1.0177
 3066SOL    HW220658   3.111   3.114   0.763  1.2051 -0.1624  2.1387
 3067SOL     OW20659   3.364   0.871  11.221  0.3632 -0.2565  0.3939
 3067SOL    HW120660   3.447   0.826  11.204 -0.2841 -0.6738 -1.6347
 3067SOL    HW220661   3.388   0.903  11.308 -0.5514 -0.8605  0.8568
 3068SOL     OW20662   1.725   0.638   4.926 -0.2413 -0.5806 -0.1901
 3068SOL    HW120663   1.660   0.592   4.873 -0.5767 -0.2236 -0.0911
 3068SOL    HW220664   1.689   0.637   5.015  0.5447 -0.6323  0.1305
 3069SOL     OW20665   0.838   0.462  10.792  0.4787  0.3918 -0.0561
 3069SOL    HW120666   0.883   0.398  10.848  0.3449  0.6878  0.3951
 3069SOL    HW220667   0.908   0.522  10.768 -0.1970  1.0683 -0.3444
 3070SOL     OW20668   0.661   2.287   8.766 -0.0035  0.3262 -0.1800
 3070SOL    HW120669   0.639   2.379   8.781 -0.6512 -0.3848  3.1874
 3070SOL    HW220670   0.747   2.287   8.807  0.7305 -1.5757 -1.6739
 3071SOL     OW20671   3.495   3.140  15.780  0.2152  0.1830  0.1868
 3071SOL    HW120672   3.467   3.050  15.795 -0.0306  0.6173  2.2466
 3071SOL    HW220673   3.590   3.128  15.783  0.0581 -1.1996 -0.3598
 3072SOL     OW20674   1.338   0.714   3.801  0.2000 -0.3957 -0.3802
 3072SOL    HW120675   1.392   0.792   3.817  0.1401 -0.2789 -0.7443
 3072SOL    HW220676   1.291   0.713   3.885  1.3883  0.6423  0.3004
 3073SOL     OW20677   0.840   0.864  10.481 -0.1604 -0.4283  0.2812
 3073SOL    HW120678   0.825   0.916  10.403  0.0545 -0.0801  0.4721
 3073SOL    HW220679   0.890   0.930  10.529  0.5940 -1.5423  1.0229
 3074SOL     OW20680   0.189   1.906  15.751 -0.3212  0.0413 -0.0614
 3074SOL    HW120681   0.148   1.993  15.749  3.3535  1.7801  1.2653
 3074SOL    HW220682   0.183   1.886  15.844 -1.6164 -0.8231 -0.3243
 3075SOL     OW20683   3.184   2.365  12.842 -0.1505  0.1147  0.1154
 3075SOL    HW120684   3.221   2.359  12.931 -1.4724  0.4164  0.6804
 3075SOL    HW220685   3.262   2.389  12.792 -1.1154  1.1836 -0.8717
 3076SOL     OW20686   3.607   1.575   5.922  0.0027 -0.1525  0.2693
 3076SOL    HW120687   3.646   1.551   5.837  2.6407  2.4318  0.7680
 3076SOL    HW220688   3.591   1.669   5.912  2.7911  0.3778  0.8347
 3077SOL     OW20689   4.014   2.376  10.900 -0.0773 -0.1964 -0.2454
 3077SOL    HW120690   4.026   2.444  10.967  0.5596 -1.0777  0.5273
 3077SOL    HW220691   3.919   2.368  10.902 -0.1896  1.1651 -0.0565
 3078SOL     OW20692   3.397   0.563   4.423 -0.1436 -0.3835  0.1542
 3078SOL    HW120693   3.471   0.503   4.428  0.4118  0.2934 -0.0693
 3078SOL    HW220694   3.405   0.617   4.502 -1.9003  0.9373 -0.5819
 3079SOL     OW20695   3.261   3.224   6.375  0.2592  0.0466 -0.9578
 3079SOL    HW120696   3.321   3.298   6.363 -0.1401  0.0431 -2.9181
 3079SOL    HW220697   3.180   3.274   6.388 -1.1983 -2.0061 -2.2188
 3080SOL     OW20698   0.819   1.928   7.217  0.0183  0.4254 -0.1306
 3080SOL    HW120699   0.892   1.914   7.157 -0.6688 -0.9955 -0.6185
 3080SOL    HW220700   0.776   1.842   7.222  0.7830  0.0172 -0.7301
 3081SOL     OW20701   1.550   0.512   2.903  0.4637  0.9376  0.1741
 3081SOL    HW120702   1.619   0.549   2.958  1.3895 -2.4056  1.2025
 3081SOL    HW220703   1.471   0.534   2.953 -1.1525 -1.9667 -1.1469
 3082SOL     OW20704   0.083   0.813  16.303  0.2338  0.3374 -0.2737
 3082SOL    HW120705   0.133   0.742  16.263 -2.2334 -0.7484 -1.4448
 3082SOL    HW220706   0.032   0.761  16.366 -0.4125  0.1007 -0.9880
 3083SOL     OW20707   1.036   1.978   2.561  0.5820  0.1944  0.6870
 3083SOL    HW120708   1.117   2.029   2.571  0.9734 -0.1927 -0.4389
 3083SOL    HW220709   1.032   1.919   2.636 -0.8573 -0.1156  0.3580
 3084SOL     OW20710   2.913   3.581  10.282  0.1222  0.3804  0.7554
 3084SOL    HW120711   2.922   3.595  10.376 -0.4401 -0.5782  0.9517
 3084SOL    HW220712   2.824   3.548  10.283  0.9311 -1.8458 -1.0299
 3085SOL     OW20713   4.650   3.341  14.000  0.1471  0.1234  0.1109
 3085SOL    HW120714   4.646   3.399  14.076 -0.4284 -0.5818  0.6153
 3085SOL    HW220715   0.023   3.348  13.981  0.0834 -0.8016 -0.5647
 3086SOL     OW20716   1.910   0.559  12.520 -0.0872  0.3504 -0.0206
 3086SOL    HW120717   1.918   0.590  12.430 -0.5402 -0.3796 -0.3209
 3086SOL    HW220718   1.942   0.637  12.565 -0.4015  0.7740 -0.5235
 3087SOL     OW20719   0.209   1.283   7.246  0.1511 -0.2221  0.2976
 3087SOL    HW120720   0.171   1.206   7.204  1.0011  0.3405 -1.4980
 3087SOL    HW220721   0.146   1.321   7.307 -0.3286 -1.8786  0.8118
 3088SOL     OW20722   0.175   2.754  10.594 -0.0584  0.6466  0.3194
 3088SOL    HW120723   0.155   2.801  10.513 -0.3248  1.1629  0.6895
 3088SOL    HW220724   0.135   2.670  10.572 -0.0199  0.8463 -0.5366
 3089SOL     OW20725   2.544   1.596   2.647 -0.2886 -0.2747  0.2452
 3089SOL    HW120726   2.514   1.553   2.726  0.2541  0.4568  0.8622
 3089SOL    HW220727   2.545   1.521   2.588 -0.7031  0.6419 -0.9296
 3090SOL     OW20728   2.737   2.032  11.795 -0.2171  0.3530 -0.3306
 3090SOL    HW120729   2.811   1.984  11.758 -0.3254  0.5440 -0.7997
 3090SOL    HW220730   2.724   2.098  11.727  0.0293  0.0345 -0.6885
 3091SOL     OW20731   4.012   4.533   6.353 -0.2646 -0.4366 -0.1312
 3091SOL    HW120732   4.028   4.439   6.344  1.0302 -0.2774  0.4970
 3091SOL    HW220733   3.988   4.566   6.267 -1.2171  0.9505  0.6851
 3092SOL     OW20734   2.565   2.488   8.107 -0.4224  0.3768 -0.0421
 3092SOL    HW120735   2.563   2.583   8.113  1.4566  0.5706 -2.6688
 3092SOL    HW220736   2.499   2.463   8.173 -0.4959  0.6385 -0.0180
 3093SOL     OW20737   0.173   0.755  11.694  0.1463 -0.1249 -0.7933
 3093SOL    HW120738   0.092   0.727  11.651  0.5698 -2.2387 -0.1971
 3093SOL    HW220739   0.187   0.828  11.634  1.6271  0.8631  0.7471
 3094SOL     OW20740   1.489   3.421   7.624 -0.0297  0.6919  0.7921
 3094SOL    HW120741   1.396   3.412   7.604  0.0993 -1.5452  1.2145
 3094SOL    HW220742   1.534   3.393   7.545  0.4714  4.6547 -0.3095
 3095SOL     OW20743   3.733   4.127   1.606 -0.0931 -0.6637 -0.2169
 3095SOL    HW120744   3.674   4.181   1.659 -1.4318 -3.6615  1.3481
 3095SOL    HW220745   3.809   4.185   1.607 -0.8120  0.2844 -0.5331
 3096SOL     OW20746   3.715   3.249   3.444 -0.0940  0.3469  0.1797
 3096SOL    HW120747   3.758   3.230   3.527  1.8906  0.6348 -0.7821
 3096SOL    HW220748   3.756   3.187   3.384  0.0656  0.3882  0.2470
 3097SOL     OW20749   2.205   3.054  15.785 -0.2752  0.0799  0.1538
 3097SOL    HW120750   2.215   3.023  15.695 -1.8455  2.5705 -0.8745
 3097SOL    HW220751   2.186   3.147  15.771 -0.8265  0.2949  2.3443
 3098SOL     OW20752   1.177   3.941   8.117 -0.4253  0.0939  0.0564
 3098SOL    HW120753   1.259   3.904   8.149 -0.2690  0.1357 -0.2982
 3098SOL    HW220754   1.122   3.864   8.131  0.4424 -0.6928 -0.8060
 3099SOL     OW20755   4.027   0.570   3.351 -0.1934  0.3673 -0.2499
 3099SOL    HW120756   3.932   0.576   3.339 -0.0969  1.5520 -0.4925
 3099SOL    HW220757   4.050   0.619   3.272  1.6294 -3.0238 -1.7826
 3100SOL     OW20758   0.455   3.544   3.736 -1.0503 -0.1349 -0.0478
 3100SOL    HW120759   0.550   3.530   3.741 -1.3904 -2.1740  0.5348
 3100SOL    HW220760   0.438   3.571   3.645 -1.3391 -3.7206 -1.0650
 3101SOL     OW20761   3.751   3.953  10.703 -0.3251  0.1901 -0.2429
 3101SOL    HW120762   3.722   3.968  10.793  0.9747  2.4850 -0.1922
 3101SOL    HW220763   3.831   3.901  10.717  0.7127  1.8892  0.1558
 3102SOL     OW20764   2.566   2.638   0.707 -0.4894  0.2354  0.1114
 3102SOL    HW120765   2.634   2.640   0.774 -0.7586  0.0145  0.3932
 3102SOL    HW220766   2.592   2.715   0.656  0.7970 -0.6679 -0.6026
 3103SOL     OW20767   3.724   0.447   4.133  0.7075  0.0991 -0.2076
 3103SOL    HW120768   3.630   0.463   4.132  0.5937 -0.7178 -2.5213
 3103SOL    HW220769   3.727   0.454   4.037  2.2446 -0.0208 -0.1670
 3104SOL     OW20770   2.803   3.144   7.882  0.9807 -0.1493  0.1808
 3104SOL    HW120771   2.779   3.201   7.956  1.5143  0.1666  0.1091
 3104SOL    HW220772   2.791   3.057   7.919  1.0357 -0.7019 -1.1165
 3105SOL     OW20773   2.081   0.566   1.558 -0.5024  0.1550  0.1119
 3105SOL    HW120774   2.067   0.655   1.527 -2.5210 -0.5592 -1.0346
 3105SOL    HW220775   2.001   0.529   1.518 -1.0958  1.4659  0.1013
 3106SOL     OW20776   3.319   0.938   3.601 -0.7078 -0.7634 -0.3473
 3106SOL    HW120777   3.373   0.951   3.524  0.9823 -0.0956  0.9568
 3106SOL    HW220778   3.241   0.902   3.558 -2.2340  3.0936 -0.8409
 3107SOL     OW20779   2.586   1.189   6.030  0.3872  0.1422  0.2669
 3107SOL    HW120780   2.622   1.246   6.097  1.2007 -0.5101  0.3850
 3107SOL    HW220781   2.584   1.111   6.085 -0.3542 -0.1575 -0.1833
 3108SOL     OW20782   4.625   2.425  12.362  0.4163  0.1576  0.2319
 3108SOL    HW120783   4.564   2.358  12.332  1.3695 -2.8706  5.0891
 3108SOL    HW220784   4.639   2.485  12.289  1.6679 -2.1340 -1.3722
 3109SOL     OW20785   2.705   1.717   1.713 -0.3871 -0.0022  0.7342
 3109SOL    HW120786   2.706   1.622   1.708  1.5177 -0.0011  1.1240
 3109SOL    HW220787   2.766   1.747   1.646 -0.6383 -0.0428  0.4880
 3110SOL     OW20788   1.265   0.733   5.299  0.1112  0.3810  0.1167
 3110SOL    HW120789   1.286   0.708   5.389  0.0544 -0.4749 -0.1080
 3110SOL    HW220790   1.317   0.813   5.288 -0.6881  0.5026 -2.8829
 3111SOL     OW20791   4.158   2.350   3.159 -0.4356  0.1180 -0.5146
 3111SOL    HW120792   4.146   2.362   3.253  2.7465 -1.7575  0.1367
 3111SOL    HW220793   4.253   2.354   3.163 -0.5866  1.0764  2.2198
 3112SOL     OW20794   2.496   0.446   1.666 -0.0477  0.1326 -0.3302
 3112SOL    HW120795   2.450   0.511   1.720 -0.6936 -0.5247 -0.0891
 3112SOL    HW220796   2.586   0.459   1.697  0.0177  1.2528 -1.0075
 3113SOL     OW20797   4.350   3.268   4.548  0.7146  0.5215 -0.2059
 3113SOL    HW120798   4.302   3.195   4.510 -0.5199  0.3893  1.5917
 3113SOL    HW220799   4.387   3.314   4.473 -0.2966  0.5613 -0.6704
 3114SOL     OW20800   0.315   2.211   6.647 -0.4022  0.0637 -0.6214
 3114SOL    HW120801   0.401   2.238   6.614  0.0218 -0.5932 -0.0533
 3114SOL    HW220802   0.265   2.245   6.573 -1.4527  0.4518  0.2717
 3115SOL     OW20803   2.050   3.512   1.978  0.3380  0.2419 -0.1498
 3115SOL    HW120804   2.096   3.571   1.918 -0.0216 -0.8694 -1.5151
 3115SOL    HW220805   2.114   3.472   2.036  0.6586 -0.7868 -1.2194
 3116SOL     OW20806   0.098   2.657   3.484  0.2363 -0.4341 -0.5309
 3116SOL    HW120807   0.137   2.648   3.571  0.0828 -0.5853 -0.4779
 3116SOL    HW220808   0.023   2.712   3.508  1.4737 -0.2891  3.0985
 3117SOL     OW20809   4.533   1.233   3.449 -0.1502 -0.2204 -0.0337
 3117SOL    HW120810   4.597   1.267   3.387 -0.5973  0.7633  0.0489
 3117SOL    HW220811   4.468   1.302   3.441  1.6987  1.5687  0.2111
 3118SOL     OW20812   4.565   3.087  12.576 -0.0245  0.2112  0.4096
 3118SOL    HW120813   4.497   3.025  12.549 -0.9852  0.3849  2.3833
 3118SOL    HW220814   4.522   3.170  12.555  3.8612  1.9250 -0.6642
 3119SOL     OW20815   4.392   2.486   5.777  0.4102 -0.2420  0.0925
 3119SOL    HW120816   4.397   2.417   5.843 -1.8916 -1.1786 -0.7165
 3119SOL    HW220817   4.345   2.437   5.710  1.7142 -1.1221 -0.1725
 3120SOL     OW20818   4.661   4.291   8.869  0.0549 -0.5667  0.3080
 3120SOL    HW120819   4.675   4.222   8.934 -0.5265 -0.8295  0.1572
 3120SOL    HW220820   0.026   4.305   8.832 -0.1073  2.0578  0.9572
 3121SOL     OW20821   0.942   1.172   6.636 -0.1191 -0.5129  0.0896
 3121SOL    HW120822   0.866   1.190   6.581  1.2860 -2.7317 -2.5869
 3121SOL    HW220823   0.949   1.257   6.678 -0.5343  0.2524 -1.3831
 3122SOL     OW20824   2.994   1.050  14.464  0.0099  0.2837  0.7515
 3122SOL    HW120825   3.030   0.967  14.433 -0.2079 -0.1596  1.6603
 3122SOL    HW220826   2.946   1.084  14.389  0.1815 -2.9243 -0.7977
 3123SOL     OW20827   0.066   2.761  13.626 -0.2147  0.2090  0.0432
 3123SOL    HW120828   0.106   2.814  13.695 -2.7860  1.5542  0.4774
 3123SOL    HW220829   0.145   2.712  13.604 -0.6886 -0.1590 -0.8511
 3124SOL     OW20830   4.642   3.924   4.676 -0.6706 -0.7030  0.1072
 3124SOL    HW120831   4.599   3.880   4.749  0.0913 -0.3341  0.7709
 3124SOL    HW220832   4.582   3.988   4.638  2.3557  2.0344 -0.0853
 3125SOL     OW20833   2.312   2.382  12.826  0.0173  0.1051  0.5214
 3125SOL    HW120834   2.348   2.299  12.795 -1.6368 -0.0337 -1.0476
 3125SOL    HW220835   2.376   2.407  12.892  0.5739 -3.5212  1.3506
 3126SOL     OW20836   2.184   0.643   4.393 -0.0487 -0.3863  0.4452
 3126SOL    HW120837   2.226   0.586   4.329 -1.8453 -0.5110 -0.6117
 3126SOL    HW220838   2.253   0.636   4.458  2.1057  0.1158 -1.7960
 3127SOL     OW20839   4.087   3.445  15.428  0.4756 -0.1716 -0.4258
 3127SOL    HW120840   4.088   3.368  15.371  0.5177  0.3250 -1.1002
 3127SOL    HW220841   4.151   3.427  15.497  1.4593 -1.6677 -1.7450
 3128SOL     OW20842   0.010   4.087   3.874  0.1348 -0.6017  0.3532
 3128SOL    HW120843   4.716   4.177   3.900 -2.5046 -1.3049  1.1988
 3128SOL    HW220844   0.062   4.054   3.948  1.7244  0.1638 -0.4233
 3129SOL     OW20845   3.476   3.940   1.682 -0.0602  0.5039 -0.3554
 3129SOL    HW120846   3.445   3.849   1.678 -0.2227  0.5616 -0.3994
 3129SOL    HW220847   3.499   3.961   1.772 -1.0076 -1.5802  0.3703
 3130SOL     OW20848   4.076   0.387  17.585 -0.3177  0.4096  0.2063
 3130SOL    HW120849   4.030   0.312  17.625  1.3689 -1.8072 -2.0253
 3130SOL    HW220850   4.012   0.457  17.598  0.8906  1.3467  1.0478
 3131SOL     OW20851   1.694   3.006   2.285  0.0272 -0.4390  0.2503
 3131SOL    HW120852   1.749   2.960   2.220  1.1160  1.4896 -0.1933
 3131SOL    HW220853   1.680   2.940   2.353  0.2221  0.8079  1.4725
 3132SOL     OW20854   3.215   3.552  12.532  0.1601 -0.0183 -0.1817
 3132SOL    HW120855   3.271   3.623  12.564 -1.1917 -0.0627  2.3116
 3132SOL    HW220856   3.274   3.477  12.525 -0.8774 -0.5692 -2.8095
 3133SOL     OW20857   0.157   1.655  11.287  0.1190 -0.5105  0.1143
 3133SOL    HW120858   0.145   1.567  11.253 -0.7622 -0.3663  0.0527
 3133SOL    HW220859   0.251   1.649  11.303  0.1252  1.6954  0.9246
 3134SOL     OW20860   1.460   4.623   1.427 -0.3226 -0.4983  0.1323
 3134SOL    HW120861   1.555   4.612   1.430 -0.2578 -0.1859 -1.0416
 3134SOL    HW220862   1.454   4.693   1.362 -2.0883 -1.6132 -0.8985
 3135SOL     OW20863   2.710   3.350   7.071  0.2164 -0.3098 -0.2796
 3135SOL    HW120864   2.673   3.295   7.141 -2.4711  0.3837 -1.1857
 3135SOL    HW220865   2.777   3.398   7.120 -0.4562 -1.7246  2.0553
 3136SOL     OW20866   1.613   0.467   6.404  0.5578 -0.6110 -0.1674
 3136SOL    HW120867   1.585   0.447   6.494 -0.3564 -1.5974 -0.6670
 3136SOL    HW220868   1.629   0.377   6.376 -0.7622 -1.1001  0.6582
 3137SOL     OW20869   3.270   4.122   8.209 -0.0713 -0.0331 -0.3271
 3137SOL    HW120870   3.347   4.148   8.260  0.0956 -0.3802 -0.4007
 3137SOL    HW220871   3.295   4.041   8.165 -0.3013  0.2054 -0.8982
 3138SOL     OW20872   4.630   4.625   4.163  0.2482 -0.0501  0.4149
 3138SOL    HW120873   4.672   4.547   4.200 -1.4545 -1.2056 -0.0803
 3138SOL    HW220874   4.540   4.593   4.160  0.2789 -0.1127  0.0992
 3139SOL     OW20875   4.621   2.118   1.683 -0.0486  0.1152 -0.5880
 3139SOL    HW120876   4.627   2.211   1.659  0.6917  0.4173  0.7767
 3139SOL    HW220877   4.706   2.093   1.719 -1.1616 -0.2867  1.7719
 3140SOL     OW20878   4.449   2.817   2.586 -0.1965  0.7282 -1.0506
 3140SOL    HW120879   4.478   2.759   2.516 -2.3251  0.1198 -1.4468
 3140SOL    HW220880   4.424   2.759   2.658  0.0474  0.0762 -1.4893
 3141SOL     OW20881   1.731   0.619   2.645 -0.0220 -0.0923  0.1910
 3141SOL    HW120882   1.744   0.604   2.738  2.3859  2.0489  0.1890
 3141SOL    HW220883   1.743   0.528   2.616 -0.3289  0.0232 -0.3021
 3142SOL     OW20884   0.322   3.204  11.936  0.4783 -0.9297 -0.3189
 3142SOL    HW120885   0.354   3.253  11.860  1.1753 -2.5684 -1.1043
 3142SOL    HW220886   0.263   3.269  11.972  1.2964 -0.8190  0.8284
 3143SOL     OW20887   4.271   1.319   6.012  0.5038 -0.2313 -0.6542
 3143SOL    HW120888   4.305   1.243   5.965  0.0704  0.4027 -1.9769
 3143SOL    HW220889   4.231   1.298   6.097  0.3476 -1.9319 -1.1524
 3144SOL     OW20890   1.546   2.217   2.546 -0.1065 -0.1628  0.3842
 3144SOL    HW120891   1.498   2.157   2.489 -0.2031  2.3890 -2.2071
 3144SOL    HW220892   1.639   2.198   2.528 -0.2372 -0.0096 -0.4475
 3145SOL     OW20893   1.137   3.820   4.744 -0.1107  0.5569 -0.1710
 3145SOL    HW120894   1.187   3.877   4.803 -1.8137  1.6532  0.2203
 3145SOL    HW220895   1.176   3.733   4.754  0.9808  1.1986  1.1178
 3146SOL     OW20896   2.598   4.099   6.819 -0.3245 -0.0433  0.3405
 3146SOL    HW120897   2.559   4.034   6.877 -2.0819  1.0967  0.4410
 3146SOL    HW220898   2.685   4.061   6.808  0.0342  0.1226  2.7057
 3147SOL     OW20899   1.036   3.513   3.046  0.1799 -0.0972 -0.5748
 3147SOL    HW120900   0.998   3.425   3.042 -0.6023  0.2096 -0.0797
 3147SOL    HW220901   1.070   3.532   2.959  2.5805  0.8645  0.5608
 3148SOL     OW20902   1.892   0.451   0.992 -0.0165 -0.5705  0.2509
 3148SOL    HW120903   1.973   0.489   0.957 -0.2537  0.4071  0.7545
 3148SOL    HW220904   1.842   0.523   1.030  1.2171  0.1117  0.5836
 3149SOL     OW20905   1.360   2.222   6.795 -0.2100  0.1327  0.2607
 3149SOL    HW120906   1.415   2.236   6.718  0.2048  3.4352  1.2021
 3149SOL    HW220907   1.341   2.129   6.777 -2.8506  0.7462 -0.1994
 3150SOL     OW20908   3.867   3.840   5.197 -0.1663  0.0291 -0.7781
 3150SOL    HW120909   3.861   3.875   5.286 -1.1549 -0.7130 -0.5533
 3150SOL    HW220910   3.917   3.911   5.158 -1.0583  1.5129  0.7896
 3151SOL     OW20911   1.530   2.942   4.237 -0.6576  0.0481 -0.3891
 3151SOL    HW120912   1.571   3.000   4.173 -0.6759  0.0086 -0.4367
 3151SOL    HW220913   1.437   2.929   4.215 -0.5415 -1.2565 -0.0989
 3152SOL     OW20914   3.316   1.804  13.915  0.5145 -0.3064 -0.0562
 3152SOL    HW120915   3.222   1.788  13.909  0.3707  0.2805  0.6062
 3152SOL    HW220916   3.348   1.715  13.928 -2.8461 -1.4016  0.6087
 3153SOL     OW20917   4.607   0.881   3.685 -0.1599 -0.2185 -0.2049
 3153SOL    HW120918   4.524   0.895   3.731 -1.1657 -1.4523 -1.6354
 3153SOL    HW220919   4.653   0.965   3.685 -1.0325  0.2709 -0.1043
 3154SOL     OW20920   3.112   3.483   3.925 -0.5448 -0.2746 -0.6506
 3154SOL    HW120921   3.060   3.548   3.878 -2.1120  0.4256  2.0789
 3154SOL    HW220922   3.047   3.448   3.986 -2.2713 -0.1986 -2.4640
 3155SOL     OW20923   2.724   3.200   6.281  0.2401 -0.5175  0.2161
 3155SOL    HW120924   2.697   3.288   6.308  2.5403  0.4557 -0.6893
 3155SOL    HW220925   2.737   3.203   6.186  1.3937 -0.6449  0.3767
 3156SOL     OW20926   0.821   0.983  13.525 -0.1267  0.1547 -0.7023
 3156SOL    HW120927   0.809   0.932  13.445 -0.7840  0.5412 -0.8527
 3156SOL    HW220928   0.910   1.016  13.520  0.5987 -1.3288  2.7747
 3157SOL     OW20929   2.830   2.467   7.030 -0.0650  0.2082 -0.3225
 3157SOL    HW120930   2.761   2.405   7.006  1.0836 -0.3484 -2.1630
 3157SOL    HW220931   2.831   2.520   6.950  1.5085 -3.4038 -2.6684
 3158SOL     OW20932   1.599   1.602   2.597 -0.1806 -0.3774  0.1997
 3158SOL    HW120933   1.609   1.624   2.690 -1.9436 -0.0945  0.3275
 3158SOL    HW220934   1.536   1.530   2.593 -0.7845  0.2102 -0.9590
 3159SOL     OW20935   1.094   0.541   5.835  0.1741  0.5971 -0.1371
 3159SOL    HW120936   1.088   0.628   5.873 -0.8369  0.0539  0.9177
 3159SOL    HW220937   1.025   0.500   5.886 -0.0618  2.1549  0.7703
 3160SOL     OW20938   3.132   3.229   5.009  0.4673  0.4784  0.3079
 3160SOL    HW120939   3.115   3.219   5.102 -2.0400 -1.6880 -0.3996
 3160SOL    HW220940   3.049   3.198   4.974  1.0174 -0.8421  0.1715
 3161SOL     OW20941   3.616   4.089  10.006  0.6016 -0.0980 -0.3085
 3161SOL    HW120942   3.668   4.089   9.926  0.1384 -1.3719 -0.6003
 3161SOL    HW220943   3.533   4.122   9.971 -0.6120 -2.6008  0.2772
 3162SOL     OW20944   4.220   1.223   6.251  0.0677 -0.7022 -0.0112
 3162SOL    HW120945   4.196   1.306   6.293  1.7349 -0.0279 -0.3833
 3162SOL    HW220946   4.274   1.188   6.322 -0.2060  0.0682  0.5742
 3163SOL     OW20947   0.027   0.394  15.243 -1.3662  0.3521  0.1714
 3163SOL    HW120948   0.058   0.433  15.324  3.3731 -0.7899 -1.0786
 3163SOL    HW220949   4.689   0.464  15.215  0.4158  2.1318  0.8580
 3164SOL     OW20950   0.269   2.653  13.454  0.0102  0.1220  0.4145
 3164SOL    HW120951   0.278   2.709  13.377 -0.5024  0.6702  0.7545
 3164SOL    HW220952   0.204   2.591  13.421 -0.7246  0.6843  0.8123
 3165SOL     OW20953   1.350   2.995   7.238 -0.0083 -0.0798 -0.1654
 3165SOL    HW120954   1.375   2.927   7.175 -0.0102  0.9849 -1.3196
 3165SOL    HW220955   1.425   3.053   7.226 -0.8425  0.7347 -1.4935
 3166SOL     OW20956   0.462   1.737   5.105  0.3643 -0.2667 -0.5818
 3166SOL    HW120957   0.514   1.678   5.159  1.1709 -1.1757 -2.3633
 3166SOL    HW220958   0.443   1.677   5.033 -1.2235 -0.9900  0.4350
 3167SOL     OW20959   3.811   1.662  16.912 -0.5591 -0.6260 -0.4380
 3167SOL    HW120960   3.773   1.717  16.843  1.8925  0.6783 -0.7440
 3167SOL    HW220961   3.891   1.706  16.942 -2.6026  1.4875  1.8943
 3168SOL     OW20962   1.341   3.906  13.506 -0.5755 -0.1648 -0.4050
 3168SOL    HW120963   1.348   3.913  13.601 -1.9094 -0.4622 -0.2838
 3168SOL    HW220964   1.249   3.929  13.494 -0.1292  1.1887 -1.1798
 3169SOL     OW20965   3.379   4.417   9.755  0.2976  0.2037 -0.2317
 3169SOL    HW120966   3.366   4.325   9.778 -1.8511  0.3197 -1.0179
 3169SOL    HW220967   3.319   4.425   9.681 -0.6025  0.7536  0.5619
 3170SOL     OW20968   1.397   0.336   7.087  0.1099  0.3466  0.3781
 3170SOL    HW120969   1.416   0.416   7.137 -1.3362  0.7730  0.2408
 3170SOL    HW220970   1.426   0.278   7.157 -0.8084 -1.0131 -0.3718
 3171SOL     OW20971   1.754   0.963   6.786  0.4123  0.2707 -0.1380
 3171SOL    HW120972   1.693   0.892   6.807 -1.0076  2.0543  1.7875
 3171SOL    HW220973   1.722   1.048   6.817 -1.3659 -0.0509 -1.0501
 3172SOL     OW20974   3.234   1.333   7.652 -0.0168 -0.0944  0.4193
 3172SOL    HW120975   3.147   1.309   7.684 -1.0591  2.5902 -0.3991
 3172SOL    HW220976   3.285   1.318   7.731  1.2334 -1.6393 -0.6792
 3173SOL     OW20977   2.026   1.477   3.982  0.4357  0.3945 -0.6795
 3173SOL    HW120978   1.976   1.537   4.038 -0.6401 -0.4632 -0.7309
 3173SOL    HW220979   2.096   1.535   3.951  0.5083  0.0994 -1.0603
 3174SOL     OW20980   2.342   4.435  12.576 -0.0648 -0.4941 -0.1102
 3174SOL    HW120981   2.396   4.374  12.626 -1.0758 -1.9926 -0.8430
 3174SOL    HW220982   2.372   4.524  12.596 -0.4408 -0.1578 -1.0428
 3175SOL     OW20983   4.509   2.283   5.559 -0.1589  0.2639  0.3388
 3175SOL    HW120984   4.540   2.196   5.587 -2.0477 -0.4388  0.2405
 3175SOL    HW220985   4.414   2.280   5.561 -0.1809 -0.5420 -1.4382
 3176SOL     OW20986   1.864   0.733   5.225  0.4007  0.0781 -0.5497
 3176SOL    HW120987   1.949   0.707   5.189  0.1453  1.0000 -1.7929
 3176SOL    HW220988   1.905   0.775   5.301 -0.1818 -0.3166 -0.0190
 3177SOL     OW20989   1.214   3.064   8.030  0.5703 -0.0491  0.4290
 3177SOL    HW120990   1.244   3.103   7.948  3.3974 -4.7403 -0.7795
 3177SOL    HW220991   1.121   3.058   8.006  0.4022 -0.5319  1.1794
 3178SOL     OW20992   2.303   2.964   6.427  0.0995 -0.5925  0.2103
 3178SOL    HW120993   2.398   2.974   6.419  0.0142  0.1112  0.0688
 3178SOL    HW220994   2.307   2.891   6.489 -0.8257 -0.9992 -0.2131
 3179SOL     OW20995   1.335   4.288   8.347  0.0684 -0.1650 -0.8507
 3179SOL    HW120996   1.250   4.290   8.303  0.0484  0.7427 -0.7596
 3179SOL    HW220997   1.317   4.361   8.406 -1.1116 -1.2540  0.1360
 3180SOL     OW20998   0.793   2.175   5.061  0.3737 -0.3627 -0.1724
 3180SOL    HW120999   0.766   2.096   5.014  0.4484 -0.7670  0.4712
 3180SOL    HW221000   0.822   2.240   4.996  0.3603  0.9698  1.1508
 3181SOL     OW21001   1.005   0.414   3.693  0.0464  0.0745 -0.3473
 3181SOL    HW121002   0.944   0.469   3.643  0.8347  0.7688 -0.5617
 3181SOL    HW221003   0.989   0.324   3.664 -1.5245 -0.0679  0.9715
 3182SOL     OW21004   4.140   0.493   2.385  0.2509  0.1275  0.0648
 3182SOL    HW121005   4.172   0.492   2.295 -0.9038  0.5292 -0.3473
 3182SOL    HW221006   4.051   0.461   2.371  0.3904 -0.9918  1.7295
 3183SOL     OW21007   3.990   2.044   2.153 -0.3483  0.7218  0.2387
 3183SOL    HW121008   4.004   2.038   2.059 -0.0581  1.4141  0.2369
 3183SOL    HW221009   3.991   1.954   2.185  0.9111  0.8920  0.6550
 3184SOL     OW21010   2.038   2.759   3.379  0.8287  0.2245 -0.6688
 3184SOL    HW121011   2.000   2.736   3.295  0.1618  1.3055 -0.6617
 3184SOL    HW221012   1.987   2.836   3.404  0.2017  0.0081 -1.3177
 3185SOL     OW21013   0.143   3.330   7.378  0.0502 -0.4168 -0.2586
 3185SOL    HW121014   0.135   3.275   7.456 -0.1427  0.0842  0.0785
 3185SOL    HW221015   0.066   3.289   7.337  0.4167 -1.5758  0.2111
 3186SOL     OW21016   0.069   3.451   5.108  0.5730 -0.2519  0.6783
 3186SOL    HW121017   0.031   3.376   5.063 -0.4784  1.1798 -0.8386
 3186SOL    HW221018   0.122   3.393   5.163 -1.3256 -1.0456  1.6360
 3187SOL     OW21019   1.688   4.253   6.596 -0.5297 -0.0529  0.5264
 3187SOL    HW121020   1.717   4.321   6.535  2.5420  0.0516  2.0923
 3187SOL    HW221021   1.596   4.276   6.609 -0.8653 -0.0312 -1.9397
 3188SOL     OW21022   4.223   2.543   3.764 -0.0102 -0.2070 -0.5743
 3188SOL    HW121023   4.183   2.598   3.832 -0.7072 -1.2608 -0.1268
 3188SOL    HW221024   4.304   2.516   3.806 -0.7578  0.7241  1.4769
 3189SOL     OW21025   3.501   1.279  13.889  0.6036 -0.2297  0.2284
 3189SOL    HW121026   3.442   1.216  13.930 -1.6020  0.7305 -1.4151
 3189SOL    HW221027   3.427   1.326  13.849  0.8683 -0.1469 -0.1711
 3190SOL     OW21028   2.072   1.843   4.953  0.7293  0.4164  0.0753
 3190SOL    HW121029   2.116   1.928   4.946  0.9901  0.3744  1.1923
 3190SOL    HW221030   2.000   1.863   5.013  1.3377  0.3834  0.8139
 3191SOL     OW21031   4.261   2.737  16.858  0.3990  0.1110 -0.9166
 3191SOL    HW121032   4.268   2.676  16.932 -0.6965 -0.2221 -1.0883
 3191SOL    HW221033   4.321   2.807  16.886 -1.9427  1.5568  0.4722
 3192SOL     OW21034   0.029   1.923   6.696 -0.1084 -0.5325 -0.0763
 3192SOL    HW121035   0.087   1.855   6.662 -0.8197 -0.0581 -2.2392
 3192SOL    HW221036   4.696   1.863   6.747  0.7473 -0.8727  0.4322
 3193SOL     OW21037   3.205   0.036   1.209 -0.0162 -0.6033  0.1961
 3193SOL    HW121038   3.272   0.020   1.275  2.3251  2.2658 -1.4450
 3193SOL    HW221039   3.174   0.124   1.229  0.3842  0.2322 -2.8701
 3194SOL     OW21040   3.569   0.751   7.325  0.3347  0.2348 -0.8614
 3194SOL    HW121041   3.507   0.797   7.381 -0.4082  0.5596 -1.9419
 3194SOL    HW221042   3.560   0.662   7.359  1.8097 -0.2454 -1.7583
 3195SOL     OW21043   3.321   2.142   3.543  0.4996 -0.3340 -0.3859
 3195SOL    HW121044   3.355   2.057   3.516  0.2892 -0.7770  0.7513
 3195SOL    HW221045   3.402   2.194   3.547  1.0343 -1.1068 -1.2150
 3196SOL     OW21046   4.082   0.628   1.247 -0.0864  0.3243  0.4369
 3196SOL    HW121047   4.131   0.685   1.187 -1.4658 -0.2224 -1.2095
 3196SOL    HW221048   4.116   0.654   1.333 -1.6236  1.4542  0.7043
 3197SOL     OW21049   2.448   1.433   2.836 -0.0086  0.3010  0.2842
 3197SOL    HW121050   2.383   1.487   2.880 -1.5508  0.4110 -2.1590
 3197SOL    HW221051   2.448   1.358   2.895 -0.1189  2.6393  3.2639
 3198SOL     OW21052   2.403   4.128   2.559 -0.6926  0.2987 -0.2090
 3198SOL    HW121053   2.400   4.151   2.652 -1.3191  1.0996 -0.4278
 3198SOL    HW221054   2.395   4.033   2.553  0.9183  0.1090  0.7336
 3199SOL     OW21055   2.102   1.840   2.491  0.0579 -0.1527  0.4167
 3199SOL    HW121056   2.110   1.923   2.445  5.0523 -2.1845 -2.2901
 3199SOL    HW221057   2.021   1.862   2.537  0.1072  2.3099 -0.6701
 3200SOL     OW21058   0.410   4.511   7.998  0.0892 -0.1367  0.4312
 3200SOL    HW121059   0.443   4.591   7.956 -0.7024  0.3297  0.6957
 3200SOL    HW221060   0.319   4.539   8.011 -0.1099 -0.5617 -0.0410
 3201SOL     OW21061   4.034   0.273  15.670 -0.2421 -0.1659  0.2291
 3201SOL    HW121062   4.075   0.195  15.632  0.6910 -0.2341  1.3356
 3201SOL    HW221063   4.106   0.291  15.731  0.5327 -4.6433  0.6605
 3202SOL     OW21064   3.449   2.922  11.016 -0.2770  0.1253 -0.4582
 3202SOL    HW121065   3.405   2.930  11.101  1.0576  0.5072  0.2026
 3202SOL    HW221066   3.411   3.000  10.977 -3.2912 -2.0797 -1.9532
 3203SOL     OW21067   2.291   0.838   8.967 -0.5705 -0.5029  0.3530
 3203SOL    HW121068   2.359   0.795   8.915 -4.3511 -1.6585 -3.5970
 3203SOL    HW221069   2.240   0.884   8.900 -1.3274 -1.6458  0.1380
 3204SOL     OW21070   0.283   0.140   4.775 -0.2976  0.3557  0.5220
 3204SOL    HW121071   0.316   0.229   4.772  0.5751 -0.0279 -1.1328
 3204SOL    HW221072   0.272   0.121   4.682  1.6833 -1.0877  0.5781
 3205SOL     OW21073   3.849   0.216  10.039 -0.3210 -0.0125 -0.0899
 3205SOL    HW121074   3.903   0.210   9.960  1.4029  3.1699  0.8496
 3205SOL    HW221075   3.904   0.168  10.100  0.2547 -1.6478 -1.8838
 3206SOL     OW21076   3.040   2.582   8.846  0.0304  0.3645  0.6298
 3206SOL    HW121077   2.961   2.577   8.899 -0.8028  1.9269 -0.4549
 3206SOL    HW221078   3.017   2.531   8.769 -1.6242  2.6890 -0.4275
 3207SOL     OW21079   3.356   1.177   2.699  0.3271  1.1656 -0.0104
 3207SOL    HW121080   3.365   1.227   2.780 -4.2852 -1.5192  2.1429
 3207SOL    HW221081   3.441   1.187   2.657 -0.1537 -1.3821 -1.5668
 3208SOL     OW21082   3.774   0.793   2.923 -0.0195 -0.3112 -0.0151
 3208SOL    HW121083   3.823   0.797   2.841  0.8168 -1.1116  0.4454
 3208SOL    HW221084   3.751   0.700   2.927 -0.1902 -0.3389 -1.8950
 3209SOL     OW21085   4.597   1.107   6.926  0.1215  0.6696  0.1214
 3209SOL    HW121086   4.608   1.052   6.848  1.1190 -0.5572  1.1137
 3209SOL    HW221087   4.507   1.088   6.952  0.6148 -2.9936 -0.8143
 3210SOL     OW21088   2.948   4.709   0.577  0.1537 -0.2034 -0.6352
 3210SOL    HW121089   2.949   0.019   0.487  0.9803  1.6923  0.0484
 3210SOL    HW221090   2.857   4.683   0.589  0.5625 -0.9058  0.8674
 3211SOL     OW21091   0.759   1.519  12.594 -0.3754  0.0670  0.1084
 3211SOL    HW121092   0.798   1.448  12.645  0.7699  1.5608  1.3186
 3211SOL    HW221093   0.779   1.597  12.647  0.1120  1.8572 -2.6638
 3212SOL     OW21094   2.040   4.654   8.543  0.5098  0.0748  0.3177
 3212SOL    HW121095   1.996   4.615   8.618  0.6649 -0.1453  0.2946
 3212SOL    HW221096   2.114   4.593   8.536  2.2564  2.2306  0.0609
 3213SOL     OW21097   3.619   3.961  11.769 -0.0605 -0.2014  0.2894
 3213SOL    HW121098   3.547   3.942  11.708 -0.8494  0.5798  0.9783
 3213SOL    HW221099   3.574   3.960  11.854  0.8470 -3.0020  0.7338
 3214SOL     OW21100   0.970   1.347   6.230 -0.2502 -0.2920  0.0061
 3214SOL    HW121101   1.043   1.405   6.251  0.3857 -1.1527  0.1469
 3214SOL    HW221102   1.017   1.264   6.233  0.5608  0.1448 -0.6234
 3215SOL     OW21103   2.561   0.782   1.438  0.7094 -0.6155 -0.4889
 3215SOL    HW121104   2.602   0.792   1.524  0.4682  1.9837 -0.6836
 3215SOL    HW221105   2.468   0.795   1.455  1.1700  1.8849  0.0130
 3216SOL     OW21106   2.144   4.310   0.491 -0.2756 -0.3074  0.1588
 3216SOL    HW121107   2.226   4.324   0.538  0.5196  0.5583 -1.4979
 3216SOL    HW221108   2.091   4.277   0.563  0.6473  0.9572  1.4167
 3217SOL     OW21109   1.333   3.808   9.038 -0.1911  0.2919  0.2896
 3217SOL    HW121110   1.317   3.714   9.040 -0.9844  0.4918  3.7054
 3217SOL    HW221111   1.346   3.818   9.132  1.6353  0.2233  0.0421
 3218SOL     OW21112   2.222   2.286   5.288  0.1217 -0.0828  0.3913
 3218SOL    HW121113   2.177   2.287   5.372  0.5079 -0.3138  0.5995
 3218SOL    HW221114   2.173   2.349   5.234  1.7113  1.6646  0.9667
 3219SOL     OW21115   3.715   3.429   7.516 -0.4893 -0.7359  0.3225
 3219SOL    HW121116   3.698   3.493   7.585  2.2210  0.9041 -0.5521
 3219SOL    HW221117   3.703   3.465   7.428  2.7880 -1.1074 -0.2810
 3220SOL     OW21118   0.595   1.354   8.290  0.1116 -0.3966  0.2106
 3220SOL    HW121119   0.537   1.392   8.224 -0.7740  0.5979  1.5606
 3220SOL    HW221120   0.652   1.286   8.254  0.1725 -0.6832  0.8353
 3221SOL     OW21121   0.027   1.628   6.903  0.2461  0.4903 -0.4034
 3221SOL    HW121122   0.007   1.567   6.832 -3.3035  0.5734  0.5298
 3221SOL    HW221123   4.682   1.696   6.895 -0.2222  0.0128 -0.5432
 3222SOL     OW21124   4.430   1.164   7.320 -0.0066  0.5576  0.0766
 3222SOL    HW121125   4.389   1.194   7.239  0.8239 -0.5481 -0.7669
 3222SOL    HW221126   4.466   1.245   7.354 -2.4895  1.3846  0.7279
 3223SOL     OW21127   2.461   0.055   2.331 -0.0274  0.1167 -0.6708
 3223SOL    HW121128   2.426   4.694   2.296 -0.0963  0.8077 -2.2239
 3223SOL    HW221129   2.521   0.080   2.261  0.6290 -0.7964 -0.4440
 3224SOL     OW21130   2.595   1.531   7.754  0.1906  0.1964 -0.3155
 3224SOL    HW121131   2.584   1.626   7.752 -3.3024 -0.1966 -1.0215
 3224SOL    HW221132   2.689   1.516   7.756  0.4097  2.2491  3.2601
 3225SOL     OW21133   0.183   1.165   0.985  0.0812  0.2296 -0.1098
 3225SOL    HW121134   0.275   1.179   0.962  0.2908 -0.2288  0.4376
 3225SOL    HW221135   0.163   1.241   1.039 -2.6586 -0.0811 -0.7070
 3226SOL     OW21136   1.229   2.433  13.128  0.2518 -0.5746 -0.0086
 3226SOL    HW121137   1.152   2.434  13.185 -0.8701  1.5159 -1.5674
 3226SOL    HW221138   1.208   2.512  13.079  0.0434  2.2576  4.6874
 3227SOL     OW21139   1.181   0.893   3.101  0.2934 -0.2843  0.3718
 3227SOL    HW121140   1.159   0.800   3.102  2.2003 -0.7695 -1.1020
 3227SOL    HW221141   1.120   0.933   3.039  1.4656  2.4039  0.9623
 3228SOL     OW21142   0.999   1.027   0.050 -0.0050 -0.3339  0.4872
 3228SOL    HW121143   0.994   1.011  17.643 -0.2813 -0.2295  0.4866
 3228SOL    HW221144   0.914   1.059   0.077 -0.0035 -0.2512  0.3924
 3229SOL     OW21145   2.760   3.329   5.485  0.2479  0.8166 -0.5878
 3229SOL    HW121146   2.827   3.388   5.450 -1.3226  2.5467 -0.6755
 3229SOL    HW221147   2.682   3.352   5.434 -0.2105 -0.5110 -0.4984
 3230SOL     OW21148   3.221   4.388   3.601 -0.4522  0.6500  0.4973
 3230SOL    HW121149   3.248   4.298   3.580 -0.9823  1.4667 -3.6645
 3230SOL    HW221150   3.128   4.381   3.577 -0.3379 -0.0676  0.2570
 3231SOL     OW21151   4.003   4.505  14.659 -0.6079  0.6420 -0.1419
 3231SOL    HW121152   3.960   4.478  14.740 -1.0178 -2.2782 -1.3236
 3231SOL    HW221153   3.920   4.514  14.611 -1.8369 -0.4356  1.7783
 3232SOL     OW21154   3.864   2.640   5.085  0.1807 -0.5276 -0.3587
 3232SOL    HW121155   3.862   2.578   5.158 -2.8365  0.2272  0.2119
 3232SOL    HW221156   3.845   2.720   5.134 -2.2082 -0.8003 -0.8374
 3233SOL     OW21157   4.649   2.724   7.368  0.1355  0.3926 -0.4180
 3233SOL    HW121158   0.017   2.697   7.391  0.0310 -0.7552 -1.3199
 3233SOL    HW221159   4.649   2.699   7.275 -0.1438 -1.5601  0.1067
 3234SOL     OW21160   2.423   3.334   9.288 -0.3529  0.3944  0.2832
 3234SOL    HW121161   2.397   3.426   9.297  3.7597  1.6132 -0.2588
 3234SOL    HW221162   2.513   3.334   9.320  0.0391 -1.3746 -0.7924
 3235SOL     OW21163   3.934   2.465   4.462  0.0272 -0.3712 -0.1794
 3235SOL    HW121164   4.015   2.450   4.511  0.0386 -2.8511 -0.9227
 3235SOL    HW221165   3.910   2.543   4.512 -0.6616 -0.4882 -0.3280
 3236SOL     OW21166   4.634   2.138   6.602 -0.5187  0.1706  0.1785
 3236SOL    HW121167   4.548   2.137   6.643 -0.4072  0.9264  0.4198
 3236SOL    HW221168   4.670   2.053   6.628  0.3687 -0.3667 -2.7831
 3237SOL     OW21169   1.520   1.073  16.074  0.6658 -0.4849  0.5399
 3237SOL    HW121170   1.536   1.003  16.136  0.7274 -1.1191 -0.1893
 3237SOL    HW221171   1.445   1.028  16.036 -1.1685  2.2739  0.9042
 3238SOL     OW21172   2.701   3.041   8.919  0.2200 -0.1921  0.8105
 3238SOL    HW121173   2.639   2.985   8.966 -0.9544  0.1865 -0.2871
 3238SOL    HW221174   2.757   3.070   8.991 -0.6190  0.7784  1.0860
 3239SOL     OW21175   3.423   2.299   2.846 -0.1921  0.2051  0.3732
 3239SOL    HW121176   3.348   2.340   2.803 -0.4143  2.9754  3.4394
 3239SOL    HW221177   3.417   2.208   2.817  2.2141 -0.3729  1.6582
 3240SOL     OW21178   0.223   3.169   7.097  0.0255  0.4018  0.2241
 3240SOL    HW121179   0.167   3.129   7.029 -0.9081  0.7430  0.7863
 3240SOL    HW221180   0.229   3.103   7.165 -0.1411  0.2400  0.0813
 3241SOL     OW21181   0.439   1.852   5.532 -0.0628  0.5872  1.0248
 3241SOL    HW121182   0.498   1.891   5.468  0.6403 -0.0358  1.2917
 3241SOL    HW221183   0.494   1.791   5.582  0.7358  1.1923  0.8658
 3242SOL     OW21184   4.441   0.365   6.881 -0.1019 -0.0377  0.5688
 3242SOL    HW121185   4.422   0.333   6.969  0.7406  0.0542  0.7774
 3242SOL    HW221186   4.352   0.357   6.847  0.5910  0.0932 -1.2786
 3243SOL     OW21187   3.796   1.018   5.624  1.0341 -0.4174  0.2383
 3243SOL    HW121188   3.730   1.068   5.672 -1.0734 -2.6136 -0.3902
 3243SOL    HW221189   3.761   0.930   5.639  0.6415 -0.5863 -1.7087
 3244SOL     OW21190   0.942   0.266  13.611 -0.1501 -0.2106  0.1424
 3244SOL    HW121191   0.990   0.280  13.529  0.3941  0.8784  0.6416
 3244SOL    HW221192   1.012   0.279  13.675 -0.6106  1.8622  0.2389
 3245SOL     OW21193   2.919   0.109  10.347  0.1043  0.6092 -0.1344
 3245SOL    HW121194   2.930   0.064  10.430 -1.3221  0.8638  0.1893
 3245SOL    HW221195   2.842   0.062  10.316 -0.2586 -0.9181  3.1001
 3246SOL     OW21196   4.540   2.120   9.565 -0.2603  0.6694  0.8390
 3246SOL    HW121197   4.481   2.196   9.569 -2.0600 -0.5953 -1.9618
 3246SOL    HW221198   4.628   2.156   9.565  0.5899 -1.4354  0.3206
 3247SOL     OW21199   3.618   2.924   3.065 -0.2613  0.5098 -0.0331
 3247SOL    HW121200   3.620   2.930   3.160 -1.9656  3.8720 -0.2186
 3247SOL    HW221201   3.567   3.000   3.038 -0.1606  0.5041 -0.2446
 3248SOL     OW21202   4.645   2.966   3.041 -0.3060 -0.1306  0.2744
 3248SOL    HW121203   4.648   2.992   3.133 -3.9888  1.7937 -0.1647
 3248SOL    HW221204   4.574   3.023   3.012  0.0774 -0.2571 -0.9107
 3249SOL     OW21205   2.772   0.612   7.700 -0.7544 -0.2535 -0.2039
 3249SOL    HW121206   2.750   0.519   7.695 -1.5072 -0.0396 -0.7383
 3249SOL    HW221207   2.776   0.643   7.610 -0.2222  3.1069  0.9760
 3250SOL     OW21208   3.056   3.954   6.823  0.1447 -0.2664  0.1533
 3250SOL    HW121209   3.029   3.988   6.908  1.2878 -1.2973  0.9315
 3250SOL    HW221210   3.006   4.006   6.760  0.9011  0.3362  0.0376
 3251SOL     OW21211   1.825   4.105   7.915 -0.4054  0.2763 -0.1155
 3251SOL    HW121212   1.772   4.057   7.852 -0.5257 -0.3885  0.4884
 3251SOL    HW221213   1.863   4.030   7.961  0.4056  1.3872  1.0318
 3252SOL     OW21214   4.381   2.798  12.912  0.6910 -0.3204  0.5883
 3252SOL    HW121215   4.425   2.719  12.882  0.1235 -0.9576  1.4587
 3252SOL    HW221216   4.444   2.863  12.879 -0.8184  0.8441  0.0079
 3253SOL     OW21217   2.261   3.788   9.948  0.2581 -0.5041  0.0218
 3253SOL    HW121218   2.290   3.716  10.004  3.2769  0.8255  0.1531
 3253SOL    HW221219   2.298   3.764   9.863  1.2477  1.0685  0.0083
 3254SOL     OW21220   2.465   4.080   3.281 -0.3333 -0.1602  0.3200
 3254SOL    HW121221   2.477   4.145   3.350  2.0614 -0.1761 -0.0813
 3254SOL    HW221222   2.379   4.105   3.248 -0.0005 -0.0516 -0.4766
 3255SOL     OW21223   3.799   1.903   7.384 -0.3794  0.7881  0.3536
 3255SOL    HW121224   3.887   1.941   7.387 -0.5011  0.9479  1.8965
 3255SOL    HW221225   3.777   1.905   7.477  0.5044 -1.2629  0.6204
 3256SOL     OW21226   4.300   2.480   8.731 -0.2313  0.0669 -0.6106
 3256SOL    HW121227   4.343   2.494   8.816  1.2633  2.1435 -1.7307
 3256SOL    HW221228   4.305   2.385   8.719 -0.8947  0.0171 -0.4570
 3257SOL     OW21229   3.650   0.541   9.330  0.8203  0.1246 -0.0432
 3257SOL    HW121230   3.705   0.545   9.408  0.9441  0.6002 -0.1546
 3257SOL    HW221231   3.617   0.452   9.332 -0.4351  0.5903 -0.1265
 3258SOL     OW21232   2.423   3.650   8.762 -0.0919  0.4769  0.2604
 3258SOL    HW121233   2.463   3.577   8.714  2.9482  1.1010  1.7958
 3258SOL    HW221234   2.500   3.707   8.753  0.0039 -0.1573 -3.1219
 3259SOL     OW21235   1.275   0.748   6.923 -0.2317 -0.2610  0.3615
 3259SOL    HW121236   1.299   0.714   7.009  1.6750 -0.0770 -0.1024
 3259SOL    HW221237   1.231   0.672   6.884  0.9905 -1.8391  2.1051
 3260SOL     OW21238   0.538   0.837   7.796  0.2686 -0.1030 -0.2875
 3260SOL    HW121239   0.461   0.892   7.784  1.3162  1.6869  1.1857
 3260SOL    HW221240   0.572   0.833   7.707 -3.1965  0.6278 -1.6355
 3261SOL     OW21241   4.684   3.186   9.245  0.0247  0.7248  0.2731
 3261SOL    HW121242   0.037   3.203   9.187 -1.9774  1.5886 -2.0528
 3261SOL    HW221243   4.612   3.221   9.192 -0.1578  0.7772  0.5599
 3262SOL     OW21244   2.235   0.422  16.868  0.8150  0.3043  0.0395
 3262SOL    HW121245   2.203   0.420  16.958 -0.3246 -0.1520 -0.3794
 3262SOL    HW221246   2.282   0.340  16.859  2.1991  1.0379  0.5278
 3263SOL     OW21247   3.408   2.626   4.020 -0.7080  0.1068 -0.1936
 3263SOL    HW121248   3.455   2.654   4.099 -1.2564 -1.1578  0.5673
 3263SOL    HW221249   3.379   2.541   4.052  2.0668 -1.4226 -1.6951
 3264SOL     OW21250   3.775   4.496   0.839 -0.0012 -0.5432  0.1856
 3264SOL    HW121251   3.801   4.408   0.814  0.0122 -0.4857  0.0011
 3264SOL    HW221252   3.841   4.551   0.796 -1.6305 -0.1076 -1.7020
 3265SOL     OW21253   0.756   1.309  14.979 -0.4587 -0.6238 -0.5271
 3265SOL    HW121254   0.693   1.238  14.974 -0.3791 -0.7174 -0.1678
 3265SOL    HW221255   0.824   1.275  15.037 -0.2265  0.1399 -0.3380
 3266SOL     OW21256   3.555   4.664  16.358 -0.0398  0.7756  0.1906
 3266SOL    HW121257   3.527   4.665  16.266 -1.5904 -0.5700  0.6527
 3266SOL    HW221258   3.482   4.711  16.400  1.1796  1.4992  1.4822
 3267SOL     OW21259   3.732   2.604   6.527 -0.2728  0.0338 -0.2872
 3267SOL    HW121260   3.812   2.568   6.566  0.9047  3.6755  0.6107
 3267SOL    HW221261   3.680   2.589   6.606 -1.4047  0.4494 -0.9696
 3268SOL     OW21262   0.743   3.632  15.644 -0.0914 -0.3942 -0.0928
 3268SOL    HW121263   0.828   3.613  15.684 -0.0568 -2.9500 -1.3346
 3268SOL    HW221264   0.746   3.566  15.574  2.0776 -0.9312  0.5142
 3269SOL     OW21265   1.131   2.913  12.945 -0.0671  0.2805 -0.0033
 3269SOL    HW121266   1.059   2.962  12.985  0.5298  1.4376 -0.3475
 3269SOL    HW221267   1.127   2.826  12.985  1.0670 -0.2752 -1.0876
 3270SOL     OW21268   0.012   4.417   0.250  0.2327 -0.0018 -0.2624
 3270SOL    HW121269   0.092   4.391   0.295 -0.6323  2.3491  2.6456
 3270SOL    HW221270   0.025   4.512   0.250 -2.0698  0.2983  1.2412
 3271SOL     OW21271   3.086   2.836   2.253 -0.5129  0.9107  0.1257
 3271SOL    HW121272   3.125   2.924   2.249  0.3476  0.5184 -0.1758
 3271SOL    HW221273   3.090   2.819   2.347 -5.3218  1.5590  0.4213
 3272SOL     OW21274   2.180   3.962   6.491 -0.4186  0.0739  0.5175
 3272SOL    HW121275   2.089   3.955   6.518 -1.3017  0.9862 -2.2478
 3272SOL    HW221276   2.215   3.930   6.575 -1.5855  2.0294  1.7477
 3273SOL     OW21277   0.929   3.043   6.077 -0.2322 -0.4587  0.2466
 3273SOL    HW121278   0.925   2.991   6.157 -0.1837 -0.5549  0.1863
 3273SOL    HW221279   0.950   2.974   6.014  0.5458  0.3179 -0.3449
 3274SOL     OW21280   4.020   4.021   5.016  0.7021 -0.5325  0.2778
 3274SOL    HW121281   3.977   3.979   4.941  1.7180  0.1629 -0.6980
 3274SOL    HW221282   4.073   4.086   4.969 -0.1953 -0.0237 -0.0396
 3275SOL     OW21283   1.557   3.144   5.291 -0.3265 -0.2944  0.2442
 3275SOL    HW121284   1.559   3.049   5.304  1.4737 -0.2702  0.1708
 3275SOL    HW221285   1.462   3.158   5.288 -0.2064  0.7210  1.1867
 3276SOL     OW21286   2.453   4.126   2.821 -0.5238 -0.0628 -0.6768
 3276SOL    HW121287   2.502   4.186   2.878 -1.2561  1.7698 -1.9889
 3276SOL    HW221288   2.454   4.041   2.865 -1.3480  0.7186  0.8597
 3277SOL     OW21289   0.197   2.794   5.913 -0.0286 -0.0072 -0.0976
 3277SOL    HW121290   0.116   2.757   5.878  0.1230  0.0171 -0.4681
 3277SOL    HW221291   0.163   2.878   5.945  0.9496 -0.2593  1.6512
 3278SOL     OW21292   0.677   2.747   5.462 -0.1636  0.0332  0.3617
 3278SOL    HW121293   0.694   2.698   5.382 -1.5800  1.2781 -0.6834
 3278SOL    HW221294   0.613   2.696   5.511  0.9742 -1.1909  0.5836
 3279SOL     OW21295   1.252   0.446  13.999 -0.3698 -0.2340  0.0254
 3279SOL    HW121296   1.268   0.532  14.037 -2.2500 -0.3195  0.9671
 3279SOL    HW221297   1.327   0.395  14.029  0.4022 -0.4046 -2.1999
 3280SOL     OW21298   1.793   0.940   5.057 -0.0078 -0.0809  0.4858
 3280SOL    HW121299   1.816   0.864   5.110 -0.9592 -1.0786 -0.5538
 3280SOL    HW221300   1.784   1.013   5.120 -2.8489 -1.6523  1.9287
 3281SOL     OW21301   3.830   0.878   6.275  0.0774  0.0741  0.3714
 3281SOL    HW121302   3.884   0.939   6.326  1.9402 -0.2971 -1.2000
 3281SOL    HW221303   3.822   0.926   6.193  1.0063  1.9488  1.3630
 3282SOL     OW21304   1.910   3.864  11.949 -0.4734  0.5323  0.2540
 3282SOL    HW121305   1.916   3.895  11.859 -1.8329 -3.4642 -1.2406
 3282SOL    HW221306   1.832   3.809  11.949 -0.3464  0.3465  1.5536
 3283SOL     OW21307   3.617   0.320  16.893  0.0562  0.0875 -0.5945
 3283SOL    HW121308   3.690   0.289  16.840  1.6842  2.2843  0.3932
 3283SOL    HW221309   3.537   0.297  16.846  0.8000 -0.5303 -1.5501
 3284SOL     OW21310   1.614   4.443   8.639 -0.1056 -0.3504  0.2479
 3284SOL    HW121311   1.522   4.465   8.632 -0.0290  0.3129  1.3969
 3284SOL    HW221312   1.646   4.477   8.556  2.3741  0.1083  1.3721
 3285SOL     OW21313   0.924   4.105   5.089  0.3437  0.0043 -0.1835
 3285SOL    HW121314   0.945   4.196   5.069  1.9068 -0.5945 -1.2675
 3285SOL    HW221315   0.843   4.121   5.137  0.6331 -1.8427  0.9010
 3286SOL     OW21316   1.558   0.387  11.004 -0.3848 -0.4859 -0.0073
 3286SOL    HW121317   1.631   0.439  11.036 -2.2251  0.0516  3.2997
 3286SOL    HW221318   1.598   0.348  10.926 -2.2441 -0.3234 -1.0592
 3287SOL     OW21319   2.644   0.311   5.252  0.2679 -0.1184 -0.0815
 3287SOL    HW121320   2.699   0.241   5.217 -0.0843 -1.7057  2.5465
 3287SOL    HW221321   2.651   0.369   5.176  1.3740  0.4109  0.4205
 3288SOL     OW21322   3.082   1.852   2.460 -0.3570  0.1428 -0.5274
 3288SOL    HW121323   3.047   1.763   2.458 -0.4207  0.0915  1.9797
 3288SOL    HW221324   3.173   1.835   2.435 -0.6439 -1.5295 -0.4712
 3289SOL     OW21325   2.713   3.565  12.507 -0.1772  0.3894  0.3757
 3289SOL    HW121326   2.793   3.569  12.455 -1.0121 -0.6617 -0.9723
 3289SOL    HW221327   2.653   3.537  12.438  1.9273 -0.5625 -1.0701
 3290SOL     OW21328   1.127   3.709   6.900  0.9876 -0.0855  0.0292
 3290SOL    HW121329   1.125   3.706   6.805 -0.4042 -0.6981  0.0673
 3290SOL    HW221330   1.075   3.629   6.908 -1.2522  1.2255 -1.2229
 3291SOL     OW21331   3.757   4.260   6.411  0.4667 -0.7392  0.1786
 3291SOL    HW121332   3.842   4.268   6.367  2.0714 -1.1890  3.1842
 3291SOL    HW221333   3.705   4.313   6.351  1.5299 -2.4042 -2.2188
 3292SOL     OW21334   4.507   1.548  10.906 -0.4717  0.0083  0.4161
 3292SOL    HW121335   4.491   1.606  10.980 -0.1256 -2.1015  2.1634
 3292SOL    HW221336   4.528   1.607  10.834  0.2421 -0.2783  0.3880
 3293SOL     OW21337   0.706   3.558   4.779 -0.2862  0.3656  0.2368
 3293SOL    HW121338   0.695   3.465   4.757  1.1971  0.3303 -0.3312
 3293SOL    HW221339   0.793   3.565   4.740 -0.1446 -1.6404  0.1953
 3294SOL     OW21340   0.254   2.463   7.953  0.2095  0.9349 -0.0240
 3294SOL    HW121341   0.295   2.455   7.866  2.0391 -2.1135  1.1135
 3294SOL    HW221342   0.328   2.427   8.002 -0.2897 -0.8223 -0.5446
 3295SOL     OW21343   0.441   3.023   7.469 -0.6269 -0.0774  0.6402
 3295SOL    HW121344   0.455   3.022   7.563 -0.8863  2.5752  0.7003
 3295SOL    HW221345   0.509   2.961   7.442  0.2246  1.2906 -0.3227
 3296SOL     OW21346   3.085   2.051  14.617  0.3966  0.1930  0.2810
 3296SOL    HW121347   3.012   2.041  14.556  2.6036 -0.2446 -2.2810
 3296SOL    HW221348   3.150   2.075  14.551  0.1031  2.5387  0.8299
 3297SOL     OW21349   3.684   1.059  13.747  0.1081 -0.1208 -0.2836
 3297SOL    HW121350   3.642   0.991  13.799 -0.2713  0.2786 -0.0702
 3297SOL    HW221351   3.635   1.139  13.766 -0.9417 -0.7370 -0.4471
 3298SOL     OW21352   0.774   2.093   4.243 -0.1571 -0.3038 -0.1734
 3298SOL    HW121353   0.709   2.041   4.290  0.6806 -2.6345 -1.6253
 3298SOL    HW221354   0.801   2.149   4.317  3.8842 -2.7259  0.1855
 3299SOL     OW21355   0.386   3.642   4.010  0.0695  0.3923 -0.1307
 3299SOL    HW121356   0.290   3.644   4.005 -0.0282 -0.7081  1.2736
 3299SOL    HW221357   0.399   3.628   3.916  0.8327 -2.4762  0.4096
 3300SOL     OW21358   1.843   2.227  14.798 -0.0016  0.4637  0.3389
 3300SOL    HW121359   1.791   2.247  14.720  0.4855  0.0665 -0.0824
 3300SOL    HW221360   1.855   2.310  14.844  1.7691 -1.3381  3.1576
 3301SOL     OW21361   2.856   1.850   1.521  0.0282  0.2854  0.0485
 3301SOL    HW121362   2.941   1.857   1.564  0.5998 -1.0127 -0.8426
 3301SOL    HW221363   2.859   1.934   1.476 -0.6081 -0.6374 -1.7253
 3302SOL     OW21364   3.905   2.109  11.152 -0.2001 -0.4494  0.2239
 3302SOL    HW121365   3.875   2.160  11.227 -2.9299  1.9414 -2.5348
 3302SOL    HW221366   3.956   2.174  11.104 -0.7969 -1.3763 -1.6659
 3303SOL     OW21367   2.122   0.796   5.058 -0.6588  0.5065  0.5009
 3303SOL    HW121368   2.135   0.873   5.113  2.0045 -1.1573  2.2013
 3303SOL    HW221369   2.160   0.826   4.976  1.3576  0.5972  1.4684
 3304SOL     OW21370   2.729   0.183  14.702  0.3884 -0.0921 -0.5444
 3304SOL    HW121371   2.820   0.209  14.711  0.4292  0.1308 -1.6004
 3304SOL    HW221372   2.715   0.210  14.612 -0.6632  3.7904  0.7815
 3305SOL     OW21373   0.145   4.540   3.906  0.4227  0.0508 -0.1541
 3305SOL    HW121374   0.102   4.482   3.968  2.2395  1.2064  2.1972
 3305SOL    HW221375   0.236   4.513   3.917 -0.7232 -2.4650  3.3335
 3306SOL     OW21376   4.584   2.341   4.655  0.1536  0.1156 -0.3000
 3306SOL    HW121377   4.525   2.416   4.650  0.4264  0.1922 -2.1514
 3306SOL    HW221378   4.661   2.384   4.691 -1.0184  2.5460 -0.7077
 3307SOL     OW21379   0.777   1.238  14.080  0.2032  0.1581 -0.1115
 3307SOL    HW121380   0.787   1.229  13.985 -2.3835  1.7250 -0.5381
 3307SOL    HW221381   0.768   1.145  14.102 -0.2721 -0.4573 -2.8246
 3308SOL     OW21382   2.356   2.254   1.575  0.4153  0.1010  0.4000
 3308SOL    HW121383   2.278   2.293   1.614  1.3293  0.6950  1.6313
 3308SOL    HW221384   2.368   2.168   1.616 -2.2499 -0.2192  0.4557
 3309SOL     OW21385   0.901   3.256   9.015  0.2835 -0.1074  0.4990
 3309SOL    HW121386   0.861   3.233   8.931 -0.4609  2.8296  0.0622
 3309SOL    HW221387   0.833   3.225   9.075  0.1188 -3.6638 -1.4682
 3310SOL     OW21388   4.424   2.628   8.535  0.0428  0.0324 -0.4082
 3310SOL    HW121389   4.422   2.722   8.553 -1.8476  0.0762 -0.7955
 3310SOL    HW221390   4.378   2.598   8.613  0.5421  0.4940  0.0615
 3311SOL     OW21391   0.551   0.970   8.375  0.2253 -0.0491  0.3682
 3311SOL    HW121392   0.642   0.961   8.345  0.4308  2.9480  0.0700
 3311SOL    HW221393   0.516   0.979   8.286  2.9069  1.0296 -0.5932
 3312SOL     OW21394   2.669   0.267  16.504  0.3395  0.2379 -0.2178
 3312SOL    HW121395   2.591   0.307  16.542 -0.9413 -0.5833 -2.0164
 3312SOL    HW221396   2.643   0.277  16.412 -2.5626  2.3013  0.8519
 3313SOL     OW21397   3.989   2.179  16.748  0.3697 -0.1782 -0.2900
 3313SOL    HW121398   3.964   2.211  16.661  0.9337 -1.6884 -1.0000
 3313SOL    HW221399   3.924   2.221  16.804 -1.4523 -0.9807 -1.8173
 3314SOL     OW21400   3.117   2.928   3.363  0.3535  0.1205 -0.2450
 3314SOL    HW121401   3.120   2.957   3.454  1.6336  0.1833 -0.3169
 3314SOL    HW221402   3.101   3.016   3.329 -0.5425 -0.4804 -1.3693
 3315SOL     OW21403   0.964   2.812   4.546  0.1298  1.0210  0.0313
 3315SOL    HW121404   0.868   2.814   4.536  0.0896 -1.0474 -0.0117
 3315SOL    HW221405   0.980   2.748   4.615 -1.6677 -0.9420 -1.3407
 3316SOL     OW21406   4.343   2.172   6.668  0.3199 -0.4550  0.3656
 3316SOL    HW121407   4.319   2.141   6.580 -0.6174  1.4375 -0.0602
 3316SOL    HW221408   4.256   2.204   6.693  0.6204  0.5484  0.1362
 3317SOL     OW21409   4.266   3.934   7.091  0.0202  0.0144 -0.3954
 3317SOL    HW121410   4.349   3.905   7.129 -1.5525 -0.2399  2.8331
 3317SOL    HW221411   4.295   4.016   7.052  1.1777 -0.1754  0.0615
 3318SOL     OW21412   0.071   1.357   8.248 -0.1274 -0.1941  0.3989
 3318SOL    HW121413   0.054   1.271   8.287  0.7304 -0.8810 -0.7214
 3318SOL    HW221414   0.027   1.337   8.165 -0.4960  0.2281  0.5003
 3319SOL     OW21415   1.504   1.039  11.578  1.0911  0.4727  0.1430
 3319SOL    HW121416   1.558   1.103  11.532  0.4285  0.2352 -0.9816
 3319SOL    HW221417   1.474   1.090  11.653 -1.9223 -1.3632  0.2178
 3320SOL     OW21418   3.321   2.537   1.769 -0.1130 -0.6162 -0.0896
 3320SOL    HW121419   3.289   2.511   1.855 -0.2257 -1.3904 -0.3651
 3320SOL    HW221420   3.321   2.633   1.765  1.0058 -0.5502  1.2305
 3321SOL     OW21421   0.734   1.835  16.039  0.0838  0.9925  0.0305
 3321SOL    HW121422   0.713   1.750  16.077  0.9755  1.0605  0.6538
 3321SOL    HW221423   0.798   1.865  16.103 -0.2771  0.7179  0.5148
 3322SOL     OW21424   2.370   3.601   1.877  0.2510 -0.2682  0.7396
 3322SOL    HW121425   2.386   3.509   1.854 -0.6632 -0.0931 -0.6579
 3322SOL    HW221426   2.457   3.621   1.911  1.9494 -4.2145 -1.2126
 3323SOL     OW21427   0.328   1.310   8.780 -0.5770 -0.1399 -0.2729
 3323SOL    HW121428   0.234   1.328   8.776 -0.5355 -0.0393 -0.7749
 3323SOL    HW221429   0.371   1.383   8.736 -1.4314  0.9462  0.6747
 3324SOL     OW21430   2.770   2.461   7.333  0.4032  0.0819  0.2024
 3324SOL    HW121431   2.790   2.395   7.266  1.0758  1.0234 -0.5459
 3324SOL    HW221432   2.709   2.411   7.386  1.2079  0.5587  1.5846
 3325SOL     OW21433   1.015   2.002   7.480  0.4141 -0.6488  0.0673
 3325SOL    HW121434   0.974   1.996   7.394 -1.6653  0.4210  0.9784
 3325SOL    HW221435   0.974   1.925   7.520 -0.0639 -0.3102  0.2278
 3326SOL     OW21436   3.280   2.261  10.119  0.1763  0.0196  0.3178
 3326SOL    HW121437   3.294   2.348  10.157  0.3313 -0.5939  1.6640
 3326SOL    HW221438   3.229   2.216  10.186 -0.7874  2.6353  1.3312
 3327SOL     OW21439   1.054   1.858  11.168 -0.5310  0.3607  0.0275
 3327SOL    HW121440   1.072   1.947  11.138  0.5394  0.8161  2.0216
 3327SOL    HW221441   1.099   1.811  11.098 -1.8266  0.9521 -1.2127
 3328SOL     OW21442   2.195   1.555   2.890  0.3734  0.5562  0.2948
 3328SOL    HW121443   2.154   1.507   2.818  1.7567  1.9778 -1.4597
 3328SOL    HW221444   2.157   1.640   2.865  0.0420  0.6356  1.0703
 3329SOL     OW21445   0.496   4.310  11.202 -0.2683 -0.1076 -0.3548
 3329SOL    HW121446   0.530   4.399  11.208 -0.4214  0.0327 -1.7091
 3329SOL    HW221447   0.508   4.279  11.112  0.7268 -0.8445  0.0338
 3330SOL     OW21448   0.691   0.638  11.300 -0.7233 -0.4258 -0.0330
 3330SOL    HW121449   0.645   0.598  11.226 -0.4029 -1.7676  0.4979
 3330SOL    HW221450   0.618   0.667  11.355  0.8442  2.8199  0.2818
 3331SOL     OW21451   0.346   4.225   5.816 -0.9336 -0.2133 -0.1768
 3331SOL    HW121452   0.393   4.148   5.849 -1.5638 -1.2843 -1.7594
 3331SOL    HW221453   0.258   4.213   5.854  0.0289 -0.2271  2.0211
 3332SOL     OW21454   1.418   1.870   2.543 -0.3977  0.7524  0.4937
 3332SOL    HW121455   1.501   1.850   2.500 -0.6334 -3.7896  2.1405
 3332SOL    HW221456   1.359   1.803   2.508  0.5537  0.5341 -0.6938
 3333SOL     OW21457   2.306   4.343  10.603 -0.0583 -0.3506  0.2713
 3333SOL    HW121458   2.384   4.318  10.652  0.2712  1.5946  0.7348
 3333SOL    HW221459   2.245   4.278  10.638  1.2561 -1.5731  0.2804
 3334SOL     OW21460   4.389   1.198  12.922 -0.2487  0.1619  0.8642
 3334SOL    HW121461   4.446   1.152  12.861 -1.7688 -1.1602  0.4401
 3334SOL    HW221462   4.432   1.176  13.005 -2.4639 -0.0074  1.9683
 3335SOL     OW21463   0.537   1.564   8.957 -0.4536 -0.0084  0.2927
 3335SOL    HW121464   0.514   1.613   9.036 -0.7206  2.0746 -1.0642
 3335SOL    HW221465   0.617   1.611   8.934 -0.6797  1.0498  1.6681
 3336SOL     OW21466   2.169   2.923   8.892 -0.0756 -0.6057  0.1736
 3336SOL    HW121467   2.153   2.941   8.985  0.7627 -1.5118  0.4981
 3336SOL    HW221468   2.084   2.900   8.853 -0.2243 -0.0095  0.1483
 3337SOL     OW21469   0.075   4.342   3.652  0.5488 -0.4455 -0.4330
 3337SOL    HW121470   4.715   4.368   3.694  1.2303  0.3291  0.4121
 3337SOL    HW221471   0.111   4.425   3.623  1.6795 -0.6785  0.2900
 3338SOL     OW21472   2.836   3.118   8.152  0.2527  0.0260  0.2985
 3338SOL    HW121473   2.897   3.044   8.143 -0.5427 -0.6366  0.3853
 3338SOL    HW221474   2.900   3.186   8.175 -1.1210  1.7911 -1.0739
 3339SOL     OW21475   3.345   0.544  14.568 -0.2290 -0.2397  0.3531
 3339SOL    HW121476   3.330   0.495  14.486  2.7320  2.6011 -1.8891
 3339SOL    HW221477   3.417   0.488  14.596 -0.4317  1.1089  3.4622
 3340SOL     OW21478   1.950   4.396   8.251 -0.5249 -0.3249 -0.2088
 3340SOL    HW121479   2.039   4.399   8.287 -1.1311  0.9917  1.2088
 3340SOL    HW221480   1.950   4.363   8.161  2.2895  1.6855 -0.9219
 3341SOL     OW21481   3.385   1.455   4.563  0.2190  0.2130  0.3727
 3341SOL    HW121482   3.452   1.518   4.535  0.1315  1.1940  2.4157
 3341SOL    HW221483   3.385   1.459   4.658 -1.2780  3.3779  0.2180
 3342SOL     OW21484   0.414   1.530   1.024 -0.1350  0.3099  0.2354
 3342SOL    HW121485   0.427   1.533   1.118  2.2163 -1.5810 -0.0395
 3342SOL    HW221486   0.489   1.577   0.987  1.0161 -0.1975  1.9360
 3343SOL     OW21487   2.657   1.795   6.233  0.9517 -0.1916  0.3452
 3343SOL    HW121488   2.720   1.725   6.214 -0.0199 -1.6193  2.4632
 3343SOL    HW221489   2.701   1.877   6.213  1.9256 -0.2562  2.2095
 3344SOL     OW21490   2.414   2.519   8.566 -0.6094  0.1103  0.1165
 3344SOL    HW121491   2.418   2.510   8.662  1.2797  0.0210  0.0207
 3344SOL    HW221492   2.503   2.548   8.546 -0.7112  0.0140 -0.4744
 3345SOL     OW21493   2.999   0.404  11.742 -0.3465 -0.3991 -0.3424
 3345SOL    HW121494   2.913   0.444  11.755  0.4857  1.4211 -0.3655
 3345SOL    HW221495   3.000   0.399  11.647 -1.9114 -2.3248 -0.2637
 3346SOL     OW21496   0.288   2.521   6.645 -0.3591 -0.4372 -0.2755
 3346SOL    HW121497   0.256   2.442   6.689  2.8448 -2.4200 -1.5179
 3346SOL    HW221498   0.305   2.580   6.719  0.5619  1.5580 -2.0922
 3347SOL     OW21499   0.881   4.477   5.858  0.1454 -0.3153 -0.0615
 3347SOL    HW121500   0.941   4.549   5.880  1.5268 -0.8733 -1.9948
 3347SOL    HW221501   0.944   4.410   5.832  0.7715  0.0476  0.5285
 3348SOL     OW21502   2.292   3.968  12.883 -0.8204 -0.2296  0.5445
 3348SOL    HW121503   2.291   4.058  12.914  0.8404  0.2700 -0.8629
 3348SOL    HW221504   2.199   3.950  12.864 -0.7204 -1.1155  0.9199
 3349SOL     OW21505   3.524   2.768   4.228  0.4880 -0.2942  0.5273
 3349SOL    HW121506   3.580   2.814   4.164 -0.0845  2.2012  1.8467
 3349SOL    HW221507   3.524   2.826   4.304 -0.7929 -0.9272  1.0086
 3350SOL     OW21508   1.036   3.671   5.359  0.1643 -0.3932  0.5528
 3350SOL    HW121509   1.069   3.728   5.291 -1.6731  1.8297  1.5411
 3350SOL    HW221510   0.947   3.671   5.323  0.2396  1.9384  0.3779
 3351SOL     OW21511   0.964   4.628  14.188 -0.5078 -0.0983  0.0193
 3351SOL    HW121512   1.002   4.623  14.101 -1.1643 -1.3422 -0.1935
 3351SOL    HW221513   0.935   4.720  14.189  2.7059  0.9380 -2.2990
 3352SOL     OW21514   2.511   1.192   5.315  0.6552 -0.0287  0.1526
 3352SOL    HW121515   2.598   1.231   5.324  0.1748  1.1541 -0.3885
 3352SOL    HW221516   2.541   1.122   5.257  0.8159  1.7640 -1.9125
 3353SOL     OW21517   0.254   0.204   7.256 -0.0153 -0.2808  0.3788
 3353SOL    HW121518   0.169   0.221   7.297  0.6127  0.6214  1.3271
 3353SOL    HW221519   0.308   0.178   7.331  1.0053 -1.9826 -0.9575
 3354SOL     OW21520   3.231   1.451  13.191 -0.2450 -0.1300 -0.0050
 3354SOL    HW121521   3.257   1.379  13.134  2.8953  0.1448  1.0991
 3354SOL    HW221522   3.289   1.522  13.163  0.4458 -0.7790 -0.2138
 3355SOL     OW21523   0.107   2.685  16.608  0.4008 -0.2620 -0.0244
 3355SOL    HW121524   0.168   2.627  16.562  1.6799  0.3406  0.9159
 3355SOL    HW221525   0.033   2.668  16.550  0.0868 -1.7002  0.8174
 3356SOL     OW21526   1.085   3.812   1.418 -0.3472  0.3742  0.1947
 3356SOL    HW121527   1.147   3.752   1.379 -0.3159  2.3954 -2.8106
 3356SOL    HW221528   1.009   3.756   1.438 -0.5540  0.8282  0.7094
 3357SOL     OW21529   0.770   1.827   2.271  0.0728  0.0947 -0.2503
 3357SOL    HW121530   0.718   1.756   2.233  0.9824 -0.7801  0.0990
 3357SOL    HW221531   0.759   1.804   2.364 -0.0791  2.4652  0.3065
 3358SOL     OW21532   2.117   2.760  16.838  0.1431 -0.2366 -0.0167
 3358SOL    HW121533   2.118   2.749  16.933  1.0896 -0.0398 -0.0043
 3358SOL    HW221534   2.042   2.819  16.827  0.1916  0.0768  1.3363
 3359SOL     OW21535   0.024   3.306  16.605  0.4957  0.3381  0.5930
 3359SOL    HW121536   0.011   3.401  16.613 -1.6426 -0.0186  1.3225
 3359SOL    HW221537   4.655   3.276  16.610  0.6161 -0.7258 -3.9844
 3360SOL     OW21538   3.602   4.527  17.349  0.4329 -0.3882 -0.1781
 3360SOL    HW121539   3.685   4.545  17.393  0.9988 -3.1743 -0.0970
 3360SOL    HW221540   3.630   4.520  17.258 -1.3972 -1.0769 -0.6948
 3361SOL     OW21541   1.734   4.361  17.107 -0.5571 -0.0268  0.1246
 3361SOL    HW121542   1.801   4.325  17.165 -1.0331 -1.2489 -0.0772
 3361SOL    HW221543   1.744   4.295  17.038  1.3155  0.0334  0.3652
 3362SOL     OW21544   1.477   1.122  11.837 -0.3468  0.2609  0.1307
 3362SOL    HW121545   1.547   1.063  11.865 -2.1167 -1.1836  1.4877
 3362SOL    HW221546   1.402   1.076  11.875 -0.1145 -1.1437 -1.0715
 3363SOL     OW21547   3.921   1.817   1.854 -0.1020  0.8691 -0.2297
 3363SOL    HW121548   3.988   1.883   1.837  0.2500  0.5000 -0.2570
 3363SOL    HW221549   3.968   1.757   1.911  1.8360  2.1525 -0.4690
 3364SOL     OW21550   3.727   2.562   3.196 -0.1412  0.0525 -0.3865
 3364SOL    HW121551   3.657   2.580   3.258  0.7910 -0.7647  0.8918
 3364SOL    HW221552   3.678   2.567   3.114 -0.8732  0.9899  0.1190
 3365SOL     OW21553   0.679   0.437  15.943 -0.0076  0.1039  0.4076
 3365SOL    HW121554   0.741   0.397  15.882  0.4126  0.6416  0.4767
 3365SOL    HW221555   0.685   0.377  16.017  0.0269  0.5772  0.7875
 3366SOL     OW21556   3.887   1.753  13.295 -0.3386  0.1150  0.1667
 3366SOL    HW121557   3.960   1.777  13.352  1.7410 -2.2982 -1.4450
 3366SOL    HW221558   3.859   1.667  13.327  3.2358 -1.8324 -1.8940
 3367SOL     OW21559   2.853   0.528  12.058 -0.6475 -0.1564 -0.3699
 3367SOL    HW121560   2.880   0.584  11.985 -0.2226  1.5532  1.0875
 3367SOL    HW221561   2.932   0.495  12.100 -1.5479 -0.5873  0.9903
 3368SOL     OW21562   1.075   1.687   7.790 -0.4406 -0.2074  0.1130
 3368SOL    HW121563   1.095   1.635   7.868  1.2257 -0.5224 -0.5282
 3368SOL    HW221564   1.126   1.766   7.808 -1.0785  0.9216 -2.9409
 3369SOL     OW21565   1.176   3.894  14.610  0.3578 -0.2934  0.1193
 3369SOL    HW121566   1.105   3.956  14.629  2.3334  2.8497 -2.7047
 3369SOL    HW221567   1.191   3.867  14.700 -2.4801 -0.3266  0.5973
 3370SOL     OW21568   0.565   0.056   7.216  0.5868  0.3319 -0.1114
 3370SOL    HW121569   0.552   4.684   7.235  0.2455  0.5354  0.6860
 3370SOL    HW221570   0.569   0.080   7.309 -3.1062  1.8876 -0.3333
 3371SOL     OW21571   1.104   0.930   5.113  0.0203  0.3951  0.3153
 3371SOL    HW121572   1.155   0.859   5.074 -1.3907 -0.7157  0.5034
 3371SOL    HW221573   1.174   0.993   5.129 -0.4663  0.8441  0.6736
 3372SOL     OW21574   3.205   3.619   7.517  0.2655  0.2805 -0.1270
 3372SOL    HW121575   3.194   3.530   7.551 -0.0027  0.6238  0.7143
 3372SOL    HW221576   3.235   3.665   7.596 -3.6995 -0.0807  1.5865
 3373SOL     OW21577   1.439   3.488   6.454 -0.3318 -0.0265  0.4681
 3373SOL    HW121578   1.529   3.457   6.468 -0.0899 -0.3115 -1.6878
 3373SOL    HW221579   1.461   3.558   6.392 -1.6270  0.6171  0.7461
 3374SOL     OW21580   0.583   2.874  11.287 -0.0116  0.2660 -0.9317
 3374SOL    HW121581   0.570   2.961  11.324 -1.6652 -0.4735  0.1826
 3374SOL    HW221582   0.611   2.821  11.361 -1.6253 -0.1158 -0.5969
 3375SOL     OW21583   1.198   1.842  14.930 -0.4488 -0.2527 -1.0196
 3375SOL    HW121584   1.205   1.864  14.837  0.7911 -0.4813 -0.9823
 3375SOL    HW221585   1.231   1.752  14.936 -0.1548  0.1061  2.5879
 3376SOL     OW21586   1.138   3.012   8.870  0.4027  0.1939  0.5877
 3376SOL    HW121587   1.179   2.971   8.946  0.6661 -1.3259 -0.3753
 3376SOL    HW221588   1.055   2.965   8.861  0.2504  0.5452  0.1549
 3377SOL     OW21589   3.618   1.895   6.611 -0.2746 -0.3525 -0.5850
 3377SOL    HW121590   3.680   1.864   6.676 -3.6139 -3.7475  0.9710
 3377SOL    HW221591   3.594   1.983   6.640 -1.8087 -1.4400  1.4376
 3378SOL     OW21592   2.963   3.651   2.449  0.6937 -0.2669 -0.0485
 3378SOL    HW121593   2.909   3.728   2.468  0.8964 -0.3588  0.8745
 3378SOL    HW221594   2.893   3.587   2.445  0.5145 -0.0328 -0.6984
 3379SOL     OW21595   2.933   1.365  12.154  0.0683  0.0653  0.1009
 3379SOL    HW121596   2.921   1.446  12.203  1.1189 -0.3918  1.0977
 3379SOL    HW221597   3.016   1.393  12.115 -1.0387 -1.7540 -3.5965
 3380SOL     OW21598   1.680   3.737  12.782 -0.0308  1.0133  0.5337
 3380SOL    HW121599   1.747   3.714  12.847 -0.6014 -0.5623  0.5506
 3380SOL    HW221600   1.684   3.654  12.734  0.3271  1.0924  0.4210
 3381SOL     OW21601   1.865   1.460  15.209  0.6236  0.2873  0.6797
 3381SOL    HW121602   1.856   1.555  15.211 -0.6965  0.1933 -0.2880
 3381SOL    HW221603   1.892   1.449  15.117 -1.3709 -1.1331  0.2761
 3382SOL     OW21604   3.100   2.232   5.951  0.2048  0.1249  0.2060
 3382SOL    HW121605   3.063   2.191   5.873 -3.3763 -1.1224  2.5630
 3382SOL    HW221606   3.195   2.227   5.942  0.0516 -0.2561 -1.2942
 3383SOL     OW21607   1.458   0.877  10.838  0.2284 -0.4819 -0.2531
 3383SOL    HW121608   1.385   0.819  10.859 -0.0720 -0.3215 -0.8387
 3383SOL    HW221609   1.512   0.857  10.914  1.8058  1.0583 -0.9975
 3384SOL     OW21610   1.189   4.005   5.614  0.5644  0.7108 -0.0364
 3384SOL    HW121611   1.099   3.973   5.614  0.9161 -0.3103 -1.2026
 3384SOL    HW221612   1.206   4.035   5.524 -1.2937  1.6250 -0.0872
 3385SOL     OW21613   0.066   1.860  13.147  0.3998  0.0137 -0.1903
 3385SOL    HW121614   4.694   1.840  13.137  0.6454 -2.0196  1.6688
 3385SOL    HW221615   0.064   1.932  13.083  0.0380  0.7053  0.5923
 3386SOL     OW21616   3.912   1.018  12.103 -0.4818 -0.5400  0.3359
 3386SOL    HW121617   3.993   1.008  12.054 -0.3034 -0.3480  0.5957
 3386SOL    HW221618   3.868   0.955  12.046  0.5244 -0.5280 -0.4328
 3387SOL     OW21619   3.141   2.606  16.976 -0.2457 -0.2567 -0.0921
 3387SOL    HW121620   3.056   2.563  16.983 -0.3015 -0.4649 -2.0466
 3387SOL    HW221621   3.145   2.650  17.061  2.5395  1.4063 -1.0877
 3388SOL     OW21622   3.043   1.318   3.266  0.3422 -0.1036 -0.8093
 3388SOL    HW121623   3.087   1.397   3.236 -1.1432  0.5265 -1.2954
 3388SOL    HW221624   3.094   1.247   3.225  1.8313 -1.6574  3.6636
 3389SOL     OW21625   4.549   0.694   2.834  0.3606  0.2284  0.7232
 3389SOL    HW121626   4.455   0.696   2.847 -0.0149 -0.4283 -1.9039
 3389SOL    HW221627   4.567   0.620   2.892 -2.5214 -1.0011  0.0451
 3390SOL     OW21628   0.730   1.454  11.043  0.0725  0.0845  0.6989
 3390SOL    HW121629   0.792   1.441  10.972  0.8311  2.5423  0.8884
 3390SOL    HW221630   0.693   1.366  11.039  0.1325  0.2667 -3.6605
 3391SOL     OW21631   1.623   1.371  15.422 -0.0862  0.4142 -0.8040
 3391SOL    HW121632   1.671   1.414  15.493  0.8383 -1.8807 -0.0513
 3391SOL    HW221633   1.688   1.309  15.390  0.1525 -0.3265  1.0837
 3392SOL     OW21634   3.709   4.151   3.219 -0.0464  0.8766  0.4649
 3392SOL    HW121635   3.801   4.177   3.216 -0.0148  0.7018 -0.1334
 3392SOL    HW221636   3.721   4.065   3.257  4.8612  1.5599  0.4707
 3393SOL     OW21637   0.619   4.639   3.699 -0.0971 -0.1393  0.6565
 3393SOL    HW121638   0.577   4.586   3.766  1.3599 -2.5626 -0.3428
 3393SOL    HW221639   0.619   0.001   3.746 -0.1094 -0.1062  0.5980
 3394SOL     OW21640   2.357   3.216   6.660  0.1523 -0.4687  0.2179
 3394SOL    HW121641   2.304   3.140   6.637  1.6321 -1.9661  1.7380
 3394SOL    HW221642   2.445   3.189   6.635 -0.0914 -1.2954  0.2596
 3395SOL     OW21643   4.179   2.460   4.160 -0.0461  0.1994 -0.2879
 3395SOL    HW121644   4.133   2.381   4.187 -2.6993  1.3308 -1.3856
 3395SOL    HW221645   4.249   2.417   4.111  0.7521 -0.0553  1.0876
 3396SOL     OW21646   2.722   4.709   5.807  0.6283 -0.2840 -0.0477
 3396SOL    HW121647   2.642   0.003   5.756  1.4620 -0.2255 -1.3389
 3396SOL    HW221648   2.706   4.619   5.835 -1.1573  0.9371  2.8895
 3397SOL     OW21649   1.961   0.102   6.548 -0.3557 -0.2965  0.4881
 3397SOL    HW121650   1.971   0.125   6.641  0.9233  1.0316  0.0302
 3397SOL    HW221651   2.055   0.087   6.537 -0.2713  0.1785  0.5568
 3398SOL     OW21652   0.645   1.559  15.843  0.4311  0.5404 -0.4404
 3398SOL    HW121653   0.560   1.539  15.803  0.7219  0.8999 -1.2322
 3398SOL    HW221654   0.639   1.529  15.933 -1.0198  1.3250 -0.2836
 3399SOL     OW21655   1.144   0.958   7.801 -0.0506 -0.0828 -0.0748
 3399SOL    HW121656   1.161   1.052   7.789  0.5546  0.0978  2.3085
 3399SOL    HW221657   1.235   0.940   7.824 -0.0702  0.1476  0.1802
 3400SOL     OW21658   2.896   2.493   3.489 -0.6804  0.4959  0.0005
 3400SOL    HW121659   2.973   2.476   3.434 -1.7752  3.3350 -2.4110
 3400SOL    HW221660   2.830   2.457   3.430 -0.3359  0.3947 -0.3252
 3401SOL     OW21661   1.967   3.283  14.172 -0.0899  0.6290  0.0301
 3401SOL    HW121662   1.911   3.243  14.106  2.4464 -2.2464 -0.3765
 3401SOL    HW221663   1.929   3.243  14.250 -2.6516  2.2707 -0.3827
 3402SOL     OW21664   2.622   2.384   2.230  0.1589  0.8158  0.2348
 3402SOL    HW121665   2.713   2.365   2.254  0.6241  3.1931  0.4020
 3402SOL    HW221666   2.615   2.319   2.160 -1.3947  0.9305  0.2958
 3403SOL     OW21667   1.413   1.587   0.370  0.3996 -0.9041  0.0323
 3403SOL    HW121668   1.333   1.534   0.362 -0.6638  0.7589 -0.4943
 3403SOL    HW221669   1.413   1.629   0.457  1.3711  0.7840 -0.7961
 3404SOL     OW21670   4.241   2.155   6.000 -0.0730 -0.5036  0.6278
 3404SOL    HW121671   4.282   2.069   5.988  0.1857 -0.3289  0.2536
 3404SOL    HW221672   4.309   2.211   5.962  1.4548 -3.0247 -0.3510
 3405SOL     OW21673   1.910   0.518  17.007  0.1684  0.0128  0.1452
 3405SOL    HW121674   1.984   0.457  17.008 -0.2077 -0.4703 -2.0996
 3405SOL    HW221675   1.916   0.555  16.919 -3.1691 -0.4746 -0.2887
 3406SOL     OW21676   0.848   2.754  12.728 -0.0087  0.3836  0.2921
 3406SOL    HW121677   0.863   2.831  12.782  0.1709  1.5481 -1.4237
 3406SOL    HW221678   0.919   2.692  12.746 -0.8329 -0.9068 -0.9103
 3407SOL     OW21679   3.758   2.213  13.340  0.3739 -0.2937 -0.1696
 3407SOL    HW121680   3.773   2.307  13.330  0.3965 -0.2853 -0.0474
 3407SOL    HW221681   3.828   2.184  13.281  1.6836 -2.5322  2.4710
 3408SOL     OW21682   0.313   1.294   2.352 -0.0512  0.0900 -0.2411
 3408SOL    HW121683   0.342   1.337   2.433  0.5201 -2.2621  0.8110
 3408SOL    HW221684   0.365   1.341   2.287 -0.6464  2.1036  0.7351
 3409SOL     OW21685   3.049   1.666  15.408  0.3344 -0.1979  0.2544
 3409SOL    HW121686   3.019   1.586  15.452 -0.3547 -0.2073 -0.2373
 3409SOL    HW221687   2.972   1.722  15.414 -0.5830 -1.3351 -0.8492
 3410SOL     OW21688   0.564   1.029   6.315 -0.5629 -0.2657 -0.1890
 3410SOL    HW121689   0.621   0.962   6.277  0.8014  0.4985  0.5363
 3410SOL    HW221690   0.532   0.992   6.397  0.3878 -0.0950  0.2499
 3411SOL     OW21691   1.840   2.772   4.121 -0.2592 -0.2132  0.1396
 3411SOL    HW121692   1.761   2.760   4.068 -0.8968 -0.8555  1.2534
 3411SOL    HW221693   1.856   2.867   4.115 -2.2270  0.1118  0.2162
 3412SOL     OW21694   2.756   2.692   1.587  1.0543  0.0014  0.5063
 3412SOL    HW121695   2.782   2.732   1.504 -0.8267 -0.5160 -0.3219
 3412SOL    HW221696   2.661   2.688   1.578  0.8681  4.4997  0.1857
 3413SOL     OW21697   4.343   2.995   7.356 -0.3111 -0.0363  0.1213
 3413SOL    HW121698   4.429   2.989   7.396 -0.1488  2.4962  0.1294
 3413SOL    HW221699   4.340   3.084   7.322 -0.3077  0.2993  1.0165
 3414SOL     OW21700   0.187   3.230  15.436 -0.2208  0.0231 -0.1400
 3414SOL    HW121701   0.276   3.261  15.415 -0.2812  0.3380  0.0677
 3414SOL    HW221702   0.147   3.259  15.354 -0.2179  0.1799 -0.0858
 3415SOL     OW21703   2.692   0.419   6.425  0.0366 -0.2770  0.6695
 3415SOL    HW121704   2.671   0.407   6.332  1.0538  0.5801  0.3245
 3415SOL    HW221705   2.629   0.489   6.441 -1.0254 -1.3605  1.1992
 3416SOL     OW21706   3.976   0.790   6.815  0.7523 -0.9824 -0.0894
 3416SOL    HW121707   4.026   0.760   6.891  1.4294 -0.9763 -0.5387
 3416SOL    HW221708   4.043   0.844   6.774 -0.5954  0.5284 -0.3465
 3417SOL     OW21709   1.734   2.480  14.992 -0.5779  0.0509  0.6401
 3417SOL    HW121710   1.741   2.554  14.932 -0.5103 -0.4663  0.0147
 3417SOL    HW221711   1.643   2.457  14.976 -0.2401 -0.7875 -0.1061
 3418SOL     OW21712   2.022   3.919  17.503  0.4325  0.1801 -0.5950
 3418SOL    HW121713   2.082   3.967  17.445  1.6311 -0.5420  0.0314
 3418SOL    HW221714   1.994   3.990  17.561  0.6434  1.0374 -1.5395
 3419SOL     OW21715   1.502   1.587  16.780  0.0497  0.5051 -1.0267
 3419SOL    HW121716   1.519   1.555  16.691  2.1275 -0.8047 -0.1522
 3419SOL    HW221717   1.525   1.679  16.765  1.1436  0.0841 -1.9928
 3420SOL     OW21718   3.311   3.589   2.723 -0.3692  0.5916 -0.1376
 3420SOL    HW121719   3.288   3.679   2.748 -1.3423 -0.0296  1.1855
 3420SOL    HW221720   3.405   3.586   2.739 -0.8711 -0.2953  2.6459
 3421SOL     OW21721   0.707   2.800   4.518  0.1232 -0.6556  0.4555
 3421SOL    HW121722   0.629   2.841   4.481 -0.9141 -1.5875  1.6151
 3421SOL    HW221723   0.695   2.820   4.611 -0.1434  0.5197  0.1769
 3422SOL     OW21724   2.025   3.449  14.822  0.3582 -0.4331  0.0012
 3422SOL    HW121725   2.076   3.524  14.853 -1.0247  0.4565  0.1192
 3422SOL    HW221726   2.014   3.476  14.731  0.0001 -0.1988  0.1135
 3423SOL     OW21727   0.632   0.416   4.729  0.2402  0.2257 -0.4124
 3423SOL    HW121728   0.538   0.410   4.746  0.4595 -0.0861  0.6625
 3423SOL    HW221729   0.645   0.511   4.729 -0.2416  0.2944 -0.9388
 3424SOL     OW21730   0.955   3.063   3.242  0.3748  0.1302  0.7078
 3424SOL    HW121731   1.014   3.004   3.288  1.6177 -0.7829 -2.0934
 3424SOL    HW221732   0.907   3.005   3.183 -0.4157  1.4971 -0.0079
 3425SOL     OW21733   3.397   1.327   7.936 -0.2449  0.3885 -0.1223
 3425SOL    HW121734   3.451   1.387   7.987 -0.7648  1.2194 -0.5649
 3425SOL    HW221735   3.329   1.326   8.003 -0.7192  0.1770 -0.6044
 3426SOL     OW21736   0.251   1.143   5.573  0.3181 -0.2447  0.0925
 3426SOL    HW121737   0.261   1.138   5.478 -0.8656  0.6477 -0.0722
 3426SOL    HW221738   0.277   1.056   5.602  0.4997 -0.5388 -0.9638
 3427SOL     OW21739   3.974   0.254   7.353 -0.0707 -0.3022 -0.3507
 3427SOL    HW121740   4.020   0.174   7.327  4.0483  1.8352  0.3589
 3427SOL    HW221741   3.889   0.243   7.310 -0.6836  0.2089  0.7393
 3428SOL     OW21742   0.984   3.309   6.377 -0.0665  0.6781 -0.9032
 3428SOL    HW121743   1.073   3.332   6.404 -0.4456 -0.4223  1.2930
 3428SOL    HW221744   0.939   3.331   6.458  0.3772  0.9818 -0.7372
 3429SOL     OW21745   0.175   2.075   5.091  0.3743  0.4679 -0.2353
 3429SOL    HW121746   0.266   2.095   5.112 -0.0017 -0.0886  2.0031
 3429SOL    HW221747   0.173   2.128   5.012  0.4431 -1.0499 -1.2456
 3430SOL     OW21748   1.741   3.821   6.204 -0.3524 -0.0967  0.3588
 3430SOL    HW121749   1.814   3.797   6.146 -0.4527 -0.1647  0.2605
 3430SOL    HW221750   1.688   3.744   6.182  0.3278 -0.2643 -0.7232
 3431SOL     OW21751   1.325   3.291   2.736  0.3139  0.3498  0.2539
 3431SOL    HW121752   1.286   3.372   2.702  2.1913  0.4139 -1.7155
 3431SOL    HW221753   1.297   3.294   2.827  1.4712 -0.5193  0.6281
 3432SOL     OW21754   3.076   3.984   3.153  0.2107 -0.1147 -0.1384
 3432SOL    HW121755   3.113   3.896   3.149  0.0936 -0.1778  0.1825
 3432SOL    HW221756   3.064   4.013   3.062 -3.6044 -1.2327  0.0247
 3433SOL     OW21757   0.600   1.039   8.659  0.3159 -0.3919 -0.4899
 3433SOL    HW121758   0.577   1.012   8.570 -0.4515  1.0327 -0.7330
 3433SOL    HW221759   0.523   1.018   8.711  1.1452  0.9588  1.2874
 3434SOL     OW21760   3.653   3.996  11.464  0.2005 -0.0831  0.1942
 3434SOL    HW121761   3.696   4.060  11.521 -0.2807  2.0640 -1.8632
 3434SOL    HW221762   3.561   3.998  11.491  0.2457 -0.4034  0.3795
 3435SOL     OW21763   3.507   4.373   1.449  0.6886 -0.3878  0.1769
 3435SOL    HW121764   3.475   4.310   1.385  0.1359 -0.7063  0.7654
 3435SOL    HW221765   3.574   4.419   1.399 -0.0980 -0.1560 -0.6711
 3436SOL     OW21766   1.082   0.163   6.057 -0.2053 -0.0918 -0.1352
 3436SOL    HW121767   1.100   0.253   6.084  0.3974  0.0713 -1.1097
 3436SOL    HW221768   1.060   0.124   6.142 -0.6228 -0.6146 -0.4873
 3437SOL     OW21769   2.708   3.141   2.597  0.0416  0.1421  0.3337
 3437SOL    HW121770   2.646   3.095   2.653  2.1070  0.2555  2.7351
 3437SOL    HW221771   2.689   3.104   2.511  0.8831  1.7110 -0.5256
 3438SOL     OW21772   4.177   2.842   7.619 -0.2328  0.1142  0.2221
 3438SOL    HW121773   4.256   2.833   7.565  0.2010  1.6599  0.6110
 3438SOL    HW221774   4.111   2.852   7.551 -0.4573  0.6013  0.5128
 3439SOL     OW21775   0.329   0.637   8.538  0.2895 -0.3476 -0.3441
 3439SOL    HW121776   0.374   0.664   8.457  2.1689  1.9407  1.4905
 3439SOL    HW221777   0.382   0.574   8.587 -1.0514 -0.0279  1.4764
 3440SOL     OW21778   1.569   2.271   7.117  0.3573 -0.0914  0.2011
 3440SOL    HW121779   1.628   2.328   7.166  2.4379 -1.0129 -1.1974
 3440SOL    HW221780   1.511   2.333   7.073  1.2999 -0.8477 -2.1457
 3441SOL     OW21781   0.814   1.088   8.092  0.4087  0.1258  0.4460
 3441SOL    HW121782   0.856   1.005   8.112 -1.5074 -1.0963 -0.6364
 3441SOL    HW221783   0.825   1.138   8.173  0.3961 -1.4947  1.4501
 3442SOL     OW21784   0.398   3.898   0.156  0.2273  0.6893 -0.3793
 3442SOL    HW121785   0.333   3.856   0.100  0.7494  0.4139 -0.7695
 3442SOL    HW221786   0.460   3.939   0.095  0.6362 -0.3262 -0.6401
 3443SOL     OW21787   2.882   0.724   8.494 -0.3991  0.4139 -0.3737
 3443SOL    HW121788   2.889   0.638   8.535 -3.9783 -0.9674 -2.6381
 3443SOL    HW221789   2.820   0.710   8.422 -0.6631 -2.7332  0.4678
 3444SOL     OW21790   1.353   0.254   6.030  0.2344 -0.1602 -0.5326
 3444SOL    HW121791   1.343   0.246   6.125  0.4330  0.5732 -0.4537
 3444SOL    HW221792   1.271   0.218   5.994  1.3951 -1.7578 -1.5749
 3445SOL     OW21793   3.830   2.049   3.232  0.3085  0.5562  0.2701
 3445SOL    HW121794   3.737   2.067   3.242  0.5520  0.5757  2.4768
 3445SOL    HW221795   3.868   2.137   3.234  0.7253  0.4353 -2.6499
 3446SOL     OW21796   2.637   1.491   5.459  0.3742  0.0654  0.6374
 3446SOL    HW121797   2.568   1.558   5.459  1.0827  0.7967 -1.3895
 3446SOL    HW221798   2.627   1.459   5.548  3.4205 -0.2125  0.8766
 3447SOL     OW21799   4.716   3.767   2.787 -0.0541 -0.4437 -0.3040
 3447SOL    HW121800   4.706   3.858   2.759 -2.9856 -0.3338  1.0847
 3447SOL    HW221801   4.684   3.719   2.710 -1.9178 -1.6747  1.2290
 3448SOL     OW21802   3.666   2.162   1.858 -0.3295  0.1974  0.0398
 3448SOL    HW121803   3.754   2.186   1.828  0.1839  0.3619  1.6783
 3448SOL    HW221804   3.672   2.066   1.862 -0.4096  0.1889 -0.0271
 3449SOL     OW21805   4.392   4.506   4.150 -0.1129  0.3296  0.0785
 3449SOL    HW121806   4.379   4.491   4.056  2.5948  1.1481 -0.4427
 3449SOL    HW221807   4.321   4.568   4.168 -0.3780 -0.5036  1.8258
 3450SOL     OW21808   3.841   1.512   2.357 -0.4089 -0.0053  0.5060
 3450SOL    HW121809   3.902   1.561   2.413 -0.8180  1.7540 -0.6008
 3450SOL    HW221810   3.797   1.449   2.413 -0.2649 -1.5062 -1.0685
 3451SOL     OW21811   1.777   2.210   4.218  0.4773 -0.8255 -0.5034
 3451SOL    HW121812   1.841   2.229   4.149  0.6400  0.8994  0.1311
 3451SOL    HW221813   1.791   2.115   4.214  1.0778 -0.7873  0.9184
 3452SOL     OW21814   4.058   3.564   8.926 -0.1096 -0.0401  0.0021
 3452SOL    HW121815   4.058   3.556   9.022 -2.4875  0.1422  0.0194
 3452SOL    HW221816   4.081   3.656   8.914  0.3855 -0.4587 -2.1615
 3453SOL     OW21817   4.013   1.938   8.711  0.5550 -0.0254  0.3121
 3453SOL    HW121818   3.989   1.860   8.661 -1.1938  0.0574  1.0425
 3453SOL    HW221819   3.925   1.972   8.728 -0.2125 -1.7936 -0.1347
 3454SOL     OW21820   1.484   0.234  14.042 -0.2056 -0.2251  0.7916
 3454SOL    HW121821   1.575   0.262  14.051 -0.1684  0.5362 -1.9757
 3454SOL    HW221822   1.485   0.156  13.987  1.8813 -1.5257  2.7060
 3455SOL     OW21823   0.179   1.967   5.523  0.0616  0.2159  0.3502
 3455SOL    HW121824   0.151   2.000   5.609  2.2003  0.1091  1.0909
 3455SOL    HW221825   0.270   1.940   5.535  0.1757  0.6074  0.3714
 3456SOL     OW21826   4.457   0.586   6.625  0.1814  0.3828 -0.3475
 3456SOL    HW121827   4.415   0.664   6.589 -0.9339 -0.2556 -0.4037
 3456SOL    HW221828   4.390   0.522   6.603 -0.9157  0.7848  1.7567
 3457SOL     OW21829   4.064   3.069  11.838  0.0338 -0.2735  0.2230
 3457SOL    HW121830   3.971   3.050  11.854  0.0774 -1.2589 -0.6564
 3457SOL    HW221831   4.088   3.043  11.927  0.1550 -0.3117  0.1792
 3458SOL     OW21832   1.015   0.443   3.975  0.0286  0.7649 -0.0835
 3458SOL    HW121833   0.969   0.525   3.959 -1.2601  0.0326 -0.1771
 3458SOL    HW221834   1.040   0.421   3.885  1.0196  1.0532  0.1254
 3459SOL     OW21835   2.566   4.307   8.290  0.0364 -0.3122 -0.4487
 3459SOL    HW121836   2.558   4.401   8.307 -0.3431 -0.4662  0.2024
 3459SOL    HW221837   2.534   4.308   8.200  0.3007 -0.3734 -0.5455
 3460SOL     OW21838   3.528   2.354   6.314 -0.4069  0.2682 -0.1152
 3460SOL    HW121839   3.618   2.323   6.299 -0.5938  0.3578 -1.4181
 3460SOL    HW221840   3.495   2.339   6.226  1.6449 -1.9903 -0.5164
 3461SOL     OW21841   3.983   2.463   6.323  0.5077 -0.3432 -0.3039
 3461SOL    HW121842   4.027   2.389   6.281  1.6142 -0.7699  1.6193
 3461SOL    HW221843   3.959   2.426   6.408 -1.4760 -0.2820 -0.8377
 3462SOL     OW21844   1.106   0.284  16.396  0.0115  0.0998 -0.5343
 3462SOL    HW121845   1.095   0.189  16.384 -0.8342 -0.1148  1.8859
 3462SOL    HW221846   1.085   0.296  16.489  2.9162 -1.1468  0.3000
 3463SOL     OW21847   0.260   0.877   1.828 -0.2186 -0.1501 -0.2089
 3463SOL    HW121848   0.242   0.969   1.807  1.3414  0.1806 -0.0670
 3463SOL    HW221849   0.349   0.881   1.863 -0.1774  0.3455 -0.3699
 3464SOL     OW21850   3.532   3.020  16.651 -0.3243  0.1794 -0.3765
 3464SOL    HW121851   3.526   2.968  16.731 -0.1542 -0.6692 -0.9083
 3464SOL    HW221852   3.560   2.952  16.589 -0.8798  0.7336 -1.2410
 3465SOL     OW21853   2.042   4.627   2.214  0.0843  0.0776  0.1307
 3465SOL    HW121854   2.033   4.545   2.166 -0.0166 -0.0600  0.3864
 3465SOL    HW221855   2.051   4.687   2.139  0.1581 -1.1191 -0.8066
 3466SOL     OW21856   4.208   0.149   8.521  0.6774  0.2277 -0.0224
 3466SOL    HW121857   4.196   0.244   8.532  1.5708  0.0314  2.7531
 3466SOL    HW221858   4.256   0.124   8.600  3.2475 -0.1238 -1.6592
 3467SOL     OW21859   3.648   2.391   2.631 -0.0691  0.3754 -0.4250
 3467SOL    HW121860   3.564   2.424   2.599 -1.6023 -1.7327  1.3928
 3467SOL    HW221861   3.615   2.319   2.685  0.0042 -1.1939 -2.4861
 3468SOL     OW21862   1.559   1.954   7.344  0.2901  0.3536 -0.2902
 3468SOL    HW121863   1.518   1.890   7.402 -0.2223 -1.5286 -2.7706
 3468SOL    HW221864   1.623   1.993   7.404  0.9057 -0.6111 -0.3300
 3469SOL     OW21865   3.552   4.378   2.766  0.2124  0.2140 -0.2161
 3469SOL    HW121866   3.630   4.322   2.765 -0.9968 -1.4749  0.2199
 3469SOL    HW221867   3.524   4.354   2.678 -0.4465  1.9868 -0.4993
 3470SOL     OW21868   1.840   1.729   2.078 -1.0116  1.1375 -0.0781
 3470SOL    HW121869   1.882   1.667   2.137 -0.1021  4.2335  2.5371
 3470SOL    HW221870   1.782   1.669   2.032 -0.1787 -1.2240  1.9865
 3471SOL     OW21871   0.980   1.602   2.446  0.1449  0.1461  0.1150
 3471SOL    HW121872   0.939   1.671   2.498  2.2643 -0.4677  2.5654
 3471SOL    HW221873   0.901   1.556   2.416  0.0836  1.2008 -1.3549
 3472SOL     OW21874   1.771   0.095  13.523 -0.2925 -0.2278  0.1855
 3472SOL    HW121875   1.738   0.135  13.442  3.0691  0.8610 -0.6681
 3472SOL    HW221876   1.864   0.113  13.512 -0.1535 -1.6955 -1.0656
 3473SOL     OW21877   2.810   0.153   0.094  0.1255  0.3141  0.1807
 3473SOL    HW121878   2.803   0.058   0.091  0.8549  0.1869  2.2354
 3473SOL    HW221879   2.790   0.165   0.187  1.1315  1.2299  0.2784
 3474SOL     OW21880   2.015   0.672  12.110 -0.1279 -0.1347 -0.1609
 3474SOL    HW121881   2.023   0.579  12.134  0.9185  0.5662  2.1824
 3474SOL    HW221882   1.966   0.707  12.184  1.1422  2.9184 -0.7733
 3475SOL     OW21883   0.773   0.703   4.342  0.3822 -0.3582 -0.0002
 3475SOL    HW121884   0.691   0.688   4.391 -0.8987  1.9100 -1.4365
 3475SOL    HW221885   0.747   0.780   4.293 -0.1324 -1.4928 -1.5122
 3476SOL     OW21886   1.084   3.420  12.833 -0.1751 -0.2632 -0.8162
 3476SOL    HW121887   1.136   3.491  12.871 -0.1478 -1.2700  1.0262
 3476SOL    HW221888   1.132   3.342  12.862 -0.8266 -0.4146 -0.1465
 3477SOL     OW21889   0.558   3.613   0.284  0.8352 -0.5709 -0.0742
 3477SOL    HW121890   0.491   3.561   0.239  1.0733 -1.7036  0.8788
 3477SOL    HW221891   0.613   3.653   0.216  1.9199 -0.7673  0.6822
 3478SOL     OW21892   1.671   2.767  10.216  0.0218 -0.2774 -0.3829
 3478SOL    HW121893   1.739   2.823  10.252  0.4875  0.3021 -2.1571
 3478SOL    HW221894   1.704   2.733  10.133  0.4000  1.3948 -0.9166
 3479SOL     OW21895   2.899   0.563   5.590  0.1069  0.1137 -0.3825
 3479SOL    HW121896   2.981   0.581   5.544 -0.0113 -0.3378 -0.7762
 3479SOL    HW221897   2.927   0.522   5.672 -1.9208  0.2863  0.3999
 3480SOL     OW21898   3.773   0.031  16.500  0.0635 -0.5021 -0.0304
 3480SOL    HW121899   3.705   4.712  16.446 -2.5486  1.1979  1.9514
 3480SOL    HW221900   3.800   0.111  16.455  1.9717 -1.4868 -0.6491
 3481SOL     OW21901   0.165   0.816  13.845 -0.0994 -0.4905  0.4921
 3481SOL    HW121902   0.071   0.815  13.824  0.0896  1.4937 -0.4927
 3481SOL    HW221903   0.194   0.728  13.821  0.3260 -0.7760  2.0811
 3482SOL     OW21904   0.504   3.498  11.488 -0.1824 -0.0403 -0.2302
 3482SOL    HW121905   0.590   3.510  11.447  0.5652  0.5302  1.4955
 3482SOL    HW221906   0.478   3.588  11.503 -1.6099 -0.4928  0.0213
 3483SOL     OW21907   1.355   4.345   8.079  0.0095  0.2105 -0.0365
 3483SOL    HW121908   1.374   4.317   8.169  0.3842  0.3085 -0.0864
 3483SOL    HW221909   1.395   4.431   8.070  0.9289 -0.3317 -1.1162
 3484SOL     OW21910   3.806   2.311   2.174  0.2256  0.4286  0.2553
 3484SOL    HW121911   3.726   2.286   2.127  1.1276 -4.2185  1.1717
 3484SOL    HW221912   3.818   2.394   2.129  2.4558  0.8252  1.5963
 3485SOL     OW21913   2.622   2.483   2.891 -0.2336 -0.1487  0.9997
 3485SOL    HW121914   2.596   2.422   2.960  1.0719 -1.6223  0.1859
 3485SOL    HW221915   2.661   2.561   2.932  0.6313 -0.0434 -0.0410
 3486SOL     OW21916   1.900   3.761   8.880 -0.3334  0.1005 -0.0541
 3486SOL    HW121917   1.918   3.683   8.933  1.3550  1.8206  1.9238
 3486SOL    HW221918   1.893   3.719   8.794 -2.8439  0.6659 -0.0980
 3487SOL     OW21919   4.428   2.239  12.336  0.0807 -0.2498  0.3162
 3487SOL    HW121920   4.351   2.183  12.352 -0.4131  0.7121  1.2522
 3487SOL    HW221921   4.499   2.177  12.353 -2.3595 -3.3209 -0.6313
 3488SOL     OW21922   0.833   0.647  15.750 -0.0775 -0.2265 -0.5027
 3488SOL    HW121923   0.904   0.628  15.812  1.0190  2.6646 -0.8415
 3488SOL    HW221924   0.796   0.559  15.757 -1.4569  0.5124  1.3950
 3489SOL     OW21925   3.145   0.286   0.646 -0.0332 -0.1248 -0.0410
 3489SOL    HW121926   3.128   0.223   0.716  0.6421 -0.1679  0.0775
 3489SOL    HW221927   3.227   0.249   0.614  1.6034  1.7363  2.0238
 3490SOL     OW21928   1.356   4.649   8.212  0.3443 -0.1911 -0.0125
 3490SOL    HW121929   1.402   0.007   8.238 -0.7593  1.2529 -2.5185
 3490SOL    HW221930   1.276   4.682   8.171 -1.7786 -0.7950  3.6664
 3491SOL     OW21931   2.251   0.155   0.948  0.0139  0.8087  0.1474
 3491SOL    HW121932   2.185   0.171   0.880 -1.9621  0.8133  2.0490
 3491SOL    HW221933   2.295   0.238   0.962  1.4622  0.0773 -0.1350
 3492SOL     OW21934   3.410   1.619   8.409  0.8552 -0.2021 -0.0458
 3492SOL    HW121935   3.382   1.598   8.498 -0.4629  0.8446 -0.2146
 3492SOL    HW221936   3.483   1.558   8.408  0.8314 -0.2389  0.6576
 3493SOL     OW21937   0.194   2.386   2.149  0.4907  0.1369  0.5764
 3493SOL    HW121938   0.189   2.443   2.226 -1.9997 -0.3814  0.7914
 3493SOL    HW221939   0.110   2.389   2.103  1.0292 -1.1668 -0.4999
 3494SOL     OW21940   0.184   0.833   2.290  0.5701  0.6398 -0.3955
 3494SOL    HW121941   0.194   0.916   2.337  1.0685 -0.3682  1.2799
 3494SOL    HW221942   0.104   0.846   2.238 -0.1168 -0.7451  0.3010
 3495SOL     OW21943   0.561   2.173   7.735  0.6197  0.0911 -0.2758
 3495SOL    HW121944   0.488   2.111   7.724 -0.8755  2.3335 -3.0962
 3495SOL    HW221945   0.635   2.117   7.713  0.5482 -0.1472  0.0930
 3496SOL     OW21946   1.735   0.287   1.665 -0.1908 -0.0768  0.4158
 3496SOL    HW121947   1.786   0.291   1.746  0.2012  1.9566  0.0853
 3496SOL    HW221948   1.774   0.207   1.629 -2.8224 -0.1338 -2.3499
 3497SOL     OW21949   4.424   2.907  10.181 -0.3859  0.1158  0.3498
 3497SOL    HW121950   4.477   2.866  10.250 -0.1907  1.0056  0.7325
 3497SOL    HW221951   4.370   2.964  10.236  0.1237  1.4210 -0.4811
 3498SOL     OW21952   2.479   4.463   9.510  0.2677 -0.0017 -0.2354
 3498SOL    HW121953   2.528   4.387   9.478 -2.2417 -0.7711 -2.2686
 3498SOL    HW221954   2.494   4.468   9.604  0.2425  1.9038 -0.3324
 3499SOL     OW21955   1.784   1.866  12.788 -0.4043  0.2319 -0.2000
 3499SOL    HW121956   1.808   1.941  12.843 -0.3260 -1.2039  1.6968
 3499SOL    HW221957   1.852   1.802  12.808 -0.8753 -0.5659 -1.1792
 3500SOL     OW21958   0.803   2.377  12.046  0.5478  0.6020 -0.2773
 3500SOL    HW121959   0.828   2.314  12.113  1.4429  0.4626 -0.7358
 3500SOL    HW221960   0.750   2.442  12.091 -0.1976 -0.8608  0.9730
 3501SOL     OW21961   0.011   3.068  14.961  0.3309 -0.4463 -0.2187
 3501SOL    HW121962   0.097   3.053  14.921  1.2195  0.8782  1.2255
 3501SOL    HW221963   4.694   3.135  14.903  1.6249 -0.7167 -1.3938
 3502SOL     OW21964   3.371   0.549  17.145 -0.1010  0.0280  0.5159
 3502SOL    HW121965   3.327   0.548  17.230  1.0113 -2.4134  1.0803
 3502SOL    HW221966   3.301   0.589  17.095 -0.9796 -0.1931  1.5662
 3503SOL     OW21967   2.127   1.154  15.410 -0.1299 -0.2521 -0.3989
 3503SOL    HW121968   2.150   1.152  15.503 -0.6052 -1.3598 -0.3046
 3503SOL    HW221969   2.082   1.238  15.417  0.1420 -0.0920 -0.5451
 3504SOL     OW21970   0.188   0.786   3.591 -0.2977  0.5092  0.3053
 3504SOL    HW121971   0.182   0.798   3.686 -0.8620  0.4109  0.2827
 3504SOL    HW221972   0.189   0.871   3.548 -0.2243 -0.8653 -2.3992
 3505SOL     OW21973   3.953   0.924  12.659 -0.0147  0.1348  0.5977
 3505SOL    HW121974   4.015   0.892  12.595 -0.5088  0.9986 -0.3180
 3505SOL    HW221975   3.870   0.931  12.611  0.4804 -0.0079 -0.2581
 3506SOL     OW21976   4.222   4.192   1.998  0.2249  0.8293  0.9074
 3506SOL    HW121977   4.139   4.148   2.017 -0.1751  1.0822 -0.2614
 3506SOL    HW221978   4.281   4.125   1.961 -0.7135  0.9802 -0.8583
 3507SOL     OW21979   2.761   3.446   5.179 -0.0781 -0.6430  0.0711
 3507SOL    HW121980   2.667   3.436   5.162 -0.1164 -0.7349  0.3434
 3507SOL    HW221981   2.797   3.358   5.181 -2.1984 -1.5033  0.6149
 3508SOL     OW21982   4.073   3.522   6.217  0.5208  0.0895 -0.0459
 3508SOL    HW121983   4.104   3.538   6.306 -0.3092  2.2750 -0.1372
 3508SOL    HW221984   4.100   3.431   6.205  2.6062  1.0661 -2.8617
 3509SOL     OW21985   0.676   2.152   9.775  0.3728 -0.3199  0.4317
 3509SOL    HW121986   0.704   2.061   9.764  1.2230  0.1041 -0.8957
 3509SOL    HW221987   0.733   2.166   9.851 -1.3814  0.2636  1.6404
 3510SOL     OW21988   4.164   3.343  12.035 -0.0278 -0.0302 -0.1230
 3510SOL    HW121989   4.103   3.391  11.978 -0.8034  0.6475  1.2936
 3510SOL    HW221990   4.159   3.396  12.114  1.0465  0.1879 -0.2043
 3511SOL     OW21991   4.614   2.320  14.550  0.7316  0.6265  0.1138
 3511SOL    HW121992   4.649   2.410  14.551  0.0312  0.8747  5.9357
 3511SOL    HW221993   4.525   2.341  14.522  1.0849  1.9998  0.0251
 3512SOL     OW21994   0.526   0.557   2.735 -0.7482  0.1502 -0.5317
 3512SOL    HW121995   0.468   0.486   2.705 -0.5653  0.7043 -2.2035
 3512SOL    HW221996   0.614   0.521   2.724 -0.3454  1.0963 -0.3995
 3513SOL     OW21997   1.380   1.774   7.099 -0.1419 -0.0378  0.3022
 3513SOL    HW121998   1.402   1.867   7.097  1.5426 -0.4445  0.1646
 3513SOL    HW221999   1.459   1.727   7.072  0.3056 -0.0797  1.7065
 3514SOL     OW22000   1.345   1.890   3.814  0.3994 -0.9905  0.2905
 3514SOL    HW122001   1.260   1.926   3.840  1.6961  1.0638  1.6729
 3514SOL    HW222002   1.408   1.940   3.865  0.5235  1.0749 -1.8986
 3515SOL     OW22003   1.080   4.044   5.316  0.0742  0.3781 -0.0365
 3515SOL    HW122004   1.114   3.963   5.279  0.6178  0.8073 -0.4911
 3515SOL    HW222005   1.024   4.074   5.245  0.2744 -0.1780 -0.4304
 3516SOL     OW22006   1.695   0.712   6.491  0.0717  0.0046 -0.2624
 3516SOL    HW122007   1.679   0.635   6.437 -1.3989  1.4209 -1.8300
 3516SOL    HW222008   1.680   0.670   6.575 -0.5689  1.9569  0.6083
 3517SOL     OW22009   0.103   4.113   4.755 -0.1492 -0.2862 -0.4093
 3517SOL    HW122010   0.139   4.125   4.667  0.7284  0.5782  0.0689
 3517SOL    HW222011   0.044   4.039   4.743 -1.4904  0.3876  2.2409
 3518SOL     OW22012   0.385   3.590   5.516  0.0859  0.9249  0.1126
 3518SOL    HW122013   0.368   3.550   5.602 -0.0662 -0.3297 -0.4929
 3518SOL    HW222014   0.374   3.506   5.472 -1.2392  2.0825 -1.7952
 3519SOL     OW22015   3.086   2.521  10.107 -0.3875  0.0918  0.6436
 3519SOL    HW122016   3.121   2.497  10.021 -2.0547  1.0103 -0.2879
 3519SOL    HW222017   3.166   2.532  10.159  1.4942 -0.1140 -2.1750
 3520SOL     OW22018   2.103   3.091   0.406  0.6996  0.6796  0.0196
 3520SOL    HW122019   2.171   3.033   0.440  0.4187 -0.6350 -1.6560
 3520SOL    HW222020   2.095   3.065   0.314 -0.9951  0.1479  0.3204
 3521SOL     OW22021   1.879   1.589  15.856 -0.0655  0.3808 -0.0512
 3521SOL    HW122022   1.971   1.564  15.851 -0.8416 -2.1630 -1.9905
 3521SOL    HW222023   1.889   1.683  15.847  2.8878  0.1605  0.9551
 3522SOL     OW22024   1.845   1.506  14.426 -0.2875 -0.0683 -0.5471
 3522SOL    HW122025   1.831   1.576  14.363 -0.2062 -0.2751 -0.7967
 3522SOL    HW222026   1.816   1.438  14.366 -0.9799 -0.6396  0.4389
 3523SOL     OW22027   2.313   2.979  12.058 -0.0566 -0.2529 -0.1337
 3523SOL    HW122028   2.266   2.944  11.982 -3.9251  0.4914  1.9241
 3523SOL    HW222029   2.339   2.896  12.099  2.3499  0.2459 -0.5980
 3524SOL     OW22030   3.824   3.363   5.947 -0.1484 -0.0836  0.3294
 3524SOL    HW122031   3.880   3.286   5.963 -0.5987 -1.1383 -3.3052
 3524SOL    HW222032   3.841   3.383   5.855  0.7742 -0.6498  0.3708
 3525SOL     OW22033   1.852   3.007   8.544  0.0012  0.2817  0.4630
 3525SOL    HW122034   1.862   3.098   8.517 -0.9702 -0.1900 -1.5337
 3525SOL    HW222035   1.824   2.978   8.457 -4.0427 -0.0211  1.8709
 3526SOL     OW22036   0.199   4.091   0.214  0.3571  0.1302 -0.8917
 3526SOL    HW122037   0.209   4.160   0.148 -0.0888  1.9798  0.9994
 3526SOL    HW222038   0.268   4.027   0.197  2.6830  2.3719  0.0735
 3527SOL     OW22039   1.002   3.077   3.688  0.2264 -0.0649  0.0297
 3527SOL    HW122040   1.090   3.058   3.721 -0.4674 -0.6381  1.5885
 3527SOL    HW222041   0.987   2.989   3.653 -2.4969  1.8014 -3.4502
 3528SOL     OW22042   2.935   2.210  17.194 -0.0549  0.3610  0.8225
 3528SOL    HW122043   2.863   2.153  17.168 -0.5427  0.5857  1.6537
 3528SOL    HW222044   2.986   2.146  17.244  0.2624  0.5346  0.7204
 3529SOL     OW22045   2.614   3.617   5.689  0.2678 -0.6983 -0.0562
 3529SOL    HW122046   2.569   3.586   5.611  0.4196 -0.7846 -0.1097
 3529SOL    HW222047   2.651   3.697   5.652  1.5148 -2.5208 -2.6920
 3530SOL     OW22048   2.809   0.237  11.507 -0.0605 -0.2588 -0.1216
 3530SOL    HW122049   2.902   0.260  11.500 -0.3460  0.7985 -0.3734
 3530SOL    HW222050   2.789   0.241  11.600  0.0362 -0.0421 -0.1123
 3531SOL     OW22051   1.385   0.402   5.461  0.2889  0.7027  0.0787
 3531SOL    HW122052   1.461   0.460   5.467  0.6947  0.1427  0.4089
 3531SOL    HW222053   1.397   0.370   5.372  0.6390  1.1859 -0.0511
 3532SOL     OW22054   0.776   3.936   5.985 -0.5660 -0.2313 -0.0848
 3532SOL    HW122055   0.820   3.995   5.924  1.5138  0.4230  2.0400
 3532SOL    HW222056   0.769   3.862   5.924  0.3521 -2.0736  2.0333
 3533SOL     OW22057   3.557   2.679  10.936  0.3830  0.3399 -0.0110
 3533SOL    HW122058   3.526   2.767  10.957 -1.1786 -0.9193  2.8982
 3533SOL    HW222059   3.634   2.676  10.993 -0.6246  0.8966  1.3746
 3534SOL     OW22060   2.460   2.151   3.648  0.1850 -0.5271  0.1935
 3534SOL    HW122061   2.530   2.086   3.655 -2.2827 -3.1423  0.7633
 3534SOL    HW222062   2.381   2.097   3.644  0.8913 -1.6518  1.3309
 3535SOL     OW22063   2.098   3.634   4.091 -0.4525 -0.5384  0.2897
 3535SOL    HW122064   2.065   3.545   4.105  0.8510 -1.1029 -0.1786
 3535SOL    HW222065   2.192   3.616   4.094 -0.6591 -1.8981 -1.5559
 3536SOL     OW22066   2.776   4.446   3.532  0.2712 -0.3562  0.0813
 3536SOL    HW122067   2.832   4.421   3.459 -2.1429  0.9232 -2.1990
 3536SOL    HW222068   2.820   4.392   3.598 -1.8830 -2.1422  0.0596
 3537SOL     OW22069   1.338   2.670  10.869 -0.1936 -0.0371  0.7325
 3537SOL    HW122070   1.398   2.649  10.798 -2.5151 -1.2013 -0.8833
 3537SOL    HW222071   1.260   2.626  10.835 -1.1287  0.1381  2.6025
 3538SOL     OW22072   3.118   2.409   4.229  0.1733  0.4370  0.2137
 3538SOL    HW122073   3.064   2.421   4.151  0.2902  1.3776  0.2813
 3538SOL    HW222074   3.068   2.445   4.302 -0.8338 -2.8583  1.1804
 3539SOL     OW22075   2.487   1.231  15.524 -0.4679 -0.2180  0.4111
 3539SOL    HW122076   2.508   1.203  15.613  0.4416 -1.7360 -0.2819
 3539SOL    HW222077   2.393   1.246  15.536  0.0638  0.5587  3.6749
 3540SOL     OW22078   4.294   4.342   4.699  0.1758 -0.6769 -0.2143
 3540SOL    HW122079   4.354   4.335   4.773  0.3145 -0.1280 -0.2737
 3540SOL    HW222080   4.211   4.310   4.735  0.0620 -0.6022 -0.4133
 3541SOL     OW22081   1.854   0.895   3.702 -0.6992  0.8015 -0.1923
 3541SOL    HW122082   1.771   0.942   3.715 -0.8528  0.6245 -0.5324
 3541SOL    HW222083   1.832   0.836   3.631  3.1223 -2.3215  1.2626
 3542SOL     OW22084   1.173   4.123   2.590  0.0746  0.2449  0.5181
 3542SOL    HW122085   1.193   4.041   2.545  2.1498  0.9825  0.0842
 3542SOL    HW222086   1.253   4.172   2.569 -0.3551  0.8530  0.3384
 3543SOL     OW22087   2.506   2.589   5.832 -0.4777  0.0830  0.3899
 3543SOL    HW122088   2.549   2.558   5.912 -1.0109  0.5177  0.8462
 3543SOL    HW222089   2.505   2.682   5.851  0.5353  0.1864 -0.0737
 3544SOL     OW22090   4.473   2.227  11.006  1.3873  0.1213  0.0629
 3544SOL    HW122091   4.382   2.199  11.017  1.7643 -1.9827 -2.2692
 3544SOL    HW222092   4.504   2.185  10.926  0.3469 -0.7331  0.1036
 3545SOL     OW22093   2.823   2.979  10.471 -0.3118 -0.2257 -0.6753
 3545SOL    HW122094   2.774   2.976  10.388 -0.8920  0.8948 -0.3690
 3545SOL    HW222095   2.838   3.073  10.477  1.2259 -0.8597  4.7269
 3546SOL     OW22096   2.773   3.494   1.232 -0.5179 -0.0788  0.2013
 3546SOL    HW122097   2.783   3.439   1.309 -0.5030 -0.4123 -0.0373
 3546SOL    HW222098   2.700   3.552   1.253 -0.0709  0.7756 -0.6053
 3547SOL     OW22099   2.754   0.723  10.683 -0.0013  0.0363  0.5419
 3547SOL    HW122100   2.722   0.638  10.651  0.8736  0.0867 -0.4577
 3547SOL    HW222101   2.725   0.780  10.611  0.2890 -1.8322 -1.0742
 3548SOL     OW22102   1.011   2.981   8.249  0.0526 -0.2183 -0.1516
 3548SOL    HW122103   1.038   3.072   8.235  3.4367 -1.2592 -0.1680
 3548SOL    HW222104   0.991   2.976   8.342  1.8255 -1.2447  0.1705
 3549SOL     OW22105   3.372   2.439   2.561 -0.2544  0.0485  0.1839
 3549SOL    HW122106   3.316   2.378   2.513  0.4303 -1.5119  1.3824
 3549SOL    HW222107   3.317   2.466   2.634 -0.5313  0.7099 -0.2671
 3550SOL     OW22108   4.571   2.411   8.510 -0.3755 -0.0761  0.3567
 3550SOL    HW122109   4.583   2.414   8.415 -2.2128 -0.9838  0.0912
 3550SOL    HW222110   4.512   2.486   8.518 -1.0486 -0.4388 -1.1622
 3551SOL     OW22111   3.081   0.198   4.141 -0.1922  0.0197 -0.0328
 3551SOL    HW122112   3.055   0.117   4.096  0.7715 -1.0871  1.3746
 3551SOL    HW222113   3.170   0.209   4.110 -0.0499 -2.6146 -0.5995
 3552SOL     OW22114   0.483   1.716   9.214  0.1032 -0.0252  0.4140
 3552SOL    HW122115   0.411   1.677   9.164 -1.4214  2.6586  0.4757
 3552SOL    HW222116   0.456   1.689   9.302 -2.7720  1.3979 -0.0145
 3553SOL     OW22117   2.045   0.378   5.917 -0.2490  0.5084 -0.2508
 3553SOL    HW122118   1.994   0.442   5.868  1.7078  0.8448 -1.8363
 3553SOL    HW222119   1.988   0.311   5.956  1.4463 -0.5631  0.3740
 3554SOL     OW22120   2.090   0.780  11.511 -0.0570  0.0052 -0.2704
 3554SOL    HW122121   2.151   0.781  11.584 -2.1870  2.2052  1.4793
 3554SOL    HW222122   2.119   0.858  11.464 -0.2545  1.1920  1.5987
 3555SOL     OW22123   1.674   0.918  11.309 -0.1153  0.3874 -0.2139
 3555SOL    HW122124   1.656   0.862  11.385 -0.9053 -0.4937 -1.0361
 3555SOL    HW222125   1.766   0.941  11.305 -0.1187  0.3397 -0.5509
 3556SOL     OW22126   1.634   1.907  12.544 -0.0633  0.0786 -0.5038
 3556SOL    HW122127   1.541   1.895  12.563  0.2570 -0.9981  0.3537
 3556SOL    HW222128   1.675   1.902  12.630  2.4767 -0.7866 -1.7597
 3557SOL     OW22129   3.984   1.394   1.044  0.1181  0.6045  0.1295
 3557SOL    HW122130   4.006   1.329   0.977  0.2891  1.5449 -0.7230
 3557SOL    HW222131   3.960   1.338   1.118  0.5726  1.7058  1.0940
 3558SOL     OW22132   2.986   3.319   7.689  0.4251 -0.5903 -0.2422
 3558SOL    HW122133   2.932   3.294   7.614  0.9188  1.6752 -1.3209
 3558SOL    HW222134   2.940   3.275   7.761 -1.8093  0.0328 -1.2966
 3559SOL     OW22135   1.523   4.335   2.238  0.1196  0.7306 -0.6430
 3559SOL    HW122136   1.614   4.363   2.229  1.0358 -1.7088  0.9372
 3559SOL    HW222137   1.525   4.264   2.174 -0.6412 -0.3087  0.4950
 3560SOL     OW22138   3.373   0.849   2.052  0.0186  0.5999  0.2515
 3560SOL    HW122139   3.416   0.847   1.966 -1.9298 -1.2223 -0.7089
 3560SOL    HW222140   3.453   0.835   2.103 -1.2638 -1.5909  1.6608
 3561SOL     OW22141   0.144   2.097   3.723 -0.2071  0.1199 -0.2414
 3561SOL    HW122142   0.091   2.156   3.776  0.6605  1.3380 -0.7497
 3561SOL    HW222143   0.229   2.127   3.755 -1.2322  2.3744  0.3346
 3562SOL     OW22144   0.634   4.294   5.703 -0.5552  0.9229  0.7793
 3562SOL    HW122145   0.564   4.333   5.651  0.6181  0.5174 -1.0906
 3562SOL    HW222146   0.591   4.208   5.711 -0.2050  0.3666 -3.5618
 3563SOL     OW22147   1.952   0.572  11.380 -0.3534 -0.1722 -0.2582
 3563SOL    HW122148   2.033   0.528  11.407 -0.0582  1.1040  0.9516
 3563SOL    HW222149   1.964   0.655  11.425 -1.4366 -1.0824  1.7076
 3564SOL     OW22150   3.097   2.906   4.825  0.0077  0.6973  0.4540
 3564SOL    HW122151   3.016   2.951   4.847 -1.6770 -0.8174 -2.7173
 3564SOL    HW222152   3.141   2.899   4.910  2.2332  0.0555 -0.7540
 3565SOL     OW22153   0.822   0.970  14.983 -0.2835  0.2456 -0.2719
 3565SOL    HW122154   0.739   0.990  15.028  0.2606  1.3556  0.2272
 3565SOL    HW222155   0.852   0.895  15.034  0.8603  0.0326 -1.2770
 3566SOL     OW22156   0.209   4.220   3.245 -0.1184  0.4180 -0.4730
 3566SOL    HW122157   0.281   4.165   3.215  1.6920  2.2258  0.5271
 3566SOL    HW222158   0.239   4.218   3.336 -1.2172  1.3688 -0.0879
 3567SOL     OW22159   3.473   2.984   3.608  0.1255  0.3449 -0.0310
 3567SOL    HW122160   3.397   2.927   3.618  0.5922 -0.2104  0.3443
 3567SOL    HW222161   3.539   2.920   3.582 -0.7203 -0.6326  0.2272
 3568SOL     OW22162   2.235   4.287  16.229 -0.0714 -0.5793  0.1338
 3568SOL    HW122163   2.205   4.357  16.171  0.2261  1.0835  2.0066
 3568SOL    HW222164   2.308   4.252  16.178  0.2270  0.7721 -0.3599
 3569SOL     OW22165   1.390   1.207   4.966 -0.0109 -0.1108 -0.0449
 3569SOL    HW122166   1.471   1.166   4.937 -1.4766 -1.6612 -1.9497
 3569SOL    HW222167   1.431   1.290   4.987 -0.2427  0.1456 -0.6211
 3570SOL     OW22168   4.129   1.688   7.889  0.2493 -0.0754  0.3389
 3570SOL    HW122169   4.201   1.706   7.829 -0.3528 -1.2815 -0.7399
 3570SOL    HW222170   4.146   1.754   7.956  1.8878 -0.7090  0.5479
 3571SOL     OW22171   1.941   0.861   7.354 -0.2066  0.3405 -0.0845
 3571SOL    HW122172   1.910   0.922   7.421 -0.2071 -0.2966  0.5032
 3571SOL    HW222173   2.008   0.810   7.401 -1.0966 -0.9318 -0.1917
 3572SOL     OW22174   1.376   0.871  11.407 -0.2594  0.2397 -0.5415
 3572SOL    HW122175   1.429   0.917  11.471  0.6568  0.1770 -1.2407
 3572SOL    HW222176   1.291   0.913  11.410 -1.0218 -1.2524 -1.2221
 3573SOL     OW22177   4.013   2.743   5.945 -0.3823  0.2309 -0.0028
 3573SOL    HW122178   3.949   2.689   5.899  1.0837 -2.3402  0.9457
 3573SOL    HW222179   3.963   2.807   5.995  0.7166  0.8690  0.2882
 3574SOL     OW22180   0.792   1.432  16.397  0.5181  0.1280 -0.5698
 3574SOL    HW122181   0.825   1.427  16.487 -0.8756  0.6729 -0.0134
 3574SOL    HW222182   0.748   1.348  16.380 -1.1930  0.4864  2.0061
 3575SOL     OW22183   3.381   1.590  15.715 -0.5864  0.0189  0.3862
 3575SOL    HW122184   3.298   1.638  15.719 -1.2995 -0.9207 -2.6466
 3575SOL    HW222185   3.438   1.667  15.705  0.9747 -1.1593  0.2198
 3576SOL     OW22186   1.496   0.505   0.813  0.0698  0.4694 -0.6735
 3576SOL    HW122187   1.453   0.487   0.896 -0.8197 -0.5790 -1.3615
 3576SOL    HW222188   1.565   0.438   0.813 -0.1802  0.2356  1.3490
 3577SOL     OW22189   3.047   0.156   7.215  0.4749  0.0347  0.4736
 3577SOL    HW122190   3.107   0.186   7.283  0.9662  0.0512  0.0321
 3577SOL    HW222191   3.033   0.069   7.252  0.4279 -0.2252 -0.1447
 3578SOL     OW22192   0.711   2.275   9.172  0.1109  0.3320 -0.6543
 3578SOL    HW122193   0.709   2.200   9.231  1.5700  1.4154  0.7619
 3578SOL    HW222194   0.637   2.264   9.113  0.1786  1.9542 -1.0369
 3579SOL     OW22195   4.067   3.549   6.910  0.2401  0.5500 -0.7394
 3579SOL    HW122196   4.145   3.530   6.858  0.2769  1.3735 -0.9891
 3579SOL    HW222197   4.015   3.470   6.901 -0.2672  0.8385 -0.3390
 3580SOL     OW22198   3.361   4.137  16.969 -0.1328 -0.4191  0.3280
 3580SOL    HW122199   3.344   4.043  16.975 -1.3768 -0.2783 -1.0814
 3580SOL    HW222200   3.275   4.173  16.948  0.0756 -0.5040 -0.6893
 3581SOL     OW22201   2.729   1.680  11.902 -0.5176 -0.4613  0.0411
 3581SOL    HW122202   2.726   1.734  11.981  0.7527 -3.4178  2.1071
 3581SOL    HW222203   2.691   1.597  11.930 -1.8302  0.8310  2.1510
 3582SOL     OW22204   2.347   2.983   2.922 -0.1642  0.3668  0.0921
 3582SOL    HW122205   2.386   2.979   2.834  0.3107  0.9112  0.2816
 3582SOL    HW222206   2.359   2.892   2.949 -0.5749  0.9257  2.0987
 3583SOL     OW22207   1.804   3.365  14.962 -0.3822  0.8108 -0.4886
 3583SOL    HW122208   1.886   3.365  14.913 -1.2978  0.0850 -2.0197
 3583SOL    HW222209   1.768   3.451  14.941 -2.2265  0.0584 -0.4175
 3584SOL     OW22210   2.283   0.615   1.771  0.0659  1.4041  0.0758
 3584SOL    HW122211   2.240   0.560   1.706  0.5156  1.1475 -0.0068
 3584SOL    HW222212   2.274   0.708   1.752  0.3813  1.0825 -1.5984
 3585SOL     OW22213   2.126   0.745  16.864 -0.1709  0.4495  0.2482
 3585SOL    HW122214   2.080   0.828  16.851  1.1166  1.1281  0.1186
 3585SOL    HW222215   2.203   0.762  16.918 -0.4533  0.6087  0.5989
 3586SOL     OW22216   0.632   4.453   5.413 -0.2543 -0.1478  0.4557
 3586SOL    HW122217   0.564   4.485   5.474 -0.0115  2.1006 -0.4463
 3586SOL    HW222218   0.680   4.535   5.399  0.9118 -0.5103  2.3550
 3587SOL     OW22219   2.724   3.969  14.452 -0.3372  0.2288 -0.2202
 3587SOL    HW122220   2.748   3.877  14.462 -0.1833  0.6842  3.5370
 3587SOL    HW222221   2.674   3.960  14.371 -1.9519  1.1238  0.6739
 3588SOL     OW22222   3.266   2.081   1.032  0.2829 -0.5807 -0.3072
 3588SOL    HW122223   3.203   2.145   1.000  1.2526  0.1920 -0.6548
 3588SOL    HW222224   3.223   2.059   1.115  0.9734  0.0693  0.2219
 3589SOL     OW22225   0.221   2.714   6.868 -0.3203 -0.3157 -0.0984
 3589SOL    HW122226   0.136   2.712   6.823 -0.6140 -2.1109  0.5365
 3589SOL    HW222227   0.197   2.745   6.955  0.4838 -0.3508  0.1375
 3590SOL     OW22228   3.345   2.857  10.653 -0.1746 -0.2070 -0.2353
 3590SOL    HW122229   3.276   2.923  10.639  1.9880  2.2698  0.7763
 3590SOL    HW222230   3.413   2.911  10.693  0.5384 -2.0320  1.0037
 3591SOL     OW22231   0.423   4.329  10.644 -0.8692  0.4936 -0.0076
 3591SOL    HW122232   0.415   4.294  10.733  0.0804  2.5482  0.9112
 3591SOL    HW222233   0.474   4.409  10.659 -1.3812  0.5438  1.4314
 3592SOL     OW22234   3.841   0.441  15.977 -0.6347  0.3656  0.2912
 3592SOL    HW122235   3.883   0.407  16.057 -2.6772 -1.8765  0.4263
 3592SOL    HW222236   3.858   0.373  15.912 -0.1952  0.4234  0.3413
 3593SOL     OW22237   4.044   3.639   7.190  0.1307  0.0172 -0.5025
 3593SOL    HW122238   4.123   3.599   7.226  0.3041  0.9734  0.1838
 3593SOL    HW222239   4.023   3.608   7.102 -0.0142  1.3677 -0.9467
 3594SOL     OW22240   1.958   0.965  15.352 -0.3743  0.1388 -0.3759
 3594SOL    HW122241   2.033   1.023  15.341  1.1009 -2.2572 -2.8251
 3594SOL    HW222242   1.998   0.898  15.408 -0.1241  0.9469  0.4140
 3595SOL     OW22243   1.903   1.476  12.754  0.7925 -0.2143 -0.2864
 3595SOL    HW122244   1.883   1.534  12.681 -2.5586  0.2656  1.0418
 3595SOL    HW222245   1.886   1.391  12.714 -0.8626  0.6787 -1.4521
 3596SOL     OW22246   1.245   2.863   8.457  0.0505 -0.3476  0.4432
 3596SOL    HW122247   1.318   2.887   8.514  1.1216 -1.0955 -0.6169
 3596SOL    HW222248   1.262   2.771   8.437 -0.2989 -0.5827  1.1957
 3597SOL     OW22249   1.021   3.181   2.395  0.3274 -0.2896  0.2481
 3597SOL    HW122250   1.076   3.110   2.363  1.4780  0.8311 -0.2596
 3597SOL    HW222251   0.938   3.141   2.370  1.4797 -2.3484 -0.3220
 3598SOL     OW22252   0.124   2.876   8.439  0.4355  0.7856  0.0683
 3598SOL    HW122253   0.129   2.967   8.410  2.4119 -0.0221 -2.0751
 3598SOL    HW222254   0.037   2.864   8.479  0.9590  2.8677  1.8298
 3599SOL     OW22255   4.453   4.404  15.573  0.4688  0.1975  0.2133
 3599SOL    HW122256   4.511   4.330  15.595 -0.6167 -0.1647  1.8399
 3599SOL    HW222257   4.477   4.439  15.488 -1.6106 -3.3051 -1.8008
 3600SOL     OW22258   2.473   2.686   9.627  0.4242 -0.7627 -0.0574
 3600SOL    HW122259   2.439   2.770   9.596  2.5212 -0.0877 -0.5405
 3600SOL    HW222260   2.401   2.641   9.671 -0.7733 -0.1879 -1.4510
 3601SOL     OW22261   2.522   3.357   1.497  0.2188  0.6606  0.4433
 3601SOL    HW122262   2.536   3.311   1.580 -1.9041  1.2891  1.1483
 3601SOL    HW222263   2.581   3.430   1.516 -0.6730  1.0890  1.5693
 3602SOL     OW22264   1.851   0.544   0.588 -0.5232  0.2608 -0.2365
 3602SOL    HW122265   1.941   0.518   0.603 -0.7149 -0.4688 -0.3744
 3602SOL    HW222266   1.803   0.466   0.614 -1.4720  0.9537  0.1024
 3603SOL     OW22267   3.804   4.686   0.033  0.1780 -0.2411  0.3232
 3603SOL    HW122268   3.725   4.708   0.080 -0.7399 -2.4943 -0.1415
 3603SOL    HW222269   3.858   4.626   0.085 -0.3008 -0.6325  0.3663
 3604SOL     OW22270   4.675   1.209   6.083 -0.0416 -0.0736  0.3059
 3604SOL    HW122271   4.647   1.249   6.001  0.5397  2.5503  1.3815
 3604SOL    HW222272   0.008   1.275   6.127 -0.9190  1.9346 -1.6365
 3605SOL     OW22273   0.197   0.375   9.067 -0.3733 -0.2919 -0.3686
 3605SOL    HW122274   0.228   0.427   9.141  1.3715  0.3709 -1.5785
 3605SOL    HW222275   0.229   0.428   8.994 -1.5033 -1.1188 -1.4713
 3606SOL     OW22276   2.901   3.495   2.177  0.0018  0.1005 -0.1488
 3606SOL    HW122277   2.938   3.418   2.221  0.1635  0.6401  0.6482
 3606SOL    HW222278   2.962   3.518   2.107 -0.4542  1.5122 -0.0883
 3607SOL     OW22279   1.426   1.065  13.431  0.6402  0.0769  0.6829
 3607SOL    HW122280   1.395   1.139  13.378  0.2021  0.9126  2.1077
 3607SOL    HW222281   1.453   1.127  13.499  0.9363  3.4152 -2.4659
 3608SOL     OW22282   3.141   3.853   2.369 -0.1239  0.1961 -0.7315
 3608SOL    HW122283   3.110   3.922   2.426  0.4956 -0.3036  0.2009
 3608SOL    HW222284   3.095   3.783   2.415  0.2633  0.3835 -0.0728
 3609SOL     OW22285   0.970   3.652   5.752 -0.4707  0.5425  0.2118
 3609SOL    HW122286   1.010   3.681   5.834 -0.3531 -1.2675  0.7877
 3609SOL    HW222287   0.984   3.729   5.697 -2.6284  2.4988  2.4336
 3610SOL     OW22288   1.602   4.714   5.561  0.4073 -0.5624 -0.0867
 3610SOL    HW122289   1.572   4.645   5.621 -0.7768  0.3011  0.3147
 3610SOL    HW222290   1.556   4.668   5.490 -1.5062  3.3598 -1.3596
 3611SOL     OW22291   2.977   3.587   1.054 -0.1309  0.3909  0.1732
 3611SOL    HW122292   3.010   3.562   1.141 -0.6948 -0.6045  0.1109
 3611SOL    HW222293   2.885   3.571   1.078  0.0553 -1.3533 -0.2734
 3612SOL     OW22294   4.485   2.058   7.898 -0.6512 -0.4249 -0.0294
 3612SOL    HW122295   4.542   2.088   7.969 -0.9140  1.1219 -0.4676
 3612SOL    HW222296   4.401   2.089   7.932  0.2541  2.2753 -0.2260
 3613SOL     OW22297   3.753   1.774  15.544 -0.1455  0.1831  0.3735
 3613SOL    HW122298   3.687   1.792  15.477 -2.9878 -1.6732  2.6693
 3613SOL    HW222299   3.734   1.845  15.605 -1.9509  1.1920 -1.3680
 3614SOL     OW22300   0.337   1.260   6.921 -0.2674  0.3579 -0.0920
 3614SOL    HW122301   0.357   1.188   6.981 -1.2921 -0.0158 -0.1873
 3614SOL    HW222302   0.381   1.223   6.844 -1.6111  0.7045 -1.0289
 3615SOL     OW22303   3.251   3.857  15.564 -0.6175  0.1553  0.4298
 3615SOL    HW122304   3.220   3.813  15.485 -2.4228  1.5533  0.3700
 3615SOL    HW222305   3.216   3.795  15.629  2.7691 -1.1488  1.0016
 3616SOL     OW22306   2.864   3.687   4.180  0.0015 -0.4373 -0.4135
 3616SOL    HW122307   2.808   3.738   4.121 -0.2668  0.6694  0.7904
 3616SOL    HW222308   2.835   3.703   4.270 -0.8993 -1.9070 -0.4419
 3617SOL     OW22309   1.389   1.974   5.872 -0.0489  0.0430  0.1487
 3617SOL    HW122310   1.305   1.927   5.868 -0.0538  0.2322 -1.9434
 3617SOL    HW222311   1.449   1.918   5.822 -2.0386 -1.5844 -0.4346
 3618SOL     OW22312   0.599   4.563   7.570  0.0639  0.3306 -0.2051
 3618SOL    HW122313   0.644   4.486   7.605 -0.3172 -0.0073 -0.4556
 3618SOL    HW222314   0.528   4.577   7.632  0.9542  1.7216  0.4797
 3619SOL     OW22315   3.985   2.185   4.180 -0.3445 -0.3895 -0.2057
 3619SOL    HW122316   3.955   2.097   4.205 -0.7558 -0.4901 -1.0282
 3619SOL    HW222317   4.055   2.178   4.244 -2.2369  1.5886  2.0721
 3620SOL     OW22318   2.737   2.214   2.446 -0.0876  0.2024 -0.5195
 3620SOL    HW122319   2.658   2.248   2.489 -2.0236  0.7367 -4.4928
 3620SOL    HW222320   2.779   2.299   2.442 -0.5873  0.4607 -0.2365
 3621SOL     OW22321   3.175   3.319   2.000  0.7276 -0.2127  0.0663
 3621SOL    HW122322   3.267   3.345   2.004  0.0739  2.0852 -0.2047
 3621SOL    HW222323   3.138   3.407   2.009  0.6443 -0.1881 -0.5102
 3622SOL     OW22324   0.729   1.788   1.113  0.4369  0.4288  0.2189
 3622SOL    HW122325   0.669   1.744   1.052  1.1231  1.1120 -0.9435
 3622SOL    HW222326   0.789   1.814   1.043 -1.2196 -0.6093 -1.5710
 3623SOL     OW22327   0.219   1.001  12.547 -0.3662  0.0542 -0.2004
 3623SOL    HW122328   0.303   0.994  12.501 -1.1563 -0.9454 -1.5027
 3623SOL    HW222329   0.253   1.011  12.636  0.3009  0.1335 -0.4669
 3624SOL     OW22330   0.328   2.809   5.625  0.2598 -0.1518  0.0597
 3624SOL    HW122331   0.390   2.737   5.608 -1.0099 -1.5488  1.3682
 3624SOL    HW222332   0.260   2.756   5.665  1.2523 -1.6332 -0.2131
 3625SOL     OW22333   1.382   0.039   7.863  0.0772  0.1390 -0.5937
 3625SOL    HW122334   1.290   0.016   7.878 -0.3831  0.4198 -2.9680
 3625SOL    HW222335   1.426   4.683   7.897  0.8328  1.0201  0.4024
 3626SOL     OW22336   2.548   2.173   5.059 -0.0245 -0.4363 -0.6728
 3626SOL    HW122337   2.505   2.164   5.145  1.9688  1.6692  0.5538
 3626SOL    HW222338   2.611   2.102   5.058 -0.3848 -0.8001  1.4904
 3627SOL     OW22339   2.133   1.208   5.779  0.2074  0.4378  0.0587
 3627SOL    HW122340   2.128   1.120   5.817  0.6324  1.2271  1.9321
 3627SOL    HW222341   2.224   1.228   5.804  0.2565 -2.2203  2.0489
 3628SOL     OW22342   0.241   0.031   7.690 -0.0028  0.4034 -0.5400
 3628SOL    HW122343   0.159   4.706   7.673  0.0395 -0.0442  0.5056
 3628SOL    HW222344   0.215   0.116   7.725  0.4102  1.0097 -1.7003
 3629SOL     OW22345   3.424   0.539   2.723 -0.0043 -0.1381 -0.0921
 3629SOL    HW122346   3.463   0.452   2.720  0.9942  0.3000  0.2583
 3629SOL    HW222347   3.363   0.520   2.652 -0.9395 -0.6978  0.8574
 3630SOL     OW22348   3.003   3.399   8.185 -0.5154 -0.5472 -0.5523
 3630SOL    HW122349   3.043   3.428   8.267  0.2552 -0.0778 -1.1068
 3630SOL    HW222350   3.043   3.444   8.111 -0.1789  0.6745  0.3775
 3631SOL     OW22351   0.178   0.987   4.613  0.2892 -0.0617 -0.3597
 3631SOL    HW122352   0.190   1.069   4.565  1.7770 -0.1054 -0.0548
 3631SOL    HW222353   0.083   0.996   4.615  0.3265  0.3694 -0.4290
 3632SOL     OW22354   4.572   0.662  13.448  0.1402  0.3601 -0.6021
 3632SOL    HW122355   4.541   0.665  13.539 -1.6822  1.5423 -1.2648
 3632SOL    HW222356   4.526   0.737  13.410 -0.3849  0.6502  0.5865
 3633SOL     OW22357   2.948   4.325  14.568 -0.0142 -0.2264  0.0971
 3633SOL    HW122358   2.867   4.274  14.573  0.3638 -1.0148 -2.0711
 3633SOL    HW222359   2.928   4.418  14.579 -1.9215 -0.2557 -3.0378
 3634SOL     OW22360   2.350   3.051   5.641 -0.3568  0.0376 -0.2298
 3634SOL    HW122361   2.364   2.957   5.651 -2.1665 -0.4337 -2.1554
 3634SOL    HW222362   2.269   3.041   5.592  0.7225 -2.8986 -1.4397
 3635SOL     OW22363   1.401   4.194  14.277  0.2852 -0.1367  0.3179
 3635SOL    HW122364   1.410   4.125  14.343  2.0307 -1.6488 -1.5056
 3635SOL    HW222365   1.491   4.204  14.247 -0.5349 -0.2556 -2.1487
 3636SOL     OW22366   3.155   3.515  16.283  0.1461 -0.9200 -0.0302
 3636SOL    HW122367   3.206   3.545  16.358 -0.1040 -1.3223  0.3007
 3636SOL    HW222368   3.126   3.428  16.311  2.0299 -1.8108 -0.9029
 3637SOL     OW22369   1.596   1.428   4.752 -0.0767 -0.2225  0.1654
 3637SOL    HW122370   1.507   1.416   4.720 -0.0076 -0.5201  0.0831
 3637SOL    HW222371   1.622   1.344   4.788  1.7485 -0.2878 -1.3260
 3638SOL     OW22372   2.836   4.484  14.324 -0.2382 -0.0430  0.1194
 3638SOL    HW122373   2.822   4.520  14.412  1.8727  1.7167 -0.2882
 3638SOL    HW222374   2.745   4.495  14.294 -0.8230 -0.7649  1.6061
 3639SOL     OW22375   2.083   0.150   8.756  0.2329  0.4708 -0.0915
 3639SOL    HW122376   2.109   0.122   8.843 -0.9265 -0.0828  0.0784
 3639SOL    HW222377   2.063   0.244   8.765  2.1075  0.8732 -0.1770
 3640SOL     OW22378   3.694   0.590   6.182  0.0049 -0.3340  0.8931
 3640SOL    HW122379   3.638   0.520   6.215 -0.4498 -1.3231 -2.0062
 3640SOL    HW222380   3.709   0.644   6.259  2.0553 -0.1128  0.3484
 3641SOL     OW22381   0.816   0.231   6.316  0.2782  0.2055  0.3225
 3641SOL    HW122382   0.873   0.158   6.294  2.2431  2.3349 -1.7129
 3641SOL    HW222383   0.797   0.214   6.409  0.8737  2.8008  0.9457
 3642SOL     OW22384   3.103   4.226   7.558 -0.2497 -1.0496  0.3839
 3642SOL    HW122385   3.075   4.305   7.604  0.6922 -0.2177 -0.4633
 3642SOL    HW222386   3.187   4.221   7.605 -0.3968 -0.9170  0.6595
 3643SOL     OW22387   1.712   4.669  10.152  0.1971 -0.2653  0.2874
 3643SOL    HW122388   1.622   4.679  10.120  0.4978 -1.3262 -0.8972
 3643SOL    HW222389   1.754   4.710  10.076  0.2444  0.5239  0.7436
 3644SOL     OW22390   0.136   1.060   2.824 -0.1505 -0.3351  0.4396
 3644SOL    HW122391   0.229   1.077   2.806 -0.5408  0.5781 -0.7458
 3644SOL    HW222392   0.126   0.969   2.795 -0.5821  0.0049 -0.4945
 3645SOL     OW22393   0.013   2.613   3.232  0.0358 -0.1276 -0.7856
 3645SOL    HW122394   0.058   2.624   3.315  0.9922  2.1129 -1.6137
 3645SOL    HW222395   4.656   2.668   3.241 -0.7610 -1.0549 -1.9518
 3646SOL     OW22396   2.171   4.600   0.785  0.5743  0.3300 -0.1263
 3646SOL    HW122397   2.162   4.505   0.783 -2.7621  0.6671 -1.2255
 3646SOL    HW222398   2.182   4.615   0.879  0.8032  0.2200 -0.1358
 3647SOL     OW22399   4.225   2.742  12.542 -0.3333 -0.3547  0.0377
 3647SOL    HW122400   4.132   2.735  12.521 -0.4275 -0.7675  0.6138
 3647SOL    HW222401   4.250   2.656  12.510 -0.2330 -0.6500  0.9081
 3648SOL     OW22402   1.019   0.040   1.411  0.3908  0.1278  0.0454
 3648SOL    HW122403   0.944   0.026   1.470 -0.1585  1.8469 -0.2397
 3648SOL    HW222404   1.042   4.669   1.399  0.4528  0.2400 -0.7079
 3649SOL     OW22405   1.838   4.705   3.628  0.4119  0.2681 -0.7465
 3649SOL    HW122406   1.747   0.007   3.611  0.1479 -0.5526 -0.4957
 3649SOL    HW222407   1.875   0.068   3.651  1.1207  0.2150 -1.6775
 3650SOL     OW22408   3.431   1.764   1.566  0.0569 -0.2078 -0.7206
 3650SOL    HW122409   3.367   1.697   1.545  0.1117 -0.4578 -0.0832
 3650SOL    HW222410   3.423   1.830   1.497 -3.7528 -0.3192 -0.3771
 3651SOL     OW22411   0.480   4.560  15.240  0.9721  0.1277 -0.4154
 3651SOL    HW122412   0.404   4.526  15.288  0.0008  0.6468 -1.5802
 3651SOL    HW222413   0.518   4.475  15.217  1.3247  0.6616 -1.8010
 3652SOL     OW22414   0.022   3.032  10.776  0.1007 -0.1846 -0.4961
 3652SOL    HW122415   0.051   3.007  10.864 -1.3471  0.1171  0.0668
 3652SOL    HW222416   0.102   3.073  10.742  1.5902 -0.8430  2.1546
 3653SOL     OW22417   1.102   1.844   1.317  0.6192  0.0577 -0.1982
 3653SOL    HW122418   1.133   1.762   1.355  1.3490 -0.1705 -1.2795
 3653SOL    HW222419   1.097   1.823   1.224 -1.7223 -1.9668  0.3825
 3654SOL     OW22420   1.278   1.858   4.387  0.0702 -0.0797  0.1744
 3654SOL    HW122421   1.272   1.814   4.302 -2.2125 -1.1644  0.8901
 3654SOL    HW222422   1.251   1.782   4.438  1.6997 -0.9056 -0.2272
 3655SOL     OW22423   3.642   2.556   7.368 -0.0641 -0.0497 -0.5390
 3655SOL    HW122424   3.736   2.554   7.384 -0.4073  0.5446  1.5277
 3655SOL    HW222425   3.601   2.511   7.441 -2.1953  1.5816 -0.7276
 3656SOL     OW22426   2.111   2.880   1.960  0.2235 -0.1120 -0.0757
 3656SOL    HW122427   2.174   2.910   1.894 -0.9641  1.4048 -0.5298
 3656SOL    HW222428   2.065   2.810   1.914 -1.1721 -0.1942  1.4499
 3657SOL     OW22429   2.839   1.999   1.114 -0.1991  0.1805  0.5325
 3657SOL    HW122430   2.831   2.091   1.142  1.9062  0.7776 -0.8571
 3657SOL    HW222431   2.749   1.978   1.140  0.8051 -1.0935  2.8790
 3658SOL     OW22432   4.508   2.111   4.758 -0.2599 -0.2694 -0.5218
 3658SOL    HW122433   4.567   2.167   4.709 -0.6052  0.6284  0.0794
 3658SOL    HW222434   4.463   2.176   4.811 -0.3205  0.6753 -1.7438
 3659SOL     OW22435   1.460   4.669  10.018  0.0054 -0.1312  0.4518
 3659SOL    HW122436   1.398   4.612  10.063 -1.1734  0.8212  0.0259
 3659SOL    HW222437   1.411   4.683   9.937  0.3555  2.2131  0.6396
 3660SOL     OW22438   2.928   0.226   3.243  0.1621 -0.3537 -0.5840
 3660SOL    HW122439   3.017   0.259   3.255  0.4188 -1.4852  0.7178
 3660SOL    HW222440   2.934   0.203   3.151  3.1994 -1.3468 -0.1126
 3661SOL     OW22441   2.955   2.698  15.920  0.1954 -0.3080 -0.2377
 3661SOL    HW122442   2.941   2.652  15.838 -1.2498  0.8740 -0.6611
 3661SOL    HW222443   2.926   2.786  15.893 -0.7687 -0.7828 -0.7512
 3662SOL     OW22444   0.911   3.002   2.222 -0.3917  0.7120  0.5253
 3662SOL    HW122445   0.836   2.942   2.231  1.6768 -1.5003  2.8396
 3662SOL    HW222446   0.987   2.946   2.238 -0.4623  0.6674  0.7020
 3663SOL     OW22447   2.904   4.566  10.639  0.4877  0.1137  0.2239
 3663SOL    HW122448   2.980   4.624  10.627 -0.7902  1.5150 -1.0509
 3663SOL    HW222449   2.911   4.523  10.554  1.3317  0.1046  0.2949
 3664SOL     OW22450   3.362   4.405   1.867 -0.1978 -0.0608 -0.3962
 3664SOL    HW122451   3.290   4.444   1.817  0.7055  2.1066 -0.0009
 3664SOL    HW222452   3.319   4.323   1.892 -0.8995  0.9701  1.7670
 3665SOL     OW22453   2.785   2.280   9.752 -0.2134 -0.4067  0.1513
 3665SOL    HW122454   2.753   2.365   9.723  0.4525 -0.7320 -1.5921
 3665SOL    HW222455   2.859   2.307   9.806  0.2717  0.2455 -0.8404
 3666SOL     OW22456   2.680   3.592   7.747  0.1596 -0.2488  0.5064
 3666SOL    HW122457   2.699   3.536   7.822  1.5174  1.0623  1.1218
 3666SOL    HW222458   2.745   3.662   7.751  0.0207 -0.0180 -1.2723
 3667SOL     OW22459   2.438   3.841  12.260 -0.8723 -0.1600 -0.2721
 3667SOL    HW122460   2.432   3.933  12.233  1.7860  0.2671  0.5595
 3667SOL    HW222461   2.515   3.839  12.317 -0.9843 -1.1708 -0.1616
 3668SOL     OW22462   3.964   0.617  15.347  0.1885 -0.0671 -0.0177
 3668SOL    HW122463   3.869   0.613  15.360  0.1447  0.9913 -0.0288
 3668SOL    HW222464   3.974   0.704  15.308 -1.1013 -1.0127 -2.4730
 3669SOL     OW22465   2.490   3.283   7.977  0.1802  0.1185 -0.3656
 3669SOL    HW122466   2.471   3.272   7.883  2.1070 -0.6008 -0.6842
 3669SOL    HW222467   2.554   3.354   7.980 -2.2512  2.2405  1.0649
 3670SOL     OW22468   0.932   4.132   6.134 -0.2713  0.0300  0.7743
 3670SOL    HW122469   0.867   4.065   6.110 -1.2650  1.1697  0.2894
 3670SOL    HW222470   1.007   4.073   6.131 -0.2758  0.0391  0.4979
 3671SOL     OW22471   1.953   4.513   3.340 -0.3511 -0.0784 -0.4049
 3671SOL    HW122472   1.863   4.542   3.354 -0.7620 -1.1421 -0.8264
 3671SOL    HW222473   2.005   4.569   3.398 -2.0562  3.0890 -1.9370
 3672SOL     OW22474   2.833   4.594  14.574 -0.8895 -0.3928 -0.4788
 3672SOL    HW122475   2.903   4.620  14.634 -1.0671  0.6844 -0.7487
 3672SOL    HW222476   2.753   4.595  14.628 -2.3936  1.2075 -2.7464
 3673SOL     OW22477   1.983   0.862   2.224 -0.5852  0.8069  0.1328
 3673SOL    HW122478   1.993   0.767   2.217 -1.2789  0.7062  0.5132
 3673SOL    HW222479   1.891   0.873   2.247  0.0768  1.3148  2.6036
 3674SOL     OW22480   2.301   1.421   6.582  0.5233  0.2576  0.8139
 3674SOL    HW122481   2.272   1.424   6.673  1.2383  0.0112  1.0532
 3674SOL    HW222482   2.270   1.337   6.548 -0.1899  1.0643 -0.5626
 3675SOL     OW22483   4.155   3.680   4.133  0.0226  0.2017 -1.0577
 3675SOL    HW122484   4.221   3.747   4.151 -1.5486  1.3384  0.5447
 3675SOL    HW222485   4.159   3.682   4.038  2.6649 -0.6004 -0.9470
 3676SOL     OW22486   2.599   2.771   2.243 -0.2907  0.3906  0.4099
 3676SOL    HW122487   2.687   2.781   2.205 -1.2589  0.7239 -1.7201
 3676SOL    HW222488   2.544   2.807   2.174  0.6741  0.4274 -0.3434
 3677SOL     OW22489   1.478   3.693   9.234 -0.2228  0.1267 -0.4196
 3677SOL    HW122490   1.461   3.604   9.264 -1.2449  0.1128 -1.0200
 3677SOL    HW222491   1.564   3.719   9.266 -0.9910  2.6703 -0.3969
 3678SOL     OW22492   3.109   2.800   6.781  0.3157 -0.4502  1.0199
 3678SOL    HW122493   3.045   2.827   6.716  0.2619  0.0759  1.2905
 3678SOL    HW222494   3.061   2.814   6.863  0.4743 -3.3016  1.6146
 3679SOL     OW22495   3.638   0.448  11.027 -0.1531  0.3299 -0.1575
 3679SOL    HW122496   3.576   0.376  11.025  1.1044 -0.7186 -0.9802
 3679SOL    HW222497   3.632   0.486  10.939 -0.1548 -0.1944 -0.3842
 3680SOL     OW22498   0.671   1.633   5.284 -0.0996 -0.2369  0.0251
 3680SOL    HW122499   0.734   1.638   5.357 -1.0849 -0.1160  0.8750
 3680SOL    HW222500   0.714   1.594   5.209  0.1062 -0.8454  0.4615
 3681SOL     OW22501   0.691   3.085   4.754  0.8568 -0.5830 -0.2017
 3681SOL    HW122502   0.677   2.991   4.765 -3.8892  0.3038  1.1030
 3681SOL    HW222503   0.634   3.128   4.818  0.1778  2.0852 -2.5784
 3682SOL     OW22504   2.109   0.389  15.558  0.0613 -0.0062  0.1547
 3682SOL    HW122505   2.123   0.427  15.472 -1.0148  0.7258  0.3128
 3682SOL    HW222506   2.081   0.460  15.616  2.8402  1.3718 -0.1845
 3683SOL     OW22507   1.866   0.345   2.692  0.1080 -0.0536  0.5779
 3683SOL    HW122508   1.940   0.346   2.631  0.8956  0.0047  1.5446
 3683SOL    HW222509   1.907   0.341   2.778 -0.3137  1.0189  0.8393
 3684SOL     OW22510   1.013   3.027  17.187  0.1932  0.5825 -0.3006
 3684SOL    HW122511   0.971   3.106  17.154 -0.2781  0.7318  0.6474
 3684SOL    HW222512   1.009   3.041  17.282 -1.8426 -0.8843 -0.1670
 3685SOL     OW22513   2.472   2.740  10.471  0.3455 -0.2818  0.0381
 3685SOL    HW122514   2.436   2.781  10.550  1.6432  2.8381 -0.9864
 3685SOL    HW222515   2.483   2.647  10.490 -1.0002 -0.2250  1.0897
 3686SOL     OW22516   0.960   4.104  12.090 -0.7777 -0.0036 -0.1087
 3686SOL    HW122517   1.008   4.185  12.075 -0.3142 -0.2551  0.0135
 3686SOL    HW222518   0.872   4.136  12.109 -0.0806  0.9433  1.5133
 3687SOL     OW22519   2.120   2.578   4.945 -0.4635 -0.6537  0.0497
 3687SOL    HW122520   2.047   2.548   5.000 -0.5523  1.0574  0.8504
 3687SOL    HW222521   2.179   2.504   4.958  1.2634  0.7364  0.0944
 3688SOL     OW22522   1.336   0.136   3.693  0.1544 -0.0551 -0.0652
 3688SOL    HW122523   1.252   0.135   3.648 -0.6557  2.9057  1.4045
 3688SOL    HW222524   1.311   0.201   3.759 -0.0857  0.5871 -0.7845
 3689SOL     OW22525   1.391   1.405   4.596 -0.1912  0.2561 -0.0945
 3689SOL    HW122526   1.442   1.395   4.515 -0.4497  3.1377 -0.6070
 3689SOL    HW222527   1.336   1.477   4.565 -0.0385  0.2251 -0.4359
 3690SOL     OW22528   4.428   4.165   6.526 -0.5387  0.1632  0.3356
 3690SOL    HW122529   4.359   4.100   6.540 -2.2315  1.5116 -1.7481
 3690SOL    HW222530   4.482   4.128   6.456 -3.0457  1.2449 -2.1583
 3691SOL     OW22531   2.607   4.498  12.232  0.0508 -0.3421  0.6311
 3691SOL    HW122532   2.613   4.417  12.282  1.1164 -0.2486  0.6620
 3691SOL    HW222533   2.602   4.567  12.299 -3.2635  1.2724 -1.2983
 3692SOL     OW22534   2.294   0.348   6.679 -0.1377  0.3346 -0.3166
 3692SOL    HW122535   2.343   0.350   6.597  1.5164  0.3550  0.6771
 3692SOL    HW222536   2.360   0.381   6.740  0.3783 -3.3852  1.1146
 3693SOL     OW22537   1.980   2.505   5.750 -0.3932  0.0791 -0.0913
 3693SOL    HW122538   1.924   2.501   5.673  0.5104 -3.2356 -0.5954
 3693SOL    HW222539   2.035   2.578   5.723 -0.0453 -0.5981 -1.2021
 3694SOL     OW22540   0.602   4.319  13.290  0.1968 -0.5200  0.1028
 3694SOL    HW122541   0.696   4.337  13.295  0.5412 -2.1137 -0.4425
 3694SOL    HW222542   0.590   4.323  13.195 -1.5753  0.1410  0.3559
 3695SOL     OW22543   0.972   4.662   6.937  0.4601  0.1603  0.2015
 3695SOL    HW122544   0.894   4.611   6.957  0.9319 -2.4304 -4.3744
 3695SOL    HW222545   0.993   4.700   7.022  0.8137 -2.7736  1.4403
 3696SOL     OW22546   0.824   3.326  17.199  0.5249  0.1442 -0.0392
 3696SOL    HW122547   0.900   3.324  17.141  0.7481 -0.9619  0.2975
 3696SOL    HW222548   0.851   3.381  17.273 -0.6412  0.5068  0.1163
 3697SOL     OW22549   4.484   3.003   6.743 -0.5961  0.2984  0.4082
 3697SOL    HW122550   4.485   3.049   6.659 -3.3972  0.7078  0.5993
 3697SOL    HW222551   4.468   2.914   6.713 -1.9645 -0.0186  2.1391
 3698SOL     OW22552   1.175   0.608  17.070  0.2418 -0.3370  0.0799
 3698SOL    HW122553   1.251   0.597  17.127 -0.2436 -2.1450  0.3698
 3698SOL    HW222554   1.167   0.703  17.064 -1.9899 -0.4872  0.4581
 3699SOL     OW22555   3.604   0.895   0.576  0.2803 -0.1524 -0.0590
 3699SOL    HW122556   3.567   0.935   0.497 -0.0901 -1.7794 -0.7031
 3699SOL    HW222557   3.526   0.905   0.632 -0.8312 -1.5850 -1.3536
 3700SOL     OW22558   3.492   0.848   2.646  0.3166  0.2638  0.1952
 3700SOL    HW122559   3.553   0.921   2.636  0.0053  0.2571 -1.6807
 3700SOL    HW222560   3.486   0.844   2.741 -1.9703  1.9503  0.1100
 3701SOL     OW22561   4.175   4.112   2.357 -0.2516  0.1381 -0.3247
 3701SOL    HW122562   4.164   4.201   2.322  0.4336  1.1350  1.9701
 3701SOL    HW222563   4.124   4.127   2.437  1.8519 -0.1503  1.0883
 3702SOL     OW22564   2.843   0.484   6.686 -0.0708 -0.5183  0.4715
 3702SOL    HW122565   2.817   0.443   6.603  0.3562 -0.0647  0.1118
 3702SOL    HW222566   2.926   0.438   6.700 -0.8216 -1.6694  1.1873
 3703SOL     OW22567   3.944   2.025   0.402 -0.3992 -0.3347  0.2432
 3703SOL    HW122568   3.897   2.017   0.319  0.5182  1.2168 -0.4248
 3703SOL    HW222569   3.937   1.933   0.424  1.0139 -0.3682  0.5766
 3704SOL     OW22570   3.278   1.978   5.818  0.0527  0.2565  0.0111
 3704SOL    HW122571   3.201   1.932   5.852  0.6629  0.9270  2.3044
 3704SOL    HW222572   3.317   1.991   5.905  1.3655  0.2575 -0.5743
 3705SOL     OW22573   0.721   3.137   8.787 -0.2184 -0.1308 -0.0662
 3705SOL    HW122574   0.671   3.067   8.829 -0.0971 -0.2912 -0.1876
 3705SOL    HW222575   0.767   3.079   8.727 -1.2028  0.3327 -1.2672
 3706SOL     OW22576   4.130   0.480  10.590 -0.5706 -0.0317 -0.0805
 3706SOL    HW122577   4.084   0.396  10.596 -0.7658 -0.0524 -1.8309
 3706SOL    HW222578   4.068   0.518  10.528 -0.7215  1.0008  0.7037
 3707SOL     OW22579   0.060   3.716   0.607  0.1176  0.1278  0.1270
 3707SOL    HW122580   0.055   3.793   0.663 -2.3294 -0.0797  0.2057
 3707SOL    HW222581   0.092   3.762   0.529 -0.8233  2.0800  0.8958
 3708SOL     OW22582   1.190   0.557   6.489 -0.3503 -0.2263  0.3715
 3708SOL    HW122583   1.121   0.506   6.447  0.3666  1.9890 -3.5128
 3708SOL    HW222584   1.160   0.551   6.579 -0.1651  4.0651  0.7300
 3709SOL     OW22585   0.699   2.524   5.276  0.0002  0.1007  0.3976
 3709SOL    HW122586   0.706   2.544   5.183 -0.9323 -1.4381 -0.0062
 3709SOL    HW222587   0.604   2.531   5.287  0.2303  2.9303  0.4117
 3710SOL     OW22588   4.188   0.549  11.966 -0.0957 -0.1534  0.0225
 3710SOL    HW122589   4.171   0.541  11.872  2.6067  1.3101 -0.6058
 3710SOL    HW222590   4.277   0.585  11.971 -0.5197  0.7593  1.0678
 3711SOL     OW22591   3.516   3.467   8.204  0.2608 -0.6320 -0.2847
 3711SOL    HW122592   3.598   3.428   8.234  0.8498  1.4431  0.8180
 3711SOL    HW222593   3.460   3.402   8.247 -2.5418  1.9666 -0.0026
 3712SOL     OW22594   1.051   0.570   7.244  0.0485  0.7181  0.2456
 3712SOL    HW122595   1.144   0.590   7.254  0.3495 -1.2115  1.1937
 3712SOL    HW222596   1.028   0.647   7.192 -0.1139  1.1466  0.9467
 3713SOL     OW22597   2.390   4.556   9.261  0.6016  0.8599  0.1154
 3713SOL    HW122598   2.413   4.513   9.344  0.3802 -1.7656 -1.1852
 3713SOL    HW222599   2.476   4.553   9.219  0.3638 -1.2109 -0.2462
 3714SOL     OW22600   1.960   3.146   2.976  0.4439 -0.2271  0.0411
 3714SOL    HW122601   1.884   3.091   2.995  0.1261 -0.0847 -0.8558
 3714SOL    HW222602   1.920   3.214   2.922 -0.6866 -0.2799  0.8058
 3715SOL     OW22603   0.040   4.555  13.114  0.1353 -0.0248  0.6179
 3715SOL    HW122604   0.041   4.547  13.018 -2.0429  2.1621  0.4265
 3715SOL    HW222605   0.123   4.602  13.125  0.3021  0.1690 -1.4740
 3716SOL     OW22606   1.507   3.358   3.512  0.1357  0.0851 -0.2950
 3716SOL    HW122607   1.525   3.438   3.560 -0.1021  0.2425 -0.4696
 3716SOL    HW222608   1.568   3.361   3.438  0.1902  0.8812 -0.2153
 3717SOL     OW22609   2.050   1.056   8.022  0.3891  0.0271  0.0717
 3717SOL    HW122610   2.117   1.120   7.996  3.5456 -2.3234  2.3128
 3717SOL    HW222611   2.098   0.980   7.988 -1.0703 -0.7778 -0.1705
 3718SOL     OW22612   3.839   0.710  15.939  0.0687  0.1922  0.0338
 3718SOL    HW122613   3.831   0.617  15.957  3.3357 -0.2995 -1.1538
 3718SOL    HW222614   3.878   0.749  16.018 -0.3603 -0.4817  0.5735
 3719SOL     OW22615   2.476   4.721   7.634 -0.1080  0.4319 -0.6576
 3719SOL    HW122616   2.395   0.040   7.604  0.8110  1.6004 -1.6132
 3719SOL    HW222617   2.467   4.630   7.608 -0.2005  0.5195 -0.9301
 3720SOL     OW22618   2.160   4.309   6.409 -0.0406  0.3736 -0.4008
 3720SOL    HW122619   2.088   4.249   6.389  1.2002 -0.3058 -2.8401
 3720SOL    HW222620   2.237   4.254   6.399 -0.3755 -0.2860  0.6478
 3721SOL     OW22621   2.437   2.138   5.300  0.2974  0.4183  0.0371
 3721SOL    HW122622   2.359   2.194   5.301 -0.0116 -0.0093 -0.2786
 3721SOL    HW222623   2.404   2.054   5.269 -3.7726  2.1740 -0.4594
 3722SOL     OW22624   1.866   1.713  15.510  0.1154  0.1118  0.0088
 3722SOL    HW122625   1.890   1.805  15.513  0.0168  0.1710 -1.0056
 3722SOL    HW222626   1.824   1.711  15.424 -3.7056 -2.3345  1.8924
 3723SOL     OW22627   4.384   0.329   4.206  0.3699 -0.5943  0.0858
 3723SOL    HW122628   4.428   0.340   4.122 -1.9570  1.9194 -0.7824
 3723SOL    HW222629   4.456   0.289   4.255  0.2067 -0.9761  0.0179
 3724SOL     OW22630   4.506   0.282   4.578 -0.2872  0.5150 -0.1547
 3724SOL    HW122631   4.476   0.371   4.596  2.0002  1.5417 -1.5385
 3724SOL    HW222632   4.584   0.310   4.531  0.5821 -0.4149  0.7540
 3725SOL     OW22633   1.484   0.401  10.186 -0.1877 -0.0230 -0.3984
 3725SOL    HW122634   1.536   0.328  10.219 -2.3145 -1.3780 -0.0667
 3725SOL    HW222635   1.542   0.475  10.206 -0.1978 -0.5978  1.7972
 3726SOL     OW22636   2.026   2.816   8.324 -0.1433 -0.3098 -0.2791
 3726SOL    HW122637   1.964   2.774   8.384 -1.1387  0.0881 -1.0334
 3726SOL    HW222638   2.101   2.826   8.382 -0.9105 -1.2288  0.8896
 3727SOL     OW22639   3.319   3.375   3.074 -0.1424  0.3290  0.3454
 3727SOL    HW122640   3.349   3.465   3.085  3.1632 -0.9915  2.1107
 3727SOL    HW222641   3.234   3.388   3.031  0.1831 -0.8579 -0.6428
 3728SOL     OW22642   1.295   4.078  15.247  0.2650  0.4725 -0.1698
 3728SOL    HW122643   1.237   4.026  15.303  0.4402  1.2003  0.6918
 3728SOL    HW222644   1.383   4.052  15.274  0.5910  1.4582 -0.3004
 3729SOL     OW22645   3.167   3.841   5.830 -0.2420  0.4048  0.3879
 3729SOL    HW122646   3.208   3.860   5.914  0.3314 -0.8075  0.3764
 3729SOL    HW222647   3.076   3.833   5.860  0.2385 -5.6851  0.1976
 3730SOL     OW22648   3.710   0.390  11.510 -0.4286  0.2835 -0.1076
 3730SOL    HW122649   3.696   0.455  11.441 -2.4338 -1.3142 -1.1853
 3730SOL    HW222650   3.659   0.313  11.486 -0.9548  0.9585 -1.1905
 3731SOL     OW22651   1.358   3.600  12.636  0.0062 -0.0702 -0.3854
 3731SOL    HW122652   1.448   3.572  12.619  0.1603  0.5577 -0.5913
 3731SOL    HW222653   1.313   3.524  12.601  0.2404 -0.0625 -0.7022
 3732SOL     OW22654   2.565   3.492  12.282  0.1185  0.0513 -0.0471
 3732SOL    HW122655   2.587   3.487  12.189 -1.9545  1.5323 -0.5983
 3732SOL    HW222656   2.470   3.487  12.270 -0.0714  0.0808  1.4106
 3733SOL     OW22657   2.159   3.137   8.498 -0.2054 -0.4276  0.0388
 3733SOL    HW122658   2.158   3.163   8.590  0.8441 -1.4304  0.3448
 3733SOL    HW222659   2.244   3.092   8.500  0.3386  0.5194 -1.7505
 3734SOL     OW22660   1.048   3.700   8.172  0.4103 -0.3700 -0.2610
 3734SOL    HW122661   1.101   3.657   8.239  0.4966  1.0196  0.5495
 3734SOL    HW222662   0.964   3.655   8.180  0.5101 -0.0417  2.5203
 3735SOL     OW22663   1.306   1.294   3.785 -0.3678 -0.4005  0.3582
 3735SOL    HW122664   1.345   1.382   3.787 -0.3520 -0.3757 -0.8666
 3735SOL    HW222665   1.298   1.278   3.691 -2.6358 -0.4763  0.5738
 3736SOL     OW22666   2.576   0.781   6.080 -0.0760  0.2287 -0.4774
 3736SOL    HW122667   2.498   0.763   6.132  0.3132  0.1633  0.0812
 3736SOL    HW222668   2.567   0.736   5.996 -0.8096 -1.2363  0.4038
 3737SOL     OW22669   4.701   1.108  12.447  0.1645  0.4173 -0.2175
 3737SOL    HW122670   4.708   1.202  12.459  2.2049  0.3840 -1.2103
 3737SOL    HW222671   0.066   1.082  12.479  0.1656 -0.4870 -0.9634
 3738SOL     OW22672   2.286   3.858   6.763 -0.8177 -0.1183  0.3113
 3738SOL    HW122673   2.240   3.932   6.803 -0.8508 -0.1201  0.2761
 3738SOL    HW222674   2.360   3.849   6.823 -0.8647 -1.8194  0.1266
 3739SOL     OW22675   2.000   3.957   9.303  0.2986 -0.0983 -0.3649
 3739SOL    HW122676   2.051   3.899   9.247 -1.3976 -2.1184  0.1796
 3739SOL    HW222677   2.072   4.004   9.344  1.8684 -2.0981 -0.8546
 3740SOL     OW22678   0.405   1.304   0.884  0.7020 -0.2004 -0.4543
 3740SOL    HW122679   0.474   1.280   0.947 -0.6430  3.3721  2.3716
 3740SOL    HW222680   0.385   1.396   0.899 -0.2012 -0.5952  0.6626
 3741SOL     OW22681   3.758   1.710   4.156  0.0347  0.6977 -0.2447
 3741SOL    HW122682   3.665   1.731   4.157 -0.2190 -0.3707 -0.8321
 3741SOL    HW222683   3.766   1.730   4.063  0.2561  1.4543 -0.0622
 3742SOL     OW22684   1.536   2.745   8.514  0.1212 -0.1466  0.2394
 3742SOL    HW122685   1.494   2.814   8.566  1.0950  1.1022 -0.6448
 3742SOL    HW222686   1.471   2.679   8.485 -1.0838  1.4115 -0.6170
 3743SOL     OW22687   2.527   1.736   5.418  0.5748 -0.0965  0.0907
 3743SOL    HW122688   2.524   1.832   5.427  0.5126 -0.1997  1.2147
 3743SOL    HW222689   2.463   1.713   5.486  0.9744  0.2941  0.6025
 3744SOL     OW22690   2.891   0.403   7.343  0.2666 -0.1485 -0.3633
 3744SOL    HW122691   2.834   0.328   7.327  2.8486 -1.7740 -1.9858
 3744SOL    HW222692   2.924   0.405   7.253  1.7189  0.4291  0.1871
 3745SOL     OW22693   1.521   0.846   4.965  0.0206 -0.4634 -0.0501
 3745SOL    HW122694   1.531   0.782   5.035  1.1142  0.7309  0.8949
 3745SOL    HW222695   1.589   0.912   4.980  1.5376 -2.0763  0.1862
 3746SOL     OW22696   3.736   1.371   2.598 -0.1197  0.0307  0.5568
 3746SOL    HW122697   3.828   1.362   2.623  0.8240 -2.0290 -3.5954
 3746SOL    HW222698   3.717   1.464   2.606  0.3243  0.3135 -1.6160
 3747SOL     OW22699   3.714   1.250   1.008 -0.0029 -0.6449 -0.0863
 3747SOL    HW122700   3.665   1.199   1.072 -0.4235  1.3783  1.1939
 3747SOL    HW222701   3.793   1.275   1.055 -1.7383  0.8156  2.0580
 3748SOL     OW22702   0.873   2.541   6.135  0.3413 -0.4183  0.6701
 3748SOL    HW122703   0.884   2.614   6.074  1.0029 -0.3043  0.9237
 3748SOL    HW222704   0.923   2.468   6.099  2.9162  0.8186  1.7558
 3749SOL     OW22705   0.792   0.283   4.025  0.3980 -0.1798 -0.3091
 3749SOL    HW122706   0.729   0.339   4.069 -0.2982  0.3366 -1.9709
 3749SOL    HW222707   0.868   0.337   4.002 -1.6734  3.3649  1.2917
 3750SOL     OW22708   0.349   3.382   4.796 -0.1667  0.3532 -0.1132
 3750SOL    HW122709   0.300   3.318   4.744 -0.9200 -1.5335  2.9172
 3750SOL    HW222710   0.402   3.338   4.863 -0.7380  0.2829  0.2910
 3751SOL     OW22711   3.646   0.135  12.556  0.5318  0.4725 -0.0246
 3751SOL    HW122712   3.587   0.194  12.509 -0.4938 -1.2874 -0.9151
 3751SOL    HW222713   3.584   0.065  12.576  0.9561 -0.6142 -2.5752
 3752SOL     OW22714   4.254   1.187   3.296 -0.2379  0.3535 -0.1107
 3752SOL    HW122715   4.203   1.166   3.374  0.8320  1.1031  0.7892
 3752SOL    HW222716   4.312   1.111   3.293 -2.1669 -1.1224  0.0131
 3753SOL     OW22717   0.455   0.268   6.696  0.4145  0.2938  0.1972
 3753SOL    HW122718   0.424   0.339   6.753 -0.0723  0.7152 -0.5780
 3753SOL    HW222719   0.376   0.259   6.642 -0.2953  1.1326  1.0978
 3754SOL     OW22720   2.627   0.486  10.604 -0.3364 -0.4391  0.1377
 3754SOL    HW122721   2.596   0.420  10.541 -0.3791  1.0870 -1.4252
 3754SOL    HW222722   2.684   0.429  10.656  0.6511  0.7367  0.3269
 3755SOL     OW22723   2.477   3.089   7.465  0.1236 -0.2546 -0.1110
 3755SOL    HW122724   2.546   3.097   7.531 -0.4914 -0.2083  0.5201
 3755SOL    HW222725   2.425   3.021   7.506  0.5274 -0.5577 -0.0991
 3756SOL     OW22726   3.970   4.562   0.183 -1.0883 -0.0814 -0.2095
 3756SOL    HW122727   4.023   4.484   0.202 -1.3934 -0.4271 -0.7881
 3756SOL    HW222728   4.032   4.635   0.194 -1.2484 -0.2550  1.9125
 3757SOL     OW22729   3.993   3.457   8.672  0.3695 -0.0081  1.0448
 3757SOL    HW122730   4.021   3.512   8.745  1.1990 -0.2266  0.8978
 3757SOL    HW222731   3.983   3.372   8.716 -0.9567 -0.2349  0.3028
 3758SOL     OW22732   2.530   1.583  13.580  0.4193 -0.3691  0.5314
 3758SOL    HW122733   2.532   1.488  13.571  0.6197 -0.3363  0.2706
 3758SOL    HW222734   2.612   1.609  13.622  0.4778  0.0328  0.1626
 3759SOL     OW22735   0.902   2.326   5.732 -0.3042 -0.0458  0.5293
 3759SOL    HW122736   0.826   2.268   5.731  0.7262 -1.3758  0.0862
 3759SOL    HW222737   0.888   2.382   5.655 -0.3924 -1.3996 -0.4407
 3760SOL     OW22738   4.641   0.421   7.914  0.6058 -0.0897  0.5822
 3760SOL    HW122739   0.014   0.413   7.900  0.5285 -0.4098  0.2429
 3760SOL    HW222740   4.619   0.328   7.900  3.8578 -0.4461 -2.2455
 3761SOL     OW22741   2.358   3.832   2.515 -0.0841 -0.0686  0.2910
 3761SOL    HW122742   2.383   3.849   2.424  2.2841  1.7577  1.2988
 3761SOL    HW222743   2.265   3.856   2.509  0.3418  1.6348  0.6802
 3762SOL     OW22744   2.033   4.562   3.859  0.2781  0.1933 -0.1250
 3762SOL    HW122745   1.967   4.621   3.895  0.1980 -0.2099  0.3873
 3762SOL    HW222746   1.974   4.503   3.812 -1.6830 -0.7358  3.5813
 3763SOL     OW22747   1.099   1.647  16.559 -0.2304 -0.3027  0.0677
 3763SOL    HW122748   1.083   1.741  16.551  1.1306 -0.0829 -0.1196
 3763SOL    HW222749   1.184   1.647  16.514 -2.0512  3.7927 -3.2209
 3764SOL     OW22750   1.762   1.827   2.870  0.0153 -0.2121 -0.2477
 3764SOL    HW122751   1.729   1.843   2.959  0.3621 -0.4926 -0.0689
 3764SOL    HW222752   1.698   1.763   2.840 -0.8238  0.2438  0.5962
 3765SOL     OW22753   0.862   4.325   9.364  0.0961 -0.4264 -0.0382
 3765SOL    HW122754   0.807   4.274   9.304 -0.3828  0.1599 -0.0926
 3765SOL    HW222755   0.826   4.304   9.450 -0.0952  0.1561  0.0203
 3766SOL     OW22756   3.821   4.414   5.080 -0.3726 -0.0496 -0.0332
 3766SOL    HW122757   3.734   4.401   5.041 -0.0420  1.0826 -1.1377
 3766SOL    HW222758   3.875   4.425   5.001 -1.8598  1.6176 -0.8241
 3767SOL     OW22759   2.902   0.506  16.168  0.4399  0.2060 -0.6350
 3767SOL    HW122760   2.854   0.580  16.133  0.5924  0.7887  0.3989
 3767SOL    HW222761   2.950   0.461  16.099  0.6460 -1.2252  0.4319
 3768SOL     OW22762   3.177   1.661   3.400 -0.4125 -0.1771  0.1925
 3768SOL    HW122763   3.224   1.608   3.465 -1.2039 -2.0112 -0.7119
 3768SOL    HW222764   3.091   1.668   3.441 -1.4315  0.1392 -2.0194
 3769SOL     OW22765   2.745   1.817   3.406 -0.1027  0.4240 -0.0592
 3769SOL    HW122766   2.755   1.798   3.313 -2.3729 -0.5500 -0.1054
 3769SOL    HW222767   2.651   1.835   3.415 -0.8065 -1.3294 -4.0400
 3770SOL     OW22768   4.017   2.044   7.374 -0.3009 -0.4260  0.3440
 3770SOL    HW122769   4.043   2.089   7.454  1.4204  0.1978 -0.5562
 3770SOL    HW222770   4.104   2.026   7.339  0.4652 -0.6256  2.3815
 3771SOL     OW22771   3.372   2.204   3.141 -0.6635  0.4363 -0.4006
 3771SOL    HW122772   3.293   2.151   3.127 -0.0731 -0.3850 -0.6206
 3771SOL    HW222773   3.383   2.263   3.067  0.0485  0.6069 -0.1641
 3772SOL     OW22774   1.937   2.767   6.752 -0.1362 -0.4386 -0.9256
 3772SOL    HW122775   1.984   2.697   6.707 -0.8833 -2.6689  1.7132
 3772SOL    HW222776   1.942   2.837   6.688 -1.8595  1.7209  1.2813
 3773SOL     OW22777   2.432   1.897  16.376  0.3214 -0.7777  0.0592
 3773SOL    HW122778   2.370   1.882  16.305  0.4612  1.0627 -0.4519
 3773SOL    HW222779   2.388   1.834  16.432  2.0257 -1.8231  0.2291
 3774SOL     OW22780   4.685   4.623  14.685 -0.4573  0.5953 -0.2864
 3774SOL    HW122781   0.024   4.645  14.613 -2.0220 -0.2026 -1.8412
 3774SOL    HW222782   4.607   4.671  14.658 -0.8197  0.3763  0.3766
 3775SOL     OW22783   4.325   0.311  13.950 -0.1366  0.4673  0.1332
 3775SOL    HW122784   4.354   0.282  14.037 -0.0962  1.6009  0.4909
 3775SOL    HW222785   4.325   0.406  13.964 -0.7467  0.6110 -0.8504
 3776SOL     OW22786   3.456   2.659   2.013 -0.2827  0.5186  0.6715
 3776SOL    HW122787   3.370   2.619   2.024  0.0766  0.0622  1.7894
 3776SOL    HW222788   3.441   2.733   2.071 -1.8636  0.2383  0.6267
 3777SOL     OW22789   3.410   3.025   7.329 -0.8124  0.0555  0.3511
 3777SOL    HW122790   3.486   2.969   7.342  0.3355  1.0281 -2.1031
 3777SOL    HW222791   3.452   3.110   7.344  2.5377 -1.9179  2.1904
 3778SOL     OW22792   2.575   1.504  10.497 -0.2784  0.5740  0.6444
 3778SOL    HW122793   2.634   1.541  10.563  2.0095 -0.0421 -1.0670
 3778SOL    HW222794   2.513   1.449  10.545 -0.2641 -0.2787 -0.3116
 3779SOL     OW22795   1.518   1.624  17.466  0.2484  0.5804  0.3267
 3779SOL    HW122796   1.456   1.601  17.536  1.4368 -0.7346  0.9595
 3779SOL    HW222797   1.464   1.678  17.409  0.6131  0.1147 -0.4559
 3780SOL     OW22798   3.200   3.110   5.759  0.1072 -0.2032 -0.5359
 3780SOL    HW122799   3.283   3.130   5.716  0.2598  2.4936  1.0239
 3780SOL    HW222800   3.161   3.198   5.762  0.4101 -0.0764 -0.3812
 3781SOL     OW22801   0.673   0.187   6.571 -0.3559 -0.0427  0.1710
 3781SOL    HW122802   0.588   0.211   6.609 -0.7875  1.8694 -2.0126
 3781SOL    HW222803   0.731   0.167   6.644  0.4841 -0.3050 -0.5712
 3782SOL     OW22804   3.650   1.956   0.758  0.1549 -0.0306 -0.2305
 3782SOL    HW122805   3.613   2.001   0.682 -0.7051  0.6402  0.5745
 3782SOL    HW222806   3.611   2.009   0.828  1.9469  0.9610  0.0001
 3783SOL     OW22807   2.937   3.028   7.547 -0.0804 -0.1560  0.1417
 3783SOL    HW122808   2.933   3.015   7.452  1.6385 -1.1130  0.2150
 3783SOL    HW222809   3.032   3.025   7.555 -0.0374 -1.7786 -0.9619
 3784SOL     OW22810   2.521   3.523   3.926 -0.0414 -0.2473 -0.2428
 3784SOL    HW122811   2.473   3.589   3.976  1.0696 -1.3853  2.3190
 3784SOL    HW222812   2.508   3.556   3.837 -1.3606 -0.0261  0.0386
 3785SOL     OW22813   1.477   0.732   9.699 -0.3435 -0.2127  0.3445
 3785SOL    HW122814   1.520   0.802   9.651  0.4260  0.6623  2.3383
 3785SOL    HW222815   1.538   0.663   9.671  0.8573  1.1305 -0.3447
 3786SOL     OW22816   1.849   1.501   3.757 -0.0230 -0.0570  0.0946
 3786SOL    HW122817   1.893   1.494   3.842 -1.3292  1.4586  0.9050
 3786SOL    HW222818   1.919   1.478   3.696 -0.4515  0.5723 -0.6225
 3787SOL     OW22819   1.009   2.716   2.853  0.3476  0.0638  0.1174
 3787SOL    HW122820   1.026   2.763   2.935 -4.8537  2.0252  0.0776
 3787SOL    HW222821   1.065   2.762   2.790 -0.5374 -1.0651 -1.4781
 3788SOL     OW22822   2.236   3.177   1.038  0.1279  0.3205  0.4880
 3788SOL    HW122823   2.266   3.215   0.955  0.5267  0.9392  0.9088
 3788SOL    HW222824   2.187   3.100   1.009 -1.5327  1.1591  1.1186
 3789SOL     OW22825   1.742   0.044   7.087  0.2709  1.5648  0.5688
 3789SOL    HW122826   1.804   0.035   7.016  1.1439 -1.5352  1.7464
 3789SOL    HW222827   1.787   0.100   7.151  1.9992 -0.4427  1.0914
 3790SOL     OW22828   1.150   1.109   3.889  0.4866 -0.0576 -0.0752
 3790SOL    HW122829   1.176   1.025   3.850  1.3190 -0.5216  1.4694
 3790SOL    HW222830   1.218   1.170   3.862 -0.9669  1.3102 -0.6858
 3791SOL     OW22831   2.751   0.082   1.237  0.3971  0.2968 -0.0584
 3791SOL    HW122832   2.795   0.032   1.305 -0.3226 -1.8245 -1.1504
 3791SOL    HW222833   2.792   0.036   1.164  0.4089 -2.0676  1.4443
 3792SOL     OW22834   1.840   0.942  10.735 -0.0662 -0.1908 -0.2065
 3792SOL    HW122835   1.898   0.901  10.799  0.3135  2.1899  0.9786
 3792SOL    HW222836   1.835   0.870  10.673 -0.6067 -1.3851  1.2419
 3793SOL     OW22837   2.595   1.483   5.984 -0.1062 -0.2885 -0.0623
 3793SOL    HW122838   2.592   1.435   6.066 -0.4969  0.9577  0.6449
 3793SOL    HW222839   2.507   1.517   5.970 -0.9954 -2.8139 -0.6896
 3794SOL     OW22840   3.759   0.581   3.302 -0.2887  0.2832 -0.3340
 3794SOL    HW122841   3.756   0.585   3.206  1.5815  0.9229 -0.3540
 3794SOL    HW222842   3.693   0.515   3.322  0.0482 -0.3861 -1.4230
 3795SOL     OW22843   1.012   1.721  12.557 -0.3874 -0.1098  0.0217
 3795SOL    HW122844   1.072   1.696  12.627 -0.1464 -1.4612 -0.6624
 3795SOL    HW222845   0.944   1.753  12.617 -1.6209 -0.5121 -1.1660
 3796SOL     OW22846   0.886   4.568   5.213  0.5106  0.0762 -0.3884
 3796SOL    HW122847   0.815   4.613   5.259  2.0922  1.1357  1.0164
 3796SOL    HW222848   0.931   4.647   5.182 -0.4503  0.4407 -0.8544
 3797SOL     OW22849   4.225   0.162   6.422 -0.3397  0.8424 -0.4372
 3797SOL    HW122850   4.161   0.193   6.486  0.6425  1.4181  0.2756
 3797SOL    HW222851   4.272   0.093   6.470  0.4648  1.6710 -0.0237
 3798SOL     OW22852   0.908   1.423   6.733  0.1356 -0.4847 -0.2814
 3798SOL    HW122853   0.861   1.435   6.816  2.2443 -0.4202  0.8995
 3798SOL    HW222854   1.000   1.443   6.750  0.3000 -2.2062  0.9263
 3799SOL     OW22855   3.303   3.021   0.726 -0.2653  0.0095  1.1660
 3799SOL    HW122856   3.336   2.996   0.640 -1.9689  1.5907  0.0469
 3799SOL    HW222857   3.382   3.014   0.780 -1.1418  0.5141  2.5212
 3800SOL     OW22858   3.627   1.362   6.264  0.1383 -0.0990 -0.1078
 3800SOL    HW122859   3.656   1.431   6.324  0.6275  0.2967 -0.8063
 3800SOL    HW222860   3.680   1.389   6.190  3.1022 -0.6655  1.8140
 3801SOL     OW22861   1.853   3.548   3.094  0.2589 -0.2426  0.9313
 3801SOL    HW122862   1.930   3.563   3.040 -1.3849  0.3517 -1.2336
 3801SOL    HW222863   1.817   3.471   3.049  0.7749 -0.2822  0.5981
 3802SOL     OW22864   1.125   0.247   6.847  0.1251  0.0755 -0.2746
 3802SOL    HW122865   1.159   0.226   6.934  1.1552 -1.5136 -1.0648
 3802SOL    HW222866   1.204   0.255   6.794  0.5716  1.3273  0.5609
 3803SOL     OW22867   2.778   4.484  10.201 -0.4457  0.0430  0.0165
 3803SOL    HW122868   2.777   4.580  10.190 -1.3891 -0.0049 -0.2831
 3803SOL    HW222869   2.830   4.485  10.281 -0.4736  0.6237  0.0286
 3804SOL     OW22870   2.574   2.699   3.492 -0.2447 -0.3798 -0.4116
 3804SOL    HW122871   2.489   2.714   3.450  0.2274  0.3702 -1.0969
 3804SOL    HW222872   2.646   2.728   3.436 -0.9538 -0.4780 -1.3837
 3805SOL     OW22873   2.707   2.598   4.124  0.0530  0.1510 -0.2449
 3805SOL    HW122874   2.759   2.520   4.105  0.2154  0.3579 -0.6460
 3805SOL    HW222875   2.686   2.584   4.216 -2.8171 -0.6978 -1.0303
 3806SOL     OW22876   3.034   3.366   0.009  0.5873 -0.4009  0.2405
 3806SOL    HW122877   3.074   3.424   0.074  0.6790 -0.9844  0.7124
 3806SOL    HW222878   3.080   3.401  17.621  2.2198 -5.2511 -1.0074
 3807SOL     OW22879   2.512   0.917  10.093  0.3588  0.1649  0.6902
 3807SOL    HW122880   2.591   0.956  10.055 -0.5326  0.3214 -1.0203
 3807SOL    HW222881   2.461   0.944  10.016  2.0287 -0.1934 -0.5379
 3808SOL     OW22882   1.925   0.211   3.692  0.1436  0.2801 -0.5188
 3808SOL    HW122883   2.017   0.184   3.692  0.6396  2.0050  3.4642
 3808SOL    HW222884   1.924   0.285   3.752 -1.3206 -1.3102  1.4236
 3809SOL     OW22885   3.624   4.527  13.744  0.0077  0.2135 -0.9478
 3809SOL    HW122886   3.596   4.442  13.711 -1.6667 -0.1455  1.4637
 3809SOL    HW222887   3.696   4.512  13.804 -1.0791 -0.1726  0.2458
 3810SOL     OW22888   1.464   2.715   2.240 -0.1710  0.8883  0.4846
 3810SOL    HW122889   1.369   2.724   2.254 -0.1268  1.1042  0.6496
 3810SOL    HW222890   1.499   2.752   2.321 -2.3130 -0.7052  2.1634
 3811SOL     OW22891   2.689   4.332   7.524  0.1616  0.4209 -0.7539
 3811SOL    HW122892   2.696   4.241   7.554  0.2641  1.1233  1.2876
 3811SOL    HW222893   2.770   4.371   7.557  0.1356 -0.2753  0.1093
 3812SOL     OW22894   3.827   2.006   7.895  0.2938 -0.0392  0.0696
 3812SOL    HW122895   3.748   2.043   7.934  1.1562  0.7825  1.0015
 3812SOL    HW222896   3.896   2.067   7.916  0.8496 -0.1082 -1.5141
 3813SOL     OW22897   3.172   1.540  11.773 -0.4272  0.2497 -0.0857
 3813SOL    HW122898   3.115   1.540  11.850 -1.8366  3.5369 -1.1110
 3813SOL    HW222899   3.156   1.453  11.736 -0.6536 -0.7820  2.4134
 3814SOL     OW22900   4.133   2.733   2.643  0.0096 -0.0930 -1.1928
 3814SOL    HW122901   4.192   2.804   2.622 -0.2384  1.1283  2.2468
 3814SOL    HW222902   4.184   2.662   2.682  1.5004  1.1087 -0.9695
 3815SOL     OW22903   1.873   2.591   6.437  0.4119  0.1834  0.9470
 3815SOL    HW122904   1.900   2.626   6.352 -1.0443  0.0259  0.4061
 3815SOL    HW222905   1.790   2.638   6.446  0.5307  0.5052  0.3668
 3816SOL     OW22906   0.024   0.371   8.340 -0.5783  0.5027  0.3180
 3816SOL    HW122907   0.015   0.462   8.368 -1.1196  0.3130  0.7515
 3816SOL    HW222908   4.662   0.337   8.374 -0.4371 -0.3852 -0.2148
 3817SOL     OW22909   1.490   2.850   5.412  0.2369  0.2888  0.5284
 3817SOL    HW122910   1.531   2.825   5.495  3.1613 -2.0784 -1.6203
 3817SOL    HW222911   1.401   2.819   5.429 -0.0213  0.9936  0.4796
 3818SOL     OW22912   4.247   1.869  12.203 -0.4920 -0.1666 -0.0663
 3818SOL    HW122913   4.164   1.847  12.161  0.3538 -0.5570 -1.5377
 3818SOL    HW222914   4.322   1.849  12.146 -1.1881  0.3028 -1.1590
 3819SOL     OW22915   1.062   3.971  13.209  0.1835 -0.6068  0.1431
 3819SOL    HW122916   1.087   3.971  13.302  0.1499  0.4808  0.1507
 3819SOL    HW222917   1.087   3.881  13.187  0.3113 -0.0607 -1.9508
 3820SOL     OW22918   1.072   2.615  12.695  0.0054 -0.1967  0.0575
 3820SOL    HW122919   1.044   2.673  12.625  0.3360 -1.2498 -0.9603
 3820SOL    HW222920   1.163   2.601  12.666  0.3679  1.9523  0.1952
 3821SOL     OW22921   1.559   0.783   6.809 -0.0055  0.6809 -0.3396
 3821SOL    HW122922   1.542   0.689   6.819 -2.9270  1.0756 -1.7935
 3821SOL    HW222923   1.483   0.812   6.859  2.2600 -0.1654  3.6028
 3822SOL     OW22924   1.707   0.701   4.349  0.3023  0.3069  0.5142
 3822SOL    HW122925   1.632   0.666   4.301 -0.4745  1.2455  1.0338
 3822SOL    HW222926   1.780   0.661   4.301 -0.7278 -1.4252  0.3878
 3823SOL     OW22927   3.140   1.980   4.431 -0.0131  0.6005 -0.4994
 3823SOL    HW122928   3.223   1.969   4.477 -0.2195 -0.8916 -0.4965
 3823SOL    HW222929   3.087   2.040   4.485  2.2829  2.5793 -0.4668
 3824SOL     OW22930   2.069   3.860   7.707  0.6951  0.3061  0.3354
 3824SOL    HW122931   2.158   3.850   7.739  1.2600  0.9113 -1.0410
 3824SOL    HW222932   2.022   3.878   7.789  0.8257 -1.2571  0.7515
 3825SOL     OW22933   1.824   1.881   6.776  0.5283 -0.1633 -0.1162
 3825SOL    HW122934   1.900   1.865   6.720 -0.3367 -0.2863 -1.2383
 3825SOL    HW222935   1.863   1.904   6.861  0.1431  2.0109 -0.5358
 3826SOL     OW22936   1.671   1.604   3.114  0.4187 -0.0987  0.0856
 3826SOL    HW122937   1.686   1.698   3.129 -0.0211  0.3416 -2.1955
 3826SOL    HW222938   1.756   1.566   3.135  1.3117  0.7460 -1.9936
 3827SOL     OW22939   0.278   4.072  15.621  0.7966  0.2299 -0.5453
 3827SOL    HW122940   0.215   4.009  15.658  0.7213 -0.0304 -1.1141
 3827SOL    HW222941   0.227   4.151  15.637  3.8228  1.8831  0.7600
 3828SOL     OW22942   3.324   2.471  11.931 -0.1515 -0.4789  0.2348
 3828SOL    HW122943   3.352   2.478  11.840 -1.6112  1.7279 -0.0471
 3828SOL    HW222944   3.398   2.450  11.987  1.2823  1.2080 -1.0424
 3829SOL     OW22945   1.367   3.955   1.309  0.4696  0.5401 -0.2977
 3829SOL    HW122946   1.329   3.875   1.274  1.6798  0.4010 -1.2859
 3829SOL    HW222947   1.338   4.022   1.246 -2.6336  0.0026  0.5792
 3830SOL     OW22948   4.258   1.530   7.234 -0.0803 -0.9874 -0.0281
 3830SOL    HW122949   4.243   1.625   7.232  2.3584 -0.6092 -0.9592
 3830SOL    HW222950   4.348   1.524   7.201  0.5662  1.5190  1.2527
 3831SOL     OW22951   2.982   1.695   4.076 -0.4968  0.5327 -0.5407
 3831SOL    HW122952   3.038   1.679   4.152 -1.2628  3.2690  0.5897
 3831SOL    HW222953   3.028   1.767   4.035  1.2915 -1.3292 -1.8137
 3832SOL     OW22954   0.951   2.259   7.578  0.3191 -0.6555 -0.6169
 3832SOL    HW122955   1.041   2.270   7.606  0.4496 -0.7108 -1.0044
 3832SOL    HW222956   0.946   2.166   7.553  3.7399 -0.5643 -1.5328
 3833SOL     OW22957   4.035   1.710   3.999 -0.8386  0.4371  0.0835
 3833SOL    HW122958   3.998   1.669   3.920  0.6249 -1.7086  0.5155
 3833SOL    HW222959   4.061   1.633   4.050  0.0302  0.6596 -0.0262
 3834SOL     OW22960   3.129   0.343   5.538 -0.6107 -0.0183 -0.7505
 3834SOL    HW122961   3.172   0.277   5.593 -0.5334 -0.2320 -1.0679
 3834SOL    HW222962   3.194   0.412   5.548  1.0021 -1.6378 -0.0036
 3835SOL     OW22963   2.042   0.925   3.899  0.0694  0.3426  0.1384
 3835SOL    HW122964   1.971   0.916   3.836  1.3919  2.1765 -1.6580
 3835SOL    HW222965   2.045   1.021   3.905  1.1817  0.2783  0.6484
 3836SOL     OW22966   1.448   1.881   2.845 -0.0939  0.0548  0.2261
 3836SOL    HW122967   1.484   1.796   2.817 -0.6186  0.4603 -1.7199
 3836SOL    HW222968   1.425   1.901   2.754 -0.2243  2.6127  0.8396
 3837SOL     OW22969   4.415   2.222   4.471 -0.1300  0.0026  0.0905
 3837SOL    HW122970   4.449   2.277   4.542 -0.3409  1.8936 -1.2548
 3837SOL    HW222971   4.497   2.199   4.428 -0.2470 -0.0240 -0.1181
 3838SOL     OW22972   0.847   4.411   4.710  0.1710  0.2098 -0.0952
 3838SOL    HW122973   0.906   4.336   4.719  0.6911  0.4566 -1.4301
 3838SOL    HW222974   0.822   4.395   4.619 -0.9906 -0.8459  0.4100
 3839SOL     OW22975   4.164   3.486   0.328  0.1544 -0.7707  0.5149
 3839SOL    HW122976   4.161   3.492   0.424 -1.3482 -1.1957  0.5051
 3839SOL    HW222977   4.145   3.393   0.319 -1.8545 -0.3335  0.1837
 3840SOL     OW22978   0.473   2.921   4.447  0.1209 -0.3789  0.8570
 3840SOL    HW122979   0.457   2.856   4.378 -0.6929  1.9048 -1.1193
 3840SOL    HW222980   0.516   2.989   4.395 -0.1886 -0.1725  0.8727
 3841SOL     OW22981   4.563   3.546  17.319  0.3235  0.3902 -0.2210
 3841SOL    HW122982   4.623   3.528  17.392 -0.7393  1.9775  1.0685
 3841SOL    HW222983   4.544   3.457  17.287 -0.3620  0.0457  1.1246
 3842SOL     OW22984   1.152   4.518   7.244  0.3353 -0.1381  0.3270
 3842SOL    HW122985   1.090   4.585   7.216 -0.9095 -1.2271  0.5181
 3842SOL    HW222986   1.221   4.530   7.178  0.4702  0.5743  0.5976
 3843SOL     OW22987   2.294   3.150   9.453  0.6425  0.3497  0.3408
 3843SOL    HW122988   2.339   3.207   9.390 -1.2193 -2.3121 -3.3806
 3843SOL    HW222989   2.203   3.179   9.443  0.4688 -0.6594 -1.0462
 3844SOL     OW22990   1.249   0.745   4.073  0.7520  0.1433 -0.1132
 3844SOL    HW122991   1.160   0.758   4.107  0.3324 -2.9804 -0.0345
 3844SOL    HW222992   1.290   0.802   4.137  1.9876  1.9481 -2.4845
 3845SOL     OW22993   0.919   0.651   0.266 -0.3626  0.1173  0.6886
 3845SOL    HW122994   0.979   0.725   0.251  0.2738 -0.8358 -1.3527
 3845SOL    HW222995   0.963   0.575   0.228  0.9534  1.0131  0.4099
 3846SOL     OW22996   3.381   2.936   5.929 -0.1511  0.5739 -0.5959
 3846SOL    HW122997   3.360   2.892   6.011  0.1469  0.0062 -0.8197
 3846SOL    HW222998   3.299   2.976   5.899 -0.1550  0.6762 -0.4440
 3847SOL     OW22999   2.769   4.459  14.955 -0.9844 -0.1046  0.0107
 3847SOL    HW123000   2.726   4.497  14.878  2.3983 -1.0493 -2.3475
 3847SOL    HW223001   2.841   4.404  14.925 -2.0689 -1.2253 -0.5089
 3848SOL     OW23002   1.670   3.936   5.768  0.1474  0.6577  0.7692
 3848SOL    HW123003   1.629   3.904   5.849  0.0997  0.0127  0.4885
 3848SOL    HW223004   1.711   4.015   5.803  1.7038  0.0009  0.4194
 3849SOL     OW23005   3.307   1.333   5.041  0.0874  0.0160 -0.5144
 3849SOL    HW123006   3.393   1.372   5.059  0.1790 -0.8550  0.9359
 3849SOL    HW223007   3.257   1.387   5.103  1.5352  0.2195  0.4829
 3850SOL     OW23008   3.224   0.009   1.785  0.2801 -0.1523 -0.3287
 3850SOL    HW123009   3.158   4.663   1.773 -0.5066  0.9386 -2.1241
 3850SOL    HW223010   3.174   0.089   1.769  0.5689 -0.2763 -1.9071
 3851SOL     OW23011   0.424   0.809   8.995  0.2227 -0.0306 -0.4535
 3851SOL    HW123012   0.409   0.883   8.936 -2.6782 -1.1220 -1.0950
 3851SOL    HW223013   0.498   0.845   9.044 -0.6506 -0.5229  1.2244
 3852SOL     OW23014   3.454   4.117   0.886  0.2932  1.0056  0.2162
 3852SOL    HW123015   3.442   4.070   0.804 -0.3699  0.9027  0.3686
 3852SOL    HW223016   3.383   4.072   0.931  1.2767 -2.3678 -1.6519
 3853SOL     OW23017   2.999   3.617  15.776  0.0961 -0.1731 -0.6095
 3853SOL    HW123018   2.969   3.568  15.853 -1.3410 -0.9509 -1.6883
 3853SOL    HW223019   3.059   3.681  15.814 -2.9867  1.6117  1.2148
 3854SOL     OW23020   0.002   3.359  12.448 -0.1857 -1.0263  0.1277
 3854SOL    HW123021   4.630   3.369  12.463  0.3286  1.9217  1.2137
 3854SOL    HW223022   0.001   3.319  12.360  2.0440 -0.9337  0.0573
 3855SOL     OW23023   2.746   3.221  15.922 -0.0313  0.0976 -0.2810
 3855SOL    HW123024   2.658   3.200  15.952  0.2670  1.9989  1.9209
 3855SOL    HW223025   2.727   3.311  15.898  1.2179  0.9369  1.8597
 3856SOL     OW23026   2.029   4.425   6.645 -0.0141 -0.4550 -0.4142
 3856SOL    HW123027   2.091   4.448   6.715 -0.4393  0.3101 -0.2846
 3856SOL    HW223028   2.078   4.393   6.569  1.5283  1.3784 -0.1983
 3857SOL     OW23029   2.740   3.734   4.743  0.1782 -0.0172 -0.0613
 3857SOL    HW123030   2.785   3.805   4.788  0.5687 -0.9090  0.9622
 3857SOL    HW223031   2.719   3.678   4.818 -0.0456 -2.3449 -1.8380
 3858SOL     OW23032   1.589   3.734   1.886 -0.5323 -0.0886 -0.3844
 3858SOL    HW123033   1.631   3.787   1.818 -0.5227  1.6764  1.0150
 3858SOL    HW223034   1.664   3.681   1.910  0.2245  0.3499 -1.7465
 3859SOL     OW23035   1.613   1.368  13.308 -0.2581  0.1719  0.5002
 3859SOL    HW123036   1.518   1.355  13.313 -0.5887  1.8446 -1.6717
 3859SOL    HW223037   1.626   1.454  13.349  1.2108 -0.0676  0.5312
 3860SOL     OW23038   2.697   3.056   7.642  0.3018 -0.3558  0.0199
 3860SOL    HW123039   2.781   3.047   7.597 -1.2467 -0.2308 -2.9100
 3860SOL    HW223040   2.722   3.089   7.728 -0.3234  1.2361 -0.4021
 3861SOL     OW23041   0.640   4.624   2.441  0.3069  0.3271  0.2222
 3861SOL    HW123042   0.698   4.600   2.369  0.1579 -2.9083  1.2002
 3861SOL    HW223043   0.665   4.555   2.502  1.5568  1.2104  0.7300
 3862SOL     OW23044   2.685   4.571   6.831 -0.5656 -0.2089 -0.6013
 3862SOL    HW123045   2.733   4.491   6.812  1.9921  1.8579 -2.9431
 3862SOL    HW223046   2.679   4.613   6.745 -0.7433  2.6166  0.7543
 3863SOL     OW23047   1.690   3.607  16.294 -0.2765  0.2231 -0.4700
 3863SOL    HW123048   1.698   3.701  16.275  1.2955  0.6266  2.0644
 3863SOL    HW223049   1.741   3.580  16.218 -0.0908  1.6464 -0.8606
 3864SOL     OW23050   1.706   1.913   5.485 -0.3290  0.0934  0.1711
 3864SOL    HW123051   1.665   1.828   5.468  0.7919 -0.4369  0.0991
 3864SOL    HW223052   1.686   1.964   5.406  0.2763  0.7206  0.4252
 3865SOL     OW23053   0.978   2.978   9.952  0.4318 -0.0462  0.6155
 3865SOL    HW123054   1.012   3.065   9.973 -0.3469  1.3946 -4.1249
 3865SOL    HW223055   0.914   2.969  10.023  1.4377  0.3336  1.5853
 3866SOL     OW23056   0.816   4.619   6.402  0.2117 -0.4110 -0.2474
 3866SOL    HW123057   0.836   4.556   6.472 -0.4310 -0.0787  0.2342
 3866SOL    HW223058   0.726   4.641   6.426 -0.3845  0.2442 -3.1665
 3867SOL     OW23059   0.997   1.133   2.303 -0.4028 -0.4383 -0.0636
 3867SOL    HW123060   0.931   1.090   2.249 -1.4262 -0.2846  1.0481
 3867SOL    HW223061   1.067   1.135   2.238 -1.3364 -0.7413 -1.0763
 3868SOL     OW23062   2.399   0.780   5.471  0.0121  0.1438 -0.0902
 3868SOL    HW123063   2.374   0.696   5.509 -2.5217  1.1380  0.4094
 3868SOL    HW223064   2.401   0.757   5.378  0.7423 -0.3647  0.0492
 3869SOL     OW23065   2.286   3.320  16.606 -0.2471 -0.5162  0.6309
 3869SOL    HW123066   2.308   3.368  16.526 -0.5640  3.7431  3.1141
 3869SOL    HW223067   2.346   3.356  16.672  0.2533  0.8959 -0.5895
 3870SOL     OW23068   2.301   0.904   6.992 -0.2689 -0.6011  0.1530
 3870SOL    HW123069   2.365   0.842   7.027 -1.3050 -0.2390  2.7219
 3870SOL    HW223070   2.309   0.980   7.050 -0.8645 -1.0977  0.8793
 3871SOL     OW23071   3.018   4.700   5.788 -0.1843  0.0473 -0.3076
 3871SOL    HW123072   2.931   4.683   5.750  1.6802 -1.3736 -3.9679
 3871SOL    HW223073   3.041   4.607   5.798  0.0097  0.5484  3.6364
 3872SOL     OW23074   1.885   4.141   1.694 -0.0659 -0.4228 -0.3067
 3872SOL    HW123075   1.832   4.181   1.763  1.8869  0.6627  0.5421
 3872SOL    HW223076   1.837   4.183   1.623 -0.8653 -2.7304 -1.1256
 3873SOL     OW23077   2.138   0.008   2.464 -0.1088 -0.1856 -0.1825
 3873SOL    HW123078   2.106   4.714   2.375 -0.3290 -1.8625  0.1941
 3873SOL    HW223079   2.068   4.687   2.513  0.8791 -1.7024 -0.1018
 3874SOL     OW23080   2.774   0.175   0.353 -0.5375  0.6050 -0.0737
 3874SOL    HW123081   2.814   0.224   0.425 -0.1894  0.8041 -0.4031
 3874SOL    HW223082   2.700   0.141   0.404 -0.7017  0.4191 -0.4424
 3875SOL     OW23083   0.784   2.653   3.315  0.1446  0.4339  0.2996
 3875SOL    HW123084   0.693   2.663   3.342  0.9296  2.1347  2.3633
 3875SOL    HW223085   0.823   2.710   3.382  1.0169 -1.1032  1.1102
 3876SOL     OW23086   0.937   0.792   1.607  0.3802 -0.1758 -0.0034
 3876SOL    HW123087   1.009   0.736   1.579  0.2809  0.4345 -1.5037
 3876SOL    HW223088   0.881   0.737   1.661 -1.4567 -0.1028 -1.8225
 3877SOL     OW23089   3.518   4.009   7.912 -0.0685  0.1086  0.2070
 3877SOL    HW123090   3.538   4.085   7.966  1.3035 -1.2642  1.6310
 3877SOL    HW223091   3.609   3.991   7.886 -0.4242  1.3083 -1.8762
 3878SOL     OW23092   2.999   3.436  14.878  0.6969  0.7856 -0.3358
 3878SOL    HW123093   3.068   3.393  14.928 -0.7479 -0.0465  0.9228
 3878SOL    HW223094   2.962   3.494  14.944  1.7015 -0.7386  1.5508
 3879SOL     OW23095   1.258   0.397   4.125  0.0872  0.1847  0.4628
 3879SOL    HW123096   1.286   0.420   4.037  0.9330 -2.4418  0.0405
 3879SOL    HW223097   1.165   0.402   4.105  0.4144  2.5075 -0.4408
 3880SOL     OW23098   4.178   3.881   7.831 -0.9108  0.0754  0.2557
 3880SOL    HW123099   4.173   3.975   7.848 -1.1948  0.3689 -1.4543
 3880SOL    HW223100   4.207   3.841   7.913  0.3876 -1.0482 -0.7357
 3881SOL     OW23101   4.541   2.489  13.191  0.3107  0.3020 -0.3067
 3881SOL    HW123102   4.538   2.395  13.208  2.1360  0.5907  1.6140
 3881SOL    HW223103   4.481   2.504  13.118  2.6240 -0.2518 -2.3426
 3882SOL     OW23104   3.379   1.553   0.209  0.4544 -0.2634  0.0195
 3882SOL    HW123105   3.404   1.494   0.138  1.3618  0.0248  0.0993
 3882SOL    HW223106   3.387   1.639   0.168 -1.7401  0.0703  0.3000
 3883SOL     OW23107   2.666   2.349   0.425 -0.4081 -0.0597  0.1577
 3883SOL    HW123108   2.723   2.287   0.471  3.1333  3.7256  0.9172
 3883SOL    HW223109   2.617   2.288   0.369  0.3473 -1.3459  0.8789
 3884SOL     OW23110   1.393   3.830   7.898  0.5595 -0.1726  0.2418
 3884SOL    HW123111   1.405   3.816   7.992 -1.2783 -1.6468  0.2648
 3884SOL    HW223112   1.365   3.921   7.897 -2.5197 -1.1252 -0.7700
 3885SOL     OW23113   1.733   3.585   6.752  0.0797  0.8270  0.5720
 3885SOL    HW123114   1.698   3.672   6.769 -0.2527  1.3401 -2.6919
 3885SOL    HW223115   1.699   3.566   6.664 -1.5729 -2.7904  1.9819
 3886SOL     OW23116   0.106   3.021   0.642 -0.4111 -0.0923  0.3864
 3886SOL    HW123117   0.038   2.976   0.691 -2.9904  1.9659 -1.2916
 3886SOL    HW223118   0.184   2.972   0.668 -2.5716 -3.6088  0.2045
 3887SOL     OW23119   2.548   3.578   5.429 -0.2966 -0.4426  0.0145
 3887SOL    HW123120   2.463   3.604   5.393 -0.4346  1.0450  1.4383
 3887SOL    HW223121   2.598   3.636   5.372 -1.4477  0.2848 -0.2512
 3888SOL     OW23122   4.408   3.713  17.452 -0.5266 -0.2498  0.7571
 3888SOL    HW123123   4.476   3.648  17.434 -2.2393 -1.2690 -2.1335
 3888SOL    HW223124   4.350   3.682  17.382  0.0144 -0.5631  0.4503
 3889SOL     OW23125   0.803   3.672   6.807 -0.7046  0.2915  0.0575
 3889SOL    HW123126   0.818   3.764   6.827 -0.6475 -0.1417  2.0378
 3889SOL    HW223127   0.850   3.629   6.879 -0.1254  0.9334  0.0540
 3890SOL     OW23128   1.504   4.713  13.908 -0.1675 -0.6576  0.4501
 3890SOL    HW123129   1.555   4.685  13.832 -0.3840 -0.7643  0.3457
 3890SOL    HW223130   1.417   4.705  13.870 -0.8399  0.7736  1.6739
 3891SOL     OW23131   0.433   3.660  17.539  0.2740  0.3461 -0.3127
 3891SOL    HW123132   0.439   3.632  17.447 -0.7599 -0.3515 -0.1611
 3891SOL    HW223133   0.343   3.687  17.557  0.3829  0.7966 -0.4396
 3892SOL     OW23134   1.712   1.414  14.854  0.6852  0.1328 -0.4467
 3892SOL    HW123135   1.661   1.396  14.933 -0.8794 -1.4009 -1.8208
 3892SOL    HW223136   1.726   1.327  14.816  1.2017  0.5992 -1.3399
 3893SOL     OW23137   0.146   0.674   5.030 -0.1385  0.4096  0.2922
 3893SOL    HW123138   0.064   0.722   5.047  0.3342  1.2064  0.3439
 3893SOL    HW223139   0.184   0.675   5.118  0.6949  0.9471 -0.0736
 3894SOL     OW23140   1.177   0.703  13.072  0.1899  0.9123  0.0418
 3894SOL    HW123141   1.209   0.655  13.148  0.0419  2.3181  0.9753
 3894SOL    HW223142   1.217   0.663  12.994  2.4658  1.0459  1.1419
 3895SOL     OW23143   4.397   2.590  15.630  0.0259  0.1166  0.3226
 3895SOL    HW123144   4.397   2.675  15.673  0.9063  0.1012  0.3519
 3895SOL    HW223145   4.447   2.608  15.550 -0.3621  0.8542  0.2413
 3896SOL     OW23146   2.141   4.431   2.792 -0.3810  0.1200 -0.1314
 3896SOL    HW123147   2.059   4.460   2.833  0.0547  0.5352  0.4324
 3896SOL    HW223148   2.146   4.359   2.854 -1.5247 -1.5898 -2.0365
 3897SOL     OW23149   1.900   4.483   7.763 -0.1802 -0.4100 -0.7115
 3897SOL    HW123150   1.818   4.520   7.729 -0.7455  1.1729  2.4424
 3897SOL    HW223151   1.950   4.446   7.690 -0.7552 -1.6874 -0.4656
 3898SOL     OW23152   2.619   1.009   7.109  0.0869 -0.4446 -0.3151
 3898SOL    HW123153   2.577   1.032   7.027 -0.2829 -2.1887 -0.6223
 3898SOL    HW223154   2.548   1.045   7.162  0.1642 -1.0088  0.1756
 3899SOL     OW23155   2.747   2.632   7.767  0.5215  0.6585 -0.0301
 3899SOL    HW123156   2.788   2.546   7.774  0.9532  0.6583 -2.4220
 3899SOL    HW223157   2.818   2.672   7.717  0.6438  1.7934  1.0575
 3900SOL     OW23158   3.967   1.666   6.198  0.2993 -0.2777 -0.2594
 3900SOL    HW123159   4.023   1.693   6.126  1.3606 -2.0223 -0.0728
 3900SOL    HW223160   3.915   1.598   6.154 -1.5381  0.6127  0.5148
 3901SOL     OW23161   1.460   0.354   1.055  0.4087  0.6346  0.5780
 3901SOL    HW123162   1.529   0.288   1.051 -2.1571 -1.9761 -0.8034
 3901SOL    HW223163   1.492   0.396   1.135  1.3925 -0.6706  0.8769
 3902SOL     OW23164   0.321   3.884   3.756 -0.0288 -0.3237 -0.0745
 3902SOL    HW123165   0.330   3.879   3.661  0.1304 -1.6519  0.0219
 3902SOL    HW223166   0.407   3.852   3.784 -0.6622  1.3387  3.8627
 3903SOL     OW23167   1.443   0.916   3.228 -0.0528  0.4657 -0.2494
 3903SOL    HW123168   1.510   0.941   3.165 -2.0369  2.4797 -1.5513
 3903SOL    HW223169   1.362   0.909   3.177 -0.1453  1.3509 -0.2130
 3904SOL     OW23170   0.482   2.701  15.612 -0.0460 -0.2653 -0.6733
 3904SOL    HW123171   0.481   2.766  15.682 -1.8578 -0.6040 -0.3690
 3904SOL    HW223172   0.567   2.657  15.617 -0.0052 -0.2509 -1.2761
 3905SOL     OW23173   3.020   3.390   1.489  0.1390 -0.4398 -0.1198
 3905SOL    HW123174   2.953   3.336   1.448  0.5802 -1.3139  0.3251
 3905SOL    HW223175   3.025   3.467   1.433 -0.1943 -1.3629 -1.3985
 3906SOL     OW23176   3.026   3.356   6.426  0.6753 -0.0401  0.1976
 3906SOL    HW123177   2.947   3.378   6.476  0.1553  1.9718 -1.5085
 3906SOL    HW223178   3.038   3.436   6.375 -0.1947  1.1245  1.8086
 3907SOL     OW23179   0.841   0.344  11.992  0.2721  0.2214 -0.2085
 3907SOL    HW123180   0.752   0.318  12.016  0.4379  0.5684  0.8044
 3907SOL    HW223181   0.885   0.341  12.077  1.7694 -0.9450 -1.0335
 3908SOL     OW23182   3.540   3.045   2.592 -0.2112 -0.2130 -0.2004
 3908SOL    HW123183   3.561   2.962   2.550  1.6693 -0.7507  1.7921
 3908SOL    HW223184   3.509   3.098   2.519 -2.6992 -0.4123  0.7096
 3909SOL     OW23185   0.783   1.563   0.548 -0.0354 -0.2813 -0.2357
 3909SOL    HW123186   0.720   1.589   0.615 -1.2184  0.6307 -1.6879
 3909SOL    HW223187   0.737   1.498   0.496 -0.1891  0.1179 -0.6050
 3910SOL     OW23188   2.552   1.741   6.467 -1.0336 -0.2235  0.7105
 3910SOL    HW123189   2.593   1.764   6.384 -1.9608  0.1808  0.3742
 3910SOL    HW223190   2.527   1.650   6.450  2.1561 -0.8475 -0.6365
 3911SOL     OW23191   3.481   2.613   3.324 -0.3769  0.1490  0.0515
 3911SOL    HW123192   3.443   2.698   3.301  0.9242  0.6068 -0.4075
 3911SOL    HW223193   3.507   2.613   3.416  2.0967  1.8726 -0.6535
 3912SOL     OW23194   3.183   4.550   3.333 -0.1517 -0.0040 -0.1848
 3912SOL    HW123195   3.242   4.623   3.352  1.5725 -1.6818  0.9390
 3912SOL    HW223196   3.232   4.482   3.379  0.3925 -0.9240 -2.1325
 3913SOL     OW23197   2.233   3.922   4.561  0.7566 -0.1303  0.3604
 3913SOL    HW123198   2.199   3.839   4.595 -0.6260  0.4070  0.2876
 3913SOL    HW223199   2.323   3.898   4.538  1.6131  1.2072  2.2836
 3914SOL     OW23200   3.111   0.892   9.346 -0.4962  0.6742  0.1421
 3914SOL    HW123201   3.015   0.891   9.351 -0.6094 -0.6299 -2.1292
 3914SOL    HW223202   3.124   0.974   9.299  0.9763  0.8478  0.8540
 3915SOL     OW23203   1.860   1.565   1.168 -0.2057 -0.2858 -0.1847
 3915SOL    HW123204   1.938   1.597   1.214  0.0947  1.3893 -1.8747
 3915SOL    HW223205   1.873   1.590   1.077  0.2190 -0.5514 -0.1986
 3916SOL     OW23206   3.353   2.605   4.388 -0.2618  0.2037 -0.0794
 3916SOL    HW123207   3.289   2.582   4.321 -0.8505 -2.6120  1.4355
 3916SOL    HW223208   3.398   2.668   4.332 -0.4311  2.9481  2.8683
 3917SOL     OW23209   2.514   4.513  16.162  0.0100  0.2204  0.0613
 3917SOL    HW123210   2.520   4.475  16.074  0.4474 -1.0790  0.6518
 3917SOL    HW223211   2.506   4.605  16.140 -0.7021 -0.2682 -1.7869
 3918SOL     OW23212   1.900   4.604  11.834  0.1981  0.2971  0.1377
 3918SOL    HW123213   1.976   4.657  11.808 -0.7445  2.0393  0.8973
 3918SOL    HW223214   1.909   4.536  11.768 -2.2551 -1.9589  2.1266
 3919SOL     OW23215   2.409   2.801  12.237  0.3922  0.2389  1.0942
 3919SOL    HW123216   2.396   2.773  12.328  0.3131 -0.4667  0.8672
 3919SOL    HW223217   2.498   2.771  12.219 -0.0947  0.8927 -2.3084
 3920SOL     OW23218   2.532   0.404   2.389  0.3116 -0.3385  0.0049
 3920SOL    HW123219   2.443   0.371   2.400  0.6041 -0.1283  2.9832
 3920SOL    HW223220   2.520   0.473   2.324 -0.8592 -1.0866 -0.5885
 3921SOL     OW23221   0.249   1.625   0.474  0.3160  0.1353 -0.2552
 3921SOL    HW123222   0.249   1.721   0.476  0.4733  0.1235  0.1701
 3921SOL    HW223223   0.251   1.608   0.380 -0.8700  0.7215 -0.3937
 3922SOL     OW23224   4.560   2.062   6.141 -0.3276 -0.2996 -0.4247
 3922SOL    HW123225   4.652   2.039   6.140  0.3976  2.5565  0.6724
 3922SOL    HW223226   4.525   1.976   6.162 -0.1838 -0.9738 -3.0624
 3923SOL     OW23227   4.120   0.568  12.245 -0.0903 -0.4334 -0.2651
 3923SOL    HW123228   4.139   0.569  12.151  1.6239  2.7131  0.1163
 3923SOL    HW223229   4.090   0.478  12.251  0.9359 -0.6649  1.1850
 3924SOL     OW23230   1.734   3.109   7.066  0.1235 -0.5706 -0.1378
 3924SOL    HW123231   1.764   3.151   6.985 -1.3113 -0.7558 -0.7483
 3924SOL    HW223232   1.803   3.126   7.131  0.0925 -0.4725 -0.1297
 3925SOL     OW23233   2.696   0.468   5.012  0.1459  0.4398 -0.5172
 3925SOL    HW123234   2.720   0.428   4.928  1.6549  1.7924 -0.7233
 3925SOL    HW223235   2.611   0.508   4.990 -0.0596  0.4129  0.2094
 3926SOL     OW23236   2.279   0.064   3.287 -0.3764 -0.7059  0.4251
 3926SOL    HW123237   2.337   0.129   3.327  0.7509 -0.8449 -0.9702
 3926SOL    HW223238   2.314   0.068   3.197  0.3399  2.2022  0.8175
 3927SOL     OW23239   3.537   1.336   5.559  0.7240  0.0100 -0.6835
 3927SOL    HW123240   3.472   1.400   5.589 -0.7542 -1.6407 -0.3375
 3927SOL    HW223241   3.546   1.273   5.631 -0.5016 -0.7117 -1.1559
 3928SOL     OW23242   4.129   0.385   6.870 -0.8031 -1.0553  0.2219
 3928SOL    HW123243   4.077   0.313   6.906 -1.2401 -0.9892 -0.2706
 3928SOL    HW223244   4.110   0.456   6.931 -0.2516  0.7535 -1.7065
 3929SOL     OW23245   1.182   2.784   6.723 -0.4813 -0.1263 -0.2146
 3929SOL    HW123246   1.166   2.871   6.686 -0.6518 -0.7205 -1.5585
 3929SOL    HW223247   1.130   2.797   6.802  1.8573  1.2089  1.1448
 3930SOL     OW23248   3.047   3.148   0.451  0.2576 -0.1430  0.3846
 3930SOL    HW123249   3.047   3.058   0.486  0.0900 -1.4502 -2.9391
 3930SOL    HW223250   3.139   3.149   0.425 -0.0258  2.0116 -0.4913
 3931SOL     OW23251   3.912   0.692  12.038 -0.1841 -0.4862  0.3600
 3931SOL    HW123252   3.970   0.685  11.962 -0.7929  0.9977 -0.2221
 3931SOL    HW223253   3.859   0.767  12.011  0.3817 -0.9834 -2.1199
 3932SOL     OW23254   3.540   0.608   6.800  0.0062  0.4021  0.4274
 3932SOL    HW123255   3.620   0.579   6.843 -2.6223 -1.1208  4.2858
 3932SOL    HW223256   3.526   0.694   6.839  2.0344 -0.2651  2.5498
 3933SOL     OW23257   3.991   3.244   6.459  0.5898  0.4864 -0.0731
 3933SOL    HW123258   4.026   3.217   6.544  0.3987 -1.2538 -0.5423
 3933SOL    HW223259   3.910   3.291   6.479 -0.8250 -1.8742 -0.2650
 3934SOL     OW23260   1.492   4.451   3.912 -0.6062 -0.5409  0.0103
 3934SOL    HW123261   1.459   4.499   3.988  1.1345  0.5418  0.0679
 3934SOL    HW223262   1.414   4.467   3.858 -0.3834 -1.0831 -0.4640
 3935SOL     OW23263   3.811   0.133  11.717  0.0416  0.2258  0.0016
 3935SOL    HW123264   3.855   0.048  11.707 -1.2127 -0.3213 -0.9832
 3935SOL    HW223265   3.721   0.115  11.689 -0.0703  0.1112  0.4262
 3936SOL     OW23266   1.931   2.184   8.259  0.1891  0.3033 -0.1830
 3936SOL    HW123267   1.850   2.175   8.210  1.1835  0.6803 -1.9297
 3936SOL    HW223268   1.924   2.125   8.334  1.5094 -0.0720 -0.3399
 3937SOL     OW23269   2.418   0.113  11.855  0.4149 -0.4492 -0.2782
 3937SOL    HW123270   2.494   0.164  11.882  0.5259 -0.5251 -0.4412
 3937SOL    HW223271   2.376   0.086  11.936  0.8837  1.9306  0.7384
 3938SOL     OW23272   2.017   1.396  15.454 -0.3136  0.0331 -0.5645
 3938SOL    HW123273   1.979   1.441  15.378  0.0618  0.8747 -0.2517
 3938SOL    HW223274   1.935   1.387  15.503  0.4751  0.9974  0.9397
 3939SOL     OW23275   3.481   1.844  10.948  0.3572 -0.2806  0.0786
 3939SOL    HW123276   3.478   1.749  10.942 -1.8521 -0.1530 -0.8716
 3939SOL    HW223277   3.448   1.859  11.037  2.3631 -2.1813  1.1310
 3940SOL     OW23278   1.664   4.206  13.641 -0.4088 -0.0495 -0.1083
 3940SOL    HW123279   1.734   4.141  13.634 -1.8006 -1.6874  1.0044
 3940SOL    HW223280   1.684   4.244  13.726 -1.9712  2.9240 -1.0608
 3941SOL     OW23281   3.665   2.321   9.570  0.0063  0.6581  0.1847
 3941SOL    HW123282   3.593   2.262   9.551  1.4219 -1.2008  0.5983
 3941SOL    HW223283   3.734   2.275   9.521 -0.4300 -0.0182  0.2050
 3942SOL     OW23284   2.802   1.701   2.664 -0.3891  0.7678  0.0890
 3942SOL    HW123285   2.722   1.649   2.674  0.0651  0.0411 -0.0626
 3942SOL    HW223286   2.781   1.769   2.600  0.2968  1.1725  0.2966
 3943SOL     OW23287   3.625   2.335  13.792 -0.1182 -0.0501 -0.3084
 3943SOL    HW123288   3.627   2.294  13.878  0.1602 -2.6284 -1.5144
 3943SOL    HW223289   3.679   2.275  13.741 -1.4416  0.4319 -2.3175
 3944SOL     OW23290   1.589   3.288   4.206  0.9270  0.6478 -0.9228
 3944SOL    HW123291   1.594   3.370   4.156 -0.9916 -0.0841 -2.2832
 3944SOL    HW223292   1.621   3.226   4.141  2.3935  1.4865 -1.0079
 3945SOL     OW23293   2.718   0.133  17.060  0.2314  0.4812 -0.7713
 3945SOL    HW123294   2.721   0.120  16.966 -1.6369  1.1802 -0.9255
 3945SOL    HW223295   2.798   0.185  17.071  0.2797  0.2453  0.0266
 3946SOL     OW23296   2.803   3.233   1.835  0.2189 -0.1050 -0.0727
 3946SOL    HW123297   2.839   3.198   1.916 -0.7048  1.9066  1.2152
 3946SOL    HW223298   2.834   3.323   1.843 -1.0941  0.2556  0.9709
 3947SOL     OW23299   3.580   3.647   6.277 -0.4024 -0.0521  0.1484
 3947SOL    HW123300   3.572   3.553   6.259  3.0479 -0.2201 -0.5524
 3947SOL    HW223301   3.668   3.660   6.242  0.2519 -0.6447  1.5679
 3948SOL     OW23302   0.097   4.191   1.816 -0.0115 -0.0144 -0.2081
 3948SOL    HW123303   0.022   4.133   1.800 -0.8051  1.4401 -1.8035
 3948SOL    HW223304   0.061   4.221   1.900  0.0483  0.3124 -0.3002
 3949SOL     OW23305   0.711   3.293   9.486 -0.7814  0.2814 -0.5553
 3949SOL    HW123306   0.754   3.232   9.427 -0.6582  0.9233 -1.1326
 3949SOL    HW223307   0.737   3.380   9.454  0.2653  1.0099  2.2050
 3950SOL     OW23308   0.328   0.715   2.881  0.9097 -0.0982 -0.0213
 3950SOL    HW123309   0.410   0.668   2.864 -0.0265 -1.7532  0.0347
 3950SOL    HW223310   0.274   0.660   2.824 -0.0511  0.7964  0.0148
 3951SOL     OW23311   0.515   0.795   8.072  0.0048  0.1099 -0.3385
 3951SOL    HW123312   0.502   0.787   7.978  1.0852  0.4476 -0.5239
 3951SOL    HW223313   0.526   0.889   8.082 -1.0823  0.2667 -0.6565
 3952SOL     OW23314   3.514   1.362   3.311  0.1477 -0.1181  0.2826
 3952SOL    HW123315   3.573   1.289   3.293 -0.5496 -0.8942  1.1529
 3952SOL    HW223316   3.474   1.331   3.392 -0.8208  0.0852 -0.1155
 3953SOL     OW23317   3.728   1.191  14.256  0.0681  0.9590  0.0247
 3953SOL    HW123318   3.653   1.133  14.249  0.3885  1.0454 -4.2528
 3953SOL    HW223319   3.722   1.249  14.180 -3.4469 -0.7135 -0.9499
 3954SOL     OW23320   3.819   3.733   8.047 -0.7978  0.2963  0.3843
 3954SOL    HW123321   3.900   3.685   8.063 -1.6469 -0.8464  1.2100
 3954SOL    HW223322   3.851   3.820   8.070 -0.5888  0.0652  0.9749
 3955SOL     OW23323   4.446   0.557  17.183 -0.5603  0.3373  0.4955
 3955SOL    HW123324   4.533   0.583  17.152 -1.1978  0.8166 -0.8628
 3955SOL    HW223325   4.409   0.644  17.194  1.2817  0.9713  1.7999
 3956SOL     OW23326   0.153   1.689   2.173  0.1252  0.1221 -0.8610
 3956SOL    HW123327   0.175   1.781   2.183 -2.0506  0.6562 -0.8565
 3956SOL    HW223328   0.142   1.687   2.078  1.9051 -0.9600 -1.0426
 3957SOL     OW23329   1.833   1.369   7.195  0.6877  0.4423 -0.6604
 3957SOL    HW123330   1.800   1.295   7.246  2.5292 -0.0437 -0.1961
 3957SOL    HW223331   1.789   1.442   7.239  0.3519 -1.5383  2.2930
 3958SOL     OW23332   1.899   2.915  16.788  0.5398  0.1431 -0.2816
 3958SOL    HW123333   1.886   2.966  16.708 -0.1421 -0.3032 -0.4542
 3958SOL    HW223334   1.847   2.960  16.854  0.0097  1.3321 -1.5082
 3959SOL     OW23335   2.801   1.914  13.848  0.5721  0.7424  0.2045
 3959SOL    HW123336   2.863   1.950  13.911  0.3732  1.0047  0.2516
 3959SOL    HW223337   2.726   1.972  13.855  0.5600  0.3818  3.1256
 3960SOL     OW23338   0.579   1.466  11.886 -0.0875  0.8960  0.2454
 3960SOL    HW123339   0.637   1.505  11.821  0.4220 -1.3240 -0.6271
 3960SOL    HW223340   0.618   1.379  11.877  1.3867  1.6824 -1.0770
 3961SOL     OW23341   1.378   3.746   3.140 -0.0026 -0.3988 -0.2056
 3961SOL    HW123342   1.470   3.774   3.146 -0.2464  0.3813 -0.1925
 3961SOL    HW223343   1.344   3.811   3.201  0.3599 -0.0439 -0.3793
 3962SOL     OW23344   2.014   3.902   5.931 -0.2260  0.2122 -0.0334
 3962SOL    HW123345   2.058   3.958   5.994 -1.7160  0.3731  0.8722
 3962SOL    HW223346   1.986   3.824   5.979  0.2872  0.5119  0.7396
 3963SOL     OW23347   3.395   0.128   4.566 -0.5073 -0.1319 -0.2790
 3963SOL    HW123348   3.365   0.174   4.487 -1.1132  0.8396  0.5065
 3963SOL    HW223349   3.331   0.057   4.558 -0.8511  0.0190  1.1759
 3964SOL     OW23350   1.989   2.419   8.297  0.9853  0.5122  0.0336
 3964SOL    HW123351   2.014   2.410   8.389 -1.5785 -1.6024  0.4996
 3964SOL    HW223352   1.957   2.331   8.280  1.7115 -0.0218  1.4660
 3965SOL     OW23353   1.778   1.974   5.753  0.2472  0.2078  0.2369
 3965SOL    HW123354   1.738   1.978   5.666  0.8020 -0.4342 -0.0527
 3965SOL    HW223355   1.804   2.066   5.766 -0.5202  0.3443  0.7561
 3966SOL     OW23356   2.015   0.715  13.984  0.1619 -0.3203 -0.2171
 3966SOL    HW123357   2.093   0.757  14.020  0.4210  1.0262 -2.3432
 3966SOL    HW223358   1.992   0.659  14.059  0.2298  0.6335  0.5121
 3967SOL     OW23359   2.808   1.737   3.086 -0.2317  0.2292 -0.2308
 3967SOL    HW123360   2.769   1.793   3.019  0.6218 -0.1608 -1.0694
 3967SOL    HW223361   2.735   1.694   3.129  0.4592 -1.6129 -0.8964
 3968SOL     OW23362   4.422   2.389   7.990 -0.2303  0.0965  0.8240
 3968SOL    HW123363   4.510   2.421   7.970 -0.9033  1.9291  0.8340
 3968SOL    HW223364   4.378   2.457   8.041  0.4042  0.4204  0.9425
 3969SOL     OW23365   3.163   0.804   7.406  0.1732  0.6371 -0.0048
 3969SOL    HW123366   3.169   0.832   7.315  0.7295  2.3861  0.5733
 3969SOL    HW223367   3.248   0.827   7.443 -0.4734  1.0517  1.2316
 3970SOL     OW23368   2.182   4.107   9.554 -0.7553  0.8636 -0.0604
 3970SOL    HW123369   2.266   4.146   9.576 -0.9168  1.4089 -0.4052
 3970SOL    HW223370   2.215   4.021   9.527 -0.7276  0.9867 -0.4178
 3971SOL     OW23371   2.672   0.996   6.693 -0.0893  0.3294 -0.2234
 3971SOL    HW123372   2.619   1.035   6.762 -0.2650 -0.5067  0.1189
 3971SOL    HW223373   2.739   1.064   6.695 -0.9926  1.2657 -2.3448
 3972SOL     OW23374   3.494   1.920   2.774  0.2218 -0.5143 -1.0985
 3972SOL    HW123375   3.422   1.859   2.791 -0.4403  0.8691  0.9624
 3972SOL    HW223376   3.547   1.906   2.853  0.9850 -0.8645 -1.6659
 3973SOL     OW23377   4.292   3.867   2.929 -0.3017 -0.5758  0.3194
 3973SOL    HW123378   4.359   3.799   2.924 -0.0253 -0.3305  0.6703
 3973SOL    HW223379   4.340   3.938   2.972 -1.8043  0.7841 -0.2378
 3974SOL     OW23380   4.186   2.982   6.283  0.2403 -0.3482 -0.1615
 3974SOL    HW123381   4.102   2.985   6.329 -0.1871  1.3272 -1.0542
 3974SOL    HW223382   4.166   2.990   6.189 -1.1269 -2.2635 -0.0338
 3975SOL     OW23383   1.538   1.843  11.767 -0.5632  0.2016  0.0300
 3975SOL    HW123384   1.629   1.829  11.794 -0.4154  3.5697  1.3808
 3975SOL    HW223385   1.555   1.897  11.690  2.6594 -1.2127 -0.2486
 3976SOL     OW23386   3.588   1.497   8.027  0.3695 -0.6377 -0.4679
 3976SOL    HW123387   3.631   1.525   8.108  0.7679 -0.1681 -0.8483
 3976SOL    HW223388   3.630   1.550   7.960  0.8918 -0.4072  0.0495
 3977SOL     OW23389   1.110   2.533  14.846  0.0251 -0.2315  0.1222
 3977SOL    HW123390   1.015   2.524  14.841  0.1008  0.0276 -1.9176
 3977SOL    HW223391   1.133   2.581  14.766 -1.3396 -2.1495 -1.4347
 3978SOL     OW23392   3.963   1.171   4.074 -0.3343 -0.3450  0.5207
 3978SOL    HW123393   3.921   1.137   4.152  0.0662  1.8567  1.6973
 3978SOL    HW223394   3.895   1.224   4.033 -0.0125 -2.2138 -2.4408
 3979SOL     OW23395   1.299   3.582   5.471  0.0008  0.2900 -0.4220
 3979SOL    HW123396   1.354   3.622   5.538  1.1129  0.2589 -1.3095
 3979SOL    HW223397   1.224   3.641   5.473  0.4468  0.9299 -2.8061
 3980SOL     OW23398   4.155   3.524   0.584  0.3053 -0.0408  0.1968
 3980SOL    HW123399   4.110   3.564   0.659 -1.0407  1.1152 -1.2444
 3980SOL    HW223400   4.246   3.516   0.613  0.1312 -2.6391  0.0207
 3981SOL     OW23401   4.008   0.815  11.743  0.0862 -0.0718 -0.9832
 3981SOL    HW123402   3.914   0.825  11.728  0.2410  0.2012 -1.7477
 3981SOL    HW223403   4.031   0.897  11.787  1.5433 -1.5491  0.9989
 3982SOL     OW23404   0.411   2.921  15.483 -0.1189 -0.1115  0.4507
 3982SOL    HW123405   0.320   2.905  15.461  0.3491 -1.5910 -0.4424
 3982SOL    HW223406   0.450   2.841  15.520  1.3958  0.7058  0.6538
 3983SOL     OW23407   2.261   4.670   3.725  0.6085 -0.2270 -0.0763
 3983SOL    HW123408   2.198   4.617   3.773  1.8121 -2.0587 -0.5324
 3983SOL    HW223409   2.245   0.040   3.749 -0.5583 -0.5030  0.2140
 3984SOL     OW23410   2.287   0.796  17.097 -0.5253 -0.0484  0.4325
 3984SOL    HW123411   2.336   0.877  17.107 -0.7958  0.4594 -2.2554
 3984SOL    HW223412   2.352   0.730  17.120 -1.8282 -1.5015 -0.0342
 3985SOL     OW23413   3.051   3.495  15.541 -0.1892 -0.2650 -0.4474
 3985SOL    HW123414   3.055   3.507  15.635  0.7217  0.0885 -0.5366
 3985SOL    HW223415   3.013   3.580  15.517  0.2852 -0.6387 -2.5174
 3986SOL     OW23416   1.557   0.269  12.490 -0.3093 -0.4430  0.0091
 3986SOL    HW123417   1.552   0.282  12.395 -2.1423  0.3177  0.1943
 3986SOL    HW223418   1.482   0.324  12.514 -0.7855 -0.7849 -0.6863
 3987SOL     OW23419   1.567   1.574   7.062  0.1818  0.2530 -0.0676
 3987SOL    HW123420   1.539   1.523   7.139  1.5553 -1.1524 -0.4981
 3987SOL    HW223421   1.621   1.510   7.016 -0.8685 -1.0323  0.4722
 3988SOL     OW23422   4.308   0.405   4.945 -0.4360  0.0003 -0.1186
 3988SOL    HW123423   4.376   0.429   5.009 -0.1547 -0.1854 -0.3506
 3988SOL    HW223424   4.283   0.491   4.914  0.9828 -0.3160 -2.1630
 3989SOL     OW23425   4.595   2.385   8.240 -0.3334  0.7767 -0.2460
 3989SOL    HW123426   4.585   2.300   8.198 -0.4072  0.4705  0.3961
 3989SOL    HW223427   4.598   2.446   8.166  2.7965  1.4693  0.4722
 3990SOL     OW23428   0.587   2.922  10.901 -0.3111 -0.4933  0.1430
 3990SOL    HW123429   0.658   2.897  10.842  0.6462 -1.1945  1.5791
 3990SOL    HW223430   0.579   3.016  10.886 -0.4661 -0.6733 -0.8610
 3991SOL     OW23431   1.846   1.871   2.598 -0.6393 -0.2831 -0.0943
 3991SOL    HW123432   1.768   1.831   2.560  0.4713 -3.6945  1.2008
 3991SOL    HW223433   1.835   1.836   2.687 -1.1977  0.4837  0.1445
 3992SOL     OW23434   0.294   1.720  16.908 -0.1954 -0.4397 -0.6616
 3992SOL    HW123435   0.274   1.674  16.989  4.7921  0.6109  1.1698
 3992SOL    HW223436   0.227   1.789  16.907 -0.1024 -0.3318  0.1429
 3993SOL     OW23437   0.734   2.093   5.725 -0.4598  0.3014  0.3566
 3993SOL    HW123438   0.775   2.089   5.812  1.2025 -0.1442 -0.4604
 3993SOL    HW223439   0.649   2.059   5.753 -0.6748  2.4233  2.2643
 3994SOL     OW23440   2.878   2.350  10.172 -0.3369  0.1629 -0.6465
 3994SOL    HW123441   2.950   2.398  10.132  0.0306  1.9190  2.1502
 3994SOL    HW223442   2.845   2.404  10.244 -0.7833 -2.1313  0.8628
 3995SOL     OW23443   2.806   4.178  17.202  0.4412 -0.1414  0.0767
 3995SOL    HW123444   2.836   4.199  17.291  3.0891 -3.2636 -0.0669
 3995SOL    HW223445   2.764   4.094  17.222  0.7878 -1.0074 -2.7971
 3996SOL     OW23446   2.094   0.041  11.411  0.5293  0.1789  0.2702
 3996SOL    HW123447   2.040   4.704  11.358 -0.0513 -0.4344  1.5375
 3996SOL    HW223448   2.107   4.709  11.489  1.2045  1.3979  0.9949
 3997SOL     OW23449   2.546   2.824   8.657  0.0408  0.1464 -0.1374
 3997SOL    HW123450   2.614   2.760   8.680  0.4945  0.6114 -0.1728
 3997SOL    HW223451   2.492   2.801   8.732 -0.6133  0.7283 -0.4352
 3998SOL     OW23452   4.393   2.920   2.309  0.0141 -0.3507 -0.3560
 3998SOL    HW123453   4.313   2.955   2.268 -0.2116  1.5754  1.7492
 3998SOL    HW223454   4.354   2.894   2.392 -0.9022  0.6012 -0.4791
 3999SOL     OW23455   3.185   3.741   3.078 -0.4300 -0.3983 -0.0625
 3999SOL    HW123456   3.163   3.755   2.986  3.7443 -1.7224 -1.2651
 3999SOL    HW223457   3.252   3.674   3.067 -1.9507 -1.7098 -1.2769
 4000SOL     OW23458   1.598   3.224   2.809 -0.1949  0.2790  0.2077
 4000SOL    HW123459   1.509   3.239   2.779 -0.4087 -0.1041  0.6423
 4000SOL    HW223460   1.585   3.215   2.903 -2.6530 -2.6240 -0.4009
 4001SOL     OW23461   4.332   0.325   7.160 -0.3127  0.5568  0.0152
 4001SOL    HW123462   4.381   0.407   7.152 -0.1110  0.4619  0.2897
 4001SOL    HW223463   4.311   0.334   7.253  2.3467 -1.2160  0.7627
 4002SOL     OW23464   0.821   0.266   2.362  0.1551  0.1901 -0.5703
 4002SOL    HW123465   0.877   0.328   2.408  0.3215  0.6675 -1.4096
 4002SOL    HW223466   0.778   0.222   2.435 -0.2335  0.8349 -0.4155
 4003SOL     OW23467   1.659   2.052  15.602  0.2533  0.0403 -0.5966
 4003SOL    HW123468   1.742   2.021  15.565 -1.7446 -2.4375 -3.0332
 4003SOL    HW223469   1.600   1.999  15.548 -0.5810  1.4476 -1.0394
 4004SOL     OW23470   2.631   2.302  10.405 -0.2719  0.1148  0.0765
 4004SOL    HW123471   2.561   2.352  10.448 -1.6093 -0.6999 -1.1434
 4004SOL    HW223472   2.690   2.372  10.378 -1.2654  0.4052 -1.3217
 4005SOL     OW23473   4.695   1.080  11.140 -0.5708 -0.0532  0.0532
 4005SOL    HW123474   4.682   1.061  11.047  1.5689  0.7698 -0.4233
 4005SOL    HW223475   0.030   1.005  11.162  0.9714  1.2838  0.6956
 4006SOL     OW23476   3.681   0.497   7.422 -0.2180  0.1281 -0.3129
 4006SOL    HW123477   3.660   0.500   7.515  4.9210  0.1772  0.8138
 4006SOL    HW223478   3.607   0.458   7.376 -2.1100  0.2886  2.6101
 4007SOL     OW23479   3.775   0.419   2.540  0.1928  0.3446  0.0627
 4007SOL    HW123480   3.854   0.403   2.591 -0.0768 -1.4406 -0.0702
 4007SOL    HW223481   3.802   0.408   2.448  3.3418 -2.3293  1.3068
 4008SOL     OW23482   3.046   0.801   3.673  0.3605  0.1785  0.4110
 4008SOL    HW123483   3.003   0.884   3.694 -0.6566  0.3573 -2.4507
 4008SOL    HW223484   3.064   0.771   3.762 -4.3657  0.3659  1.4234
 4009SOL     OW23485   1.128   0.339   3.122 -0.1492  0.2754  0.1170
 4009SOL    HW123486   1.094   0.275   3.184 -2.1359  0.6415 -0.5967
 4009SOL    HW223487   1.211   0.299   3.094 -0.2295 -0.0092  0.2837
 4010SOL     OW23488   3.653   4.012   6.264  0.2360 -0.3065  0.3226
 4010SOL    HW123489   3.618   4.078   6.204 -0.5139  0.3247  1.4330
 4010SOL    HW223490   3.748   4.022   6.253 -0.2000  2.5361 -0.9898
 4011SOL     OW23491   0.094   1.993   6.159 -0.2327  0.1441 -0.0691
 4011SOL    HW123492   0.161   1.931   6.186 -1.2421 -0.1314  1.8041
 4011SOL    HW223493   0.145   2.072   6.178  0.8860 -0.3364 -1.0808
 4012SOL     OW23494   3.535   4.668   7.163  0.0430 -0.2099  0.4496
 4012SOL    HW123495   3.610   4.623   7.123 -0.4515 -0.0433 -0.6704
 4012SOL    HW223496   3.468   4.610   7.126  1.2691 -0.1895 -1.8145
 4013SOL     OW23497   4.133   3.130   5.619 -0.1102  0.0658  0.3461
 4013SOL    HW123498   4.173   3.187   5.685 -1.7922 -0.6579  1.9724
 4013SOL    HW223499   4.043   3.158   5.607 -0.7259 -1.7636  0.8137
 4014SOL     OW23500   0.490   3.713   6.532  0.2933 -0.3802  0.1525
 4014SOL    HW123501   0.567   3.703   6.475  0.0533 -1.7068  0.0677
 4014SOL    HW223502   0.537   3.706   6.615 -4.1142  1.0568  2.7706
 4015SOL     OW23503   2.943   4.091   7.063  0.1455  0.2175 -0.5467
 4015SOL    HW123504   2.862   4.050   7.093  0.4917  0.5802  0.8529
 4015SOL    HW223505   2.998   4.096   7.141  0.3113  0.9346 -0.7138
 4016SOL     OW23506   2.264   1.217   7.924  0.5072 -0.3429  0.1929
 4016SOL    HW123507   2.347   1.261   7.941 -0.2505  0.4643  1.7869
 4016SOL    HW223508   2.277   1.209   7.829 -0.4287  0.0224  0.0357
 4017SOL     OW23509   4.140   1.495   9.459 -0.2988  0.5442  0.2413
 4017SOL    HW123510   4.217   1.549   9.476  0.6286 -0.5196 -0.5794
 4017SOL    HW223511   4.175   1.408   9.477 -0.4077  0.5216  0.3457
 4018SOL     OW23512   1.869   3.542   7.813 -0.3797 -0.0472 -0.3784
 4018SOL    HW123513   1.773   3.548   7.819 -0.3178 -0.1888  0.7153
 4018SOL    HW223514   1.896   3.505   7.897  1.0733  0.1438 -0.7661
 4019SOL     OW23515   1.489   3.465  17.186  0.1714  0.4476  0.5407
 4019SOL    HW123516   1.557   3.506  17.239 -0.1569  1.3721  0.2448
 4019SOL    HW223517   1.429   3.537  17.169  0.3587  0.2834 -0.7645
 4020SOL     OW23518   4.256   4.574   8.075 -0.2487 -0.0769 -0.5335
 4020SOL    HW123519   4.339   4.543   8.112 -0.0286 -0.8928 -1.7104
 4020SOL    HW223520   4.236   4.640   8.142 -1.4304 -2.8101  1.8358
 4021SOL     OW23521   3.837   2.391   4.942 -0.1642 -0.3495 -0.1306
 4021SOL    HW123522   3.770   2.397   4.873  0.8252  0.9309 -0.9733
 4021SOL    HW223523   3.821   2.477   4.979  2.1727  0.9677 -2.2401
 4022SOL     OW23524   4.103   3.143   6.693  0.4695  0.6227 -0.4629
 4022SOL    HW123525   4.022   3.127   6.741 -0.7639  1.3550 -2.3158
 4022SOL    HW223526   4.165   3.083   6.734 -0.4637 -1.7974 -2.6081
 4023SOL     OW23527   1.413   1.657   5.975  0.1844 -0.1556 -0.0225
 4023SOL    HW123528   1.476   1.597   6.017  3.0264  1.3556 -2.1873
 4023SOL    HW223529   1.359   1.672   6.053 -0.4629  2.9064 -1.0722
 4024SOL     OW23530   4.049   2.519  16.765 -0.0828 -0.2239  0.1366
 4024SOL    HW123531   4.022   2.475  16.684  0.7506 -1.0831  0.3325
 4024SOL    HW223532   4.026   2.462  16.839  1.7355 -0.7533  0.2799
 4025SOL     OW23533   1.080   0.943  11.847  0.7086 -0.1222 -0.9234
 4025SOL    HW123534   1.124   0.944  11.762 -1.4155  0.2522 -2.0289
 4025SOL    HW223535   1.147   0.927  11.913  0.8178  1.3440 -0.6871
 4026SOL     OW23536   0.531   3.966   7.387 -0.7698 -0.2890  0.3641
 4026SOL    HW123537   0.489   3.884   7.361  1.1517 -1.0421 -0.4148
 4026SOL    HW223538   0.610   3.924   7.421 -2.0245 -5.0436 -2.4341
 4027SOL     OW23539   0.776   2.197   4.000 -0.0786  0.1496  0.1961
 4027SOL    HW123540   0.863   2.237   4.004 -0.0932 -0.0534  2.5991
 4027SOL    HW223541   0.775   2.172   4.093 -1.0836  0.0058  0.1500
 4028SOL     OW23542   1.339   0.388  14.883 -0.1854 -0.5416  0.0056
 4028SOL    HW123543   1.430   0.415  14.896  0.0372 -1.6107  0.6543
 4028SOL    HW223544   1.355   0.302  14.842  0.1161 -0.4418 -0.0850
 4029SOL     OW23545   1.499   0.988   7.240 -0.2567  0.0895  0.4639
 4029SOL    HW123546   1.544   0.929   7.300 -0.6790 -1.1145 -0.3815
 4029SOL    HW223547   1.409   0.955   7.246 -0.3471  0.4151  0.8579
 4030SOL     OW23548   1.704   0.404   4.422 -0.5677 -0.5358 -0.0504
 4030SOL    HW123549   1.711   0.438   4.333 -2.2664  1.5020  0.6019
 4030SOL    HW223550   1.702   0.314   4.390  0.0077 -0.5491 -0.0590
 4031SOL     OW23551   2.306   3.361   0.191  0.3279  0.4913  0.6492
 4031SOL    HW123552   2.344   3.282   0.152 -0.2454  0.8853 -0.7092
 4031SOL    HW223553   2.277   3.413   0.116 -3.2064 -2.5619 -0.0497
 4032SOL     OW23554   3.679   3.706  11.209 -0.2864  0.7741  0.6622
 4032SOL    HW123555   3.727   3.737  11.132  0.1918  1.9052  1.4193
 4032SOL    HW223556   3.748   3.709  11.275 -1.6653 -2.4911  2.2557
 4033SOL     OW23557   2.638   3.871   0.244 -0.2710  0.4433  0.6911
 4033SOL    HW123558   2.558   3.915   0.271 -0.2040  2.6163 -2.6726
 4033SOL    HW223559   2.667   3.840   0.330 -0.1177 -1.8928 -0.2008
 4034SOL     OW23560   4.371   0.789   7.901 -0.0282  1.0465 -0.5568
 4034SOL    HW123561   4.380   0.781   7.806 -3.4706 -1.9084 -0.6275
 4034SOL    HW223562   4.355   0.700   7.931  0.5061  0.6609 -1.4072
 4035SOL     OW23563   2.034   1.201   3.940 -0.1316  0.2355  0.0080
 4035SOL    HW123564   2.060   1.290   3.967 -0.0432  0.5789 -1.2167
 4035SOL    HW223565   1.940   1.219   3.933 -0.1703 -0.0846 -0.2928
 4036SOL     OW23566   0.246   2.160   8.408  0.1919 -0.4462 -0.5097
 4036SOL    HW123567   0.290   2.209   8.339  1.8377 -0.3652  0.5935
 4036SOL    HW223568   0.180   2.223   8.436  0.7110 -1.2089  2.4459
 4037SOL     OW23569   2.194   0.519   2.367  0.6365 -0.3644 -0.0313
 4037SOL    HW123570   2.250   0.502   2.292  1.0789  1.0196 -0.0229
 4037SOL    HW223571   2.114   0.534   2.316  0.3832 -2.6046 -0.2620
 4038SOL     OW23572   1.718   2.948   8.319  0.2353  0.0618  0.0134
 4038SOL    HW123573   1.757   2.939   8.232  0.0314  2.3576 -0.3070
 4038SOL    HW223574   1.646   3.008   8.298 -1.9125 -2.2005  0.8985
 4039SOL     OW23575   2.643   1.329  14.803 -0.1654  0.3822 -0.1404
 4039SOL    HW123576   2.643   1.424  14.814 -3.6704  0.3589 -0.0330
 4039SOL    HW223577   2.711   1.317  14.736 -0.6065 -4.3535  0.2436
 4040SOL     OW23578   1.845   4.583   7.442 -0.2287 -0.6692 -0.1302
 4040SOL    HW123579   1.922   4.526   7.450  0.0671 -0.2416  0.0334
 4040SOL    HW223580   1.874   4.647   7.377 -0.4837 -0.9152 -0.4904
 4041SOL     OW23581   3.486   3.454   0.817 -0.3364  0.2011 -0.5033
 4041SOL    HW123582   3.498   3.546   0.842 -2.9107  0.1697  0.8748
 4041SOL    HW223583   3.491   3.409   0.901 -0.4882 -0.5679 -0.9129
 4042SOL     OW23584   0.719   3.648  17.328 -0.0998 -0.3431  0.5147
 4042SOL    HW123585   0.712   3.710  17.400 -1.0708  2.1637 -1.7093
 4042SOL    HW223586   0.795   3.597  17.356 -0.2087 -0.4063  0.6960
 4043SOL     OW23587   2.123   4.228   8.551  0.1487 -0.1386 -0.3951
 4043SOL    HW123588   2.128   4.150   8.496 -0.5655  0.4301 -1.2787
 4043SOL    HW223589   2.181   4.288   8.504 -0.7126 -1.3464 -3.0301
 4044SOL     OW23590   2.430   3.356   1.223 -0.1358  0.5913 -0.2170
 4044SOL    HW123591   2.461   3.375   1.311  0.2999  0.7511 -0.4057
 4044SOL    HW223592   2.354   3.300   1.242 -0.1756  1.1342  1.1988
 4045SOL     OW23593   0.807   3.952   8.433 -0.6467  0.1180 -0.8905
 4045SOL    HW123594   0.818   4.016   8.503 -0.0644 -2.1408  1.1008
 4045SOL    HW223595   0.891   3.905   8.437  0.5834  2.4930  0.9898
 4046SOL     OW23596   3.931   0.471   6.033 -0.0638  0.6203  0.0226
 4046SOL    HW123597   3.850   0.483   6.083  0.9056  2.5718  1.1396
 4046SOL    HW223598   3.966   0.560   6.038  0.4024  0.2813  2.9170
 4047SOL     OW23599   1.298   0.764   3.491  0.0262 -0.3392 -0.1377
 4047SOL    HW123600   1.212   0.728   3.469  0.9610 -1.3085 -2.2584
 4047SOL    HW223601   1.318   0.710   3.567 -1.0475  0.3654  0.6302
 4048SOL     OW23602   0.517   0.156  15.267  0.2212  0.2265 -0.1453
 4048SOL    HW123603   0.525   0.216  15.341  2.3157  0.5582 -0.6514
 4048SOL    HW223604   0.599   0.179  15.224  0.1262  0.7477 -0.0444
 4049SOL     OW23605   3.884   4.156  12.966 -0.9336  0.2364 -0.5473
 4049SOL    HW123606   3.847   4.128  13.049  0.9403 -0.3673  0.0710
 4049SOL    HW223607   3.851   4.096  12.899 -1.7623 -1.1351  1.1093
 4050SOL     OW23608   1.796   4.694   4.659 -0.1667  0.6070 -0.3022
 4050SOL    HW123609   1.837   0.059   4.657 -1.3849  1.1986  0.9343
 4050SOL    HW223610   1.707   0.001   4.678 -1.1350 -2.2494 -0.5567
 4051SOL     OW23611   1.162   1.979   1.519 -0.0513 -0.1424 -0.2398
 4051SOL    HW123612   1.148   1.904   1.576  2.8792  1.2328  2.2440
 4051SOL    HW223613   1.139   1.930   1.439  1.8463 -3.5608  1.3112
 4052SOL     OW23614   2.766   0.941   8.235  0.1389  0.8874 -0.7395
 4052SOL    HW123615   2.749   0.849   8.259  1.4193  0.8441 -0.0098
 4052SOL    HW223616   2.814   0.930   8.153  0.0962 -1.2524 -0.4817
 4053SOL     OW23617   1.381   4.704   6.787 -0.0699  0.2116  0.2276
 4053SOL    HW123618   1.300   4.715   6.738  0.0608  2.9048  0.5839
 4053SOL    HW223619   1.445   4.705   6.716 -1.8476 -3.6960 -1.4025
 4054SOL     OW23620   3.924   1.841  11.093  1.0708  0.0735  0.4114
 4054SOL    HW123621   3.954   1.874  11.008  0.8373 -0.9824 -0.0762
 4054SOL    HW223622   3.909   1.926  11.135  4.4537  0.4746  0.8275
 4055SOL     OW23623   1.772   0.340  17.440  0.3056  0.3378 -0.2638
 4055SOL    HW123624   1.837   0.286  17.485  1.2683  1.2949 -0.5087
 4055SOL    HW223625   1.744   0.287  17.365  1.9308 -1.6631  0.5398
 4056SOL     OW23626   3.364   3.565   2.244  0.0796 -0.5029 -0.0524
 4056SOL    HW123627   3.278   3.556   2.285  0.2802 -0.7980  0.2931
 4056SOL    HW223628   3.405   3.612   2.316 -2.2980  0.0388  0.9482
 4057SOL     OW23629   3.342   4.619   3.690  0.9892  0.2188 -0.1455
 4057SOL    HW123630   3.435   4.598   3.692 -0.2704 -5.4080 -2.3074
 4057SOL    HW223631   3.298   4.538   3.664 -0.5994  1.0269  0.0137
 4058SOL     OW23632   2.538   1.451   3.931 -0.4478 -0.1564 -0.2422
 4058SOL    HW123633   2.502   1.370   3.895  1.7374 -1.2145  0.0005
 4058SOL    HW223634   2.616   1.471   3.878 -0.6074  2.4231  0.4818
 4059SOL     OW23635   2.132   4.148   7.852 -0.3436  0.0272  0.0080
 4059SOL    HW123636   2.096   4.195   7.928  1.0022  2.1031 -0.6439
 4059SOL    HW223637   2.092   4.063   7.871 -1.2003  0.5306  0.5235
 4060SOL     OW23638   4.441   1.150   4.790  0.5035  0.5401 -0.1572
 4060SOL    HW123639   4.524   1.109   4.816  0.7630  0.3857 -1.1940
 4060SOL    HW223640   4.384   1.142   4.866 -2.8408 -1.0849 -2.8325
 4061SOL     OW23641   4.689   2.352   3.260  0.3287  0.4246  0.1778
 4061SOL    HW123642   0.042   2.334   3.318  1.3391  1.9208 -0.6596
 4061SOL    HW223643   4.711   2.441   3.233 -0.7492  0.2710 -1.1984
 4062SOL     OW23644   1.438   3.502  15.617 -0.1373  0.5244  0.6345
 4062SOL    HW123645   1.525   3.540  15.631  0.6131 -1.4486  1.3529
 4062SOL    HW223646   1.429   3.475  15.708  0.2711 -2.3208 -0.1606
 4063SOL     OW23647   3.343   4.466  16.967 -0.5762 -0.2281 -0.1765
 4063SOL    HW123648   3.266   4.420  16.932 -0.6306 -0.7693  0.6359
 4063SOL    HW223649   3.345   4.419  17.051 -0.3388 -1.0479 -0.6439
 4064SOL     OW23650   4.077   2.899  13.162  0.3523 -0.2567  0.0537
 4064SOL    HW123651   4.081   2.901  13.067  0.4250 -1.4915  0.0297
 4064SOL    HW223652   3.998   2.951  13.176  1.0696  1.5149 -2.5117
 4065SOL     OW23653   1.844   3.841   3.664  0.3477 -0.2443  0.3040
 4065SOL    HW123654   1.771   3.817   3.720  1.0599 -1.7594  0.6069
 4065SOL    HW223655   1.840   3.936   3.658 -1.0496 -0.4146 -1.4404
 4066SOL     OW23656   2.551   2.372   8.815  0.2255  0.6379  0.6732
 4066SOL    HW123657   2.468   2.340   8.850 -0.3795  4.1057  2.4234
 4066SOL    HW223658   2.577   2.290   8.773  0.4967  1.9884 -1.8375
 4067SOL     OW23659   1.744   0.015   1.756 -0.1530  0.6304 -0.5587
 4067SOL    HW123660   1.712   4.647   1.741 -2.5436  1.9387 -3.1207
 4067SOL    HW223661   1.706   0.041   1.841 -0.3095  0.0873 -0.4595
 4068SOL     OW23662   0.520   0.092  14.920  0.2565 -0.2210 -0.8199
 4068SOL    HW123663   0.556   0.054  15.000  0.8751 -0.3353 -1.1487
 4068SOL    HW223664   0.428   0.076  14.942  0.6255 -0.8991  0.2200
 4069SOL     OW23665   3.622   2.831  15.949 -0.4963  0.5477  0.0558
 4069SOL    HW123666   3.546   2.822  15.890  0.5049  2.2631 -1.4880
 4069SOL    HW223667   3.665   2.907  15.909 -2.6157  1.7138 -0.0065
 4070SOL     OW23668   2.833   1.543   5.851 -0.3362  0.6138 -0.2204
 4070SOL    HW123669   2.758   1.519   5.906 -0.6462  1.0356 -0.4598
 4070SOL    HW223670   2.807   1.633   5.829  2.6663  1.0790 -1.8058
 4071SOL     OW23671   4.401   4.017   5.343 -0.1638 -0.1287  0.5762
 4071SOL    HW123672   4.457   4.033   5.267  0.7817 -0.4774  1.1956
 4071SOL    HW223673   4.447   3.945   5.386 -1.4904 -0.7307  0.9862
 4072SOL     OW23674   0.896   1.125   3.750 -0.1162  0.3599  0.4531
 4072SOL    HW123675   0.964   1.153   3.811  0.9248  0.5632 -0.7924
 4072SOL    HW223676   0.938   1.040   3.732 -0.6647 -0.2860  2.2181
 4073SOL     OW23677   1.351   0.576  13.240  0.2031  0.6458  0.1664
 4073SOL    HW123678   1.444   0.595  13.223  0.3968 -0.2500  0.2059
 4073SOL    HW223679   1.367   0.532  13.324  0.0715 -0.8016 -0.5545
 4074SOL     OW23680   3.769   0.349   0.609  0.2390 -0.1694  0.5269
 4074SOL    HW123681   3.741   0.258   0.622 -1.2816  0.3485  0.9554
 4074SOL    HW223682   3.808   0.375   0.693  0.7767  0.9468 -0.0749
 4075SOL     OW23683   4.060   2.343   7.004 -0.0184  0.0826 -0.4196
 4075SOL    HW123684   4.141   2.324   7.050 -0.2526  1.1269  0.4390
 4075SOL    HW223685   4.064   2.437   6.984  1.0890  0.1306  0.0639
 4076SOL     OW23686   0.081   2.943  10.394 -0.0473  0.3611 -0.2211
 4076SOL    HW123687   0.019   2.883  10.352  0.6497  0.3514 -1.2300
 4076SOL    HW223688   0.053   3.017  10.342  0.7343 -1.2172 -2.8778
 4077SOL     OW23689   2.585   0.123   2.108  0.4641  0.1530 -0.4742
 4077SOL    HW123690   2.554   0.073   2.032 -1.0651 -1.1528  0.9940
 4077SOL    HW223691   2.595   0.201   2.053 -0.9634  0.8149  0.2030
 4078SOL     OW23692   3.571   1.018   4.681 -0.1291  0.5002 -0.1008
 4078SOL    HW123693   3.552   0.994   4.590  3.1254 -0.4293 -0.5339
 4078SOL    HW223694   3.488   0.993   4.721  1.3185 -0.8333  2.0264
 4079SOL     OW23695   1.783   0.669  16.323  0.1500 -0.5668 -0.1096
 4079SOL    HW123696   1.864   0.670  16.272 -0.4360  2.9221 -0.9769
 4079SOL    HW223697   1.785   0.737  16.390  0.9817  0.5666 -1.2755
 4080SOL     OW23698   0.167   3.896   5.119  0.6720  0.4360  0.1729
 4080SOL    HW123699   0.114   3.908   5.040  0.1514 -1.2851  0.2416
 4080SOL    HW223700   0.122   3.825   5.166  0.0256 -0.1636 -1.3224
 4081SOL     OW23701   3.253   2.457   3.453  0.2400  0.4249  0.3297
 4081SOL    HW123702   3.328   2.471   3.396  1.2043  1.1407  1.7850
 4081SOL    HW223703   3.220   2.372   3.424  2.2640  0.0491 -0.8457
 4082SOL     OW23704   2.850   4.687   4.295 -0.5945 -0.1945  0.1785
 4082SOL    HW123705   2.939   0.000   4.305 -0.3593 -1.0344  1.0057
 4082SOL    HW223706   2.818   0.011   4.217  1.7625 -0.6216 -1.0548
 4083SOL     OW23707   3.445   0.043   9.246  0.4603  0.8764 -0.0029
 4083SOL    HW123708   3.378   0.047   9.315  1.3904  0.3725  0.9431
 4083SOL    HW223709   3.500   4.699   9.289 -0.6797  1.3933  2.2403
 4084SOL     OW23710   4.451   2.849   5.234 -0.1725  0.3612 -0.2551
 4084SOL    HW123711   4.376   2.884   5.185 -1.6620 -1.5508  0.6708
 4084SOL    HW223712   4.441   2.892   5.318 -0.9778 -0.2489 -0.0399
 4085SOL     OW23713   0.072   0.108  13.186 -0.0659 -0.0438 -0.1143
 4085SOL    HW123714   0.033   0.021  13.179 -0.8027  0.2073  0.8147
 4085SOL    HW223715   4.708   0.152  13.184  0.4076  0.8401 -1.0131
 4086SOL     OW23716   1.649   2.123   8.231 -0.1018  0.1676  0.3759
 4086SOL    HW123717   1.599   2.169   8.163  0.9404  1.9282  0.8076
 4086SOL    HW223718   1.649   2.035   8.192  1.2045  0.6012 -0.6109
 4087SOL     OW23719   3.258   1.403   3.853 -0.3610  0.0346  0.1861
 4087SOL    HW123720   3.192   1.402   3.923  0.3950 -1.8601  0.8983
 4087SOL    HW223721   3.267   1.309   3.836  1.6742  0.4413 -0.9254
 4088SOL     OW23722   0.329   1.480   6.500 -0.3540  0.4417 -0.1942
 4088SOL    HW123723   0.394   1.452   6.565 -2.0468 -1.1577  0.8281
 4088SOL    HW223724   0.347   1.409   6.438 -2.0336 -1.3799  1.4116
 4089SOL     OW23725   4.196   4.368   1.802  0.1933  0.0376  0.3335
 4089SOL    HW123726   4.191   4.306   1.874  0.6550  0.4518  0.7164
 4089SOL    HW223727   4.127   4.427   1.831 -0.5738 -1.1832  0.9956
 4090SOL     OW23728   0.830   1.725  12.749  0.1727  0.2105  0.7903
 4090SOL    HW123729   0.827   1.670  12.827 -2.2232  0.7824  1.0946
 4090SOL    HW223730   0.767   1.793  12.773 -0.2945 -0.0821  0.3761
 4091SOL     OW23731   4.530   4.305   5.634  0.0912  0.4239 -0.1408
 4091SOL    HW123732   4.444   4.324   5.595  0.0234 -0.1391 -0.2559
 4091SOL    HW223733   4.502   4.299   5.726  0.6548  0.6645  0.0484
 4092SOL     OW23734   2.211   4.568   7.373 -0.3553 -0.1726 -0.3386
 4092SOL    HW123735   2.156   4.490   7.384  2.3276 -2.0655 -0.4073
 4092SOL    HW223736   2.296   4.540   7.408 -1.3532  1.5231  3.4811
 4093SOL     OW23737   2.122   3.115   5.503  0.3591 -0.6810  0.8803
 4093SOL    HW123738   2.098   3.086   5.415  1.2051  1.0430  0.0599
 4093SOL    HW223739   2.062   3.189   5.513  2.2507  1.0259 -0.4317
 4094SOL     OW23740   0.099   4.595   4.953  0.5722  0.2298  0.1852
 4094SOL    HW123741   0.122   4.645   5.031  2.2806 -0.4318  0.1139
 4094SOL    HW223742   0.130   4.508   4.979  0.5846  0.4158  0.7776
 4095SOL     OW23743   0.533   0.851   9.278 -0.6599  0.1810 -0.1213
 4095SOL    HW123744   0.611   0.839   9.223  0.3287 -2.6372  1.9078
 4095SOL    HW223745   0.520   0.945   9.268 -3.2314 -0.0855  0.6665
 4096SOL     OW23746   1.066   1.913  13.910  0.4596  0.4830  0.0007
 4096SOL    HW123747   1.127   1.982  13.884  0.5098  0.5764  0.3630
 4096SOL    HW223748   1.106   1.884  13.992  1.5078  1.6643 -0.0911
 4097SOL     OW23749   4.656   1.173  11.645  0.4834  0.2121 -0.9302
 4097SOL    HW123750   4.658   1.194  11.552 -1.0273  0.9381 -0.7945
 4097SOL    HW223751   4.601   1.094  11.649 -0.3668  0.8229 -0.4959
 4098SOL     OW23752   1.112   2.967   2.904  0.0175  0.0180 -0.0586
 4098SOL    HW123753   1.080   2.992   2.817  1.5787 -1.4328 -1.0425
 4098SOL    HW223754   1.037   2.979   2.962 -0.2697  0.3596 -0.4907
 4099SOL     OW23755   3.325   0.404  14.339 -0.0364  0.2705  0.0234
 4099SOL    HW123756   3.403   0.386  14.285 -2.1056 -1.8212 -2.2639
 4099SOL    HW223757   3.287   0.322  14.369  0.7319  0.4943  1.5884
 4100SOL     OW23758   2.160   3.917   1.105  0.1151 -1.0190 -0.6942
 4100SOL    HW123759   2.175   3.855   1.033 -1.1663 -2.6801  0.4725
 4100SOL    HW223760   2.235   3.893   1.159  1.4441 -0.5667 -2.3318
 4101SOL     OW23761   0.635   2.643   2.063 -0.0501 -0.5721  0.0834
 4101SOL    HW123762   0.561   2.583   2.054 -0.6983  0.1242  0.8036
 4101SOL    HW223763   0.613   2.723   2.016  1.5723 -0.5092 -0.5701
 4102SOL     OW23764   2.623   0.125   6.640 -0.2050  0.7044 -0.4383
 4102SOL    HW123765   2.718   0.137   6.647 -0.0095 -2.5644  2.5455
 4102SOL    HW223766   2.592   0.185   6.708  2.6308  1.7280 -0.0533
 4103SOL     OW23767   4.197   4.193   4.306  0.7735 -0.3657  0.2598
 4103SOL    HW123768   4.202   4.206   4.211  0.0138  0.0326  0.2788
 4103SOL    HW223769   4.118   4.242   4.323 -0.3721 -2.1857  0.2232
 4104SOL     OW23770   2.473   1.490   8.456 -0.4421 -0.8829  0.2925
 4104SOL    HW123771   2.559   1.469   8.419  0.2933 -0.0689  1.5780
 4104SOL    HW223772   2.490   1.583   8.467 -1.0571 -0.7867  0.4275
 4105SOL     OW23773   1.757   1.333   1.376  0.6145 -0.5166  0.1044
 4105SOL    HW123774   1.833   1.392   1.387 -1.2344  1.7640  0.6980
 4105SOL    HW223775   1.768   1.309   1.284  0.5596 -1.7077  0.4125
 4106SOL     OW23776   1.339   3.708   8.705 -0.2650  0.0814 -0.0987
 4106SOL    HW123777   1.425   3.698   8.664  0.5005  0.6245  1.3887
 4106SOL    HW223778   1.373   3.756   8.781  2.0851  1.5155 -2.0531
 4107SOL     OW23779   3.690   1.494   0.574 -0.3076 -0.2482  0.1236
 4107SOL    HW123780   3.717   1.580   0.606 -0.7486  0.6516 -1.9042
 4107SOL    HW223781   3.739   1.426   0.620 -1.6685 -0.9619  0.5126
 4108SOL     OW23782   3.770   0.863   4.927 -0.3735 -0.1443  0.2305
 4108SOL    HW123783   3.774   0.799   4.998  3.2334 -0.9515 -0.6660
 4108SOL    HW223784   3.772   0.811   4.847  0.9412  1.2357 -0.6532
 4109SOL     OW23785   3.256   2.404   4.683 -0.6725  0.7334 -0.3320
 4109SOL    HW123786   3.325   2.356   4.638 -1.4530 -1.2072  0.5626
 4109SOL    HW223787   3.279   2.385   4.774  0.7817 -1.0825 -1.0877
 4110SOL     OW23788   0.186   3.608   2.925  0.5994 -0.3908  0.1851
 4110SOL    HW123789   0.097   3.636   2.906  0.3282 -0.1605  1.8191
 4110SOL    HW223790   0.171   3.571   3.011  1.5463 -0.4815  0.3122
 4111SOL     OW23791   2.457   3.754   4.325 -0.1920  0.6535 -0.2353
 4111SOL    HW123792   2.506   3.754   4.407  1.5065  2.3934 -1.2510
 4111SOL    HW223793   2.442   3.848   4.313  2.5229  0.8107 -2.4564
 4112SOL     OW23794   4.310   3.405  15.581 -0.1580 -0.1655 -0.6687
 4112SOL    HW123795   4.358   3.473  15.534 -0.3245 -0.6778 -1.5789
 4112SOL    HW223796   4.311   3.447  15.667 -1.6402 -2.2183  0.3453
 4113SOL     OW23797   4.369   2.542   0.145  0.0426 -0.4001 -0.4004
 4113SOL    HW123798   4.417   2.492   0.211  0.9648  1.0087  0.0144
 4113SOL    HW223799   4.428   2.616   0.134  0.3849 -0.8331 -1.4307
 4114SOL     OW23800   4.151   3.923   5.222 -0.3275 -0.1661 -0.4121
 4114SOL    HW123801   4.098   3.978   5.164  1.6128 -0.0629 -2.0678
 4114SOL    HW223802   4.205   3.988   5.266 -1.7427 -1.1249  2.8128
 4115SOL     OW23803   4.424   3.718   9.016 -0.0000  0.3524  0.0852
 4115SOL    HW123804   4.343   3.701   9.065  0.2262  0.9994  0.6704
 4115SOL    HW223805   4.401   3.789   8.956 -2.2400  0.5640  1.2045
 4116SOL     OW23806   1.709   0.561   6.054  0.3108  0.5712 -0.4740
 4116SOL    HW123807   1.701   0.656   6.046  0.6529  0.5479 -1.1171
 4116SOL    HW223808   1.773   0.550   6.124  1.3565  2.0762 -1.1981
 4117SOL     OW23809   1.500   3.909   2.407 -0.5664 -0.0788  0.3818
 4117SOL    HW123810   1.477   3.880   2.319  1.8742 -1.3516  0.1400
 4117SOL    HW223811   1.595   3.922   2.406 -0.4175 -1.2330 -0.7570
 4118SOL     OW23812   4.285   4.102   5.628  0.0944 -0.2849 -0.1764
 4118SOL    HW123813   4.213   4.165   5.633  1.9312  2.0734 -3.5427
 4118SOL    HW223814   4.305   4.109   5.535  1.6534 -2.8570 -0.0372
 4119SOL     OW23815   3.636   0.660   7.772 -0.2532  0.1000 -0.2437
 4119SOL    HW123816   3.581   0.697   7.840  0.1800  0.0855  0.1129
 4119SOL    HW223817   3.682   0.737   7.738 -0.5952  0.8488  1.0191
 4120SOL     OW23818   3.831   3.226  15.429 -0.3024  0.3658  0.0978
 4120SOL    HW123819   3.829   3.279  15.349  1.0346  0.1618 -0.0680
 4120SOL    HW223820   3.740   3.219  15.458 -0.5905  0.7777 -0.7045
 4121SOL     OW23821   1.834   3.701  11.307  0.6251 -0.4242 -0.0404
 4121SOL    HW123822   1.764   3.639  11.288 -0.7595  2.0454 -3.0151
 4121SOL    HW223823   1.852   3.739  11.221 -1.7229 -0.2713 -0.4472
 4122SOL     OW23824   1.542   3.700   1.429  0.5127  0.3006 -0.6658
 4122SOL    HW123825   1.463   3.677   1.478  0.8649  3.0296  1.1623
 4122SOL    HW223826   1.563   3.611   1.401 -0.9269 -0.4800  0.6972
 4123SOL     OW23827   4.222   2.196   7.877  0.6581  0.6044 -0.1213
 4123SOL    HW123828   4.234   2.287   7.849 -1.8091  1.6634  2.3374
 4123SOL    HW223829   4.219   2.159   7.788  0.7496  2.4483 -0.9008
 4124SOL     OW23830   2.387   1.239   5.829 -0.3699  0.0575 -0.2792
 4124SOL    HW123831   2.430   1.188   5.760 -2.0973 -0.3267 -1.0475
 4124SOL    HW223832   2.451   1.232   5.900 -1.6954 -0.2012  0.8829
 4125SOL     OW23833   1.618   3.228  16.205 -0.7600 -0.0003  0.0188
 4125SOL    HW123834   1.611   3.158  16.269  0.6101 -0.0176  0.1367
 4125SOL    HW223835   1.660   3.194  16.126  0.9673  1.5152  0.2871
 4126SOL     OW23836   2.568   3.292  13.217 -0.2505  0.7104 -0.3551
 4126SOL    HW123837   2.541   3.204  13.191  1.4635 -0.1659  0.8257
 4126SOL    HW223838   2.589   3.268  13.308 -0.7316  1.6481  0.0047
 4127SOL     OW23839   1.313   1.387   2.148 -0.1218  0.2305  0.5242
 4127SOL    HW123840   1.291   1.301   2.112 -0.7588  0.5868  0.0648
 4127SOL    HW223841   1.272   1.378   2.234  0.3424 -0.9259  0.6127
 4128SOL     OW23842   0.911   2.772  11.363  0.3777 -0.6615 -0.1292
 4128SOL    HW123843   0.823   2.745  11.392  0.1867  0.3405  0.2168
 4128SOL    HW223844   0.890   2.850  11.311 -1.0486 -1.3668 -0.6154
 4129SOL     OW23845   4.357   1.502   6.352  0.0985  0.0010 -0.4041
 4129SOL    HW123846   4.380   1.504   6.259  1.0374 -1.5808 -0.2079
 4129SOL    HW223847   4.428   1.551   6.392  0.8106 -0.8737 -0.5952
 4130SOL     OW23848   2.379   1.760   0.284 -0.2801  0.5298 -0.6645
 4130SOL    HW123849   2.470   1.768   0.256 -0.1190 -2.7062 -1.0552
 4130SOL    HW223850   2.356   1.701   0.212  0.9688 -1.7075  0.7562
 4131SOL     OW23851   1.795   3.036   5.143 -0.0834 -0.3250 -0.1437
 4131SOL    HW123852   1.813   3.127   5.117 -0.7324  0.0723  0.7966
 4131SOL    HW223853   1.715   3.052   5.194  0.3427 -0.6976  0.6317
 4132SOL     OW23854   1.742   3.332  12.343  0.5282  0.0702 -0.4065
 4132SOL    HW123855   1.735   3.237  12.353 -0.5094  0.1087 -0.8272
 4132SOL    HW223856   1.718   3.343  12.251  0.0223 -1.1455 -0.4179
 4133SOL     OW23857   4.420   0.866   6.789  0.3547  0.1842  0.2538
 4133SOL    HW123858   4.510   0.849   6.761  0.0451 -0.9882 -0.0662
 4133SOL    HW223859   4.377   0.901   6.711 -0.5481 -2.3280 -0.3763
 4134SOL     OW23860   4.277   0.590  13.023 -0.2096  0.1017 -0.0026
 4134SOL    HW123861   4.326   0.563  13.100 -1.1220 -1.0165  0.1934
 4134SOL    HW223862   4.255   0.500  13.000 -1.9146  0.5490 -0.1834
 4135SOL     OW23863   4.339   1.196   5.022 -0.1900 -0.3182 -0.2072
 4135SOL    HW123864   4.368   1.146   5.098 -0.1999  1.2949  0.8753
 4135SOL    HW223865   4.244   1.193   5.028 -0.3633  2.6691 -1.3016
 4136SOL     OW23866   3.119   3.658   0.694 -0.0814  0.8120  0.7057
 4136SOL    HW123867   3.028   3.671   0.722 -0.5039 -0.3118 -0.1798
 4136SOL    HW223868   3.150   3.590   0.753  0.5166  0.6979  0.2555
 4137SOL     OW23869   2.061   2.262  16.200 -0.2994  0.2916  0.0959
 4137SOL    HW123870   2.108   2.345  16.188  0.1202  0.2745  1.5629
 4137SOL    HW223871   2.011   2.281  16.279 -0.0723 -0.9823  0.5393
 4138SOL     OW23872   2.678   0.563   7.148 -0.6703  0.3058  0.2473
 4138SOL    HW123873   2.745   0.543   7.083  1.1380  0.3817  2.0917
 4138SOL    HW223874   2.616   0.614   7.095 -0.7305 -2.5648 -2.4596
 4139SOL     OW23875   3.646   3.777   3.060 -0.1197  0.4790  0.0702
 4139SOL    HW123876   3.701   3.842   3.016  2.0270 -0.8652  0.7864
 4139SOL    HW223877   3.710   3.740   3.121 -0.3135  0.0639  0.0238
 4140SOL     OW23878   1.176   0.154  14.132 -0.4682 -0.5194 -0.2388
 4140SOL    HW123879   1.258   0.188  14.098  0.2249 -1.9650 -0.0279
 4140SOL    HW223880   1.212   0.141  14.220  0.3772 -0.2085 -0.5453
 4141SOL     OW23881   1.500   0.773  10.555  0.4095  0.3580 -0.0426
 4141SOL    HW123882   1.505   0.828  10.634 -0.8340  0.2898  0.0906
 4141SOL    HW223883   1.475   0.685  10.581  0.2563  0.2581 -0.5233
 4142SOL     OW23884   4.461   0.655   2.506  0.0197  0.4995  0.5301
 4142SOL    HW123885   4.511   0.654   2.587  3.3106 -0.0070 -1.5069
 4142SOL    HW223886   4.424   0.567   2.513 -0.9257  0.8608  0.1188
 4143SOL     OW23887   1.812   4.163  11.146  0.0512  0.5316  0.0149
 4143SOL    HW123888   1.802   4.140  11.239  1.2160 -0.8825 -0.2208
 4143SOL    HW223889   1.732   4.122  11.114  0.0460 -0.4439  1.2440
 4144SOL     OW23890   2.378   3.592   3.473 -0.0153 -0.4640  0.3052
 4144SOL    HW123891   2.336   3.591   3.559 -1.3978  0.6668 -0.3535
 4144SOL    HW223892   2.390   3.687   3.470 -0.3033 -0.4180  0.6143
 4145SOL     OW23893   3.020   1.672   4.575  0.4357  0.2156 -0.0191
 4145SOL    HW123894   2.933   1.712   4.583  0.9401  1.1919  0.7698
 4145SOL    HW223895   3.016   1.646   4.484 -2.0057  0.0021  0.1552
 4146SOL     OW23896   3.029   2.266  14.910  0.2210 -0.4728  0.0192
 4146SOL    HW123897   3.084   2.272  14.988  1.0648 -1.2174 -0.5123
 4146SOL    HW223898   3.096   2.279  14.843  1.0966 -2.6967  0.4649
 4147SOL     OW23899   1.990   0.153   6.284 -0.7064  0.5226  0.0946
 4147SOL    HW123900   1.977   0.158   6.379  0.1181 -0.4096  0.2479
 4147SOL    HW223901   2.078   0.189   6.274 -0.8676  0.8957  0.0036
 4148SOL     OW23902   1.391   1.743   9.596 -0.3565  0.6257  0.2289
 4148SOL    HW123903   1.435   1.824   9.569 -1.7058  0.8262 -1.3689
 4148SOL    HW223904   1.454   1.671   9.593 -1.2696 -0.1767  0.0293
 4149SOL     OW23905   1.950   3.163   8.899  0.9122  0.2873 -0.3577
 4149SOL    HW123906   1.934   3.083   8.850 -3.1955  0.3971  0.7579
 4149SOL    HW223907   2.027   3.191   8.851  0.1393  0.2087 -1.6530
 4150SOL     OW23908   2.538   4.438   0.849  0.7149  0.2085 -0.5138
 4150SOL    HW123909   2.487   4.516   0.869 -1.7973 -1.4198 -0.6933
 4150SOL    HW223910   2.573   4.408   0.933 -0.9152 -1.7392 -0.5483
 4151SOL     OW23911   1.958   1.184   8.800  0.0775 -0.0495  0.2955
 4151SOL    HW123912   2.024   1.204   8.866  1.8444  2.0444 -2.1321
 4151SOL    HW223913   1.882   1.155   8.852  0.9219 -2.1681  0.3485
 4152SOL     OW23914   0.970   0.347   2.924 -0.1731  0.5695  0.1328
 4152SOL    HW123915   1.004   0.357   2.835 -2.4294  0.1241 -0.7786
 4152SOL    HW223916   1.040   0.370   2.986 -0.3563 -1.1762  0.9892
 4153SOL     OW23917   3.915   2.562   5.543  0.3476 -0.7035  0.1295
 4153SOL    HW123918   3.884   2.521   5.462  1.0537 -1.1840  0.1024
 4153SOL    HW223919   3.949   2.478   5.575  2.2870  1.1715  2.9247
 4154SOL     OW23920   1.126   3.572  14.230  0.2811 -0.4040  0.4963
 4154SOL    HW123921   1.046   3.612  14.264  1.6952 -0.1018  3.4538
 4154SOL    HW223922   1.177   3.651  14.211  1.2347 -0.9299  0.8797
 4155SOL     OW23923   3.432   2.006   7.449  0.2694 -0.0924 -0.1816
 4155SOL    HW123924   3.479   2.014   7.532  1.3041 -2.3394 -0.5597
 4155SOL    HW223925   3.468   1.920   7.427  2.0627  1.3010 -2.6951
 4156SOL     OW23926   2.893   1.381   8.887 -0.4517  0.0957 -0.6524
 4156SOL    HW123927   2.969   1.321   8.888 -1.7796 -1.5809  1.9305
 4156SOL    HW223928   2.865   1.380   8.796  1.2197 -2.4277 -1.1458
 4157SOL     OW23929   2.686   2.513   8.484 -0.2982 -0.5124  0.0080
 4157SOL    HW123930   2.717   2.534   8.572 -1.1350 -4.0032  1.1079
 4157SOL    HW223931   2.769   2.496   8.439  0.3220  4.3665 -0.7105
 4158SOL     OW23932   1.815   4.111   3.659  0.1644 -0.4441  0.3375
 4158SOL    HW123933   1.799   4.164   3.737  2.2048 -0.7251  0.9288
 4158SOL    HW223934   1.757   4.156   3.597 -1.0115  0.8851  2.4081
 4159SOL     OW23935   3.111   1.694  15.786  0.2451  0.2714 -0.0293
 4159SOL    HW123936   3.038   1.717  15.729 -3.9028 -1.0087  4.7747
 4159SOL    HW223937   3.142   1.779  15.817 -1.4358  0.6114  0.7300
 4160SOL     OW23938   4.053   0.111   0.375  0.2587 -0.5966 -0.5884
 4160SOL    HW123939   4.126   0.051   0.389 -0.3236 -2.3178 -4.8127
 4160SOL    HW223940   4.041   0.150   0.462  1.5495  0.0415 -0.6977
 4161SOL     OW23941   3.135   1.385   7.196  0.2220 -0.1658 -0.3618
 4161SOL    HW123942   3.131   1.479   7.180  1.4212 -0.0579  0.0105
 4161SOL    HW223943   3.110   1.353   7.110 -0.9332 -0.1239 -0.0407
 4162SOL     OW23944   0.359   4.017   6.191  0.4443  0.4570  0.1423
 4162SOL    HW123945   0.345   3.993   6.283  0.8614  1.0335  0.3553
 4162SOL    HW223946   0.452   3.993   6.190 -0.1988 -2.0598 -1.2433
 4163SOL     OW23947   1.038   0.926   3.658 -0.1680 -0.0409  0.2602
 4163SOL    HW123948   1.020   0.932   3.565 -0.3717  0.8516  0.3638
 4163SOL    HW223949   1.036   0.832   3.675  1.9505  0.0356  1.0316
 4164SOL     OW23950   0.250   1.602   9.128  0.4149 -0.0240 -0.0994
 4164SOL    HW123951   0.184   1.538   9.101  2.3714 -2.3016  0.5017
 4164SOL    HW223952   0.235   1.665   9.057  3.5307  0.5465 -0.2626
 4165SOL     OW23953   4.269   3.143   8.873 -0.2254 -0.1032  0.2626
 4165SOL    HW123954   4.270   3.237   8.890  0.7708 -0.2309  0.9658
 4165SOL    HW223955   4.360   3.115   8.870  0.0629  0.5161  2.9008
 4166SOL     OW23956   0.583   2.968   6.986 -0.3201  0.0317 -0.2553
 4166SOL    HW123957   0.532   3.044   7.013 -0.4074 -0.5042  1.1109
 4166SOL    HW223958   0.662   2.982   7.037  0.5496  0.6326 -1.7878
 4167SOL     OW23959   2.495   4.642   5.341 -0.1862  0.2995 -0.0786
 4167SOL    HW123960   2.528   0.007   5.366  0.4954  0.2697 -0.8663
 4167SOL    HW223961   2.402   4.661   5.330 -0.3983 -0.9498 -0.5668
 4168SOL     OW23962   3.539   4.275   6.601  0.0768  0.0664  0.5031
 4168SOL    HW123963   3.577   4.283   6.513  1.6709 -0.8992  1.0936
 4168SOL    HW223964   3.500   4.188   6.605 -0.5568  0.3187 -0.3522
 4169SOL     OW23965   2.364   1.783  13.425 -0.0130 -0.1285  0.7844
 4169SOL    HW123966   2.347   1.711  13.487  0.0831  0.1370  1.1192
 4169SOL    HW223967   2.413   1.842  13.482 -0.1022  0.7000 -0.0144
 4170SOL     OW23968   2.254   0.665   1.260 -0.2725  0.5770 -0.0196
 4170SOL    HW123969   2.276   0.711   1.341  1.3377  0.5426 -0.4332
 4170SOL    HW223970   2.304   0.585   1.280 -1.0288 -0.0458 -0.6495
 4171SOL     OW23971   2.228   0.641   2.606  0.1702 -0.3029 -0.0151
 4171SOL    HW123972   2.198   0.720   2.561  1.4583 -1.2556 -2.5109
 4171SOL    HW223973   2.237   0.582   2.531 -0.4837 -2.1156  1.3117
 4172SOL     OW23974   0.162   4.244  15.383  0.3765 -0.4661  0.1022
 4172SOL    HW123975   0.136   4.278  15.468 -0.4482  0.8676 -0.6798
 4172SOL    HW223976   0.147   4.150  15.395  0.1064 -0.3342  0.8001
 4173SOL     OW23977   1.896   3.338   8.549  0.1924  0.1051  0.1880
 4173SOL    HW123978   1.988   3.323   8.527  0.6078  3.6316 -0.5103
 4173SOL    HW223979   1.857   3.357   8.463 -3.2192 -0.7331  1.5608
 4174SOL     OW23980   2.736   3.062   8.482  0.2239  0.6033  0.1074
 4174SOL    HW123981   2.769   2.983   8.441  1.5287  1.7926 -1.1507
 4174SOL    HW223982   2.816   3.089   8.529 -0.7591  2.1121  0.9006
 4175SOL     OW23983   1.011   0.676   3.457  0.1540  0.1161  0.3303
 4175SOL    HW123984   0.961   0.597   3.477  1.5429 -0.6862  0.6437
 4175SOL    HW223985   0.937   0.737   3.464  0.5067  0.9755 -3.6481
 4176SOL     OW23986   2.178   1.844  16.256 -0.0193  0.1406 -0.2237
 4176SOL    HW123987   2.192   1.752  16.275 -0.3923  0.2591  0.6581
 4176SOL    HW223988   2.199   1.848  16.163 -1.8794 -0.8484 -0.6729
 4177SOL     OW23989   4.633   1.356   3.187 -0.1296 -0.2695  0.7248
 4177SOL    HW123990   4.706   1.314   3.141  1.3798  1.5745  1.4187
 4177SOL    HW223991   4.630   1.443   3.147 -0.7139 -1.5839 -2.1562
 4178SOL     OW23992   0.924   0.984  16.858 -0.5722 -0.6341  0.4816
 4178SOL    HW123993   0.879   1.068  16.854 -0.4598 -0.6628 -1.7337
 4178SOL    HW223994   0.857   0.915  16.852 -0.2211 -0.9569  0.2449
 4179SOL     OW23995   0.942   3.081  17.443  0.0457  0.6860 -1.0185
 4179SOL    HW123996   0.897   3.158  17.479 -1.9895  0.1084 -2.3900
 4179SOL    HW223997   1.032   3.113  17.450  0.0421  0.2658  1.0752
 4180SOL     OW23998   3.597   4.299   0.125 -0.6919  0.6307 -0.1724
 4180SOL    HW123999   3.535   4.227   0.111 -0.0373  0.5434 -2.4832
 4180SOL    HW224000   3.537   4.373   0.119 -1.6912 -0.0751  0.9233
 4181SOL     OW24001   2.352   3.589   7.756  0.3045  0.2545  0.0464
 4181SOL    HW124002   2.346   3.604   7.661 -1.3252 -0.3154  0.0535
 4181SOL    HW224003   2.413   3.515   7.755  1.3268  1.0887  0.7086
 4182SOL     OW24004   1.761   3.710   3.469  0.0910 -0.0779  0.2630
 4182SOL    HW124005   1.786   3.755   3.549 -4.8394  0.4758  1.5294
 4182SOL    HW224006   1.827   3.736   3.405  1.6042 -3.6231  0.4064
 4183SOL     OW24007   1.552   3.254   5.885  0.3882 -0.2102  0.1483
 4183SOL    HW124008   1.468   3.251   5.840  0.3439 -0.2517  0.2343
 4183SOL    HW224009   1.526   3.291   5.970 -1.7106 -0.4500 -0.3926
 4184SOL     OW24010   1.707   0.378   5.279  0.1844 -0.0863 -0.5899
 4184SOL    HW124011   1.627   0.326   5.268  1.5656 -1.8278 -2.3229
 4184SOL    HW224012   1.670   0.446   5.334 -1.5804 -0.9763 -0.6566
 4185SOL     OW24013   2.614   3.433   4.407 -0.1860 -0.3513 -0.4658
 4185SOL    HW124014   2.651   3.501   4.351  0.3417 -2.2138 -2.3623
 4185SOL    HW224015   2.629   3.355   4.354 -1.5957 -1.7830  1.2258
 4186SOL     OW24016   1.631   0.817   7.432  0.3135  0.5838  0.3856
 4186SOL    HW124017   1.724   0.826   7.453 -0.1917  2.1909  1.9226
 4186SOL    HW224018   1.628   0.730   7.392 -1.6090 -1.3166  4.6590
 4187SOL     OW24019   2.015   0.753   1.150  0.0122 -0.3678  0.8482
 4187SOL    HW124020   2.051   0.828   1.102 -1.5760  0.2573  0.6513
 4187SOL    HW224021   2.101   0.731   1.187  0.7807  1.7603  0.3860
 4188SOL     OW24022   2.323   2.090  10.935  0.5561  0.2852  0.0699
 4188SOL    HW124023   2.403   2.047  10.964  0.3183 -0.2119 -0.0095
 4188SOL    HW224024   2.265   2.078  11.010  0.2083 -1.3499 -0.4676
 4189SOL     OW24025   0.706   4.115   1.077 -0.1369  0.1348 -0.3252
 4189SOL    HW124026   0.654   4.186   1.115 -0.4137 -0.5210  0.5251
 4189SOL    HW224027   0.728   4.055   1.148 -0.2504  0.0211 -0.3864
 4190SOL     OW24028   1.692   4.240   9.187  0.3624  0.1079  0.4718
 4190SOL    HW124029   1.772   4.202   9.224 -0.7753 -0.9079  1.8718
 4190SOL    HW224030   1.640   4.162   9.169  1.8561 -0.3465 -2.0141
 4191SOL     OW24031   4.245   0.239  11.971 -0.4276  0.5220 -0.2478
 4191SOL    HW124032   4.193   0.314  11.999  1.4739  2.0655 -0.8006
 4191SOL    HW224033   4.329   0.284  11.957 -0.9415  1.5520  0.0293
 4192SOL     OW24034   3.604   3.035   1.173 -0.9818 -0.1071 -0.0956
 4192SOL    HW124035   3.568   3.111   1.218 -0.4248  0.9571 -1.4517
 4192SOL    HW224036   3.578   2.964   1.232  0.9506  0.0443  0.9649
 4193SOL     OW24037   2.045   3.572   5.002 -0.5518  0.6017 -0.1847
 4193SOL    HW124038   1.956   3.589   5.033 -0.7604  2.0539 -1.5444
 4193SOL    HW224039   2.057   3.660   4.967  1.2937  1.2508  2.0912
 4194SOL     OW24040   1.323   0.660   7.196 -0.0617  0.2215 -0.0228
 4194SOL    HW124041   1.375   0.654   7.276 -0.5805  2.4873  0.4953
 4194SOL    HW224042   1.299   0.751   7.213 -0.8237  0.1894 -0.9315
 4195SOL     OW24043   3.897   2.440   8.213  0.6818  0.3095  0.0283
 4195SOL    HW124044   3.876   2.416   8.303  2.4880  1.2814  0.6961
 4195SOL    HW224045   3.823   2.498   8.192  0.5480 -0.5219 -1.7844
 4196SOL     OW24046   2.754   1.470   4.236  0.1496 -0.2984 -0.1750
 4196SOL    HW124047   2.740   1.462   4.142  0.4887 -1.3223 -0.1439
 4196SOL    HW224048   2.765   1.564   4.239  2.3864 -0.5315 -1.3233
 4197SOL     OW24049   1.298   4.521   5.264 -0.2757 -0.2726  0.7941
 4197SOL    HW124050   1.256   4.440   5.292 -1.2443 -0.4258 -1.0570
 4197SOL    HW224051   1.268   4.525   5.173  1.9329 -1.4329  0.0114
 4198SOL     OW24052   0.450   2.214   5.741 -0.0134 -0.1905 -0.3273
 4198SOL    HW124053   0.391   2.139   5.749  2.2921 -1.9928 -0.4399
 4198SOL    HW224054   0.461   2.237   5.833  0.2139 -2.1807  0.1435
 4199SOL     OW24055   2.973   3.009   3.856  0.3617  0.1634  0.6446
 4199SOL    HW124056   2.900   3.044   3.804  1.0738 -1.5648 -1.5279
 4199SOL    HW224057   2.955   2.915   3.850  0.6326  0.1630 -0.2437
 4200SOL     OW24058   1.584   4.120   9.506  0.1597 -0.3526 -0.3244
 4200SOL    HW124059   1.599   4.078   9.591  0.8178 -0.9409 -0.7254
 4200SOL    HW224060   1.651   4.076   9.453  0.3107  1.2547 -1.4726
 4201SOL     OW24061   0.046   3.698   5.245 -0.1164  0.1674  0.1285
 4201SOL    HW124062   4.680   3.674   5.274 -1.1222  3.9857  0.2794
 4201SOL    HW224063   0.059   3.640   5.170 -0.2915  1.0076 -0.5427
 4202SOL     OW24064   2.486   3.624  12.649  0.5800 -0.2822 -0.0367
 4202SOL    HW124065   2.409   3.657  12.602  0.3183  0.5638  0.9952
 4202SOL    HW224066   2.551   3.638  12.581  0.6005  0.5943  0.1629
 4203SOL     OW24067   4.420   0.771   1.878  0.3165  0.4018  0.1701
 4203SOL    HW124068   4.491   0.834   1.866 -0.0249  0.5922 -0.9233
 4203SOL    HW224069   4.399   0.789   1.969 -0.4797  1.0836 -0.1483
 4204SOL     OW24070   4.310   0.675   4.864  0.2643 -0.0712 -0.1820
 4204SOL    HW124071   4.216   0.670   4.883  0.9216 -1.1622  2.7697
 4204SOL    HW224072   4.330   0.723   4.944  1.6355  1.6154 -1.5400
 4205SOL     OW24073   0.057   0.800   2.731 -0.2748 -0.1373  0.6053
 4205SOL    HW124074   4.701   0.760   2.773  1.2128 -2.0853  1.4647
 4205SOL    HW224075   0.041   0.785   2.638 -1.4654  1.2411  0.5850
 4206SOL     OW24076   0.662   1.599   4.737  0.0420 -0.2457  0.1907
 4206SOL    HW124077   0.690   1.659   4.668 -2.3421  2.1844  1.3196
 4206SOL    HW224078   0.705   1.522   4.701 -1.3119 -0.1170 -1.6843
 4207SOL     OW24079   3.624   2.363   9.187  0.9183  0.8422 -0.4354
 4207SOL    HW124080   3.632   2.268   9.186 -0.0585  0.7466  0.9370
 4207SOL    HW224081   3.572   2.372   9.266  1.9454 -2.1173  0.5827
 4208SOL     OW24082   3.932   1.956   5.320 -0.0752 -0.5829  0.5026
 4208SOL    HW124083   4.003   1.895   5.298 -0.4051 -1.0632  0.7663
 4208SOL    HW224084   3.873   1.933   5.249 -0.2045 -1.8142  0.9992
 4209SOL     OW24085   1.915   0.581   7.555 -0.0905 -0.2186 -0.4982
 4209SOL    HW124086   1.934   0.605   7.646 -0.3216  1.3367 -0.8576
 4209SOL    HW224087   1.994   0.617   7.514 -0.9075  2.1115 -0.0094
 4210SOL     OW24088   0.743   4.599   4.303  0.1539 -0.2251  0.1040
 4210SOL    HW124089   0.757   4.692   4.285 -0.3824 -0.2074 -0.2206
 4210SOL    HW224090   0.656   4.586   4.340  0.7469  1.3334  2.0448
 4211SOL     OW24091   3.996   0.280   3.287  0.0166  0.3311 -0.4102
 4211SOL    HW124092   3.988   0.375   3.297  2.3438  0.3477  1.0833
 4211SOL    HW224093   3.903   0.259   3.300  0.2484  0.1443  0.9491
 4212SOL     OW24094   3.176   1.492  12.091 -0.0462 -0.2414  0.2246
 4212SOL    HW124095   3.215   1.473  12.177  0.0135 -0.5056  0.1383
 4212SOL    HW224096   3.223   1.430  12.036 -0.3784 -0.9339  0.7257
 4213SOL     OW24097   1.565   0.124   3.975  0.2203  0.3917 -0.1862
 4213SOL    HW124098   1.483   0.116   4.024 -1.1822  0.8151 -2.4630
 4213SOL    HW224099   1.535   0.160   3.891 -1.6482 -0.3766  0.1472
 4214SOL     OW24100   1.955   3.269   3.338  0.3339 -0.0917  0.1353
 4214SOL    HW124101   1.984   3.194   3.286 -1.3522  0.1636 -1.1711
 4214SOL    HW224102   2.021   3.335   3.317 -0.0646  0.0440 -0.7104
 4215SOL     OW24103   4.117   0.386  16.380 -0.0603  0.3511  0.0655
 4215SOL    HW124104   4.116   0.342  16.295  0.6282 -2.0438  1.3048
 4215SOL    HW224105   4.172   0.463  16.363  1.1725 -0.6239 -0.4236
 4216SOL     OW24106   0.262   4.500   5.396 -0.0888  0.0970  0.0631
 4216SOL    HW124107   0.271   4.406   5.411 -1.4965 -0.0487 -0.0232
 4216SOL    HW224108   0.332   4.513   5.332  2.4677  2.4388  3.3813
 4217SOL     OW24109   0.331   0.033  12.485  0.1569 -0.3389 -0.2596
 4217SOL    HW124110   0.342   4.661  12.501 -0.8191 -0.6952 -1.7251
 4217SOL    HW224111   0.378   0.065  12.563  0.3036  3.0283 -1.7416
 4218SOL     OW24112   3.168   0.467  16.582 -0.7534 -0.1279  0.1549
 4218SOL    HW124113   3.104   0.510  16.638 -1.1668 -0.0578 -0.3763
 4218SOL    HW224114   3.160   0.535  16.515 -3.7025 -1.0107 -0.3816
 4219SOL     OW24115   1.249   4.148   6.627 -0.3397  0.4077 -0.4621
 4219SOL    HW124116   1.166   4.182   6.659 -1.5331 -0.9051 -2.1492
 4219SOL    HW224117   1.215   4.124   6.541 -0.6966 -0.7718  0.0072
 4220SOL     OW24118   0.097   2.068  16.341  0.2877 -0.2915  0.2772
 4220SOL    HW124119   0.115   2.131  16.410 -1.0610  2.2082 -1.6686
 4220SOL    HW224120   0.146   2.112  16.272  0.3098 -0.5633  0.1204
 4221SOL     OW24121   1.919   1.022   1.802 -0.2315 -0.5163  0.1296
 4221SOL    HW124122   1.878   1.023   1.715  0.8905  1.0725 -0.3741
 4221SOL    HW224123   1.937   0.929   1.814  0.3417 -0.8399 -3.2189
 4222SOL     OW24124   0.458   2.065   7.435  0.0593 -0.4658 -0.3707
 4222SOL    HW124125   0.527   2.002   7.416 -0.6516 -1.5594  0.6619
 4222SOL    HW224126   0.509   2.143   7.413  0.9894 -0.7453  0.8098
 4223SOL     OW24127   3.026   3.754   1.603 -0.0402 -0.5269 -0.2444
 4223SOL    HW124128   2.944   3.792   1.636 -0.4441  0.4474 -2.3605
 4223SOL    HW224129   3.066   3.768   1.688 -1.5760 -2.7343  0.8385
 4224SOL     OW24130   3.343   2.617   5.894  0.3030 -0.2060 -0.0512
 4224SOL    HW124131   3.321   2.666   5.815 -2.8581  0.2825  1.1389
 4224SOL    HW224132   3.428   2.657   5.910 -0.7531  1.7322  0.6248
 4225SOL     OW24133   3.868   4.566   6.575 -0.1146  0.3967  0.5769
 4225SOL    HW124134   3.925   4.554   6.499 -1.8961 -0.6301 -0.5988
 4225SOL    HW224135   3.847   4.475   6.598  2.8830 -0.7202 -1.2032
 4226SOL     OW24136   4.333   1.444   0.889 -0.2407 -0.2142  0.2161
 4226SOL    HW124137   4.424   1.427   0.869 -0.1715 -0.9529  1.1667
 4226SOL    HW224138   4.280   1.413   0.816  0.6195 -1.7372  0.2434
 4227SOL     OW24139   0.244   0.249   6.086  0.6348 -0.4480 -0.8263
 4227SOL    HW124140   0.329   0.254   6.041  0.6682 -3.5662 -1.0749
 4227SOL    HW224141   0.276   0.229   6.174 -0.4315  3.2073  0.3801
 4228SOL     OW24142   1.789   0.125   9.963  0.4391 -0.4217 -0.2415
 4228SOL    HW124143   1.777   0.078   9.881 -2.1033 -1.3302  0.6550
 4228SOL    HW224144   1.881   0.151   9.956  0.2614 -0.2195 -1.8744
 4229SOL     OW24145   3.405   1.359   7.294 -0.4317 -0.0676 -0.0771
 4229SOL    HW124146   3.406   1.265   7.278 -0.0564 -0.0944  0.1274
 4229SOL    HW224147   3.315   1.374   7.264 -0.0139  2.7276  0.0650
 4230SOL     OW24148   1.981   2.782   2.906  0.3785  0.3583  0.5859
 4230SOL    HW124149   1.971   2.864   2.857  1.1239  0.9770  1.4613
 4230SOL    HW224150   2.011   2.733   2.830  0.5997 -1.2286  1.7116
 4231SOL     OW24151   2.625   0.099  10.056  0.0774 -0.9948  0.3747
 4231SOL    HW124152   2.705   0.070  10.012  0.1915  0.3619 -0.3233
 4231SOL    HW224153   2.577   0.123   9.977 -0.3143 -0.1787  0.8595
 4232SOL     OW24154   4.070   4.600   7.257  0.1792  0.2142  0.7236
 4232SOL    HW124155   4.099   4.682   7.216  0.2734 -0.6392 -0.9345
 4232SOL    HW224156   3.976   4.608   7.241  0.1891 -1.2905 -0.0978
 4233SOL     OW24157   3.071   2.281   5.633 -0.2854  0.9299  0.2589
 4233SOL    HW124158   3.119   2.334   5.697 -0.5423  0.8613  0.5126
 4233SOL    HW224159   3.130   2.291   5.559  0.1848  0.0717  0.5178
 4234SOL     OW24160   1.757   3.795   2.844 -0.0150 -0.2108 -0.0680
 4234SOL    HW124161   1.772   3.870   2.786 -0.8063 -1.9019 -2.4828
 4234SOL    HW224162   1.725   3.727   2.784 -0.5097 -0.7715  0.8438
 4235SOL     OW24163   0.081   0.821  12.307 -0.6850 -0.2193  0.3309
 4235SOL    HW124164   0.132   0.890  12.264  0.2041 -1.5340 -0.7044
 4235SOL    HW224165   0.072   0.855  12.396 -1.0515  0.5199  0.0115
 4236SOL     OW24166   1.457   3.485  15.929  0.0719 -0.4440  0.0547
 4236SOL    HW124167   1.552   3.499  15.930  0.2635 -1.7125 -0.7704
 4236SOL    HW224168   1.435   3.484  16.022  0.4988  2.0487  0.1779
 4237SOL     OW24169   0.206   0.281   6.392 -0.2323  0.0662 -0.2341
 4237SOL    HW124170   0.113   0.287   6.370 -0.0403  0.5975 -0.9211
 4237SOL    HW224171   0.216   0.349   6.459 -0.7919 -2.6977  2.6648
 4238SOL     OW24172   0.176   0.166  15.352 -0.1743  1.3198  0.1909
 4238SOL    HW124173   0.099   0.147  15.405 -0.6582  3.5020  0.2869
 4238SOL    HW224174   0.144   0.248  15.314  0.9219  1.9154  0.5369
 4239SOL     OW24175   2.393   3.768   0.065 -0.2977 -0.4171  0.5140
 4239SOL    HW124176   2.331   3.745   0.135 -0.5255  0.7758  0.6982
 4239SOL    HW224177   2.405   3.862   0.074 -0.7853 -0.3981  1.0257
 4240SOL     OW24178   3.584   3.146   4.681  0.1998  0.2003 -0.4113
 4240SOL    HW124179   3.489   3.149   4.681  0.1672 -0.5729  1.4681
 4240SOL    HW224180   3.601   3.209   4.752  1.9085 -0.1230 -0.5347
 4241SOL     OW24181   0.758   1.450   0.976  0.0886 -0.1383  0.1004
 4241SOL    HW124182   0.702   1.523   0.948  0.3742  0.0775  0.0884
 4241SOL    HW224183   0.697   1.413   1.040 -0.6911  0.9232 -0.0177
 4242SOL     OW24184   2.519   0.909   3.351  0.1160  0.3342  0.1865
 4242SOL    HW124185   2.548   0.908   3.260 -0.0233  2.8637  0.1298
 4242SOL    HW224186   2.529   0.816   3.373 -1.3686  0.4518  1.3305
 4243SOL     OW24187   3.247   0.996   9.562 -0.4770  0.4837 -0.1098
 4243SOL    HW124188   3.236   0.964   9.473  0.6410  1.6447 -0.6613
 4243SOL    HW224189   3.159   1.033   9.576  0.5076  3.4696 -1.8535
 4244SOL     OW24190   3.002   2.565   4.432 -0.7250 -0.3424  0.5529
 4244SOL    HW124191   3.074   2.569   4.495 -0.9517 -0.3888  0.8137
 4244SOL    HW224192   2.949   2.634   4.472 -0.2106 -0.0667  0.7690
 4245SOL     OW24193   2.277   0.870   3.657  0.2732  0.4131 -0.0278
 4245SOL    HW124194   2.229   0.787   3.649  0.0033  0.5316  0.3776
 4245SOL    HW224195   2.221   0.929   3.606  1.4288  2.3979  1.0391
 4246SOL     OW24196   0.555   2.430   2.802  0.4818 -0.8363  0.4945
 4246SOL    HW124197   0.466   2.464   2.790  0.0530 -2.0777  0.1323
 4246SOL    HW224198   0.532   2.340   2.827 -0.6756 -0.4638  0.7955
 4247SOL     OW24199   0.564   2.291   5.986  0.2591  0.2588  0.0004
 4247SOL    HW124200   0.651   2.329   5.998  0.7767 -0.9877  0.1140
 4247SOL    HW224201   0.530   2.281   6.075 -0.6380  1.0098 -0.2569
 4248SOL     OW24202   1.148   2.276   9.193 -0.0565  0.3728 -0.0219
 4248SOL    HW124203   1.068   2.317   9.160 -0.7281  0.5734  1.8337
 4248SOL    HW224204   1.199   2.355   9.214  2.3192 -0.4103 -2.8791
 4249SOL     OW24205   2.235   0.083   9.755 -0.2736 -0.2497  0.1632
 4249SOL    HW124206   2.170   0.100   9.688 -0.3165  1.1751  0.5722
 4249SOL    HW224207   2.176   0.106   9.826  0.6640  0.9321  0.5560
 4250SOL     OW24208   3.491   4.130   8.970  0.6392  0.1172  0.3246
 4250SOL    HW124209   3.453   4.062   9.025 -0.4989  0.9892  0.6205
 4250SOL    HW224210   3.436   4.203   8.999  1.0229  2.0820 -3.8340
 4251SOL     OW24211   3.170   0.167  11.752 -0.3232 -0.0266  0.2765
 4251SOL    HW124212   3.100   0.232  11.751 -1.0415 -0.8115 -0.3590
 4251SOL    HW224213   3.238   0.217  11.707 -0.2139 -0.0439  0.4217
 4252SOL     OW24214   3.133   1.005   7.112 -0.2784  0.3440 -0.0746
 4252SOL    HW124215   3.046   1.041   7.130  0.0767  1.5462 -0.7968
 4252SOL    HW224216   3.106   0.917   7.087 -0.5618  0.9388 -1.8093
 4253SOL     OW24217   1.058   2.814  15.009 -0.1544  0.2461  0.9980
 4253SOL    HW124218   1.091   2.756  15.078  0.7600  1.8304  1.8723
 4253SOL    HW224219   1.058   2.768  14.925 -0.4967 -2.2873  2.3884
 4254SOL     OW24220   0.873   2.046   5.952 -0.0040 -0.4084 -0.0940
 4254SOL    HW124221   0.947   2.076   6.005  0.8957 -1.3708 -0.7953
 4254SOL    HW224222   0.809   2.024   6.019  0.9124 -0.4098  0.7823
 4255SOL     OW24223   3.739   2.825   5.241  0.4600 -0.1408  0.8695
 4255SOL    HW124224   3.781   2.881   5.307 -2.2841  0.1860  2.3177
 4255SOL    HW224225   3.680   2.786   5.306 -0.1353  0.8933  0.9350
 4256SOL     OW24226   0.662   4.230  16.911  0.7484 -0.3604  0.2034
 4256SOL    HW124227   0.608   4.237  16.833  2.1122 -0.6019 -0.7615
 4256SOL    HW224228   0.633   4.144  16.940  0.8900 -0.1570  0.9540
 4257SOL     OW24229   4.580   3.383   4.662  0.1135 -0.0878  0.4574
 4257SOL    HW124230   4.560   3.468   4.624  1.3943 -0.0788 -0.2019
 4257SOL    HW224231   4.500   3.337   4.637 -0.7159  1.1664  0.7767
 4258SOL     OW24232   1.502   3.151  13.036 -0.0038  0.3082  0.4603
 4258SOL    HW124233   1.511   3.178  13.127  0.8108 -0.6382  0.6642
 4258SOL    HW224234   1.582   3.189  13.002  0.4828 -0.3004  0.9213
 4259SOL     OW24235   3.139   0.389   2.898  0.3472 -0.2477 -0.1076
 4259SOL    HW124236   3.138   0.479   2.869 -1.8740  0.6340  2.6512
 4259SOL    HW224237   3.044   0.380   2.897  0.4444 -1.9634  4.0466
 4260SOL     OW24238   2.774   3.473   4.039 -0.1929 -0.0801 -0.3084
 4260SOL    HW124239   2.685   3.507   4.029  1.2577  3.1123 -2.3255
 4260SOL    HW224240   2.816   3.547   4.083  0.2516  0.4443 -1.6237
 4261SOL     OW24241   4.196   3.471   7.517  0.5003  0.0149  0.2635
 4261SOL    HW124242   4.200   3.499   7.425  0.8355  0.3424  0.3776
 4261SOL    HW224243   4.135   3.534   7.554  2.2049  2.1904 -0.6020
 4262SOL     OW24244   0.273   2.582   2.521  0.8534 -0.0212 -0.3151
 4262SOL    HW124245   0.257   2.673   2.500 -1.4547  0.0399  1.7705
 4262SOL    HW224246   0.338   2.559   2.454 -1.3956 -1.6790 -1.9535
 4263SOL     OW24247   4.090   4.543  16.203  0.5349  0.1508 -0.1732
 4263SOL    HW124248   4.122   4.535  16.293  2.0055  0.3920 -0.6695
 4263SOL    HW224249   4.050   4.630  16.208  0.7644  0.2619 -0.2718
 4264SOL     OW24250   2.319   0.767   0.992 -0.6172 -0.0978 -0.0286
 4264SOL    HW124251   2.271   0.850   0.982  0.2128  0.3812 -0.0502
 4264SOL    HW224252   2.302   0.750   1.085  0.0951  0.1044  0.1371
 4265SOL     OW24253   0.576   1.760   5.758 -0.0955 -0.1031 -0.2526
 4265SOL    HW124254   0.558   1.828   5.823 -0.8594  0.4428 -1.0299
 4265SOL    HW224255   0.671   1.749   5.761 -0.0150  0.4510 -0.8683
 4266SOL     OW24256   2.556   4.418   6.333 -0.3203  0.5460  0.2710
 4266SOL    HW124257   2.532   4.347   6.274  2.1963 -1.7960  2.1001
 4266SOL    HW224258   2.650   4.429   6.313 -0.5071  1.3294 -0.1684
 4267SOL     OW24259   2.780   0.837   7.846  0.3667 -0.1638  0.3058
 4267SOL    HW124260   2.706   0.819   7.905  2.5316  1.6293  3.5791
 4267SOL    HW224261   2.765   0.766   7.784  1.9307 -0.1975 -0.0302
 4268SOL     OW24262   4.518   1.993   5.403 -0.2699 -0.0635 -0.7338
 4268SOL    HW124263   4.475   2.061   5.352 -2.3453 -0.8037  0.0422
 4268SOL    HW224264   4.602   1.996   5.358  0.2498 -3.5099 -0.0116
 4269SOL     OW24265   3.292   1.029  14.766 -0.2862  0.3285  0.1477
 4269SOL    HW124266   3.226   0.991  14.825 -0.1952  1.8009  1.1937
 4269SOL    HW224267   3.333   0.950  14.732 -1.2292  0.0027 -0.2344
 4270SOL     OW24268   1.266   0.608  10.185  0.1662  0.6084 -0.0394
 4270SOL    HW124269   1.244   0.622  10.093  1.0836  1.5022 -0.1175
 4270SOL    HW224270   1.341   0.552  10.169 -0.8652 -0.3500 -1.4731
 4271SOL     OW24271   4.563   1.416   5.092  0.3442  0.4755  0.9012
 4271SOL    HW124272   4.492   1.439   5.031  1.1202  0.8357  0.1234
 4271SOL    HW224273   4.582   1.500   5.133  1.5295  1.0173 -0.7739
 4272SOL     OW24274   0.732   4.562   6.889 -0.1310 -0.2059  0.4436
 4272SOL    HW124275   0.662   4.626   6.878 -0.9498 -0.7691  2.3459
 4272SOL    HW224276   0.683   4.482   6.903  0.7877 -0.9132 -0.3948
 4273SOL     OW24277   3.712   3.222   0.815 -0.7780  0.1624  0.5943
 4273SOL    HW124278   3.749   3.311   0.814 -0.5732  0.0547 -2.2017
 4273SOL    HW224279   3.735   3.190   0.727 -0.5416  3.2141 -0.4648
 4274SOL     OW24280   1.900   2.303   1.625  0.3032 -0.0209 -0.1265
 4274SOL    HW124281   1.837   2.306   1.696 -0.7696  4.0309 -1.2619
 4274SOL    HW224282   1.842   2.273   1.555 -1.0607 -1.3793  1.6041
 4275SOL     OW24283   1.841   1.219  12.728  0.5426  0.5253 -0.6513
 4275SOL    HW124284   1.795   1.241  12.809  2.0566  1.3317 -0.0267
 4275SOL    HW224285   1.925   1.179  12.750  0.1707  1.6789  2.8456
 4276SOL     OW24286   3.489   0.307   1.059 -0.0945 -0.4965  0.0755
 4276SOL    HW124287   3.572   0.275   1.023 -0.4357  0.7669 -1.8249
 4276SOL    HW224288   3.435   0.230   1.045 -0.5147 -0.0216 -0.9020
 4277SOL     OW24289   0.570   4.514   0.503 -0.0330  0.6312  0.0856
 4277SOL    HW124290   0.502   4.498   0.569  0.6039  2.0338  1.0846
 4277SOL    HW224291   0.599   4.598   0.538  3.1370 -0.2758 -0.3923
 4278SOL     OW24292   0.932   2.158   7.993  0.1010 -0.3360  0.6175
 4278SOL    HW124293   0.922   2.251   7.972 -0.2861  0.0579  2.5011
 4278SOL    HW224294   0.852   2.161   8.045  0.1033  1.8539  0.4847
 4279SOL     OW24295   1.588   3.577  12.025 -0.0928 -0.4780  0.5269
 4279SOL    HW124296   1.537   3.658  12.034  1.9851  0.9391 -0.4518
 4279SOL    HW224297   1.644   3.588  11.948  2.4748  3.6412  3.0406
 4280SOL     OW24298   0.717   0.149  17.443 -0.5491  0.0945 -0.0807
 4280SOL    HW124299   0.777   0.223  17.460 -0.3924 -0.5125  2.0466
 4280SOL    HW224300   0.761   0.078  17.489  0.0501 -0.3404 -1.3205
 4281SOL     OW24301   0.873   2.278  10.361  0.1357  1.0637 -0.9340
 4281SOL    HW124302   0.882   2.183  10.355 -0.9845  0.7354  2.9840
 4281SOL    HW224303   0.782   2.307  10.354  0.6158  2.0550 -2.9767
 4282SOL     OW24304   3.520   4.210   8.325 -0.1772  0.2552 -0.1452
 4282SOL    HW124305   3.529   4.127   8.372  1.7376  1.5649  1.8153
 4282SOL    HW224306   3.554   4.267   8.395  0.5399  0.5285 -0.7223
 4283SOL     OW24307   1.865   2.562  11.239  0.0143  0.0387 -0.4008
 4283SOL    HW124308   1.916   2.622  11.294  0.1227 -0.2517 -0.1840
 4283SOL    HW224309   1.850   2.613  11.159  1.5681 -2.5035 -2.3317
 4284SOL     OW24310   0.897   2.499  12.928  0.1078  0.1045 -0.5298
 4284SOL    HW124311   0.860   2.517  12.842  0.9650  0.4708 -0.8169
 4284SOL    HW224312   0.841   2.423  12.947  0.5468 -1.3124 -4.7390
 4285SOL     OW24313   2.659   1.999  10.501 -0.4077  0.0547  0.9797
 4285SOL    HW124314   2.669   2.092  10.482 -0.3216 -0.0828  0.3607
 4285SOL    HW224315   2.749   1.976  10.523 -0.0923  0.0422 -0.3459
 4286SOL     OW24316   3.966   3.403   1.609  0.2151 -0.8645 -0.7163
 4286SOL    HW124317   4.046   3.441   1.646  0.3643 -0.1692 -1.7481
 4286SOL    HW224318   3.912   3.481   1.598 -0.5145 -0.9957  1.8690
 4287SOL     OW24319   1.728   1.150   8.155  0.1164 -0.4955 -0.1612
 4287SOL    HW124320   1.655   1.145   8.093  0.5414 -0.9046 -0.6221
 4287SOL    HW224321   1.768   1.234   8.134 -1.6019  0.5280  0.5826
 4288SOL     OW24322   3.902   1.259   1.252 -0.7445 -0.3551  0.4772
 4288SOL    HW124323   3.838   1.288   1.318 -1.0457 -1.2712  0.5861
 4288SOL    HW224324   3.969   1.211   1.301  1.1642  0.6758 -1.1413
 4289SOL     OW24325   4.657   0.879   5.772  0.0813  0.4242  0.0782
 4289SOL    HW124326   4.572   0.921   5.768  0.5109  1.2700 -0.2184
 4289SOL    HW224327   4.635   0.790   5.745  1.6516  0.7662 -2.2996
 4290SOL     OW24328   2.379   1.693   7.992  0.1307 -0.1972  0.2141
 4290SOL    HW124329   2.469   1.721   8.005  0.0204 -0.0814  0.7312
 4290SOL    HW224330   2.385   1.600   8.012 -0.7396 -0.9192 -2.8917
 4291SOL     OW24331   1.422   0.073   4.382 -0.1880 -0.0679 -0.0918
 4291SOL    HW124332   1.427   0.145   4.444  1.4038 -0.5187  0.2801
 4291SOL    HW224333   1.424   4.712   4.430 -0.7120  0.5335  0.9470
 4292SOL     OW24334   3.465   3.402   2.031 -0.1167 -0.3866 -0.3562
 4292SOL    HW124335   3.533   3.347   2.069  0.7794 -0.1541 -1.6361
 4292SOL    HW224336   3.440   3.454   2.108  0.4694 -1.1282  0.3313
 4293SOL     OW24337   3.092   1.193   1.740 -0.3790  0.1152 -0.5697
 4293SOL    HW124338   3.015   1.189   1.797  1.4351  2.9648  2.0653
 4293SOL    HW224339   3.162   1.222   1.799 -1.7142  0.4517  0.8615
 4294SOL     OW24340   4.371   2.455  10.882  0.1397  0.7434 -0.4274
 4294SOL    HW124341   4.392   2.364  10.904 -1.7714  0.2770 -0.5910
 4294SOL    HW224342   4.394   2.502  10.962  1.0468 -0.3364 -0.0480
 4295SOL     OW24343   0.224   0.510  12.237  0.4484  0.1520 -0.0212
 4295SOL    HW124344   0.292   0.458  12.195  0.4408 -1.6210  2.1652
 4295SOL    HW224345   0.264   0.518  12.324 -0.2391 -2.1306  0.4973
 4296SOL     OW24346   3.268   2.481   8.961  0.0800  0.1697  0.2520
 4296SOL    HW124347   3.200   2.504   8.897 -0.5903 -0.8585  0.5948
 4296SOL    HW224348   3.263   2.553   9.024  1.2679 -2.4695  3.3904
 4297SOL     OW24349   2.508   4.187   7.121 -0.4449  0.0178 -0.5325
 4297SOL    HW124350   2.546   4.249   7.183 -1.2982  0.5892 -0.5827
 4297SOL    HW224351   2.476   4.244   7.050  2.4421  1.2682 -0.8185
 4298SOL     OW24352   3.778   0.778   4.418  0.5656 -0.6461  0.0794
 4298SOL    HW124353   3.847   0.717   4.390 -1.4443 -1.7831 -2.3989
 4298SOL    HW224354   3.833   0.848   4.453 -1.0462  0.4282  0.4547
 4299SOL     OW24355   3.434   0.046   6.625  0.5420 -0.0574 -0.3109
 4299SOL    HW124356   3.379   0.082   6.556  0.6488  1.0968  0.2088
 4299SOL    HW224357   3.415   0.108   6.695  2.4187 -1.5516  1.5282
 4300SOL     OW24358   0.756   0.444   2.699  0.0011 -0.7325 -0.5198
 4300SOL    HW124359   0.787   0.447   2.609  0.9935 -1.6038 -0.2108
 4300SOL    HW224360   0.817   0.379   2.733 -0.8069 -1.5611 -0.6646
 4301SOL     OW24361   3.679   4.417   6.191 -0.6670  0.3088 -0.1488
 4301SOL    HW124362   3.604   4.359   6.178 -0.2263 -0.3354  0.1989
 4301SOL    HW224363   3.702   4.417   6.098  2.6785 -2.4902  0.7048
 4302SOL     OW24364   2.964   3.843   5.395 -0.0239 -0.0953 -0.4756
 4302SOL    HW124365   2.946   3.909   5.328  2.7975  1.8586  0.7056
 4302SOL    HW224366   3.031   3.895   5.439  0.0690 -1.1891  0.6890
 4303SOL     OW24367   2.453   2.480  10.513  0.3727 -0.0082 -0.0542
 4303SOL    HW124368   2.384   2.499  10.450  0.6717  1.4933  0.0731
 4303SOL    HW224369   2.394   2.478  10.589  1.2602 -0.5891  0.6257
 4304SOL     OW24370   0.009   1.498   5.500  0.0357  0.2360  0.1791
 4304SOL    HW124371   0.080   1.478   5.439 -0.1167 -1.0946  0.4409
 4304SOL    HW224372   4.713   1.584   5.461  1.0245  0.4072  0.1040
 4305SOL     OW24373   0.606   0.724  10.562  0.3358 -0.2533 -0.7258
 4305SOL    HW124374   0.694   0.761  10.549  1.5426 -3.3559 -1.5564
 4305SOL    HW224375   0.626   0.692  10.650  0.4701  0.9479 -0.3244
 4306SOL     OW24376   1.809   4.348   0.520  0.1623 -0.4423  0.4877
 4306SOL    HW124377   1.749   4.366   0.448 -0.4825 -0.8252  0.9222
 4306SOL    HW224378   1.802   4.424   0.577 -1.2262  0.4737 -0.9174
 4307SOL     OW24379   3.234   2.593   7.885 -0.3432 -0.3211 -0.1030
 4307SOL    HW124380   3.182   2.513   7.875  0.6446 -1.0767  0.7897
 4307SOL    HW224381   3.299   2.574   7.817  1.1690  1.8766  0.7103
 4308SOL     OW24382   4.439   0.266   5.644 -0.4242  0.1869 -0.3235
 4308SOL    HW124383   4.443   0.180   5.603  1.1888 -0.4535  1.2212
 4308SOL    HW224384   4.445   0.244   5.737 -0.8551  0.4164 -0.2372
 4309SOL     OW24385   1.912   2.732   7.746  0.6912 -0.0707 -0.2723
 4309SOL    HW124386   1.849   2.756   7.678 -0.8405 -0.4893  1.0128
 4309SOL    HW224387   1.862   2.712   7.825 -1.0711  1.6780 -0.9357
 4310SOL     OW24388   0.533   4.328   4.630 -0.2523 -0.5056 -0.5919
 4310SOL    HW124389   0.451   4.329   4.680  0.0570 -0.8531 -0.0696
 4310SOL    HW224390   0.582   4.256   4.670 -0.7464 -0.8307 -0.5661
 4311SOL     OW24391   4.695   2.380   6.066  0.4097  0.0803  0.5296
 4311SOL    HW124392   4.683   2.475   6.062 -0.7531 -0.0953 -0.1839
 4311SOL    HW224393   4.623   2.357   6.126 -0.8209  2.5139 -0.0043
 4312SOL     OW24394   1.912   4.604   2.549 -0.2558  0.0410  0.3426
 4312SOL    HW124395   1.844   4.648   2.498 -1.5986 -2.4279 -0.0123
 4312SOL    HW224396   1.909   4.662   2.625 -2.1841 -0.7910  0.9151
 4313SOL     OW24397   4.235   2.791  15.052  0.1015  0.4797  0.2499
 4313SOL    HW124398   4.316   2.814  15.006 -0.1151  1.1714  0.2166
 4313SOL    HW224399   4.207   2.717  14.998  0.3315 -0.0248  0.8191
 4314SOL     OW24400   3.524   1.792  15.828 -0.4851  0.3357 -0.0071
 4314SOL    HW124401   3.572   1.851  15.887  0.7181 -0.5550 -0.0945
 4314SOL    HW224402   3.506   1.847  15.751  0.0597 -0.8003 -0.9451
 4315SOL     OW24403   3.767   4.263   0.351 -0.0238 -0.5401 -0.6080
 4315SOL    HW124404   3.704   4.208   0.304 -0.8945 -0.2817  0.2509
 4315SOL    HW224405   3.703   4.311   0.404 -1.7634 -2.1324 -1.2659
 4316SOL     OW24406   1.985   2.082   9.275  0.7341  0.3152  0.6839
 4316SOL    HW124407   2.039   2.029   9.334  0.6905  0.0461  0.4850
 4316SOL    HW224408   2.040   2.069   9.197  1.3505  0.2432  1.1280
 4317SOL     OW24409   0.587   0.662   4.532 -0.0209  0.0406 -0.1889
 4317SOL    HW124410   0.616   0.685   4.620 -0.1652 -1.5632  0.2711
 4317SOL    HW224411   0.498   0.698   4.527  0.7159  2.0784  1.3138
 4318SOL     OW24412   3.996   4.625   0.751  0.2562  0.1433 -0.5840
 4318SOL    HW124413   4.001   4.720   0.743  0.9255  0.0805 -0.8822
 4318SOL    HW224414   4.020   4.581   0.670 -0.3262 -0.0252 -0.6609
 4319SOL     OW24415   0.008   3.891  13.681  0.1969 -0.4680  0.2842
 4319SOL    HW124416   0.093   3.846  13.676  0.8986  0.8917 -0.0018
 4319SOL    HW224417   0.038   3.978  13.707 -0.8835 -0.0748  0.2002
 4320SOL     OW24418   4.037   4.658   3.719  0.3511  0.7125 -0.4162
 4320SOL    HW124419   4.021   4.680   3.811 -2.3752 -0.7631 -0.5296
 4320SOL    HW224420   4.018   0.021   3.678 -1.8378  1.1115  1.4362
 4321SOL     OW24421   2.380   2.307   1.971 -0.0429  0.5478 -0.0775
 4321SOL    HW124422   2.444   2.362   1.925  1.3950 -1.1512 -0.1312
 4321SOL    HW224423   2.337   2.371   2.027 -0.0653 -0.8000  1.4523
 4322SOL     OW24424   3.040   3.322   5.714 -0.0951  0.1527 -0.4494
 4322SOL    HW124425   2.947   3.347   5.711 -0.7374 -2.2630 -0.9362
 4322SOL    HW224426   3.084   3.400   5.747 -1.6355  0.6081  0.5179
 4323SOL     OW24427   1.320   1.094   6.764 -0.9457  0.2835  0.1127
 4323SOL    HW124428   1.387   1.134   6.818 -1.9454  3.5145 -1.0120
 4323SOL    HW224429   1.261   1.066   6.834 -2.1663  1.2936 -0.5031
 4324SOL     OW24430   3.970   1.800  12.803  0.6062 -0.0490 -0.1888
 4324SOL    HW124431   4.013   1.742  12.739  0.9519 -1.7346  1.5725
 4324SOL    HW224432   3.884   1.761  12.821  0.5237  0.0029 -0.4709
 4325SOL     OW24433   4.230   3.855  11.243  0.4389  0.6940  0.0248
 4325SOL    HW124434   4.316   3.827  11.275  0.8374 -0.5702 -2.2040
 4325SOL    HW224435   4.242   3.883  11.153  1.0840 -2.0568 -0.7372
 4326SOL     OW24436   4.471   2.787   7.543 -0.1780  0.0490 -0.3907
 4326SOL    HW124437   4.543   2.822   7.595  1.2988 -1.3509 -1.4710
 4326SOL    HW224438   4.522   2.760   7.466  2.7153  0.0823  1.5087
 4327SOL     OW24439   1.124   2.192   7.152  0.5242 -1.1027  0.0527
 4327SOL    HW124440   1.199   2.244   7.124 -1.5204  2.3955  1.1389
 4327SOL    HW224441   1.154   2.144   7.229  0.7987  1.2449  1.4130
 4328SOL     OW24442   3.916   0.949  12.931 -0.7596  0.0045  0.7039
 4328SOL    HW124443   3.974   0.876  12.955 -0.2512  0.1261 -0.1393
 4328SOL    HW224444   3.943   0.952  12.839  0.3298 -0.7576  1.0027
 4329SOL     OW24445   2.169   0.422  17.136 -0.3473 -0.4712  1.0901
 4329SOL    HW124446   2.129   0.369  17.205 -1.5000  0.2911  1.0006
 4329SOL    HW224447   2.242   0.466  17.181 -0.9520  2.6892 -1.0828
 4330SOL     OW24448   1.943   3.167  13.610  0.3993 -0.1731  0.3445
 4330SOL    HW124449   1.942   3.208  13.696 -1.5135  0.8153 -0.1482
 4330SOL    HW224450   2.022   3.203  13.569  0.4232  0.9495  1.3881
 4331SOL     OW24451   0.677   0.528   0.189 -0.6681 -0.3360 -0.3244
 4331SOL    HW124452   0.635   0.492   0.267  3.2182  0.3790  2.0996
 4331SOL    HW224453   0.761   0.541   0.232  0.0724 -1.0140 -1.5648
 4332SOL     OW24454   3.612   2.870   7.408 -0.2393 -0.0925  0.2589
 4332SOL    HW124455   3.629   2.886   7.500 -0.9464  0.6183  0.2758
 4332SOL    HW224456   3.618   2.775   7.408  2.3829  0.1002  0.6126
 4333SOL     OW24457   0.197   0.348   8.550 -0.7210 -0.1999  0.0640
 4333SOL    HW124458   0.144   0.420   8.585 -1.2001  0.5109 -2.1103
 4333SOL    HW224459   0.148   0.310   8.477 -3.1105  1.7986  0.6096
 4334SOL     OW24460   3.480   1.026   1.530 -0.1839 -0.2369 -0.4611
 4334SOL    HW124461   3.402   1.065   1.490  0.5623  1.2546 -0.4734
 4334SOL    HW224462   3.498   0.959   1.464 -2.4834 -2.8315  1.5654
 4335SOL     OW24463   4.139   4.471  14.165  0.6274  0.3360 -0.9237
 4335SOL    HW124464   4.180   4.499  14.083  0.8846  1.0310 -0.5552
 4335SOL    HW224465   4.089   4.550  14.186 -1.2958 -1.1669  0.2281
 4336SOL     OW24466   1.440   4.618   5.958  0.1866  0.5991  0.0685
 4336SOL    HW124467   1.385   4.547   5.991  2.5526 -0.4608  1.6902
 4336SOL    HW224468   1.417   4.611   5.865 -2.2285  1.8424  0.5642
 4337SOL     OW24469   3.241   0.668   1.586  0.0935 -0.5161  0.4966
 4337SOL    HW124470   3.197   0.586   1.607  1.3167 -1.6952 -1.5738
 4337SOL    HW224471   3.280   0.638   1.504  1.5011  1.9661  0.2390
 4338SOL     OW24472   1.345   2.255  17.578 -0.0382  0.1724 -0.2632
 4338SOL    HW124473   1.419   2.284  17.632 -2.5687  2.2609  2.1103
 4338SOL    HW224474   1.319   2.188  17.641 -0.4628  1.2993  0.7778
 4339SOL     OW24475   2.643   4.264   9.441  0.2984 -0.2619  0.2941
 4339SOL    HW124476   2.655   4.247   9.347 -1.9223  1.1862 -0.2407
 4339SOL    HW224477   2.708   4.206   9.481  1.3552  0.5685 -0.2374
 4340SOL     OW24478   0.376   0.676   6.956  0.3263  0.2842  0.2432
 4340SOL    HW124479   0.289   0.704   6.930  0.6648 -1.0108 -2.3287
 4340SOL    HW224480   0.354   0.620   7.030 -0.1436 -0.4450 -0.4445
 4341SOL     OW24481   4.543   4.680   6.216  0.0341  0.0867  0.6190
 4341SOL    HW124482   4.450   4.676   6.239 -0.5056  0.1629 -1.5579
 4341SOL    HW224483   4.571   4.704   6.305  1.6382 -1.5537  0.5658
 4342SOL     OW24484   2.327   2.517   4.623 -0.0666 -0.0100  0.3295
 4342SOL    HW124485   2.259   2.546   4.561  1.5448  0.0182 -1.4128
 4342SOL    HW224486   2.375   2.453   4.570 -0.1179 -0.2480  0.5690
 4343SOL     OW24487   0.554   1.305  14.228 -0.2164 -0.5137 -0.2269
 4343SOL    HW124488   0.512   1.257  14.157  0.1011 -2.2308  0.7547
 4343SOL    HW224489   0.645   1.295  14.198  0.0788  0.2300  0.4124
 4344SOL     OW24490   2.992   0.719   8.147  0.4792  0.0335 -0.2687
 4344SOL    HW124491   2.950   0.666   8.080  1.6039 -1.7227  0.4195
 4344SOL    HW224492   2.921   0.745   8.205  0.6331 -0.2039  0.0243
 4345SOL     OW24493   4.682   0.639   4.350 -0.2105 -0.1702  0.6137
 4345SOL    HW124494   4.688   0.563   4.292  0.5598  1.2797 -1.1702
 4345SOL    HW224495   4.594   0.620   4.384 -0.7975  0.0843 -0.7610
 4346SOL     OW24496   2.119   4.124   7.131  0.5278 -0.6366 -0.2210
 4346SOL    HW124497   2.049   4.114   7.195  0.3660  1.7767 -0.0275
 4346SOL    HW224498   2.126   4.219   7.121 -1.7994 -0.4903 -0.3254
 4347SOL     OW24499   0.050   2.285   1.915  0.1252 -0.6397 -0.1222
 4347SOL    HW124500   4.688   2.303   1.957  0.9636 -1.5529  1.9402
 4347SOL    HW224501   0.072   2.198   1.950  1.4083 -0.6011 -0.8045
 4348SOL     OW24502   4.519   0.338  10.212  0.1374 -0.4428 -0.0853
 4348SOL    HW124503   4.585   0.270  10.203  1.7310  1.4567 -3.0297
 4348SOL    HW224504   4.558   0.385  10.285 -1.0492  1.6844 -0.8093
 4349SOL     OW24505   1.340   1.737   3.071 -0.6407  0.4535  0.1968
 4349SOL    HW124506   1.390   1.773   2.998  1.3522 -1.4794  0.5635
 4349SOL    HW224507   1.412   1.682   3.103 -0.3895  0.7133  0.0755
 4350SOL     OW24508   3.070   0.649   4.939  0.0534  0.0795  0.4908
 4350SOL    HW124509   3.148   0.594   4.933 -0.5230 -0.7234  0.2033
 4350SOL    HW224510   3.049   0.661   4.846 -0.5235  1.3026  0.7779
 4351SOL     OW24511   1.291   4.410  12.613 -0.6794  0.7666  0.2964
 4351SOL    HW124512   1.321   4.492  12.650 -1.9414  0.6660  1.5235
 4351SOL    HW224513   1.368   4.370  12.571 -1.0486 -2.0090  2.2488
 4352SOL     OW24514   1.237   1.220   5.198  0.1577  0.4436  0.3765
 4352SOL    HW124515   1.294   1.211   5.121  0.1326 -0.5215  0.4724
 4352SOL    HW224516   1.178   1.288   5.166  0.2618  1.0257  1.4162
 4353SOL     OW24517   2.055   0.622   9.026  0.8039  0.4164  0.6022
 4353SOL    HW124518   2.021   0.677   9.097 -1.5026  1.0253 -0.9712
 4353SOL    HW224519   2.015   0.537   9.042 -1.1556  0.6314 -3.2910
 4354SOL     OW24520   0.097   2.442   4.721  0.4734  0.2446 -0.0900
 4354SOL    HW124521   0.185   2.413   4.745  0.3164  1.5665  2.0561
 4354SOL    HW224522   0.123   2.520   4.672  1.2571  0.5646  0.8238
 4355SOL     OW24523   0.509   0.634  11.094  0.1910  0.2231 -0.2351
 4355SOL    HW124524   0.454   0.565  11.056  1.0018 -0.2424 -0.5531
 4355SOL    HW224525   0.443   0.685  11.141 -0.1721 -1.9041  1.5995
 4356SOL     OW24526   1.963   0.778   6.780 -0.7331 -0.0288 -0.5625
 4356SOL    HW124527   1.910   0.848   6.818  0.3670 -0.2649  1.4017
 4356SOL    HW224528   1.944   0.703   6.836  1.8495 -0.6258 -0.4589
 4357SOL     OW24529   1.307   0.451  12.086  0.8463 -0.2668  0.1492
 4357SOL    HW124530   1.259   0.454  12.004  1.2622 -0.7992 -0.1088
 4357SOL    HW224531   1.271   0.526  12.135  0.0683 -0.2636 -0.4403
 4358SOL     OW24532   1.388   2.943  14.123  0.0033  0.6626 -0.3699
 4358SOL    HW124533   1.375   3.037  14.110 -1.1103  0.5798  0.1853
 4358SOL    HW224534   1.418   2.939  14.214  0.3004 -0.0856 -0.4963
 4359SOL     OW24535   3.823   3.987   8.508 -0.5662 -0.2728 -0.0549
 4359SOL    HW124536   3.893   3.988   8.443 -0.1667  2.7482  0.4006
 4359SOL    HW224537   3.837   4.076   8.542  0.4289  0.2609 -1.8575
 4360SOL     OW24538   1.396   3.205  13.276  0.5888 -0.2569  0.4157
 4360SOL    HW124539   1.387   3.295  13.246  0.6022 -0.2390  0.4661
 4360SOL    HW224540   1.400   3.221  13.370  0.3157 -2.8594  0.8809
 4361SOL     OW24541   0.658   3.392   7.621 -0.2759  0.2105 -0.0215
 4361SOL    HW124542   0.674   3.485   7.633  0.4314 -0.0578  1.0176
 4361SOL    HW224543   0.577   3.386   7.671 -1.1081  0.2691 -1.3464
 4362SOL     OW24544   3.808   0.517   3.011  0.4630  0.1126 -0.0338
 4362SOL    HW124545   3.715   0.495   3.006  0.0149  1.7614  1.0237
 4362SOL    HW224546   3.840   0.429   2.990 -1.1297 -0.8159  1.3605
 4363SOL     OW24547   2.798   1.295  17.361 -0.0175  0.1494 -0.4988
 4363SOL    HW124548   2.758   1.380  17.343 -0.0987  0.5887  1.7531
 4363SOL    HW224549   2.889   1.304  17.335 -0.4947  0.8974 -1.9110
 4364SOL     OW24550   3.261   2.335   3.927 -0.1646 -0.6277 -0.6830
 4364SOL    HW124551   3.223   2.247   3.935 -0.4225 -0.3722  0.9396
 4364SOL    HW224552   3.198   2.407   3.932  0.5784 -0.0063 -0.4351
 4365SOL     OW24553   4.443   1.462  11.223  0.4624  0.1084 -0.6433
 4365SOL    HW124554   4.412   1.512  11.148  0.8070  0.4508 -0.5584
 4365SOL    HW224555   4.481   1.531  11.278  1.8443 -2.6697  1.9519
 4366SOL     OW24556   4.354   3.931   4.916  0.0918  0.2831 -0.0148
 4366SOL    HW124557   4.357   3.968   4.828  1.8228 -1.3643 -0.6552
 4366SOL    HW224558   4.271   3.885   4.921  0.0616  0.4663  1.1665
 4367SOL     OW24559   3.252   1.669   0.552  0.1165  0.0451 -0.2900
 4367SOL    HW124560   3.187   1.618   0.504 -0.3980 -0.9787  1.4720
 4367SOL    HW224561   3.202   1.715   0.620  4.1166  0.5389  2.3222
 4368SOL     OW24562   3.271   2.739   5.629  0.3984 -0.1232 -0.3034
 4368SOL    HW124563   3.233   2.813   5.581 -0.1739  1.7358  2.9848
 4368SOL    HW224564   3.233   2.665   5.582  0.2385 -0.5271  0.4615
 4369SOL     OW24565   1.103   0.620  12.250  0.6885 -1.2039 -0.3190
 4369SOL    HW124566   1.118   0.712  12.229 -2.6443 -0.8535 -1.0855
 4369SOL    HW224567   1.094   0.629  12.345 -0.5249 -1.8272 -0.3830
 4370SOL     OW24568   2.299   3.910   3.882 -0.0732 -0.4602 -0.1386
 4370SOL    HW124569   2.209   3.896   3.913  0.5678  1.0694  2.3481
 4370SOL    HW224570   2.326   3.996   3.912  0.1938 -1.2266  1.8591
 4371SOL     OW24571   2.985   4.467   9.379  0.5451  0.0459  0.4336
 4371SOL    HW124572   2.972   4.378   9.348  0.3768  0.0517  0.4859
 4371SOL    HW224573   2.979   4.511   9.294 -0.3338 -0.8668  0.0230
 4372SOL     OW24574   0.919   0.797   7.825 -0.0996 -0.1780 -0.0432
 4372SOL    HW124575   0.938   0.747   7.904 -1.7271  0.4519  0.7432
 4372SOL    HW224576   0.997   0.852   7.835  1.1607 -1.9972  0.1996
 4373SOL     OW24577   4.208   2.220   3.937  0.0431  0.7284  0.6240
 4373SOL    HW124578   4.202   2.125   3.940  1.1886  0.5740 -1.3981
 4373SOL    HW224579   4.165   2.232   4.021  2.0256 -2.6436  2.1184
 4374SOL     OW24580   2.276   0.921   6.184  0.3385 -0.0653  0.6297
 4374SOL    HW124581   2.354   0.975   6.196  0.5811  0.0729 -1.4451
 4374SOL    HW224582   2.258   0.909   6.277  0.2291 -0.1086  0.6030
 4375SOL     OW24583   1.408   1.691   7.927  0.3919 -0.4090  0.8728
 4375SOL    HW124584   1.333   1.680   7.986  0.3708 -0.1765  0.8906
 4375SOL    HW224585   1.373   1.772   7.890  1.0383 -1.6364 -2.3982
 4376SOL     OW24586   0.212   2.820   3.837  0.1466 -0.2034  0.0790
 4376SOL    HW124587   0.154   2.839   3.764  0.4843 -2.0755 -0.6718
 4376SOL    HW224588   0.212   2.902   3.887 -2.2889  0.6898 -1.3902
 4377SOL     OW24589   4.612   2.013  14.653  0.4715  0.0090 -0.4149
 4377SOL    HW124590   4.618   1.979  14.742 -2.6636  0.1047 -0.1823
 4377SOL    HW224591   4.553   1.949  14.613 -1.2706  1.0994  0.4352
 4378SOL     OW24592   0.226   2.894   4.844  0.1437  0.8648 -0.2351
 4378SOL    HW124593   0.142   2.931   4.871 -1.3123 -0.9500 -2.2973
 4378SOL    HW224594   0.279   2.887   4.923 -0.3142  1.6597  0.1364
 4379SOL     OW24595   2.745   0.650  10.238  0.0723 -0.4338 -0.3384
 4379SOL    HW124596   2.794   0.578  10.278 -0.9675 -0.8963  0.0993
 4379SOL    HW224597   2.659   0.610  10.225  0.5787 -1.4794 -0.4980
 4380SOL     OW24598   2.609   4.121   1.044  0.1993  0.2116  0.1588
 4380SOL    HW124599   2.549   4.195   1.056 -1.9499 -1.6923  1.2286
 4380SOL    HW224600   2.666   4.157   0.976 -1.0761 -0.7434 -1.4092
 4381SOL     OW24601   4.631   0.160   3.546  0.4599 -0.1098  0.6508
 4381SOL    HW124602   4.667   0.111   3.621  0.4841  0.9425  1.3196
 4381SOL    HW224603   4.585   0.234   3.585 -1.8426 -0.3081 -1.6855
 4382SOL     OW24604   4.662   2.952   9.120  0.1292 -0.1040 -0.0166
 4382SOL    HW124605   4.685   3.024   9.178 -1.6293  1.4276 -1.2314
 4382SOL    HW224606   0.014   2.921   9.067  0.2453  1.2374 -0.6332
 4383SOL     OW24607   4.684   2.912   6.100 -0.1350 -0.1526  0.5046
 4383SOL    HW124608   4.670   3.006   6.105  0.0615 -0.0693 -0.5331
 4383SOL    HW224609   0.034   2.901   6.163  1.8284 -1.4620 -1.9079
 4384SOL     OW24610   3.018   2.767   5.326  0.4246 -0.6201  0.0733
 4384SOL    HW124611   3.076   2.694   5.348 -2.2209 -1.9805  2.3877
 4384SOL    HW224612   3.043   2.831   5.392  0.9994  0.5288 -1.2536
 4385SOL     OW24613   1.378   3.947   7.511 -0.2557 -0.1209 -0.6563
 4385SOL    HW124614   1.418   3.860   7.522 -0.6009 -0.3422 -1.1747
 4385SOL    HW224615   1.305   3.950   7.573 -0.7270  0.1736 -1.2346
 4386SOL     OW24616   1.700   3.905   1.280  0.2386  0.9440 -0.2860
 4386SOL    HW124617   1.683   3.844   1.352  0.9577  0.2437 -0.7068
 4386SOL    HW224618   1.672   3.854   1.204  1.0386 -1.8105  1.2630
 4387SOL     OW24619   3.359   0.675   4.686  0.4606 -0.2452 -0.1563
 4387SOL    HW124620   3.423   0.717   4.743  0.4828  0.2936 -0.5784
 4387SOL    HW224621   3.328   0.602   4.740  0.1331  0.4751  0.6261
 4388SOL     OW24622   2.015   0.543   4.990 -0.2367  0.2983  0.2617
 4388SOL    HW124623   2.004   0.538   4.896  0.4197 -4.4102  0.4553
 4388SOL    HW224624   2.022   0.638   4.999 -0.7944  0.3840 -0.2619
 4389SOL     OW24625   4.215   1.349   7.026  0.1528  0.5199  0.5381
 4389SOL    HW124626   4.285   1.402   6.986  0.0335 -0.2157 -0.6185
 4389SOL    HW224627   4.196   1.401   7.105 -0.5166  1.9886 -0.6002
 4390SOL     OW24628   0.115   1.229   3.069 -0.6516  0.3895  0.1780
 4390SOL    HW124629   0.094   1.149   3.118  0.4627 -0.7051 -1.1496
 4390SOL    HW224630   0.106   1.191   2.982  0.4158 -1.1098  0.7109
 4391SOL     OW24631   1.440   2.956   8.666  0.1500 -0.2445 -0.3327
 4391SOL    HW124632   1.509   2.960   8.732 -0.8406 -0.3768  0.6976
 4391SOL    HW224633   1.376   2.904   8.713 -1.5045 -0.7279 -3.1590
 4392SOL     OW24634   2.019   1.846   5.508 -0.2779 -0.4244  0.1111
 4392SOL    HW124635   2.039   1.926   5.459  0.2748  0.2508  1.4390
 4392SOL    HW224636   1.924   1.844   5.499 -0.2097  1.6764 -1.2068
 4393SOL     OW24637   3.015   2.961   6.163 -0.1645 -0.5688  0.5177
 4393SOL    HW124638   2.990   3.044   6.204  4.1407  0.6956  0.6649
 4393SOL    HW224639   2.992   2.980   6.072  2.2616 -0.6068 -0.1047
 4394SOL     OW24640   3.158   1.840   6.886 -0.2073 -0.6445  0.7854
 4394SOL    HW124641   3.248   1.824   6.857  0.5353  1.4518  1.9502
 4394SOL    HW224642   3.166   1.902   6.959 -4.3747 -0.8987  1.4875
 4395SOL     OW24643   3.352   0.657   5.274 -0.4931 -0.2559 -0.6262
 4395SOL    HW124644   3.415   0.726   5.255  0.4679 -1.9383 -3.6548
 4395SOL    HW224645   3.381   0.630   5.361 -1.7216  3.1050  0.8218
 4396SOL     OW24646   3.209   0.586   7.992 -0.2801 -0.5696 -0.0708
 4396SOL    HW124647   3.162   0.591   7.908 -1.6468  2.6817  0.8798
 4396SOL    HW224648   3.168   0.661   8.034 -0.5203 -0.2105 -0.9368
 4397SOL     OW24649   1.311   2.044   3.115  0.2892  0.1101 -0.1064
 4397SOL    HW124650   1.310   1.963   3.064 -0.3911  0.4523 -0.6301
 4397SOL    HW224651   1.217   2.057   3.126  0.3054  1.2846 -1.3796
 4398SOL     OW24652   4.490   3.093   4.332  0.3514 -0.2669  0.6320
 4398SOL    HW124653   4.399   3.076   4.356 -0.0764  1.2276  0.1092
 4398SOL    HW224654   4.496   3.039   4.253  2.7622  0.6113  0.2006
 4399SOL     OW24655   4.458   1.016   8.338 -0.3743 -0.2937  1.0184
 4399SOL    HW124656   4.449   1.102   8.378 -1.6790 -0.1954  0.5446
 4399SOL    HW224657   4.542   1.019   8.292 -0.4584  2.8861  1.0883
 4400SOL     OW24658   0.055   2.031   2.459 -0.1615 -0.7507 -0.2730
 4400SOL    HW124659   4.691   1.997   2.482 -2.0239  2.4411 -2.4320
 4400SOL    HW224660   0.109   1.980   2.519 -0.3229 -0.2438  0.2939
 4401SOL     OW24661   4.127   3.818   8.845  0.1039  0.3286 -0.1688
 4401SOL    HW124662   4.170   3.868   8.776  3.1427  0.5276  1.8583
 4401SOL    HW224663   4.059   3.878   8.874 -0.1423 -0.2989  0.5495
 4402SOL     OW24664   3.666   1.168   3.224  1.2416 -0.6560 -0.3874
 4402SOL    HW124665   3.739   1.112   3.249 -0.2675 -1.9145  1.1991
 4402SOL    HW224666   3.669   1.161   3.129 -1.7730  0.2687 -0.5566
 4403SOL     OW24667   4.372   0.514   7.914 -0.1100  0.0373 -0.4090
 4403SOL    HW124668   4.346   0.436   7.962  2.0369 -0.1260  0.4834
 4403SOL    HW224669   4.457   0.483   7.883  0.0294 -0.1171  0.1263
 4404SOL     OW24670   3.786   3.202   0.488  0.2509  0.7135 -0.1246
 4404SOL    HW124671   3.838   3.166   0.416  1.7328  0.8889  0.8716
 4404SOL    HW224672   3.695   3.208   0.458 -0.1474 -0.2405  0.9017
 4405SOL     OW24673   0.379   1.100  16.333 -0.1783 -0.5726  0.3133
 4405SOL    HW124674   0.341   1.186  16.312 -1.3381 -1.4258 -1.0954
 4405SOL    HW224675   0.425   1.072  16.254  0.3177  0.0125  0.3867
 4406SOL     OW24676   0.800   0.782   5.088  0.0690  0.2222 -0.4640
 4406SOL    HW124677   0.839   0.820   5.010  2.1174 -0.0861  0.4111
 4406SOL    HW224678   0.836   0.843   5.153 -1.3960 -1.8829  2.2963
 4407SOL     OW24679   1.364   3.243   3.295  0.0696  0.4417  0.4623
 4407SOL    HW124680   1.400   3.252   3.383 -2.1321  0.4238  1.3559
 4407SOL    HW224681   1.303   3.169   3.301  0.6800 -0.1910 -1.1081
 4408SOL     OW24682   2.304   2.378   4.862 -0.5248  0.1151  0.1082
 4408SOL    HW124683   2.396   2.352   4.856 -1.2368 -2.9297  2.4376
 4408SOL    HW224684   2.300   2.429   4.781  2.3625  2.0151  1.1586
 4409SOL     OW24685   1.378   3.947   4.092 -0.5187 -0.4331 -0.1300
 4409SOL    HW124686   1.415   4.019   4.042  2.7151 -2.1898 -0.2638
 4409SOL    HW224687   1.303   3.923   4.037 -0.0510 -1.7999 -0.1637
 4410SOL     OW24688   2.267   1.388  15.910 -0.5117 -0.1160  0.3349
 4410SOL    HW124689   2.332   1.333  15.867 -0.2606 -0.6176  1.3401
 4410SOL    HW224690   2.327   1.415  15.979 -0.7869 -1.9310  1.3066
 4411SOL     OW24691   1.463   0.060   8.487 -0.0232  0.3220  0.0844
 4411SOL    HW124692   1.472   0.091   8.397  1.0673  1.7255  0.6838
 4411SOL    HW224693   1.398   0.120   8.522 -1.1284 -1.2728  0.7903
 4412SOL     OW24694   1.674   3.725   8.631 -0.2512 -0.4941  0.0284
 4412SOL    HW124695   1.750   3.668   8.636  0.6134  0.4414 -2.5324
 4412SOL    HW224696   1.701   3.777   8.555 -2.3168 -0.9634 -1.0110
 4413SOL     OW24697   0.678   3.919   8.123 -0.0283 -0.1761  0.5553
 4413SOL    HW124698   0.718   3.897   8.207 -0.1405  0.0499  0.6670
 4413SOL    HW224699   0.743   3.973   8.078 -0.8949  0.3490 -0.0674
 4414SOL     OW24700   0.501   2.853   1.916 -0.3089  0.3463 -0.0377
 4414SOL    HW124701   0.459   2.848   1.830  1.0743 -0.5364 -0.6671
 4414SOL    HW224702   0.444   2.918   1.957 -0.2382  2.2764 -3.0710
 4415SOL     OW24703   3.495   4.174   4.359  0.4473 -1.1767  0.5224
 4415SOL    HW124704   3.436   4.205   4.290  0.5624 -0.5295  0.7190
 4415SOL    HW224705   3.549   4.126   4.296 -1.1936 -0.5285 -1.3492
 4416SOL     OW24706   2.866   3.103   6.501  0.4088  0.0011 -0.2563
 4416SOL    HW124707   2.958   3.128   6.493  0.6570 -0.2372  1.8971
 4416SOL    HW224708   2.829   3.115   6.414  0.4641  1.0014 -0.1338
 4417SOL     OW24709   1.982   1.417   2.768 -0.4583 -0.2323 -0.1885
 4417SOL    HW124710   1.984   1.351   2.699  1.0949 -1.4946  1.0590
 4417SOL    HW224711   2.017   1.492   2.721  0.2792 -1.4222 -1.5123
 4418SOL     OW24712   0.858   4.025   2.560 -0.6438  0.0512 -0.7788
 4418SOL    HW124713   0.900   4.111   2.557  2.4567 -1.4467 -0.2987
 4418SOL    HW224714   0.768   4.054   2.577 -0.1418  0.4254  1.2425
 4419SOL     OW24715   1.297   1.858   5.557 -0.2611 -1.2022  0.6399
 4419SOL    HW124716   1.360   1.818   5.616  2.5493 -1.7484 -2.7371
 4419SOL    HW224717   1.333   1.825   5.474  1.1029  1.6025  0.1271
 4420SOL     OW24718   0.318   2.590   4.041  0.0060  0.1953  0.0217
 4420SOL    HW124719   0.298   2.657   3.976 -2.1584 -0.5956 -0.1518
 4420SOL    HW224720   0.395   2.545   4.005  0.0785 -0.2847  0.7807
 4421SOL     OW24721   0.746   2.640   5.881 -0.0142  0.3756  0.0286
 4421SOL    HW124722   0.671   2.586   5.855  0.7447 -0.1757 -1.0768
 4421SOL    HW224723   0.704   2.725   5.886  0.6178  0.8927 -2.9698
 4422SOL     OW24724   0.964   1.020   4.488  0.0063 -0.0890  0.0794
 4422SOL    HW124725   1.032   1.047   4.549  1.4251 -1.2663 -0.9958
 4422SOL    HW224726   0.912   0.951   4.529  0.4053 -1.0010 -0.9557
 4423SOL     OW24727   0.974   4.278   0.234 -0.3331 -0.0448 -0.1574
 4423SOL    HW124728   0.933   4.330   0.304 -0.1147 -0.9682  0.6602
 4423SOL    HW224729   0.919   4.199   0.233 -0.0729 -0.2611  1.3053
 4424SOL     OW24730   2.222   2.439   2.745  0.1087 -0.1158  0.0206
 4424SOL    HW124731   2.254   2.526   2.719 -2.1771  0.6804 -0.1110
 4424SOL    HW224732   2.134   2.468   2.767 -0.3212 -0.7301 -0.8950
 4425SOL     OW24733   4.653   2.102   3.121  0.3776 -0.1317  0.4708
 4425SOL    HW124734   4.655   2.185   3.168  1.1750  0.8577 -1.3050
 4425SOL    HW224735   0.004   2.115   3.060 -1.2798  0.2209 -1.3817
 4426SOL     OW24736   0.025   0.228  11.394  0.4364  0.5906  0.4651
 4426SOL    HW124737   4.651   0.237  11.394  0.4064 -0.0598 -2.9624
 4426SOL    HW224738   0.051   0.305  11.445  3.2442 -0.3707  0.5028
 4427SOL     OW24739   1.085   4.294  15.310  0.4235 -0.7790 -0.1404
 4427SOL    HW124740   1.011   4.236  15.324 -1.8495  2.2303  0.4501
 4427SOL    HW224741   1.159   4.233  15.314  0.5836 -0.5706  0.1721
 4428SOL     OW24742   2.754   2.826   2.840 -0.0383 -0.5522  0.1342
 4428SOL    HW124743   2.767   2.752   2.781 -0.4538 -1.4724  1.2200
 4428SOL    HW224744   2.828   2.883   2.817  1.0114 -2.2257 -0.5906
 4429SOL     OW24745   4.468   0.540   5.161 -0.1522  0.0042  0.2460
 4429SOL    HW124746   4.536   0.485   5.201  0.1852  0.7813  0.7551
 4429SOL    HW224747   4.405   0.548   5.233 -0.2946  0.9116  0.0265
 4430SOL     OW24748   2.834   0.680  17.667  0.0102 -0.4532  0.3385
 4430SOL    HW124749   2.747   0.679  17.628 -0.2301 -2.3313  0.9278
 4430SOL    HW224750   2.814   0.698   0.071  0.1318  1.2642  0.0289
 4431SOL     OW24751   3.010   1.182   9.259  0.1266  0.6162  0.7439
 4431SOL    HW124752   2.946   1.232   9.209 -0.2378  1.0530  1.6528
 4431SOL    HW224753   2.980   1.197   9.349 -0.5699  0.0351  0.6051
 4432SOL     OW24754   2.189   3.472   5.236 -0.3158 -0.0129  0.0184
 4432SOL    HW124755   2.138   3.483   5.156 -1.5799  0.5395  0.9080
 4432SOL    HW224756   2.211   3.380   5.222 -0.8997  0.0262 -1.1352
 4433SOL     OW24757   2.444   3.684   2.726  0.1828 -0.9165 -0.5973
 4433SOL    HW124758   2.403   3.601   2.703 -1.1458 -0.3801 -0.1557
 4433SOL    HW224759   2.417   3.736   2.651  2.3958  0.7537 -0.2301
 4434SOL     OW24760   1.596   1.463   7.535  0.3477  0.4054  0.7245
 4434SOL    HW124761   1.537   1.492   7.604 -1.0486 -0.6506 -0.0119
 4434SOL    HW224762   1.607   1.372   7.561 -0.5712  0.4860  1.3863
 4435SOL     OW24763   0.652   0.162   7.663 -0.1688  0.0433 -1.1996
 4435SOL    HW124764   0.664   0.254   7.640 -0.6784  0.1110 -1.1815
 4435SOL    HW224765   0.742   0.137   7.684 -0.2002  1.0852  0.2074
 4436SOL     OW24766   0.205   0.417   6.647 -0.2536  0.2540 -0.4532
 4436SOL    HW124767   0.180   0.371   6.727  2.3016  1.8581  1.2792
 4436SOL    HW224768   0.120   0.457   6.627 -0.1086  0.4018 -0.7707
 4437SOL     OW24769   1.170   0.008  10.304 -0.3294 -0.4986 -0.1894
 4437SOL    HW124770   1.245   4.670  10.304 -1.3367 -1.7390 -0.5241
 4437SOL    HW224771   1.217   0.086  10.336  1.5154 -1.2087 -1.1928
 4438SOL     OW24772   2.371   3.600  17.236 -0.4427  0.6059  0.5573
 4438SOL    HW124773   2.394   3.655  17.310 -1.3749 -0.6860  1.8122
 4438SOL    HW224774   2.291   3.645  17.209 -2.2482 -3.1950 -0.4153
 4439SOL     OW24775   2.128   2.931   4.236  0.4066 -0.3074  0.1435
 4439SOL    HW124776   2.176   3.014   4.241  2.1393 -1.2687 -0.3917
 4439SOL    HW224777   2.191   2.872   4.277 -0.2466 -1.2872 -0.2713
 4440SOL     OW24778   3.892   3.065   6.828 -0.0436 -0.4194  0.2070
 4440SOL    HW124779   3.841   3.064   6.747  1.4718 -2.0837 -0.7148
 4440SOL    HW224780   3.883   2.978   6.868 -0.7221  0.4714  2.0028
 4441SOL     OW24781   0.582   2.255  10.421  0.4341 -0.0451  0.2713
 4441SOL    HW124782   0.608   2.276  10.511 -2.0213  0.5007  0.8477
 4441SOL    HW224783   0.528   2.177  10.431 -1.3618  0.9295 -1.7713
 4442SOL     OW24784   4.602   2.066  12.388 -0.8467  0.1783  0.2474
 4442SOL    HW124785   4.686   2.080  12.431 -0.0161  0.5918 -1.5148
 4442SOL    HW224786   4.590   1.971  12.383  1.0740  0.0035 -1.2046
 4443SOL     OW24787   1.472   1.513   3.333 -0.1384  0.5934 -0.2172
 4443SOL    HW124788   1.407   1.570   3.374 -0.3510 -1.1172  1.8182
 4443SOL    HW224789   1.549   1.531   3.386  0.0561 -0.6839 -0.0720
 4444SOL     OW24790   4.342   3.513   6.755 -0.0328 -0.3103 -0.3493
 4444SOL    HW124791   4.380   3.573   6.691  1.1998  0.2919  0.9563
 4444SOL    HW224792   4.340   3.428   6.710 -1.5814 -0.4795  0.0473
 4445SOL     OW24793   0.049   1.403   9.082 -0.1765 -0.1442 -0.4010
 4445SOL    HW124794   0.012   1.328   9.034  2.5639 -2.3981  1.0219
 4445SOL    HW224795   0.034   1.386   9.175 -0.3762 -0.8637 -0.5582
 4446SOL     OW24796   0.408   1.062   2.107 -0.7138  0.5687 -0.2151
 4446SOL    HW124797   0.451   1.070   2.192 -1.8970  2.8432  0.1702
 4446SOL    HW224798   0.462   1.007   2.050 -1.7480 -2.2336  1.5264
 4447SOL     OW24799   2.331   1.912   5.197 -0.0305  0.1162 -0.1970
 4447SOL    HW124800   2.352   1.874   5.111  3.6860 -0.4960  1.0096
 4447SOL    HW224801   2.325   1.832   5.249 -0.6896 -0.0704 -0.5576
 4448SOL     OW24802   1.679   3.490   5.798 -0.0870 -0.4181 -0.3700
 4448SOL    HW124803   1.598   3.539   5.812  0.3841  0.5975 -1.1659
 4448SOL    HW224804   1.636   3.405   5.811 -0.1456 -0.2574  0.4730
 4449SOL     OW24805   2.163   1.163  15.693  0.7152  0.3647 -0.1431
 4449SOL    HW124806   2.195   1.253  15.691 -0.4967  0.7909 -0.2363
 4449SOL    HW224807   2.088   1.182  15.748  1.4973  1.0954  0.6617
 4450SOL     OW24808   1.929   3.587   8.651  0.1961 -0.2739 -0.0143
 4450SOL    HW124809   2.001   3.556   8.705  0.9781  0.8082 -0.4326
 4450SOL    HW224810   1.921   3.520   8.584 -1.5747  2.2803 -2.3922
 4451SOL     OW24811   0.263   3.710   0.351 -0.2702  0.2749  0.1905
 4451SOL    HW124812   0.196   3.778   0.362 -2.6834 -1.9721 -0.6851
 4451SOL    HW224813   0.342   3.764   0.348 -0.3724  0.3279 -1.8459
 4452SOL     OW24814   0.950   3.070   7.887  0.0996 -0.1743  0.1434
 4452SOL    HW124815   0.960   3.071   7.792 -3.4613  0.4271 -0.2080
 4452SOL    HW224816   0.921   2.978   7.892  1.7550 -0.5987  1.9515
 4453SOL     OW24817   4.555   3.185   7.806 -0.7589 -0.5567 -0.0610
 4453SOL    HW124818   4.489   3.136   7.757  0.5685 -1.4456 -0.9805
 4453SOL    HW224819   4.505   3.216   7.881  1.6561 -1.0041  1.7650
 4454SOL     OW24820   3.608   1.650   4.908  0.3880 -0.4778  0.4184
 4454SOL    HW124821   3.538   1.683   4.851  1.9290  0.3024 -1.0287
 4454SOL    HW224822   3.632   1.570   4.860 -1.5983  0.0086 -1.3831
 4455SOL     OW24823   1.453   3.858   8.176 -0.0075 -0.1399  0.3249
 4455SOL    HW124824   1.466   3.925   8.243 -3.9198 -0.7459  1.6859
 4455SOL    HW224825   1.542   3.825   8.166 -0.5639 -1.2933 -0.6525
 4456SOL     OW24826   0.707   1.780  15.594 -0.2365 -0.0996  0.1104
 4456SOL    HW124827   0.651   1.847  15.555  0.3619 -0.1988 -0.9001
 4456SOL    HW224828   0.779   1.770  15.533 -1.2425  0.1385 -1.1088
 4457SOL     OW24829   2.319   1.317   7.611  0.6339  0.7426 -0.2565
 4457SOL    HW124830   2.280   1.267   7.540  1.6263 -0.0409 -0.2565
 4457SOL    HW224831   2.407   1.280   7.606 -0.0664 -1.0609  1.0056
 4458SOL     OW24832   2.069   3.271   8.048  0.0990 -0.5025 -0.4304
 4458SOL    HW124833   2.104   3.215   8.118  1.3677  2.0744  1.0138
 4458SOL    HW224834   2.104   3.227   7.970 -0.7626  0.0514 -1.1300
 4459SOL     OW24835   3.737   2.019   6.123  0.1326  0.1004 -0.0988
 4459SOL    HW124836   3.791   1.981   6.192  1.0166  0.1763 -0.7444
 4459SOL    HW224837   3.782   1.984   6.046 -0.0506  1.6566 -0.9164
 4460SOL     OW24838   0.560   4.559   2.950  0.3434 -0.4411  0.2976
 4460SOL    HW124839   0.571   4.466   2.966  2.2971 -0.2989 -0.1015
 4460SOL    HW224840   0.482   4.576   2.897  1.2516 -2.2549 -1.6238
 4461SOL     OW24841   4.588   4.720   7.287  0.3359  0.2644  0.5056
 4461SOL    HW124842   4.630   4.634   7.283  1.0874  0.6450  0.2220
 4461SOL    HW224843   4.533   4.717   7.366  0.0835  2.6510  0.4248
 4462SOL     OW24844   2.311   3.581   4.911 -0.8603 -0.6045 -0.0920
 4462SOL    HW124845   2.340   3.644   4.977 -2.5520  0.3160 -0.2226
 4462SOL    HW224846   2.217   3.589   4.923 -0.7587 -1.2590  1.1295
 4463SOL     OW24847   1.454   3.295   0.321  0.9096 -0.1303 -0.6653
 4463SOL    HW124848   1.442   3.215   0.372  0.9601 -0.4967 -1.2287
 4463SOL    HW224849   1.519   3.267   0.257  1.4639 -0.6860  0.1235
 4464SOL     OW24850   2.970   1.463   2.038 -0.1028 -0.1753  0.2991
 4464SOL    HW124851   2.914   1.541   2.044  1.2434  0.6998  1.5867
 4464SOL    HW224852   2.985   1.437   2.129 -3.4019 -0.5648  0.7459
 4465SOL     OW24853   2.517   1.001   0.913 -0.1864  0.7817 -0.0594
 4465SOL    HW124854   2.546   0.979   0.825  1.4061  1.3580  0.3181
 4465SOL    HW224855   2.423   1.014   0.904 -0.3876  0.4382  1.4259
 4466SOL     OW24856   0.932   0.235   9.444  0.2105 -0.2764  0.0426
 4466SOL    HW124857   0.945   0.144   9.416 -1.3446 -0.3090 -0.5549
 4466SOL    HW224858   0.838   0.241   9.431  0.2362 -0.8091 -0.4147
 4467SOL     OW24859   1.530   4.224   5.230 -0.0794 -0.1769 -0.2523
 4467SOL    HW124860   1.448   4.252   5.188 -0.1419 -1.8068 -1.2328
 4467SOL    HW224861   1.510   4.216   5.323  0.6162  0.4282 -0.0439
 4468SOL     OW24862   4.662   3.267  15.558  0.7581 -0.2543  0.1561
 4468SOL    HW124863   4.665   3.328  15.484  2.2814  0.0130  0.4392
 4468SOL    HW224864   0.031   3.265  15.589  1.7871 -0.5723 -2.9409
 4469SOL     OW24865   1.515   1.793   7.575 -0.4999  0.0035 -0.0891
 4469SOL    HW124866   1.551   1.809   7.662 -1.5271 -0.1923  0.3614
 4469SOL    HW224867   1.498   1.699   7.575 -2.2721  0.3374  1.6232
 4470SOL     OW24868   1.657   3.965   6.615  0.4894  0.1564 -0.2680
 4470SOL    HW124869   1.576   3.967   6.665  0.7656  1.7434  0.1128
 4470SOL    HW224870   1.654   4.058   6.592  0.4655  0.4927  1.0724
 4471SOL     OW24871   4.715   0.248  12.255 -0.2280 -0.4024 -0.0489
 4471SOL    HW124872   4.676   0.170  12.295  1.0486 -0.8321  0.3681
 4471SOL    HW224873   0.088   0.239  12.266  0.2883  0.9683 -3.2583
 4472SOL     OW24874   3.053   2.931   5.585 -0.1067 -0.2082 -0.0755
 4472SOL    HW124875   3.089   2.998   5.644 -0.8815 -0.2836  0.4852
 4472SOL    HW224876   2.985   2.980   5.539  1.0652  1.2202 -0.2929
 4473SOL     OW24877   2.975   2.805   8.498 -0.5822  0.2332 -0.2227
 4473SOL    HW124878   2.929   2.845   8.571  0.1595  0.1064  0.3121
 4473SOL    HW224879   2.902   2.804   8.435 -1.2107  0.2637  0.5052
 4474SOL     OW24880   2.497   1.280  13.578 -0.0451 -0.3044 -0.6260
 4474SOL    HW124881   2.466   1.195  13.549  1.2784 -1.2709  0.7841
 4474SOL    HW224882   2.575   1.293  13.524  1.6651 -0.8015  1.6906
 4475SOL     OW24883   1.172   1.559   6.451 -0.3878  0.4051 -0.1168
 4475SOL    HW124884   1.083   1.553   6.415 -0.5996  1.4018  0.2297
 4475SOL    HW224885   1.209   1.471   6.442  1.2098  1.1251 -0.5709
 4476SOL     OW24886   0.398   3.612  10.222 -0.1585  0.3124  0.0933
 4476SOL    HW124887   0.456   3.636  10.150  0.9984 -1.1578  0.5228
 4476SOL    HW224888   0.316   3.616  10.174  0.8533  1.9532 -1.5147
 4477SOL     OW24889   4.212   4.320   6.728 -0.0505 -0.2607 -0.1202
 4477SOL    HW124890   4.272   4.253   6.695  1.0614  0.6167  0.1107
 4477SOL    HW224891   4.125   4.281   6.732 -1.1786  2.0800 -2.5258
 4478SOL     OW24892   4.503   1.036  13.987 -0.2492  0.2642  0.4198
 4478SOL    HW124893   4.515   1.036  14.081  1.9350 -3.0176  0.1324
 4478SOL    HW224894   4.408   1.035  13.977  0.2327  0.1262 -4.2376
 4479SOL     OW24895   1.799   1.286   1.820 -0.6627  0.3649 -0.1387
 4479SOL    HW124896   1.840   1.204   1.848  0.9423  0.9707 -0.7058
 4479SOL    HW224897   1.872   1.340   1.791 -0.4706 -0.8863 -2.0453
 4480SOL     OW24898   3.303   4.293   5.343  0.5925 -0.4787 -0.1701
 4480SOL    HW124899   3.289   4.383   5.312 -0.1287 -0.5256  0.0048
 4480SOL    HW224900   3.394   4.296   5.371  0.3313  1.9069  0.4907
 4481SOL     OW24901   0.324   4.259   3.486 -0.1716  0.2237 -0.2635
 4481SOL    HW124902   0.243   4.301   3.514 -0.0815 -0.0596  0.4147
 4481SOL    HW224903   0.396   4.311   3.522 -0.1384  0.1019 -0.1526
 4482SOL     OW24904   1.286   3.203   5.204 -0.3317  0.3953 -0.7043
 4482SOL    HW124905   1.243   3.240   5.282 -3.3441  0.0727 -2.2203
 4482SOL    HW224906   1.231   3.127   5.185  0.6861  0.2013 -2.8338
 4483SOL     OW24907   3.259   2.137  14.410  0.0990 -0.5665 -0.5395
 4483SOL    HW124908   3.284   2.144  14.318  0.2347  1.5763 -0.3472
 4483SOL    HW224909   3.244   2.229  14.433  0.6427 -0.4267 -0.7218
 4484SOL     OW24910   0.093   2.260   6.432  0.2735  0.3818  0.4178
 4484SOL    HW124911   0.019   2.226   6.482 -0.3286  0.6488 -0.2832
 4484SOL    HW224912   0.043   2.289   6.355 -1.5874  1.5318  2.0643
 4485SOL     OW24913   2.702   3.665   6.190 -0.1326  0.2320  0.0508
 4485SOL    HW124914   2.635   3.690   6.126  1.8649  1.8337 -1.3692
 4485SOL    HW224915   2.764   3.738   6.192 -0.5699  0.5939  0.4014
 4486SOL     OW24916   2.791   3.459   6.564 -0.2975  0.4096 -0.3446
 4486SOL    HW124917   2.755   3.449   6.652 -0.4544 -0.6037 -0.5253
 4486SOL    HW224918   2.825   3.547   6.578 -0.1625 -0.0035  1.8605
 4487SOL     OW24919   1.764   2.689   8.671  0.0906  0.3899  0.1959
 4487SOL    HW124920   1.695   2.635   8.710 -1.7886  0.8255 -2.4910
 4487SOL    HW224921   1.718   2.720   8.593  1.6943 -0.4934 -1.1224
 4488SOL     OW24922   4.523   4.530   3.199 -0.0143 -0.1574 -0.4790
 4488SOL    HW124923   4.592   4.476   3.238  2.0482  1.8425 -1.3777
 4488SOL    HW224924   4.544   4.620   3.221 -0.2423 -0.0637 -0.6473
 4489SOL     OW24925   1.415   3.060   0.486  0.4253 -0.2107 -0.1283
 4489SOL    HW124926   1.335   3.009   0.473 -0.1560  0.3090  1.4198
 4489SOL    HW224927   1.476   2.988   0.470 -0.3360 -1.0385  0.6784
 4490SOL     OW24928   1.810   2.551  15.242  0.0223 -0.3969  0.7527
 4490SOL    HW124929   1.772   2.538  15.155 -0.3983  2.6019  0.5002
 4490SOL    HW224930   1.763   2.477  15.280 -2.6354  1.2289  0.6634
 4491SOL     OW24931   3.884   3.702   3.188  0.0498 -0.0790  0.2087
 4491SOL    HW124932   3.889   3.642   3.263  0.9046 -0.7297 -0.3639
 4491SOL    HW224933   3.978   3.718   3.175  0.4647 -1.7119  1.1366
 4492SOL     OW24934   3.228   4.166   1.987  0.0817  0.3318 -0.2098
 4492SOL    HW124935   3.187   4.103   2.045  1.7596 -0.3416  0.2423
 4492SOL    HW224936   3.319   4.162   2.017  0.4305 -1.2345 -1.4650
 4493SOL     OW24937   1.818   3.608   5.128 -0.5378  0.0599 -0.5684
 4493SOL    HW124938   1.775   3.690   5.104  0.4650  1.3396  1.9586
 4493SOL    HW224939   1.766   3.605   5.208  0.5456 -1.1399  0.0899
 4494SOL     OW24940   2.017   4.320   9.458 -0.4538  0.4474  0.4282
 4494SOL    HW124941   2.056   4.269   9.529 -1.0383 -1.1337 -0.3957
 4494SOL    HW224942   2.069   4.306   9.379 -1.5916 -0.7398 -0.1038
 4495SOL     OW24943   1.008   1.615   2.953 -0.2180 -0.1648 -0.2652
 4495SOL    HW124944   1.016   1.643   3.044  0.0472 -1.8191  0.2287
 4495SOL    HW224945   0.978   1.694   2.908 -0.7199 -0.5368 -0.5753
 4496SOL     OW24946   4.350   4.372   7.213 -0.5474 -0.2213 -0.0316
 4496SOL    HW124947   4.277   4.313   7.231 -1.0927  0.4827  0.0633
 4496SOL    HW224948   4.380   4.349   7.125 -1.5425 -0.9807 -0.1721
 4497SOL     OW24949   2.760   3.731   2.170 -0.4364  0.0539  0.0244
 4497SOL    HW124950   2.770   3.786   2.248  1.0299 -1.5360  0.9579
 4497SOL    HW224951   2.781   3.643   2.201 -0.1168  1.0788  2.6712
 4498SOL     OW24952   0.638   4.248   3.279 -0.9551  0.3057 -0.2186
 4498SOL    HW124953   0.690   4.322   3.312  0.4627 -0.3408 -0.9844
 4498SOL    HW224954   0.569   4.301   3.239 -1.1446  0.8114  0.7674
 4499SOL     OW24955   4.416   3.599  16.382  0.1628  0.4768  0.3900
 4499SOL    HW124956   4.499   3.556  16.361 -0.2142 -0.5943  1.0738
 4499SOL    HW224957   4.432   3.647  16.463 -1.6621 -0.1701  1.1407
 4500SOL     OW24958   4.454   3.780   0.723  0.1361 -0.2527  0.6393
 4500SOL    HW124959   4.388   3.786   0.792  0.1877  0.7164  0.6040
 4500SOL    HW224960   4.435   3.691   0.692  1.4332 -0.0171 -0.8359
 4501SOL     OW24961   4.448   0.345  11.649  0.0856 -0.6719 -0.4006
 4501SOL    HW124962   4.480   0.379  11.733  2.2752  0.0570 -1.5209
 4501SOL    HW224963   4.356   0.369  11.646 -0.2583 -1.6818  1.9546
 4502SOL     OW24964   4.050   1.499   7.718  0.1877  0.3976  0.1536
 4502SOL    HW124965   4.067   1.543   7.634 -0.1058 -0.0321 -0.1308
 4502SOL    HW224966   4.065   1.572   7.778 -0.0121  0.8057 -0.2892
 4503SOL     OW24967   2.152   1.625   2.016 -0.1736 -0.0082 -0.2609
 4503SOL    HW124968   2.181   1.595   1.930 -0.8839  2.8438 -1.5087
 4503SOL    HW224969   2.159   1.720   2.009 -1.6631 -0.0281 -1.9737
 4504SOL     OW24970   2.144   0.773   7.968  0.5020  0.3863  0.2837
 4504SOL    HW124971   2.221   0.790   7.914  1.5624  1.6348  2.1856
 4504SOL    HW224972   2.170   0.694   8.016 -1.4836 -1.0110 -0.9872
 4505SOL     OW24973   2.189   2.479   1.381 -0.5558 -0.1785 -0.2897
 4505SOL    HW124974   2.187   2.505   1.473  2.6518 -0.3809 -0.1632
 4505SOL    HW224975   2.188   2.566   1.340 -2.7080 -0.9050 -1.7315
 4506SOL     OW24976   1.446   2.457   4.041 -0.6323  0.0583  0.3353
 4506SOL    HW124977   1.476   2.378   4.086  0.4052  0.3040  0.0851
 4506SOL    HW224978   1.529   2.504   4.035  0.6633 -2.3940 -0.9450
 4507SOL     OW24979   3.242   4.713   2.676  0.3900  0.2168 -0.4857
 4507SOL    HW124980   3.195   0.072   2.655  0.4718  1.2170  3.1211
 4507SOL    HW224981   3.181   4.680   2.743 -1.7778  0.6145 -2.2724
 4508SOL     OW24982   3.005   4.272   3.454 -0.4392 -0.2639  0.2733
 4508SOL    HW124983   2.940   4.206   3.427 -0.6937 -0.7790  2.1537
 4508SOL    HW224984   3.006   4.341   3.388  1.5655  0.7340  1.3441
 4509SOL     OW24985   0.228   2.503   8.282 -0.4363 -0.1444  0.6870
 4509SOL    HW124986   0.205   2.589   8.247  1.6811 -0.6361 -1.9164
 4509SOL    HW224987   0.314   2.495   8.241 -0.9909 -3.3838  0.1868
 4510SOL     OW24988   2.646   0.859  11.718 -0.0923  0.1381 -0.1717
 4510SOL    HW124989   2.586   0.922  11.758 -0.4626 -1.9510  2.5879
 4510SOL    HW224990   2.636   0.900  11.632  1.2790  0.3418 -0.2345
 4511SOL     OW24991   1.049   4.533   2.415  0.1713  0.2442  0.2946
 4511SOL    HW124992   1.038   4.516   2.322 -1.9927  0.2844  0.5524
 4511SOL    HW224993   1.054   4.629   2.418 -0.5668  0.2231  2.8003
 4512SOL     OW24994   2.251   1.691   5.310 -0.7488  0.4653  0.0861
 4512SOL    HW124995   2.277   1.600   5.322 -0.7276  0.9156  3.4823
 4512SOL    HW224996   2.223   1.710   5.399 -0.0858  0.8661  0.1998
 4513SOL     OW24997   3.664   1.303   7.314 -0.4515 -0.6622  0.1774
 4513SOL    HW124998   3.666   1.293   7.219  0.0835  0.0826  0.1041
 4513SOL    HW224999   3.574   1.334   7.327  0.3395  1.7545  0.0114
 4514SOL     OW25000   4.447   2.583   5.182  0.1369  0.0151 -0.1376
 4514SOL    HW125001   4.435   2.678   5.183  0.6182  0.0592  1.2342
 4514SOL    HW225002   4.492   2.566   5.099 -2.6488 -1.5321 -1.3229
 4515SOL     OW25003   1.557   0.601   3.684  0.6677  0.5332 -0.2624
 4515SOL    HW125004   1.602   0.568   3.762  0.6898  0.4725 -0.3005
 4515SOL    HW225005   1.486   0.639   3.735  0.5327 -0.5867  0.3965
 4516SOL     OW25006   0.483   0.221   7.449  0.1353  0.2659  0.6636
 4516SOL    HW125007   0.532   0.186   7.524  1.3248 -0.2649 -0.3563
 4516SOL    HW225008   0.517   0.309   7.434  0.4839  0.0698  0.2889
 4517SOL     OW25009   2.866   2.087   1.417  0.3426  0.1677 -0.0910
 4517SOL    HW125010   2.827   2.139   1.347  1.3815  0.8840 -0.1423
 4517SOL    HW225011   2.959   2.102   1.398  0.2183  1.7707  0.5819
 4518SOL     OW25012   4.075   3.894   7.274 -0.2597  0.6933 -0.7722
 4518SOL    HW125013   4.157   3.905   7.226  0.0337 -1.3135 -0.7177
 4518SOL    HW225014   4.069   3.799   7.266  0.3022  0.6660 -0.8591
 4519SOL     OW25015   1.238   4.624   4.016 -0.3550 -0.2793  0.1563
 4519SOL    HW125016   1.156   4.615   4.065 -0.3119 -1.2889  0.0513
 4519SOL    HW225017   1.276   4.701   4.057 -0.6397  0.1492 -0.3991
 4520SOL     OW25018   4.315   4.589  10.186 -0.2365 -0.1432 -0.5153
 4520SOL    HW125019   4.247   4.608  10.122 -1.0667  0.3871  0.5229
 4520SOL    HW225020   4.348   4.674  10.216 -1.6573  0.6652 -1.2757
 4521SOL     OW25021   2.467   3.357  14.606  0.2562 -0.2209  0.0497
 4521SOL    HW125022   2.477   3.274  14.653 -1.0628 -1.1746 -1.3278
 4521SOL    HW225023   2.515   3.340  14.525 -1.1593 -0.8383 -0.6696
 4522SOL     OW25024   1.247   2.129  13.857  0.5108 -0.9899  0.0238
 4522SOL    HW125025   1.320   2.138  13.919  1.2552 -1.2580 -0.8111
 4522SOL    HW225026   1.278   2.192  13.791  3.1597 -3.7218 -1.3361
 4523SOL     OW25027   0.999   3.258   4.212  0.2432  0.0504 -0.1291
 4523SOL    HW125028   0.954   3.173   4.214  0.7808 -0.1983  0.8984
 4523SOL    HW225029   0.942   3.319   4.164 -1.8675  0.0332  2.3626
 4524SOL     OW25030   1.569   1.614   8.565  0.5644 -1.1910 -0.1472
 4524SOL    HW125031   1.614   1.691   8.533 -1.6294 -0.9382 -2.6459
 4524SOL    HW225032   1.557   1.638   8.657  0.5413 -2.0582  0.0848
 4525SOL     OW25033   2.318   4.098   1.348 -0.7815  0.1174 -0.3292
 4525SOL    HW125034   2.324   4.014   1.302 -1.0091  0.5279 -1.1224
 4525SOL    HW225035   2.276   4.065   1.427 -0.3653  1.1249  0.3148
 4526SOL     OW25036   2.132   4.642   1.124  0.0975 -0.0789  0.0100
 4526SOL    HW125037   2.216   4.602   1.149 -0.5575 -0.0307  2.2913
 4526SOL    HW225038   2.170   0.002   1.091 -0.3269  0.9166  1.9597
 4527SOL     OW25039   3.387   3.816   7.096  0.3045  0.5033  0.6043
 4527SOL    HW125040   3.457   3.835   7.159 -1.4705  2.1109  2.1073
 4527SOL    HW225041   3.338   3.754   7.150  2.0700 -0.4316  1.1274
 4528SOL     OW25042   3.749   1.603   6.381 -0.6628 -0.4758  0.0045
 4528SOL    HW125043   3.832   1.626   6.338 -0.2567 -0.8936  0.5548
 4528SOL    HW225044   3.698   1.678   6.351 -0.0096 -0.2363 -0.5043
 4529SOL     OW25045   4.149   3.686   5.322 -0.0634  0.5880 -0.3003
 4529SOL    HW125046   4.143   3.768   5.271 -1.0506  0.7756  0.1180
 4529SOL    HW225047   4.233   3.662   5.283  0.2470  1.3548 -0.1040
 4530SOL     OW25048   1.197   2.024   6.375 -0.2668 -0.3355 -0.2183
 4530SOL    HW125049   1.268   1.960   6.365 -0.0949 -0.3291  0.9767
 4530SOL    HW225050   1.234   2.084   6.440 -0.0077  1.1805 -1.7752
 4531SOL     OW25051   1.944   2.911   1.405 -0.0680  0.3668  0.1334
 4531SOL    HW125052   1.898   2.840   1.361  0.8371 -0.7161  0.9475
 4531SOL    HW225053   1.946   2.881   1.496  2.3358 -0.1592 -0.0943
 4532SOL     OW25054   3.513   3.915   4.521  0.1346  0.4993  0.2051
 4532SOL    HW125055   3.490   3.851   4.455  1.8229 -1.1258  1.1849
 4532SOL    HW225056   3.450   3.982   4.496 -1.1061 -0.3904  0.9921
 4533SOL     OW25057   3.884   0.293   5.378  0.3788  0.1233 -0.0048
 4533SOL    HW125058   3.976   0.311   5.358  0.0668  1.1223 -0.5218
 4533SOL    HW225059   3.833   0.317   5.300 -2.0842  1.9814  2.2028
 4534SOL     OW25060   1.714   3.916  12.572  0.4786 -0.0396  0.1423
 4534SOL    HW125061   1.739   3.854  12.640 -0.4390  0.4136  0.8894
 4534SOL    HW225062   1.639   3.966  12.605 -1.4439 -2.4581 -0.5803
 4535SOL     OW25063   0.043   3.426  14.253  0.4073 -0.3801  0.1906
 4535SOL    HW125064   0.102   3.499  14.272  0.0559  0.3917 -1.7014
 4535SOL    HW225065   0.056   3.368  14.328 -0.1459  0.3094  0.8313
 4536SOL     OW25066   1.099   0.636   9.480 -0.4118 -0.0769 -0.1948
 4536SOL    HW125067   1.118   0.704   9.546 -1.2889 -0.4282  0.4200
 4536SOL    HW225068   1.185   0.601   9.456 -0.4888  1.3397 -2.4857
 4537SOL     OW25069   0.823   3.391  11.452  0.2326 -0.1159  0.0328
 4537SOL    HW125070   0.917   3.402  11.464  0.3010 -0.2864 -0.3427
 4537SOL    HW225071   0.803   3.393  11.545 -0.9219 -0.7191 -0.1973
 4538SOL     OW25072   0.374   1.444   0.617  0.4016  0.4020 -0.7007
 4538SOL    HW125073   0.323   1.500   0.557 -0.0649  1.2376  0.4769
 4538SOL    HW225074   0.433   1.510   0.653  0.4938  0.4252 -0.8944
 4539SOL     OW25075   0.579   2.624   8.335 -0.3958 -0.4701 -0.6630
 4539SOL    HW125076   0.503   2.683   8.337 -0.7048 -0.8891  0.0575
 4539SOL    HW225077   0.648   2.688   8.319  1.1125 -1.8624  0.2527
 4540SOL     OW25078   3.804   2.838   1.951 -0.0933  0.0476 -1.2678
 4540SOL    HW125079   3.725   2.787   1.968 -0.2309  0.9199  0.6188
 4540SOL    HW225080   3.869   2.769   1.966  0.7915  0.7332 -1.9401
 4541SOL     OW25081   3.032   0.814   0.559  0.1830 -0.1035 -0.3064
 4541SOL    HW125082   3.019   0.824   0.464  0.8205 -0.8125 -0.4720
 4541SOL    HW225083   3.126   0.793   0.567 -0.0962 -1.4739 -0.5314
 4542SOL     OW25084   4.408   3.554   8.674 -0.0632  0.1208  0.5808
 4542SOL    HW125085   4.384   3.531   8.584 -0.7287 -0.6770  0.9672
 4542SOL    HW225086   4.481   3.613   8.653  2.2260 -3.7185 -2.2860
 4543SOL     OW25087   3.527   3.871   6.452 -0.3139 -0.0313  0.1258
 4543SOL    HW125088   3.575   3.931   6.395  0.1578 -0.4696  0.0680
 4543SOL    HW225089   3.567   3.788   6.428 -0.0469 -0.1343  0.9264
 4544SOL     OW25090   3.189   3.226   1.762 -0.6028  0.2751 -0.4587
 4544SOL    HW125091   3.185   3.241   1.857  0.4563 -2.1912 -0.0091
 4544SOL    HW225092   3.142   3.143   1.757 -0.9226  0.4695 -0.6476
 4545SOL     OW25093   1.553   2.055   3.231  0.1136  0.7153 -0.2773
 4545SOL    HW125094   1.541   2.029   3.323 -1.4852  0.6783 -0.5090
 4545SOL    HW225095   1.464   2.060   3.197 -0.0331  1.8442  0.2711
 4546SOL     OW25096   0.146   2.638   5.402  0.0597 -0.0006  0.3521
 4546SOL    HW125097   0.115   2.679   5.483 -0.6415 -2.5468  1.3661
 4546SOL    HW225098   0.081   2.569   5.390 -1.0086  0.8658  1.1845
 4547SOL     OW25099   3.647   0.151   6.421 -0.3948  0.6762  0.2866
 4547SOL    HW125100   3.686   0.109   6.345  1.6242  2.7613  0.1790
 4547SOL    HW225101   3.704   0.124   6.493 -2.2043  1.4382  2.0117
 4548SOL     OW25102   4.261   3.889   0.864  0.0398 -0.1095  0.0938
 4548SOL    HW125103   4.259   3.862   0.956 -1.9650 -1.0622 -0.2320
 4548SOL    HW225104   4.243   3.982   0.875 -1.1877 -0.1825 -1.2286
 4549SOL     OW25105   4.166   3.662  17.313 -0.1974 -0.6941 -0.4044
 4549SOL    HW125106   4.125   3.603  17.250  1.2675  0.2192 -2.2373
 4549SOL    HW225107   4.156   3.748  17.271 -0.2847 -0.5131 -0.0065
 4550SOL     OW25108   4.323   4.183  17.636  0.1386  0.4037  0.7934
 4550SOL    HW125109   4.330   4.233  17.555  0.0719 -2.4806 -0.9886
 4550SOL    HW225110   4.408   4.140  17.639 -0.6745 -1.2700 -0.1703
 4551SOL     OW25111   2.812   2.644   4.960  0.3232  0.0025  0.2200
 4551SOL    HW125112   2.863   2.647   4.879  0.7506  1.0417  0.5262
 4551SOL    HW225113   2.766   2.728   4.959 -0.1993 -0.2627  1.6272
 4552SOL     OW25114   0.045   3.340   5.812 -0.0543  0.2500 -0.1559
 4552SOL    HW125115   0.083   3.271   5.757  2.1437  1.3245  0.0284
 4552SOL    HW225116   0.095   3.416   5.784  0.1660 -0.1124 -0.7434
 4553SOL     OW25117   0.300   0.314  13.621  0.7975  0.1275  0.2326
 4553SOL    HW125118   0.360   0.294  13.549  1.7029  0.5013  0.8849
 4553SOL    HW225119   0.224   0.339  13.567  1.3951  1.1529 -0.1365
 4554SOL     OW25120   0.065   0.793   8.383  0.2356  0.1424 -0.1897
 4554SOL    HW125121   0.024   0.715   8.421  0.7662 -1.4186 -2.8084
 4554SOL    HW225122   0.143   0.751   8.346 -0.9406 -1.3772 -0.9164
 4555SOL     OW25123   4.210   3.778   8.151  0.4477  0.3095 -0.2298
 4555SOL    HW125124   4.219   3.737   8.237 -4.6251  4.1149  2.0966
 4555SOL    HW225125   4.142   3.717   8.122  0.5093  0.6765 -1.1448
 4556SOL     OW25126   2.515   2.246   3.058  0.6616  0.0643 -0.2990
 4556SOL    HW125127   2.509   2.279   3.147 -1.9755  2.2603 -1.2533
 4556SOL    HW225128   2.509   2.153   3.078 -2.1254 -0.0908 -1.7992
 4557SOL     OW25129   3.708   1.655   8.496 -0.3410 -0.0545 -0.4549
 4557SOL    HW125130   3.778   1.591   8.486  0.4812  0.9228 -0.9783
 4557SOL    HW225131   3.755   1.728   8.537 -0.0725 -0.5721  0.1495
 4558SOL     OW25132   3.105   4.115   7.282  0.8083 -0.4100 -0.3082
 4558SOL    HW125133   3.177   4.159   7.237  0.1381  0.2204 -0.7709
 4558SOL    HW225134   3.132   4.133   7.372  0.1285 -0.1359 -0.1642
 4559SOL     OW25135   3.142   2.894  15.738  0.5454 -0.6098  0.6151
 4559SOL    HW125136   3.048   2.895  15.757  0.5703 -1.2199  0.7829
 4559SOL    HW225137   3.153   2.985  15.765 -1.3638 -0.6594  1.5593
 4560SOL     OW25138   3.815   2.601  11.030 -0.0049 -1.3050  0.0905
 4560SOL    HW125139   3.854   2.672  10.980  0.5134 -0.6235  1.4473
 4560SOL    HW225140   3.896   2.572  11.072 -1.7281 -1.6837  3.1401
 4561SOL     OW25141   0.862   3.481   2.337 -0.0070  0.4908  0.0014
 4561SOL    HW125142   0.818   3.436   2.409  2.2631 -0.5696  0.7032
 4561SOL    HW225143   0.820   3.435   2.264 -0.2114 -0.1938  0.5575
 4562SOL     OW25144   2.007   1.871   7.404  0.0625 -0.1233 -0.4460
 4562SOL    HW125145   2.023   1.811   7.476 -2.0259 -1.4827 -1.0928
 4562SOL    HW225146   1.929   1.831   7.364  0.4377 -0.5461 -0.7504
 4563SOL     OW25147   3.126   1.057   3.397  0.1383  0.1497  0.3188
 4563SOL    HW125148   3.041   1.093   3.419 -0.3152 -0.0746 -1.0896
 4563SOL    HW225149   3.129   1.075   3.303  0.1345 -1.1174  0.0788
 4564SOL     OW25150   1.780   0.105   8.118 -0.2161 -0.5878  0.0810
 4564SOL    HW125151   1.859   0.070   8.159 -0.5343  0.0408  1.2228
 4564SOL    HW225152   1.715   0.042   8.148 -2.4515  0.2181 -3.0491
 4565SOL     OW25153   4.111   3.535   8.428 -0.0644  0.3805 -0.5152
 4565SOL    HW125154   4.135   3.619   8.467  0.6379  1.9797 -4.3595
 4565SOL    HW225155   4.077   3.493   8.506  0.1388  2.3119  0.6087
 4566SOL     OW25156   0.574   2.939   8.975  0.4043  0.1961  0.0938
 4566SOL    HW125157   0.505   3.006   8.969 -0.9114 -1.2734 -1.1500
 4566SOL    HW225158   0.548   2.898   8.892  0.9204  1.0773 -0.5137
 4567SOL     OW25159   3.996   2.915   3.935 -0.6496  0.2115 -0.0142
 4567SOL    HW125160   4.036   2.828   3.929  2.1219  1.5548 -1.4041
 4567SOL    HW225161   3.921   2.898   3.878 -0.9653  0.6629  0.2618
 4568SOL     OW25162   0.280   4.073   7.354  0.0770 -0.3423 -0.2451
 4568SOL    HW125163   0.359   4.021   7.369  0.0030 -0.1571  0.8267
 4568SOL    HW225164   0.294   4.125   7.434  2.8843 -1.5148  0.0196
 4569SOL     OW25165   0.691   2.553   6.855 -0.0581 -0.4161  0.0645
 4569SOL    HW125166   0.685   2.518   6.767  1.1902 -1.3078  0.3415
 4569SOL    HW225167   0.618   2.615   6.853 -1.1909 -1.7721 -0.9786
 4570SOL     OW25168   4.612   2.791   3.636  0.2086 -0.0231 -0.0030
 4570SOL    HW125169   4.688   2.849   3.640  0.8595 -0.8441 -0.6158
 4570SOL    HW225170   4.535   2.847   3.645 -0.9841 -2.0019  2.1469
 4571SOL     OW25171   4.040   0.379   3.849  0.2263 -0.2835  0.2248
 4571SOL    HW125172   4.114   0.322   3.871  0.3352  0.8746  2.9146
 4571SOL    HW225173   4.056   0.459   3.899 -4.0304  0.7303 -0.0589
 4572SOL     OW25174   3.308   1.735   2.866 -0.2734 -0.1091 -0.2303
 4572SOL    HW125175   3.214   1.723   2.848 -0.8584  0.8832  2.1243
 4572SOL    HW225176   3.312   1.716   2.960 -1.7323  1.8005  0.2379
 4573SOL     OW25177   3.108   1.981  17.120  0.2583 -0.3351 -0.5925
 4573SOL    HW125178   3.131   1.888  17.114 -0.1431 -0.5120  0.5050
 4573SOL    HW225179   3.029   1.992  17.067  0.9890  0.2924 -1.5358
 4574SOL     OW25180   0.293   2.774  14.539  0.0756  0.1474  0.1834
 4574SOL    HW125181   0.378   2.801  14.506  0.4812  0.1390  1.2323
 4574SOL    HW225182   0.244   2.842  14.492 -0.6666 -0.4849  0.0372
 4575SOL     OW25183   4.086   4.041  14.103 -0.3045 -0.3184 -0.0007
 4575SOL    HW125184   3.991   4.047  14.107 -0.2206  1.0450 -0.2636
 4575SOL    HW225185   4.112   4.094  14.178  1.4779 -1.7738  0.4368
 4576SOL     OW25186   1.813   3.316   5.098 -0.3181 -0.0922  0.5201
 4576SOL    HW125187   1.806   3.403   5.060  1.6073 -0.0970  0.1329
 4576SOL    HW225188   1.905   3.301   5.074  0.3629  2.5368  1.4975
 4577SOL     OW25189   4.436   0.087   5.273 -0.1405  0.0696  0.4789
 4577SOL    HW125190   4.453   0.043   5.356 -0.6807 -0.0879  0.5058
 4577SOL    HW225191   4.498   0.160   5.280 -0.0125  0.0635 -0.6143
 4578SOL     OW25192   0.795   2.188   3.731  0.6534 -0.9402  0.3176
 4578SOL    HW125193   0.806   2.208   3.824 -2.0337  0.5793  0.2968
 4578SOL    HW225194   0.818   2.095   3.728  0.8211 -0.9032  0.4763
 4579SOL     OW25195   3.517   2.363   7.504 -0.3330  0.1211  0.2938
 4579SOL    HW125196   3.464   2.317   7.569 -1.2602 -0.6407 -0.9998
 4579SOL    HW225197   3.485   2.324   7.423 -1.2748 -0.0508  0.7511
 4580SOL     OW25198   3.908   4.397  14.879 -0.0119 -0.5007 -0.5016
 4580SOL    HW125199   3.919   4.405  14.974  0.4327 -0.9255 -0.5211
 4580SOL    HW225200   3.875   4.308  14.862  1.5683 -1.0182 -0.8412
 4581SOL     OW25201   2.085   3.090   9.148  0.0033  0.3446  0.2691
 4581SOL    HW125202   2.041   3.150   9.088 -0.0877  0.0842  0.0754
 4581SOL    HW225203   2.084   3.151   9.222 -0.5153 -0.4787  0.9455
 4582SOL     OW25204   2.819   0.739   3.364 -0.0739 -0.6007 -0.4218
 4582SOL    HW125205   2.859   0.813   3.317 -0.2749 -1.2994 -1.6797
 4582SOL    HW225206   2.793   0.678   3.295  2.5520 -1.4273 -0.6977
 4583SOL     OW25207   0.595   3.327   6.730  0.2766  0.3120  0.1109
 4583SOL    HW125208   0.558   3.409   6.763 -2.4446 -1.1996  0.8520
 4583SOL    HW225209   0.540   3.302   6.655  0.4220 -0.7152  0.3545
 4584SOL     OW25210   1.099   1.128  10.902 -0.0480  0.1203  0.4622
 4584SOL    HW125211   1.026   1.068  10.914  0.1306  0.1813  1.8850
 4584SOL    HW225212   1.152   1.094  10.974 -0.4004  0.4474  0.8737
 4585SOL     OW25213   3.583   1.378   4.311 -0.1550  0.3446  0.0300
 4585SOL    HW125214   3.532   1.302   4.342  1.0314 -0.5604 -0.2315
 4585SOL    HW225215   3.569   1.384   4.216  2.3282 -1.2203 -0.4270
 4586SOL     OW25216   0.454   0.691  12.013 -0.1270  0.3250  0.5534
 4586SOL    HW125217   0.495   0.762  11.963 -0.0063 -0.4109 -0.4043
 4586SOL    HW225218   0.362   0.715  12.003  0.1005  2.4371  3.7453
 4587SOL     OW25219   1.602   1.302   1.602 -0.4616 -0.2779 -0.5144
 4587SOL    HW125220   1.667   1.311   1.533 -1.4829 -0.5766 -1.5181
 4587SOL    HW225221   1.661   1.274   1.672 -0.4454  1.8793  0.3373
 4588SOL     OW25222   1.169   2.478   5.755 -0.0606  0.4038 -0.2256
 4588SOL    HW125223   1.261   2.496   5.736 -0.3469  0.3786 -1.6535
 4588SOL    HW225224   1.155   2.387   5.729  0.3282 -0.9327  4.2042
 4589SOL     OW25225   2.897   2.803   4.086 -0.3428 -0.3407 -0.1845
 4589SOL    HW125226   2.902   2.785   3.992  0.9852  0.9139 -0.3480
 4589SOL    HW225227   2.827   2.741   4.108  1.6106 -2.6296 -0.4697
 4590SOL     OW25228   4.423   4.306   7.864 -0.2637 -0.3019  0.6185
 4590SOL    HW125229   4.516   4.299   7.843 -0.3753 -0.9009  0.3054
 4590SOL    HW225230   4.396   4.363   7.792  2.4385 -1.1761 -1.1024
 4591SOL     OW25231   3.851   0.648   5.083  0.0569  0.2298  0.2033
 4591SOL    HW125232   3.911   0.690   5.144 -3.8750  2.0448  2.8029
 4591SOL    HW225233   3.843   0.561   5.121  1.0342 -1.0161 -2.4292
 4592SOL     OW25234   2.555   3.325  16.407  0.1371  0.1964  0.0202
 4592SOL    HW125235   2.544   3.236  16.374  0.4569  1.2931 -3.0528
 4592SOL    HW225236   2.470   3.368  16.398 -0.2721 -0.1269  2.3535
 4593SOL     OW25237   2.235   2.825   7.883 -0.8903 -0.1361 -0.4704
 4593SOL    HW125238   2.161   2.864   7.929  0.7701  2.3238  0.1527
 4593SOL    HW225239   2.250   2.766   7.957  2.2178 -0.6164 -1.4735
 4594SOL     OW25240   1.802   2.118   3.456 -0.6230  0.0356  0.9134
 4594SOL    HW125241   1.720   2.155   3.489  0.0608 -1.4846  4.2858
 4594SOL    HW225242   1.863   2.168   3.511 -1.8100  2.9689 -0.4011
 4595SOL     OW25243   2.886   3.119   4.965  0.4779  0.5340  0.1082
 4595SOL    HW125244   2.841   3.035   4.964  1.5807 -0.0768  1.7379
 4595SOL    HW225245   2.856   3.157   4.882 -1.5635  0.4014  0.7904
 4596SOL     OW25246   0.001   0.102  14.328  0.6386  0.2614  0.2269
 4596SOL    HW125247   4.715   0.007  14.333 -1.6809  0.4192 -0.0789
 4596SOL    HW225248   0.047   0.123  14.409  1.5731 -1.8666  0.2363
 4597SOL     OW25249   3.151   4.229   4.598 -0.0611 -0.1920 -0.3949
 4597SOL    HW125250   3.221   4.256   4.539 -0.4915 -2.0577 -1.7514
 4597SOL    HW225251   3.182   4.162   4.659  0.0414  1.1874  1.0626
 4598SOL     OW25252   1.959   3.364   1.610 -0.1714 -0.3407  0.6242
 4598SOL    HW125253   1.928   3.449   1.642  0.9927 -0.1861  1.3472
 4598SOL    HW225254   1.883   3.320   1.572  0.8825 -1.4543 -0.1865
 4599SOL     OW25255   2.304   1.792   4.492  0.4966  0.2026 -0.0403
 4599SOL    HW125256   2.219   1.782   4.450 -0.6121  1.3095  1.9304
 4599SOL    HW225257   2.366   1.789   4.419  0.0051 -0.0845 -0.4537
 4600SOL     OW25258   4.154   4.636  16.488  0.6117 -0.1441 -0.1335
 4600SOL    HW125259   4.211   4.637  16.565 -0.6419  1.8405  0.7678
 4600SOL    HW225260   4.084   4.579  16.518  0.7622  0.2246  0.9111
 4601SOL     OW25261   4.528   0.157   3.857 -0.1103 -0.1625  0.4531
 4601SOL    HW125262   4.442   0.136   3.818  1.6649  0.1526 -3.6644
 4601SOL    HW225263   4.581   0.088   3.816 -0.3853 -0.1547  0.0768
 4602SOL     OW25264   0.104   3.302   8.189 -0.1403  0.1094  0.2678
 4602SOL    HW125265   0.099   3.348   8.105 -0.2879 -1.7761 -0.7458
 4602SOL    HW225266   0.180   3.347   8.226 -1.2079 -0.2948  2.9804
 4603SOL     OW25267   2.342   2.951   0.487  0.0605 -0.1643 -0.1332
 4603SOL    HW125268   2.432   2.917   0.488 -0.8683 -2.5907  1.1264
 4603SOL    HW225269   2.335   2.970   0.580 -0.4813  0.8168 -0.3867
 4604SOL     OW25270   3.926   1.072   6.438  0.3096  0.1320 -0.1006
 4604SOL    HW125271   3.846   1.085   6.490  0.8343  1.3051  0.4160
 4604SOL    HW225272   3.946   1.162   6.411  1.6632 -0.3666 -0.7253
 4605SOL     OW25273   2.730   2.238   1.835 -0.3710 -0.1587  0.2185
 4605SOL    HW125274   2.801   2.184   1.800 -1.6663 -1.7944  0.1488
 4605SOL    HW225275   2.689   2.259   1.751  0.6528  0.0902 -0.2211
 4606SOL     OW25276   1.917   2.309   3.677  0.1736 -0.0350 -0.8296
 4606SOL    HW125277   1.876   2.380   3.628  0.2819  0.6099  0.0125
 4606SOL    HW225278   1.951   2.364   3.748 -0.1663  0.5652 -1.1347
 4607SOL     OW25279   0.499   3.903   7.708  0.7424 -0.0201  0.5365
 4607SOL    HW125280   0.559   3.938   7.642 -0.2206 -0.8681 -0.7869
 4607SOL    HW225281   0.557   3.867   7.774  2.3231  1.1228 -0.2331
 4608SOL     OW25282   2.153   3.453   8.775  0.6704 -0.2706  0.4055
 4608SOL    HW125283   2.179   3.475   8.685 -2.3122 -3.1662 -1.1598
 4608SOL    HW225284   2.176   3.361   8.790 -1.3007 -0.7679  0.3475
 4609SOL     OW25285   2.043   4.510   5.702  0.1417  0.1590 -0.1902
 4609SOL    HW125286   2.137   4.527   5.705  0.4646 -2.1208  3.0764
 4609SOL    HW225287   2.015   4.532   5.791 -2.0056  0.1995 -0.8826
 4610SOL     OW25288   2.134   3.469   7.252  0.5926  0.2180  0.0677
 4610SOL    HW125289   2.192   3.531   7.296  0.4138  1.2619 -1.2156
 4610SOL    HW225290   2.152   3.483   7.159 -0.0954 -2.2029 -0.4340
 4611SOL     OW25291   2.163   3.312   2.179 -0.6288  0.9260  0.2892
 4611SOL    HW125292   2.116   3.230   2.161  3.3526 -0.8469 -1.8401
 4611SOL    HW225293   2.120   3.349   2.256 -0.0065  1.4477  0.3852
 4612SOL     OW25294   2.029   2.725   2.200 -0.0798 -0.3040 -0.2994
 4612SOL    HW125295   2.081   2.724   2.120  0.5125  1.0100  0.0807
 4612SOL    HW225296   2.086   2.767   2.264  0.1656 -2.3120  0.7983
 4613SOL     OW25297   0.595   4.036   4.156  0.3211 -0.0817 -0.0465
 4613SOL    HW125298   0.646   3.976   4.101 -1.8276 -0.4808 -1.6067
 4613SOL    HW225299   0.601   4.111   4.097  0.9130  0.0397  0.1739
 4614SOL     OW25300   0.132   1.408   4.538  0.8524 -0.4678 -0.0653
 4614SOL    HW125301   0.146   1.375   4.626 -0.9953  2.7672  1.4638
 4614SOL    HW225302   0.058   1.467   4.558 -0.1443 -1.2829 -1.3235
 4615SOL     OW25303   0.686   1.124  11.559  0.1187  0.1733  0.2264
 4615SOL    HW125304   0.640   1.188  11.613 -1.6564 -1.0025  0.1077
 4615SOL    HW225305   0.768   1.127  11.609 -0.8073  2.4390  1.6167
 4616SOL     OW25306   3.999   3.797  15.060 -0.6127  0.1526 -0.3674
 4616SOL    HW125307   3.944   3.858  15.108  1.4997  1.2776  0.6117
 4616SOL    HW225308   4.088   3.817  15.089 -0.5404 -1.2277  0.3785
 4617SOL     OW25309   2.998   2.268   7.113  0.0030  0.0732  0.4192
 4617SOL    HW125310   2.955   2.347   7.081  0.5003 -0.0982 -0.6797
 4617SOL    HW225311   2.961   2.198   7.058  0.6627  0.4283 -0.4803
 4618SOL     OW25312   1.522   1.618   6.782 -0.5214 -0.2726  0.5257
 4618SOL    HW125313   1.502   1.711   6.793  2.2553  0.4062 -0.1138
 4618SOL    HW225314   1.548   1.597   6.871  0.1720  1.3073  0.6901
 4619SOL     OW25315   3.430   1.434  11.718  0.1846 -0.3200 -0.1359
 4619SOL    HW125316   3.440   1.512  11.663  2.3967  0.2493  1.1105
 4619SOL    HW225317   3.449   1.471  11.804  1.4578 -0.3800 -0.3997
 4620SOL     OW25318   2.714   3.243   4.213  0.1349  0.2722 -0.1593
 4620SOL    HW125319   2.683   3.167   4.164 -0.8875  0.8366 -0.3809
 4620SOL    HW225320   2.726   3.308   4.143  1.2902  0.1429 -0.0806
 4621SOL     OW25321   0.804   3.423   9.781 -0.1404  0.0596  0.5283
 4621SOL    HW125322   0.828   3.458   9.695 -1.4295 -1.0836 -0.3096
 4621SOL    HW225323   0.879   3.447   9.834  0.1916  0.4704 -0.1407
 4622SOL     OW25324   2.771   1.043  13.456 -0.3139 -0.4643 -0.3824
 4622SOL    HW125325   2.759   1.008  13.367  0.9985 -0.4759 -0.5449
 4622SOL    HW225326   2.692   1.007  13.498  0.2673 -0.5308  0.6459
 4623SOL     OW25327   0.283   3.614  17.247 -0.1002  0.2322 -0.1537
 4623SOL    HW125328   0.201   3.664  17.247 -1.2872 -1.7572 -0.7985
 4623SOL    HW225329   0.274   3.542  17.185 -2.2180  1.9385 -1.8358
 4624SOL     OW25330   3.139   4.619   0.235 -0.0791  0.3740 -0.1249
 4624SOL    HW125331   3.107   4.697   0.282  1.2926 -0.1715  1.6823
 4624SOL    HW225332   3.108   4.649   0.149  0.4449  0.7038 -0.1984
 4625SOL     OW25333   4.398   3.744   3.219  0.2253  0.7585 -0.6893
 4625SOL    HW125334   4.417   3.714   3.130 -2.3741  0.0121 -0.9934
 4625SOL    HW225335   4.465   3.811   3.233  0.1301  0.5794  0.6628
 4626SOL     OW25336   3.333   2.094   8.685 -0.2528 -0.2668 -0.4198
 4626SOL    HW125337   3.423   2.100   8.652  0.0631  0.6594  0.5985
 4626SOL    HW225338   3.286   2.110   8.603 -1.0253 -1.4711 -0.2022
 4627SOL     OW25339   3.136   1.941   4.789 -0.0523  0.0879 -0.2189
 4627SOL    HW125340   3.215   1.974   4.745  0.7339 -2.6163 -0.8048
 4627SOL    HW225341   3.178   1.865   4.828  0.2143  0.1143 -0.4546
 4628SOL     OW25342   0.029   2.294  15.233 -0.0815  0.0928  0.3061
 4628SOL    HW125343   4.717   2.340  15.156 -1.5870 -2.1027 -0.3703
 4628SOL    HW225344   0.119   2.326  15.234  0.1326 -0.5517  1.5096
 4629SOL     OW25345   4.061   4.218  15.279  0.5525 -0.8608 -0.2461
 4629SOL    HW125346   4.020   4.166  15.349 -1.3884  1.2386  0.1757
 4629SOL    HW225347   4.146   4.233  15.319  0.6092 -0.1643 -0.6322
 4630SOL     OW25348   2.091   2.801   7.093 -0.1397 -0.3730  0.7600
 4630SOL    HW125349   2.184   2.805   7.117  0.6328 -0.5972 -2.1230
 4630SOL    HW225350   2.094   2.888   7.052 -2.3497 -0.6578 -0.0211
 4631SOL     OW25351   0.005   1.285   2.221  0.0681 -0.1623 -0.0535
 4631SOL    HW125352   4.676   1.342   2.161  0.3542  0.3735  0.2159
 4631SOL    HW225353   0.040   1.355   2.277  1.2819 -0.1305 -0.8639
 4632SOL     OW25354   2.927   1.460   5.271 -0.1277  0.1973 -0.0702
 4632SOL    HW125355   2.841   1.503   5.276 -0.4315 -0.4646  0.3344
 4632SOL    HW225356   2.985   1.524   5.313  1.3300 -0.1087 -1.5972
 4633SOL     OW25357   3.512   1.355   4.034  0.0693 -0.4198  0.4907
 4633SOL    HW125358   3.462   1.276   4.053 -0.2155 -0.1196  0.9901
 4633SOL    HW225359   3.509   1.353   3.938 -2.7868 -0.7068  0.5834
 4634SOL     OW25360   1.578   0.103   6.061  0.5218 -0.3867  0.1829
 4634SOL    HW125361   1.530   0.024   6.037 -1.9626  0.5904  1.8255
 4634SOL    HW225362   1.507   0.168   6.054  0.9813 -0.1016 -1.6191
 4635SOL     OW25363   1.652   1.096   4.042  0.5385 -0.4811  0.4103
 4635SOL    HW125364   1.665   1.040   4.119 -0.6357 -0.5525  0.5655
 4635SOL    HW225365   1.675   1.183   4.073 -3.4942  1.0897 -0.9270
 4636SOL     OW25366   3.306   3.287   0.164 -0.6232 -0.8647 -0.1771
 4636SOL    HW125367   3.275   3.377   0.169 -0.2326 -0.7491  0.1300
 4636SOL    HW225368   3.311   3.264   0.256 -0.9544  2.1114  0.5803
 4637SOL     OW25369   0.436   1.962   6.360 -0.3078  0.3317 -0.3785
 4637SOL    HW125370   0.426   1.867   6.360  2.4884  0.0268  2.5905
 4637SOL    HW225371   0.473   1.979   6.447 -1.8226 -0.4329  0.4202
 4638SOL     OW25372   1.348   3.633   5.182  0.2118  0.1894  0.2022
 4638SOL    HW125373   1.345   3.613   5.275 -0.7095  0.0130  0.1381
 4638SOL    HW225374   1.388   3.552   5.150 -3.6637 -1.7673  0.3457
 4639SOL     OW25375   3.238   2.505   2.795  0.3629  0.0296  0.0837
 4639SOL    HW125376   3.194   2.589   2.785  0.0844  0.1586  2.5237
 4639SOL    HW225377   3.184   2.463   2.861 -0.4706 -0.3746 -0.8623
 4640SOL     OW25378   3.274   3.301   5.398 -0.0002 -0.2791 -0.1004
 4640SOL    HW125379   3.219   3.367   5.440  0.3558 -1.6288  2.4832
 4640SOL    HW225380   3.331   3.356   5.343 -0.4627 -0.2164 -0.5160
 4641SOL     OW25381   2.203   4.457   4.717 -0.8365  0.0733  0.8313
 4641SOL    HW125382   2.208   4.540   4.669  0.2064  0.5682  1.7974
 4641SOL    HW225383   2.151   4.481   4.794 -1.0928  1.6022  0.1856
 4642SOL     OW25384   2.274   0.961  11.179  0.1130 -0.2752 -0.0348
 4642SOL    HW125385   2.358   0.918  11.162  0.2046  0.1153 -0.5614
 4642SOL    HW225386   2.210   0.891  11.165 -1.3713  0.8650  1.0865
 4643SOL     OW25387   0.692   4.346   1.427 -0.2185 -0.1466 -0.3623
 4643SOL    HW125388   0.638   4.406   1.479  1.0112 -0.4462  1.2747
 4643SOL    HW225389   0.701   4.273   1.488 -2.7467  0.2193  0.4420
 4644SOL     OW25390   0.250   2.537   5.961 -0.2273  0.2125 -0.9862
 4644SOL    HW125391   0.238   2.529   6.055  1.5250 -1.3114 -0.9000
 4644SOL    HW225392   0.243   2.633   5.958 -1.2646  0.1764  0.8209
 4645SOL     OW25393   0.576   3.014  14.429  0.1118 -0.6090 -0.1255
 4645SOL    HW125394   0.609   2.995  14.517  0.0941 -1.8401 -0.3843
 4645SOL    HW225395   0.590   2.929  14.388 -0.0218 -0.4834 -0.4283
 4646SOL     OW25396   0.770   1.905  14.471  0.2326 -0.2513  0.2649
 4646SOL    HW125397   0.706   1.885  14.403  0.0960  1.7836 -0.2000
 4646SOL    HW225398   0.726   1.861  14.544 -1.6617  0.2336 -0.5877
 4647SOL     OW25399   3.854   3.034   8.593  0.5435 -0.1496 -0.3885
 4647SOL    HW125400   3.909   3.072   8.662 -3.0591  2.4999  1.0013
 4647SOL    HW225401   3.907   2.956   8.578 -1.6883 -1.6037 -0.5919
 4648SOL     OW25402   3.262   0.468  14.033  0.0321  0.3196 -0.3180
 4648SOL    HW125403   3.279   0.375  14.017 -0.1667 -0.0625  1.7106
 4648SOL    HW225404   3.168   0.468  14.017  0.2347 -2.1323 -1.5526
 4649SOL     OW25405   4.263   0.955  15.736 -0.7003 -0.5049 -0.6601
 4649SOL    HW125406   4.234   0.902  15.662  0.0393 -0.7237 -0.7925
 4649SOL    HW225407   4.220   1.040  15.727  0.2972  0.2590  1.7290
 4650SOL     OW25408   4.401   0.841   0.310 -0.3254 -0.1013 -0.6128
 4650SOL    HW125409   4.481   0.790   0.324 -0.9481 -1.6134 -2.5133
 4650SOL    HW225410   4.438   0.919   0.269  0.7711 -0.4440 -0.2791
 4651SOL     OW25411   3.841   2.769   8.195  0.3076 -0.4668  0.0758
 4651SOL    HW125412   3.917   2.730   8.239  0.2442  0.9085  1.3914
 4651SOL    HW225413   3.876   2.858   8.196 -2.7084  0.7268 -0.1851
 4652SOL     OW25414   3.297   1.499   3.588  0.0658 -0.3489  0.3356
 4652SOL    HW125415   3.267   1.486   3.678  1.1602  0.3893  0.8006
 4652SOL    HW225416   3.307   1.407   3.564  0.0572 -0.1220 -0.5294
 4653SOL     OW25417   0.472   3.206   8.936 -0.2604 -0.5946  0.0814
 4653SOL    HW125418   0.464   3.294   8.974  0.8674 -0.9765  1.2334
 4653SOL    HW225419   0.404   3.211   8.869  0.1266 -3.1282 -0.5062
 4654SOL     OW25420   4.016   4.173  12.523 -0.2595 -0.0042  0.7154
 4654SOL    HW125421   4.041   4.131  12.440 -1.8361  0.5113 -0.0311
 4654SOL    HW225422   4.091   4.228  12.547 -0.9591  0.8010  1.0393
 4655SOL     OW25423   2.996   3.899   1.018 -0.7581 -0.7470  0.2029
 4655SOL    HW125424   2.965   3.852   0.940  0.9518 -1.8368  0.1884
 4655SOL    HW225425   2.970   3.833   1.082 -0.1793 -2.0328 -0.8884
 4656SOL     OW25426   2.889   4.579   2.790 -0.1709  0.5135  0.1103
 4656SOL    HW125427   2.833   4.656   2.792  1.7705  1.9859 -1.3831
 4656SOL    HW225428   2.908   4.563   2.883  0.5788 -1.4534 -0.3730
 4657SOL     OW25429   3.727   3.143   9.743  0.5463  1.1082  0.3870
 4657SOL    HW125430   3.813   3.112   9.713  0.1788  0.1431  0.3286
 4657SOL    HW225431   3.670   3.084   9.693  0.6057  1.2882  0.1021
 4658SOL     OW25432   4.649   3.526   8.830  0.2147  0.1638  0.4343
 4658SOL    HW125433   4.561   3.537   8.794  0.2058  1.3334  0.8283
 4658SOL    HW225434   4.667   3.616   8.855  1.9821 -0.0956  0.0999
 4659SOL     OW25435   4.350   0.234   3.397  0.0253 -0.3347  0.2573
 4659SOL    HW125436   4.379   0.202   3.312 -2.4620 -1.4999 -0.1365
 4659SOL    HW225437   4.427   0.284   3.425 -0.3806  1.0237 -1.0160
 4660SOL     OW25438   0.019   3.577   7.407  0.1009  0.1475  0.0490
 4660SOL    HW125439   0.055   3.489   7.395 -1.4120 -0.4910  0.1874
 4660SOL    HW225440   0.083   3.615   7.466  1.6977 -2.0579 -0.2683
 4661SOL     OW25441   2.532   1.319   7.922  0.2580  0.1004 -0.2186
 4661SOL    HW125442   2.602   1.258   7.900 -0.7897 -0.7509 -1.2055
 4661SOL    HW225443   2.538   1.381   7.849  0.9655  0.0769 -0.1842
 4662SOL     OW25444   0.495   2.704  11.053  0.2011 -0.2905 -0.0277
 4662SOL    HW125445   0.518   2.753  11.132 -2.0080  1.7913 -0.6791
 4662SOL    HW225446   0.536   2.761  10.988 -1.8968  0.8695 -0.3305
 4663SOL     OW25447   1.218   0.689   2.752  0.2883 -0.3737  0.1778
 4663SOL    HW125448   1.277   0.618   2.726 -0.9990 -1.7041  0.9527
 4663SOL    HW225449   1.222   0.685   2.847 -0.1731 -0.6962  0.1822
 4664SOL     OW25450   3.619   2.422   4.777 -0.0280  0.4689  0.0483
 4664SOL    HW125451   3.591   2.509   4.805 -0.7114  1.4771 -3.7533
 4664SOL    HW225452   3.617   2.440   4.683  2.9146 -3.5020 -0.8176
 4665SOL     OW25453   3.199   4.410   7.290  0.2215  0.6960  0.2098
 4665SOL    HW125454   3.278   4.369   7.322  0.3597 -0.2355 -1.3368
 4665SOL    HW225455   3.196   4.366   7.205  0.3204  0.3086  0.4095
 4666SOL     OW25456   3.900   3.325   6.969 -0.1728  0.2915  0.0732
 4666SOL    HW125457   3.817   3.365   6.944 -0.2797 -1.9664 -3.1185
 4666SOL    HW225458   3.905   3.246   6.916 -2.3340  0.4254 -0.3406
 4667SOL     OW25459   1.150   0.637  10.756  0.3692 -0.3142  0.0137
 4667SOL    HW125460   1.130   0.625  10.848 -0.1761 -1.3699 -0.2483
 4667SOL    HW225461   1.245   0.630  10.765  0.1721  0.1974  2.3060
 4668SOL     OW25462   0.584   4.536  10.605  0.2103  0.2683  0.4308
 4668SOL    HW125463   0.664   4.576  10.640  1.2153 -2.6276  1.5215
 4668SOL    HW225464   0.620   4.494  10.526 -1.2405 -0.7468  0.3114
 4669SOL     OW25465   0.225   3.939   7.723  0.4563  0.1759  0.0302
 4669SOL    HW125466   0.314   3.910   7.704  0.0595 -0.3109 -1.1202
 4669SOL    HW225467   0.245   4.017   7.775 -2.2741 -0.1997  1.6488
 4670SOL     OW25468   3.880   3.047   7.380 -0.2447 -0.1940 -0.2103
 4670SOL    HW125469   3.792   3.017   7.359 -0.0454 -0.1541 -1.1322
 4670SOL    HW225470   3.867   3.085   7.466 -0.4503  1.9592 -1.1946
 4671SOL     OW25471   2.233   2.224   8.251  0.2310 -0.6498  0.4980
 4671SOL    HW125472   2.255   2.164   8.180 -1.2696 -0.8681  0.2080
 4671SOL    HW225473   2.145   2.249   8.221  0.4892 -0.3585 -0.0205
 4672SOL     OW25474   2.681   0.967   2.246  0.0784 -0.4328  0.1592
 4672SOL    HW125475   2.630   1.014   2.313 -0.5515 -0.9384  0.0368
 4672SOL    HW225476   2.741   1.037   2.222 -0.1971 -0.7419 -1.3884
 4673SOL     OW25477   3.811   1.373   3.961  0.4676 -0.2035 -0.4126
 4673SOL    HW125478   3.717   1.381   3.970  0.4936 -2.3391  1.8441
 4673SOL    HW225479   3.831   1.445   3.901 -0.2758  0.7427  0.4956
 4674SOL     OW25480   2.954   3.265   7.207  0.0639  0.4563  0.5545
 4674SOL    HW125481   2.994   3.204   7.269  2.6612  0.6643 -0.9166
 4674SOL    HW225482   2.894   3.206   7.161  0.7440  0.1533  0.0531
 4675SOL     OW25483   0.940   3.078  10.974  0.2534  0.0786 -0.2026
 4675SOL    HW125484   0.981   3.000  10.938  1.1244  0.9572 -1.0981
 4675SOL    HW225485   1.018   3.134  10.983 -0.7748  1.5325 -0.2277
 4676SOL     OW25486   4.502   1.400  11.725  0.3553 -0.1866  0.2051
 4676SOL    HW125487   4.541   1.477  11.683 -0.7716  0.2368 -0.0684
 4676SOL    HW225488   4.460   1.358  11.650 -0.4074  1.0585 -0.0680
 4677SOL     OW25489   0.706   0.305  16.167  0.7022  0.2049 -0.4199
 4677SOL    HW125490   0.705   0.217  16.206  1.8593  0.7503  0.8230
 4677SOL    HW225491   0.625   0.335  16.209  0.8489 -1.5514  1.1247
 4678SOL     OW25492   2.622   3.999   3.588  0.0869 -0.1611  0.0412
 4678SOL    HW125493   2.676   4.070   3.623 -1.9748  0.4199  2.0309
 4678SOL    HW225494   2.687   3.944   3.545  0.8630 -0.1478  1.1902
 4679SOL     OW25495   3.935   2.600   7.392  0.4581 -0.3942  0.5908
 4679SOL    HW125496   4.003   2.533   7.376  0.5765 -0.5227  1.6205
 4679SOL    HW225497   3.987   2.678   7.373 -2.2772  1.2539 -0.0722
 4680SOL     OW25498   0.137   3.466   6.094  0.0627  0.2282  0.1691
 4680SOL    HW125499   0.214   3.517   6.119  0.0134  0.6694 -0.5686
 4680SOL    HW225500   0.171   3.401   6.032  0.9823 -0.0016  0.9055
 4681SOL     OW25501   1.643   1.603   8.068 -0.0752  0.1555 -0.5016
 4681SOL    HW125502   1.579   1.614   7.998 -1.4694 -2.7219  0.3200
 4681SOL    HW225503   1.668   1.694   8.079  1.4766 -0.3591  0.2690
 4682SOL     OW25504   2.419   1.481   2.385  0.5921  0.1809 -0.0818
 4682SOL    HW125505   2.409   1.576   2.384 -2.0081 -0.1268 -1.6535
 4682SOL    HW225506   2.345   1.450   2.334  0.8159  0.8744 -0.8327
 4683SOL     OW25507   2.369   4.637   6.238 -0.0163 -0.4105  0.0626
 4683SOL    HW125508   2.437   4.578   6.271  1.1736  0.7491 -0.3428
 4683SOL    HW225509   2.291   4.582   6.253 -0.9093  1.0154  0.5927
 4684SOL     OW25510   3.298   0.306   2.051 -0.3092  0.5486  0.4537
 4684SOL    HW125511   3.231   0.322   1.985 -0.1388 -1.7542 -0.3036
 4684SOL    HW225512   3.373   0.345   2.006 -0.6794  0.2212 -0.4609
 4685SOL     OW25513   0.747   4.212   7.435 -0.4788  0.2279 -0.4152
 4685SOL    HW125514   0.797   4.138   7.469  1.0412  0.1542 -2.8232
 4685SOL    HW225515   0.811   4.281   7.420  0.4680 -0.7441 -0.9079
 4686SOL     OW25516   3.277   2.302   2.139 -0.2193  0.1482 -0.2837
 4686SOL    HW125517   3.318   2.304   2.225  0.8448 -0.2163 -0.7871
 4686SOL    HW225518   3.250   2.211   2.127 -0.7631  0.2527  0.1177
 4687SOL     OW25519   1.560   1.102   2.294 -0.4288 -0.2913 -0.4520
 4687SOL    HW125520   1.579   1.188   2.254  2.8155 -0.2158  1.1994
 4687SOL    HW225521   1.497   1.128   2.362  0.3364 -0.5766  0.3752
 4688SOL     OW25522   3.690   2.372   6.863 -0.2773  0.4928 -0.0708
 4688SOL    HW125523   3.625   2.425   6.909 -0.0980 -1.2123  2.1230
 4688SOL    HW225524   3.644   2.356   6.780 -1.2219  0.2975  0.4893
 4689SOL     OW25525   0.714   3.953   6.770 -0.0060 -0.9391 -0.1834
 4689SOL    HW125526   0.625   3.926   6.792 -1.0981  1.4570 -1.6171
 4689SOL    HW225527   0.702   3.955   6.675  2.4948 -1.0549 -0.5065
 4690SOL     OW25528   4.301   2.554   0.620 -0.0148  0.7464  0.2765
 4690SOL    HW125529   4.344   2.618   0.563 -0.0758  0.3112 -0.2652
 4690SOL    HW225530   4.326   2.585   0.707  0.3852 -0.4225  0.5817
 4691SOL     OW25531   1.936   2.773  15.345  0.4579 -0.3093 -0.1883
 4691SOL    HW125532   1.887   2.704  15.300  0.4281 -0.0399 -0.5686
 4691SOL    HW225533   1.978   2.721  15.414  1.4462  2.6047  1.3766
 4692SOL     OW25534   4.575   1.889   3.249 -0.0211  0.3374  0.6660
 4692SOL    HW125535   4.511   1.908   3.317 -0.8752 -0.0952 -0.0109
 4692SOL    HW225536   4.557   1.957   3.185  3.1501  1.6621  1.2271
 4693SOL     OW25537   4.534   1.462   8.921  0.8189  0.1385  0.4411
 4693SOL    HW125538   4.534   1.437   9.013 -1.0977 -0.2671  0.3397
 4693SOL    HW225539   4.554   1.555   8.916 -1.5622  0.6475  0.3137
 4694SOL     OW25540   3.377   4.152   9.853  0.1046 -0.4486  0.1466
 4694SOL    HW125541   3.369   4.070   9.806 -1.8662 -0.9072  1.2904
 4694SOL    HW225542   3.290   4.178   9.882  0.3574  0.8522 -0.2674
 4695SOL     OW25543   4.313   3.535   2.060 -0.3230  0.0667  0.2724
 4695SOL    HW125544   4.314   3.446   2.024 -1.3925  0.5172 -0.8376
 4695SOL    HW225545   4.367   3.534   2.139 -2.1006  2.2755  1.4967
 4696SOL     OW25546   1.506   2.413   2.846  0.0045 -0.1739  0.2805
 4696SOL    HW125547   1.580   2.438   2.791 -0.6167  0.1643 -0.4049
 4696SOL    HW225548   1.522   2.324   2.877 -0.1098 -0.0394  0.7315
 4697SOL     OW25549   1.727   1.913   6.512  0.2503  0.3329  0.0378
 4697SOL    HW125550   1.735   1.897   6.606 -0.9116 -1.8041 -0.2176
 4697SOL    HW225551   1.694   2.002   6.505 -2.0877 -0.4592  0.8209
 4698SOL     OW25552   1.185   3.018   2.236 -0.1317 -0.5254  0.3310
 4698SOL    HW125553   1.205   3.014   2.142 -1.6307 -1.0833  0.0438
 4698SOL    HW225554   1.262   3.071   2.260 -0.5163 -1.1430  2.9118
 4699SOL     OW25555   4.630   1.005   6.677 -0.7457 -0.5720  0.3027
 4699SOL    HW125556   4.621   0.987   6.584  1.0857  0.1988 -0.0189
 4699SOL    HW225557   4.720   1.033   6.690 -1.0870 -0.1848  1.8182
 4700SOL     OW25558   2.930   1.919   4.273  0.0770  0.8470  0.3913
 4700SOL    HW125559   2.999   1.933   4.339 -0.1171  3.1222  0.1095
 4700SOL    HW225560   2.981   1.927   4.193 -2.0528 -1.1841 -1.1505
 4701SOL     OW25561   0.285   3.821  16.658 -0.0280  0.2161 -0.1552
 4701SOL    HW125562   0.200   3.821  16.615  1.2044  1.0333 -2.5702
 4701SOL    HW225563   0.272   3.785  16.746  1.0654 -0.4483 -0.2603
 4702SOL     OW25564   2.549   4.693  16.457  0.0377 -0.0131 -0.1614
 4702SOL    HW125565   2.537   4.709  16.363 -0.9531 -1.9415 -0.3459
 4702SOL    HW225566   2.576   0.060  16.481 -0.5750 -0.5803  2.5321
 4703SOL     OW25567   3.414   0.906  14.396  0.0978 -0.4146 -0.2481
 4703SOL    HW125568   3.409   0.880  14.488  1.9409 -1.1393 -0.3503
 4703SOL    HW225569   3.394   0.826  14.347  2.1260  0.0640 -1.8299
 4704SOL     OW25570   3.091   1.009   6.622 -0.3200 -0.2199  0.0605
 4704SOL    HW125571   3.126   1.080   6.569  0.6323 -1.6543 -1.2306
 4704SOL    HW225572   3.020   0.976   6.566  0.6269  0.2310 -1.4143
 4705SOL     OW25573   4.462   0.612  12.789  0.0253  0.2421 -0.3204
 4705SOL    HW125574   4.402   0.644  12.856  2.8769 -0.5948  2.6271
 4705SOL    HW225575   4.506   0.542  12.836  0.5343  0.6694 -0.1564
 4706SOL     OW25576   2.540   0.028   8.966  0.1731 -0.2536 -0.1443
 4706SOL    HW125577   2.607   4.708   9.020 -0.9281  1.6540  2.6984
 4706SOL    HW225578   2.535   4.699   8.885  0.9916  0.7848 -0.8444
 4707SOL     OW25579   3.491   0.594  13.979  0.3909 -0.1098 -0.3682
 4707SOL    HW125580   3.450   0.678  13.958  1.1926  0.2580 -0.5043
 4707SOL    HW225581   3.416   0.539  14.001 -1.5777  2.4437 -0.6529
 4708SOL     OW25582   0.433   2.584   5.291 -0.5617 -0.8282 -0.3801
 4708SOL    HW125583   0.380   2.505   5.287  0.7642 -1.7632  0.2492
 4708SOL    HW225584   0.375   2.633   5.349 -0.8280 -0.9849 -0.5165
 4709SOL     OW25585   2.211   3.430   1.528  0.6637  0.6431  0.6237
 4709SOL    HW125586   2.218   3.377   1.449 -0.5361  0.8295  0.4002
 4709SOL    HW225587   2.132   3.392   1.567 -0.5545 -0.1244 -2.5982
 4710SOL     OW25588   0.811   2.809   6.693  0.2022  0.4302  0.4228
 4710SOL    HW125589   0.794   2.775   6.781  0.4177  2.2665  1.1673
 4710SOL    HW225590   0.793   2.902   6.701 -0.4531  0.4478 -1.3224
 4711SOL     OW25591   4.229   3.461   4.730 -0.2201  0.2714 -0.1142
 4711SOL    HW125592   4.250   3.409   4.653 -3.4581 -0.9417 -0.1904
 4711SOL    HW225593   4.142   3.425   4.748 -0.8875  1.1464 -1.6014
 4712SOL     OW25594   0.991   4.584   4.132 -0.7841 -0.0729  0.2298
 4712SOL    HW125595   1.018   4.494   4.115 -0.4352 -0.1363  1.1674
 4712SOL    HW225596   0.908   4.587   4.179  0.7963  1.4037  2.8992
 4713SOL     OW25597   0.773   3.564   2.785  0.3118  0.2849 -0.1042
 4713SOL    HW125598   0.714   3.590   2.714  2.4156  2.5582 -1.0324
 4713SOL    HW225599   0.847   3.527   2.737  0.0485 -3.1880  2.1928
 4714SOL     OW25600   4.052   3.881   2.786 -0.4960  0.0905  0.4882
 4714SOL    HW125601   4.140   3.895   2.822 -0.8576  2.6862  0.3184
 4714SOL    HW225602   4.043   3.787   2.804 -2.9773  0.3543  0.6086
 4715SOL     OW25603   3.061   3.934  17.338 -0.0697  0.2940  0.3522
 4715SOL    HW125604   3.072   3.878  17.261 -0.3920  1.4170 -0.5011
 4715SOL    HW225605   3.006   3.873  17.388 -0.3090 -1.2123 -1.7213
 4716SOL     OW25606   2.495   1.895   8.853 -0.3427 -0.3927 -0.2418
 4716SOL    HW125607   2.452   1.976   8.827 -0.4889 -0.1382  0.7948
 4716SOL    HW225608   2.574   1.922   8.900 -0.4188 -0.2565 -0.1925
 4717SOL     OW25609   1.951   4.480   4.398  0.4108 -0.3038 -0.3895
 4717SOL    HW125610   1.926   4.570   4.378  0.5938 -0.0079  0.6836
 4717SOL    HW225611   2.027   4.473   4.339 -0.3903  1.8170 -1.6702
 4718SOL     OW25612   3.337   3.807   3.863  0.2011  0.1426 -0.1311
 4718SOL    HW125613   3.328   3.835   3.772 -1.2093  0.1022 -0.0029
 4718SOL    HW225614   3.250   3.780   3.892  0.7606 -0.7972  0.6801
 4719SOL     OW25615   3.400   0.411   6.098 -0.2740 -0.5407  0.2679
 4719SOL    HW125616   3.390   0.503   6.122  0.7374  0.0586 -1.5996
 4719SOL    HW225617   3.478   0.385   6.147 -0.8213 -0.2412  1.3096
 4720SOL     OW25618   0.663   0.873   6.745 -0.1825  0.3180  0.1720
 4720SOL    HW125619   0.698   0.788   6.718 -0.7794 -0.1752  0.9714
 4720SOL    HW225620   0.740   0.915   6.783  1.5244 -0.7976 -2.0118
 4721SOL     OW25621   2.665   4.405  10.643  0.0544  0.0575 -0.5261
 4721SOL    HW125622   2.756   4.432  10.636  0.6122 -1.1931  1.9280
 4721SOL    HW225623   2.645   4.416  10.736 -3.6010  2.7021 -1.6227
 4722SOL     OW25624   2.896   0.874   7.455  0.0173  0.1188  0.1046
 4722SOL    HW125625   2.988   0.849   7.445 -0.6438 -2.4140  0.3995
 4722SOL    HW225626   2.854   0.793   7.426 -0.3895  0.2699  0.2765
 4723SOL     OW25627   3.472   0.715   3.752  0.0641 -0.4891 -0.6286
 4723SOL    HW125628   3.467   0.809   3.733  1.3405 -0.3827 -0.4347
 4723SOL    HW225629   3.539   0.683   3.692  1.6468  0.2836  0.7394
 4724SOL     OW25630   0.507   3.684  16.478 -0.4144 -0.8217 -0.5920
 4724SOL    HW125631   0.447   3.748  16.517  0.0321 -1.2000  0.7242
 4724SOL    HW225632   0.511   3.615  16.544 -0.1050 -1.0313 -0.8280
 4725SOL     OW25633   3.024   4.154   8.897 -0.1203  0.0311  0.5589
 4725SOL    HW125634   3.085   4.143   8.970 -1.5610  1.4914  2.0019
 4725SOL    HW225635   3.056   4.236   8.859 -1.5460  0.8501  1.0787
 4726SOL     OW25636   0.143   1.483  10.977  0.5321 -0.1923 -0.5324
 4726SOL    HW125637   0.146   1.492  10.881 -0.8562  0.5669 -0.5091
 4726SOL    HW225638   0.147   1.577  10.994  0.3627 -0.2772 -0.0202
 4727SOL     OW25639   4.220   4.309  12.613  0.7594 -0.5718 -0.1132
 4727SOL    HW125640   4.194   4.401  12.610 -1.0017 -1.0225  1.3076
 4727SOL    HW225641   4.200   4.286  12.704  0.3768  0.7651  0.1370
 4728SOL     OW25642   3.057   3.909  11.312  0.0772  0.1932 -0.0208
 4728SOL    HW125643   3.041   3.884  11.403  1.4961  1.8092  0.6722
 4728SOL    HW225644   3.007   3.841  11.267 -0.0820  1.5081 -1.8102
 4729SOL     OW25645   3.666   3.324   2.184  0.2759 -0.1604 -0.2536
 4729SOL    HW125646   3.739   3.346   2.126  0.3462 -0.6050 -0.3346
 4729SOL    HW225647   3.681   3.386   2.256 -0.8750  0.5698 -0.6410
 4730SOL     OW25648   3.573   2.902  15.495  0.1970 -0.1035  0.1315
 4730SOL    HW125649   3.660   2.871  15.517 -0.0067 -0.9428 -0.2213
 4730SOL    HW225650   3.565   2.884  15.401  0.0750  0.7763 -0.0273
 4731SOL     OW25651   4.321   4.365   3.008  0.0767 -0.2821 -0.1218
 4731SOL    HW125652   4.320   4.420   2.929 -1.6627  1.2847  0.9923
 4731SOL    HW225653   4.386   4.407   3.065 -1.8191 -0.4350  2.1539
 4732SOL     OW25654   2.215   2.617  12.718 -0.2532  0.0873 -0.1720
 4732SOL    HW125655   2.128   2.634  12.753  0.2239  1.8296  0.1684
 4732SOL    HW225656   2.235   2.531  12.757 -2.1231  0.5660  1.8114
 4733SOL     OW25657   1.355   1.091   6.101  0.3577 -0.0218  0.2347
 4733SOL    HW125658   1.360   0.996   6.090 -1.3724  0.0349 -1.1012
 4733SOL    HW225659   1.450   1.108   6.098  0.1392  1.0881 -0.5979
 4734SOL     OW25660   3.125   3.042   3.603  0.3382  0.5458 -0.8635
 4734SOL    HW125661   3.081   2.992   3.672  0.4653  1.3212 -0.2317
 4734SOL    HW225662   3.088   3.128   3.623 -0.9311 -0.3939  0.8766
 4735SOL     OW25663   1.166   0.051   3.335  0.1057  0.1077  0.3847
 4735SOL    HW125664   1.154   0.033   3.429 -2.1371 -0.8774 -0.0923
 4735SOL    HW225665   1.126   4.692   3.303  0.4693 -0.5531  1.5780
 4736SOL     OW25666   2.193   3.547   6.134 -0.2399  0.2751  0.4643
 4736SOL    HW125667   2.238   3.526   6.052 -1.2506  1.4681 -0.4016
 4736SOL    HW225668   2.131   3.476   6.147 -2.0215  1.4031 -1.6782
 4737SOL     OW25669   1.263   0.606   7.512  0.5104  0.0102  0.3028
 4737SOL    HW125670   1.225   0.572   7.593 -2.0527 -1.8570 -1.7197
 4737SOL    HW225671   1.316   0.532   7.482 -0.7885 -0.8032  0.0261
 4738SOL     OW25672   2.340   0.593   0.311  0.4834 -0.1318  0.1489
 4738SOL    HW125673   2.359   0.612   0.403  1.1073  2.2840 -0.4777
 4738SOL    HW225674   2.272   0.526   0.321  1.4830 -1.4202 -1.8176
 4739SOL     OW25675   3.225   4.081   3.518  0.1149 -0.7629 -0.4643
 4739SOL    HW125676   3.176   4.001   3.502 -0.7328  0.1669 -2.5996
 4739SOL    HW225677   3.167   4.147   3.478 -0.5840 -0.9587  0.2399
 4740SOL     OW25678   3.090   4.617   1.465  0.2460 -0.5167 -0.3003
 4740SOL    HW125679   3.154   4.649   1.401  1.2058 -1.8801 -0.0154
 4740SOL    HW225680   3.137   4.542   1.500  2.3823  0.9102 -0.1532
 4741SOL     OW25681   3.567   3.742   8.185 -0.0165 -0.2372  0.7460
 4741SOL    HW125682   3.652   3.731   8.142 -0.8459 -2.9560 -0.2036
 4741SOL    HW225683   3.548   3.650   8.201 -0.4067 -0.1804  0.5965
 4742SOL     OW25684   3.367   1.276  13.034 -0.5680  0.2292  0.2291
 4742SOL    HW125685   3.400   1.323  12.958 -0.1380  0.1115  0.3426
 4742SOL    HW225686   3.454   1.268  13.075 -1.9039 -0.5527  2.9489
 4743SOL     OW25687   2.838   1.593   9.471 -0.1971 -0.3801  0.2492
 4743SOL    HW125688   2.786   1.555   9.400  0.2755 -2.0599  0.7884
 4743SOL    HW225689   2.818   1.686   9.460  0.5286 -0.1121  1.2038
 4744SOL     OW25690   3.928   3.492   0.145 -0.1305 -0.0584 -0.5361
 4744SOL    HW125691   3.982   3.548   0.201 -0.3097 -0.2003 -0.2233
 4744SOL    HW225692   3.998   3.467   0.084  0.7732  1.2393 -0.0419
 4745SOL     OW25693   1.657   2.918   0.215  0.6100 -0.4213  0.0486
 4745SOL    HW125694   1.632   2.891   0.303  0.1848  1.0154  0.3629
 4745SOL    HW225695   1.594   2.865   0.167  0.0220 -0.7599  1.2051
 4746SOL     OW25696   2.933   2.907   6.958 -0.0293 -0.4857 -0.2236
 4746SOL    HW125697   2.862   2.961   6.923 -1.0532 -1.0839  0.9225
 4746SOL    HW225698   2.873   2.842   6.996 -0.4652  0.2911  0.4329
 4747SOL     OW25699   1.161   2.149   9.456  0.2019  0.0920  0.4394
 4747SOL    HW125700   1.101   2.077   9.476 -0.8284  0.8588  0.0684
 4747SOL    HW225701   1.126   2.176   9.372  2.3904  0.1424 -0.4468
 4748SOL     OW25702   3.411   0.619   8.213 -0.3054 -0.2631 -0.0976
 4748SOL    HW125703   3.390   0.673   8.289  0.6651 -0.1529  0.0988
 4748SOL    HW225704   3.342   0.554   8.208 -0.8819  0.3548 -0.2703
 4749SOL     OW25705   2.272   1.971   7.445 -0.4997 -0.9401 -0.3691
 4749SOL    HW125706   2.301   1.898   7.499  0.6477  0.6959  1.2134
 4749SOL    HW225707   2.185   1.942   7.417 -1.0076  0.0802  0.1286
 4750SOL     OW25708   3.201   0.442   8.293 -0.1185 -0.0921 -0.2944
 4750SOL    HW125709   3.176   0.427   8.202 -1.9512 -0.2474  0.2374
 4750SOL    HW225710   3.120   0.457   8.341  1.1853  0.1893  1.8218
 4751SOL     OW25711   2.675   2.197   8.660 -0.1478 -0.3218 -0.2037
 4751SOL    HW125712   2.684   2.115   8.710 -0.8771  0.1942  0.7799
 4751SOL    HW225713   2.753   2.193   8.605  0.7213  0.6456  0.9482
 4752SOL     OW25714   4.260   0.467   6.494  0.2342 -0.0821  0.5184
 4752SOL    HW125715   4.216   0.395   6.540 -0.4915  1.7320  2.6550
 4752SOL    HW225716   4.197   0.533   6.465 -0.1680 -0.1107  1.3042
 4753SOL     OW25717   2.629   4.247   5.760  0.4486  0.0654 -1.0867
 4753SOL    HW125718   2.561   4.183   5.742 -0.7008  0.7682  0.8219
 4753SOL    HW225719   2.686   4.225   5.686 -2.8822  0.5462 -3.7902
 4754SOL     OW25720   2.301   2.912   8.307  0.4660 -0.1233 -0.0780
 4754SOL    HW125721   2.332   2.970   8.237 -1.6864  1.1311  0.0038
 4754SOL    HW225722   2.345   2.948   8.384 -0.3922  0.6311  0.0603
 4755SOL     OW25723   3.499   2.645   4.959 -0.1594  0.4062 -0.3364
 4755SOL    HW125724   3.426   2.707   4.967 -1.0053 -0.3353 -2.5397
 4755SOL    HW225725   3.494   2.594   5.040 -0.4360  1.1508  0.1213
 4756SOL     OW25726   0.939   3.481   3.847 -0.2061  0.7548 -0.1113
 4756SOL    HW125727   0.975   3.494   3.759  0.6475 -1.5519 -0.1094
 4756SOL    HW225728   0.987   3.400   3.865  1.7910  1.9843  0.0354
 4757SOL     OW25729   1.786   0.650   5.621 -0.1628  0.8769  0.0497
 4757SOL    HW125730   1.775   0.578   5.684 -2.2314  0.8324 -0.3491
 4757SOL    HW225731   1.826   0.718   5.675  0.4095  0.6344 -0.0724
 4758SOL     OW25732   4.568   4.099   1.808 -1.4079  0.3059 -0.3739
 4758SOL    HW125733   4.521   4.163   1.754 -1.4822 -0.4143 -1.1655
 4758SOL    HW225734   4.519   4.021   1.785  0.9186 -1.4541  0.6391
 4759SOL     OW25735   1.884   0.593   7.845 -0.2003  0.1500 -1.2821
 4759SOL    HW125736   1.972   0.588   7.883 -0.8231  2.9812  0.5314
 4759SOL    HW225737   1.858   0.500   7.842 -1.5270  0.4759  0.2947
 4760SOL     OW25738   0.871   0.936   5.633  0.4310 -0.7367 -0.3153
 4760SOL    HW125739   0.812   0.897   5.698 -2.7063  1.9737 -1.5468
 4760SOL    HW225740   0.884   1.020   5.678  0.3754  0.1606 -1.9877
 4761SOL     OW25741   2.358   1.776   2.455 -0.0130 -0.1865  0.0389
 4761SOL    HW125742   2.408   1.751   2.532 -3.6473 -0.0811  2.4088
 4761SOL    HW225743   2.269   1.801   2.482 -0.5858 -0.6170 -1.4566
 4762SOL     OW25744   4.106   1.496   5.540 -0.0542  0.0575  0.6029
 4762SOL    HW125745   4.118   1.404   5.565  0.4702 -0.5454 -1.8657
 4762SOL    HW225746   4.024   1.487   5.491 -0.2804  0.6048  0.8755
 4763SOL     OW25747   4.397   2.935   6.462 -0.0337 -0.4113  0.2936
 4763SOL    HW125748   4.344   2.951   6.384  1.4085  1.2364 -0.3262
 4763SOL    HW225749   4.326   2.888   6.506  1.2192 -1.8788  0.7450
 4764SOL     OW25750   2.252   2.253   4.308  0.1273 -0.5574  0.2489
 4764SOL    HW125751   2.335   2.248   4.262 -0.9667 -2.8140 -1.4751
 4764SOL    HW225752   2.285   2.198   4.379  1.6451 -1.6901 -1.3377
 4765SOL     OW25753   2.046   2.162   7.877  0.9809  0.1834 -0.2144
 4765SOL    HW125754   2.108   2.199   7.813  0.5736  2.2953  0.6265
 4765SOL    HW225755   2.049   2.226   7.947 -1.8600  2.4182 -2.1378
 4766SOL     OW25756   1.353   3.651  14.029  0.2099  0.1637 -0.1259
 4766SOL    HW125757   1.388   3.665  14.117  2.7216 -1.8510 -0.8059
 4766SOL    HW225758   1.280   3.712  14.034 -0.9929 -1.0638 -2.5910
 4767SOL     OW25759   0.824   2.295   7.093 -0.2888  0.1988 -0.0234
 4767SOL    HW125760   0.909   2.252   7.106 -0.9068 -0.2284  2.6920
 4767SOL    HW225761   0.852   2.386   7.082 -3.7231  1.3112  0.3136
 4768SOL     OW25762   3.082   1.416   6.431 -0.1841  0.2983  0.4128
 4768SOL    HW125763   3.117   1.327   6.420 -1.5835 -0.6572  3.5599
 4768SOL    HW225764   3.156   1.474   6.414 -1.1089  0.6903 -2.2869
 4769SOL     OW25765   3.938   4.159   6.815  0.1528  0.0003 -0.7157
 4769SOL    HW125766   3.959   4.097   6.886  0.2123  0.4489 -0.3453
 4769SOL    HW225767   3.913   4.093   6.750 -0.7816 -2.2633  1.9305
 4770SOL     OW25768   4.085   1.727   7.532 -0.3063  0.4039  0.2765
 4770SOL    HW125769   4.065   1.710   7.440  0.2360  0.7169  0.0990
 4770SOL    HW225770   4.145   1.803   7.529  1.4851 -1.1045 -1.8117
 4771SOL     OW25771   0.886   2.313   4.847 -0.2618 -0.4397  0.3176
 4771SOL    HW125772   0.828   2.347   4.779  0.6166 -1.0049 -0.6982
 4771SOL    HW225773   0.966   2.290   4.801 -2.0171 -2.3673 -1.7727
 4772SOL     OW25774   1.291   4.091   7.916 -0.3451  0.4189  0.5405
 4772SOL    HW125775   1.244   4.045   7.986 -0.6417  2.0414  1.3942
 4772SOL    HW225776   1.346   4.149   7.969 -1.7580  2.3967 -0.1383
 4773SOL     OW25777   4.016   2.123   8.105 -0.5037  0.2569  0.4864
 4773SOL    HW125778   4.097   2.173   8.111  0.8542 -1.7525 -1.0195
 4773SOL    HW225779   3.983   2.130   8.195 -1.0474  1.6498  0.1663
 4774SOL     OW25780   3.741   1.672  12.911 -0.0189 -0.0711 -0.2218
 4774SOL    HW125781   3.666   1.730  12.907  0.4778  0.4530 -2.1500
 4774SOL    HW225782   3.779   1.682  12.998 -1.2856  0.6486  0.2344
 4775SOL     OW25783   4.463   0.269   5.924  0.0692  0.8816 -0.2394
 4775SOL    HW125784   4.407   0.230   5.991  1.5946 -1.3670 -0.2957
 4775SOL    HW225785   4.541   0.275   5.979  0.3817 -1.6122 -0.4257
 4776SOL     OW25786   4.492   0.932  12.383  0.0427 -0.2505  0.2247
 4776SOL    HW125787   4.544   1.013  12.378  1.3888 -1.2831 -2.3256
 4776SOL    HW225788   4.417   0.972  12.427  0.6145  0.0549  0.9246
 4777SOL     OW25789   0.302   1.264   9.075  0.0256  0.4373 -0.2188
 4777SOL    HW125790   0.290   1.326   9.002 -0.0989  1.4787  0.6874
 4777SOL    HW225791   0.213   1.254   9.108 -0.3189 -0.4527 -1.3934
 4778SOL     OW25792   4.332   4.338   6.328 -0.6133 -0.1737  0.1171
 4778SOL    HW125793   4.366   4.309   6.413  2.1923  0.2599 -0.8645
 4778SOL    HW225794   4.405   4.308   6.274 -0.3329 -0.1281  0.4644
 4779SOL     OW25795   3.326   4.211  10.178 -0.6090 -0.3921 -0.1817
 4779SOL    HW125796   3.390   4.276  10.207  0.3838 -0.9839 -1.0841
 4779SOL    HW225797   3.378   4.164  10.113 -1.9613 -0.4481 -1.2220
 4780SOL     OW25798   1.010   2.514   9.117 -0.1228 -0.2856 -0.1778
 4780SOL    HW125799   1.026   2.585   9.180 -2.0333 -0.8237  0.8901
 4780SOL    HW225800   0.919   2.504   9.144 -0.1085 -2.7256 -1.0883
 4781SOL     OW25801   3.494   2.983   8.194  0.2382  0.1661  0.5677
 4781SOL    HW125802   3.576   3.027   8.172 -0.6252  1.3899 -0.2134
 4781SOL    HW225803   3.510   2.918   8.263 -0.2711 -0.6587 -0.0880
 4782SOL     OW25804   2.541   4.231  10.468  0.4771 -0.4727 -0.6982
 4782SOL    HW125805   2.595   4.289  10.522 -0.3615 -1.7717  1.5349
 4782SOL    HW225806   2.541   4.280  10.385 -1.6757  1.1126  0.2357
 4783SOL     OW25807   2.159   0.613   4.735 -0.2546  0.4075  0.7144
 4783SOL    HW125808   2.193   0.688   4.785  1.3939  0.5062 -0.5476
 4783SOL    HW225809   2.229   0.613   4.670 -2.1284  0.5053 -1.2919
 4784SOL     OW25810   3.755   3.692   6.998 -0.6144 -0.3766  0.0286
 4784SOL    HW125811   3.722   3.759   6.938 -0.0709  1.4612  1.8180
 4784SOL    HW225812   3.711   3.616   6.960  0.5927 -0.5033 -1.1295
 4785SOL     OW25813   3.835   0.674   6.602 -0.1790 -0.1269 -0.5726
 4785SOL    HW125814   3.796   0.621   6.671  0.5442 -1.2623 -1.0479
 4785SOL    HW225815   3.894   0.729   6.653 -0.6183  0.5012 -0.7312
 4786SOL     OW25816   1.289   1.414   2.445  0.5922  0.3401 -0.2680
 4786SOL    HW125817   1.361   1.440   2.502 -1.9083 -0.4704  3.3072
 4786SOL    HW225818   1.265   1.495   2.401  0.6736 -0.3129 -1.5217
 4787SOL     OW25819   4.068   0.997  13.352  0.0088  0.2264  0.2461
 4787SOL    HW125820   3.986   0.951  13.369 -0.6724  0.7403 -1.5854
 4787SOL    HW225821   4.137   0.930  13.350 -0.3010 -0.0815 -0.4516
 4788SOL     OW25822   0.019   0.344   5.653 -0.0580  0.3343 -0.1316
 4788SOL    HW125823   4.671   0.280   5.637 -1.4099  2.3617 -2.3924
 4788SOL    HW225824   0.066   0.295   5.720 -1.2196  0.1081  0.5232
 4789SOL     OW25825   2.583   2.831   7.588  0.1092  0.0361  0.0870
 4789SOL    HW125826   2.615   2.786   7.667 -0.9527  0.0610  0.5250
 4789SOL    HW225827   2.628   2.913   7.610  1.1888 -0.0235 -1.9441
 4790SOL     OW25828   1.804   4.246  15.321 -0.4949 -0.1093  0.5182
 4790SOL    HW125829   1.828   4.339  15.313 -2.9416  0.3517 -1.6692
 4790SOL    HW225830   1.709   4.258  15.317 -0.0685  3.3626  0.4804
 4791SOL     OW25831   2.012   2.197  10.039 -0.2616  0.4554  0.2359
 4791SOL    HW125832   2.051   2.112  10.060 -1.0176 -0.4390 -1.9330
 4791SOL    HW225833   1.937   2.190  10.097  0.4906 -2.9937  0.8308
 4792SOL     OW25834   0.002   4.213   6.610 -0.3013  0.1227 -0.2377
 4792SOL    HW125835   0.084   4.238   6.652 -0.5781  1.2902 -0.3708
 4792SOL    HW225836   0.015   4.122   6.582 -1.7139 -0.7519  1.9876
 4793SOL     OW25837   4.484   1.700  15.406 -0.0959  0.0550  0.4580
 4793SOL    HW125838   4.477   1.752  15.486  0.4619 -0.9567  1.1698
 4793SOL    HW225839   4.524   1.626  15.452  1.0076 -0.7720 -1.8170
 4794SOL     OW25840   2.655   3.480  10.296  0.6389 -0.1613  0.7838
 4794SOL    HW125841   2.607   3.552  10.335 -0.2617  1.3918 -3.2001
 4794SOL    HW225842   2.591   3.435  10.240  3.2124 -3.1553  0.2278
 4795SOL     OW25843   1.605   2.942   8.876  0.4857 -0.1372  0.2759
 4795SOL    HW125844   1.603   2.976   8.966  0.1682  2.0582 -0.5778
 4795SOL    HW225845   1.639   2.856   8.901  0.5236 -0.0492  0.5276
 4796SOL     OW25846   1.523   3.120   0.052 -0.0928 -0.4667  0.0288
 4796SOL    HW125847   1.428   3.108   0.058 -0.2056  0.5429  0.1659
 4796SOL    HW225848   1.559   3.062   0.120 -0.2407 -0.7850 -0.1605
 4797SOL     OW25849   2.158   4.028  10.023 -0.5499 -0.6766 -0.2025
 4797SOL    HW125850   2.196   3.946   9.989  0.1405  0.0384 -1.1468
 4797SOL    HW225851   2.068   3.996  10.031  0.0315 -2.0929  0.7099
 4798SOL     OW25852   1.807   1.650   9.358  0.3998 -0.3493  0.1416
 4798SOL    HW125853   1.870   1.681   9.424 -0.0664 -0.3050  0.5646
 4798SOL    HW225854   1.827   1.712   9.288 -0.1525  0.1703  0.4453
 4799SOL     OW25855   3.440   4.449   7.948 -0.8639 -0.3561  0.5255
 4799SOL    HW125856   3.502   4.381   7.977 -0.7813  0.5286  2.4173
 4799SOL    HW225857   3.372   4.430   8.013 -0.1513  1.1236  1.7004
 4800SOL     OW25858   3.745   0.478   7.939 -0.0988 -0.2517  0.4022
 4800SOL    HW125859   3.720   0.544   7.874  1.6851 -0.0122 -0.0376
 4800SOL    HW225860   3.774   0.532   8.013  2.5215 -0.8487 -0.1948
 4801SOL     OW25861   4.542   3.375  10.121 -0.0535 -0.2332  0.1564
 4801SOL    HW125862   4.504   3.344  10.038  0.0328 -0.9945  0.4033
 4801SOL    HW225863   4.630   3.339  10.117 -1.1028 -2.9695  1.8478
 4802SOL     OW25864   3.984   3.507   2.474  0.4194  0.6317 -0.5465
 4802SOL    HW125865   4.073   3.483   2.499 -0.3906 -1.3176  0.4594
 4802SOL    HW225866   3.989   3.501   2.379 -0.5971 -1.2911 -0.4852
 4803SOL     OW25867   1.977   1.800  16.934  0.8175  0.4124 -0.4569
 4803SOL    HW125868   1.924   1.859  16.880  0.0448  1.0371  0.9784
 4803SOL    HW225869   1.924   1.775  17.010 -0.1367  0.4889 -1.0960
 4804SOL     OW25870   2.963   2.271  12.492 -0.0282  0.3443 -0.0492
 4804SOL    HW125871   2.968   2.248  12.399  1.7453  1.2766 -0.1924
 4804SOL    HW225872   2.896   2.205  12.509 -0.5678  0.8816 -0.0932
 4805SOL     OW25873   3.561   0.401   6.317 -0.1636  0.0359  0.0816
 4805SOL    HW125874   3.517   0.436   6.395  3.0154  1.4215  1.2747
 4805SOL    HW225875   3.611   0.329   6.355 -3.5937 -1.4018  1.8746
 4806SOL     OW25876   2.810   0.679   0.669  0.0218 -0.4793  0.1066
 4806SOL    HW125877   2.870   0.622   0.717 -2.0100 -1.1988  1.8298
 4806SOL    HW225878   2.864   0.726   0.606  1.1755 -0.7237  0.9243
 4807SOL     OW25879   2.426   0.527   4.985  0.2368 -0.0147 -0.5680
 4807SOL    HW125880   2.356   0.480   5.030  0.4415 -0.3690 -0.6236
 4807SOL    HW225881   2.400   0.508   4.895 -1.8870 -2.4433  0.5815
 4808SOL     OW25882   2.687   4.699   3.619  0.2251  0.0426  0.4351
 4808SOL    HW125883   2.735   0.055   3.591  1.9002 -1.1035  0.1833
 4808SOL    HW225884   2.747   4.626   3.605 -0.0457  0.4434 -2.8684
 4809SOL     OW25885   2.487   4.163   1.623  0.1220 -0.3757 -0.3623
 4809SOL    HW125886   2.519   4.145   1.534  0.7939 -0.8442 -0.0208
 4809SOL    HW225887   2.442   4.081   1.641 -2.9642  1.1735 -1.1181
 4810SOL     OW25888   3.245   3.041   2.312  0.4244  0.0914 -0.1301
 4810SOL    HW125889   3.305   3.114   2.302 -0.6048  1.0364  0.6220
 4810SOL    HW225890   3.230   3.046   2.407 -1.1197 -0.9420 -0.3061
 4811SOL     OW25891   2.812   0.413   2.152  0.4057  0.3098 -0.8003
 4811SOL    HW125892   2.892   0.362   2.135  0.5499  0.6250 -1.0653
 4811SOL    HW225893   2.746   0.367   2.100 -0.0634 -0.1566  0.2131
 4812SOL     OW25894   2.945   1.446   5.622 -0.4495  0.0022  0.0264
 4812SOL    HW125895   3.017   1.410   5.674  2.3115  0.6078 -3.3833
 4812SOL    HW225896   2.896   1.488   5.693 -0.5315  0.4064 -0.2702
 4813SOL     OW25897   1.210   4.268  17.397  0.2553  0.2496 -0.4876
 4813SOL    HW125898   1.255   4.340  17.353  0.8440  1.1297  1.5846
 4813SOL    HW225899   1.259   4.270  17.479 -0.5432  1.5264 -0.0346
 4814SOL     OW25900   3.835   1.398   9.162  0.7345  0.1498  0.3257
 4814SOL    HW125901   3.793   1.374   9.079  1.1715 -0.7134  0.3591
 4814SOL    HW225902   3.789   1.321   9.194 -1.5658  2.0532  1.5916
 4815SOL     OW25903   3.998   1.446  14.599  0.0773  0.0281  0.6637
 4815SOL    HW125904   4.029   1.503  14.528 -1.0156 -1.4989 -1.0348
 4815SOL    HW225905   3.928   1.393  14.559  1.3157  1.1416 -3.0110
 4816SOL     OW25906   0.966   2.898   0.930 -0.3552 -0.3017 -0.1640
 4816SOL    HW125907   1.000   2.941   1.009 -3.0621 -2.1279  2.0053
 4816SOL    HW225908   1.007   2.811   0.928 -1.1307 -0.7819  3.4763
 4817SOL     OW25909   3.201   2.631   8.599 -0.1961  0.1358 -0.5918
 4817SOL    HW125910   3.178   2.557   8.543  1.6817 -1.1601  0.3689
 4817SOL    HW225911   3.165   2.707   8.552  0.1642  0.9199  0.4013
 4818SOL     OW25912   1.850   4.066  12.399  0.4451  0.0269 -0.1864
 4818SOL    HW125913   1.795   4.007  12.451 -1.1806  1.4946 -0.2253
 4818SOL    HW225914   1.937   4.027  12.392  1.1071  1.2398  1.2321
 4819SOL     OW25915   3.914   0.634  17.090 -0.4111 -0.7457  0.3084
 4819SOL    HW125916   3.841   0.573  17.083 -1.7185  0.7620  1.0600
 4819SOL    HW225917   3.939   0.629  16.997  0.4280  1.9066  0.3763
 4820SOL     OW25918   1.208   2.395   8.111  0.2383 -0.1838  0.0232
 4820SOL    HW125919   1.270   2.463   8.135  0.6302  0.2730 -2.3070
 4820SOL    HW225920   1.124   2.435   8.129  0.6383  0.4471  0.4778
 4821SOL     OW25921   2.310   4.618   4.063 -0.0458  0.5730  0.1060
 4821SOL    HW125922   2.401   4.644   4.045  0.3863 -1.5936 -0.8947
 4821SOL    HW225923   2.284   4.613   3.971  0.9380  0.9599 -0.1952
 4822SOL     OW25924   1.577   4.568   6.248 -0.0558  0.2607 -0.2112
 4822SOL    HW125925   1.548   4.566   6.339 -0.2631  0.1573 -0.2790
 4822SOL    HW225926   1.497   4.577   6.196  1.4610 -0.6182 -2.6988
 4823SOL     OW25927   1.924   3.444   4.141 -0.5480 -0.3379 -1.0364
 4823SOL    HW125928   1.838   3.487   4.147  0.3247  1.4593 -1.4200
 4823SOL    HW225929   1.917   3.390   4.220 -1.6690  1.6082  0.2130
 4824SOL     OW25930   0.222   3.423   4.305  0.8211  0.1284 -0.5241
 4824SOL    HW125931   0.232   3.409   4.211 -2.0481  0.6255 -0.9184
 4824SOL    HW225932   0.166   3.501   4.308  1.2035  0.3187  1.3342
 4825SOL     OW25933   2.935   2.132   6.676 -0.3027  0.2615  0.1622
 4825SOL    HW125934   2.863   2.110   6.617  0.1700  1.1088 -0.7246
 4825SOL    HW225935   2.951   2.224   6.657 -1.7283  0.8215  1.8242
 4826SOL     OW25936   3.899   3.970  10.152  0.1440 -0.1379 -0.3309
 4826SOL    HW125937   3.810   3.945  10.179  0.1151 -0.2681 -0.5476
 4826SOL    HW225938   3.907   4.036  10.220  0.0173  0.5999 -1.0309
 4827SOL     OW25939   2.357   0.645   6.193 -0.3977  0.8123  0.2351
 4827SOL    HW125940   2.284   0.707   6.194 -0.2938  0.9709 -1.9307
 4827SOL    HW225941   2.341   0.589   6.117  0.0816 -0.5489  1.1517
 4828SOL     OW25942   3.189   3.492   9.092 -0.0767  0.3873  0.1437
 4828SOL    HW125943   3.268   3.509   9.142  1.6519 -1.6418 -1.8538
 4828SOL    HW225944   3.214   3.485   9.000  1.0850 -0.8643  0.5533
 4829SOL     OW25945   1.563   2.486   9.481 -0.8392 -0.1363  0.3314
 4829SOL    HW125946   1.584   2.420   9.416 -1.9491 -0.5390  0.3663
 4829SOL    HW225947   1.492   2.441   9.528  0.4588  0.2851  2.7334
 4830SOL     OW25948   3.615   4.527   7.414  0.4943  0.2978 -0.5977
 4830SOL    HW125949   3.604   4.585   7.339 -1.8292 -0.7382 -1.0399
 4830SOL    HW225950   3.699   4.485   7.394  0.8008 -0.1244  1.5159
 4831SOL     OW25951   0.609   1.113   2.808 -0.0946  0.2868  0.3858
 4831SOL    HW125952   0.607   1.044   2.741  0.7217  0.4934  0.1468
 4831SOL    HW225953   0.638   1.068   2.886  1.5268 -1.6417 -1.3384
 4832SOL     OW25954   1.428   0.278  11.425  0.2430  0.1758  0.2999
 4832SOL    HW125955   1.357   0.256  11.365  0.3083  1.5049 -0.2499
 4832SOL    HW225956   1.445   0.371  11.408 -1.4716  0.3513 -0.4044
 4833SOL     OW25957   1.280   0.967   4.576 -0.3064  0.0317  0.2032
 4833SOL    HW125958   1.360   1.019   4.565  0.4360 -0.6215  2.4296
 4833SOL    HW225959   1.319   0.889   4.616  0.9812  0.6263  0.1290
 4834SOL     OW25960   0.789   1.698  16.488 -0.2273  0.4164  0.3027
 4834SOL    HW125961   0.778   1.613  16.443  0.8732  0.5250 -0.1796
 4834SOL    HW225962   0.835   1.679  16.569 -0.3513  0.8833  0.4798
 4835SOL     OW25963   2.520   2.340   7.480 -0.7640 -0.1704  0.0426
 4835SOL    HW125964   2.471   2.379   7.408  0.8778 -2.2433 -2.1888
 4835SOL    HW225965   2.514   2.413   7.541 -3.1932 -0.0056 -0.3970
 4836SOL     OW25966   0.942   4.331   1.713 -0.0885  0.5460 -0.4187
 4836SOL    HW125967   0.853   4.333   1.750  0.7748  0.6968  1.6815
 4836SOL    HW225968   0.931   4.259   1.651  0.4718  0.7461 -0.7426
 4837SOL     OW25969   4.407   2.032   2.339 -0.0004 -0.4992  0.3635
 4837SOL    HW125970   4.461   2.106   2.369  0.6059 -0.3827 -0.9705
 4837SOL    HW225971   4.436   1.966   2.402  0.7230  1.0010  1.6107
 4838SOL     OW25972   1.473   2.784   9.242 -0.1755  0.0062  0.3337
 4838SOL    HW125973   1.533   2.846   9.201 -0.2298  0.1969  0.5428
 4838SOL    HW225974   1.382   2.798   9.215  0.5253  2.6275 -0.6117
 4839SOL     OW25975   1.823   1.004  10.404  0.2184  0.4404 -0.1090
 4839SOL    HW125976   1.856   0.935  10.461  0.4745 -0.9680 -1.9949
 4839SOL    HW225977   1.871   0.993  10.322  2.3223  1.5209  0.9730
 4840SOL     OW25978   3.226   2.186   6.803 -0.1404 -0.6507  0.4156
 4840SOL    HW125979   3.156   2.208   6.864 -0.3345 -1.6169  0.5476
 4840SOL    HW225980   3.187   2.189   6.716  1.4923  0.9334 -0.2616
 4841SOL     OW25981   3.170   0.988   4.851  0.1655  0.3929 -0.0024
 4841SOL    HW125982   3.138   0.914   4.904 -0.0271  0.1644 -0.4361
 4841SOL    HW225983   3.258   1.005   4.884  0.8177 -0.9227 -1.0827
 4842SOL     OW25984   0.383   0.767   2.572  0.0751 -0.1068 -1.0089
 4842SOL    HW125985   0.290   0.785   2.559 -0.0575  2.5822  3.5476
 4842SOL    HW225986   0.381   0.693   2.633  0.0631  0.2756 -0.5419
 4843SOL     OW25987   2.227   1.445  13.469  0.3568  0.2532  0.3331
 4843SOL    HW125988   2.196   1.375  13.412  2.6054  0.6518 -1.4059
 4843SOL    HW225989   2.318   1.420  13.455  0.0828 -1.2642  1.3323
 4844SOL     OW25990   2.898   3.902   1.282  0.0946  0.1099 -0.0255
 4844SOL    HW125991   2.838   3.901   1.357 -0.4633  2.2201 -0.4237
 4844SOL    HW225992   2.964   3.967   1.308  0.7704 -0.8383  0.6001
 4845SOL     OW25993   3.814   0.946   3.392  0.2492 -0.0619  0.2432
 4845SOL    HW125994   3.870   1.021   3.373  0.9739 -0.9568 -1.1369
 4845SOL    HW225995   3.852   0.884   3.330  0.1654  0.2630 -0.1291
 4846SOL     OW25996   2.046   0.650   3.935 -0.3245  0.0165  0.0559
 4846SOL    HW125997   2.080   0.736   3.910  2.2267 -0.8177  0.6335
 4846SOL    HW225998   2.128   0.604   3.955 -0.5490  0.4926  2.1386
 4847SOL     OW25999   4.366   4.588  16.705 -0.5290 -0.4390 -0.0878
 4847SOL    HW126000   4.405   4.663  16.749  0.1420 -0.9189  0.1275
 4847SOL    HW226001   4.339   4.547  16.787 -0.2753  0.4130  0.4093
 4848SOL     OW26002   0.215   1.242   4.774 -0.3488 -0.2480 -0.0007
 4848SOL    HW126003   0.244   1.157   4.806  0.4555  0.7791  2.0201
 4848SOL    HW226004   0.121   1.233   4.755 -0.2122 -2.3704  0.3291
 4849SOL     OW26005   0.531   2.677   3.431 -0.0462 -0.0935  0.4441
 4849SOL    HW126006   0.492   2.759   3.401 -2.3434 -0.5899  2.0641
 4849SOL    HW226007   0.524   2.694   3.525 -0.9112 -2.2258  0.7739
 4850SOL     OW26008   0.219   1.472   5.266  0.3816 -1.0021  0.1272
 4850SOL    HW126009   0.225   1.549   5.209 -0.9066 -0.3060  0.9179
 4850SOL    HW226010   0.298   1.484   5.318 -0.1505  1.5184  0.3633
 4851SOL     OW26011   3.995   3.490   9.354  0.3175 -0.2353 -0.2743
 4851SOL    HW126012   3.914   3.467   9.309  1.2623  0.2760 -2.2404
 4851SOL    HW226013   3.951   3.519   9.434 -2.4341 -2.4979 -0.9446
 4852SOL     OW26014   1.903   1.372   6.751 -0.2336 -0.0363  0.1574
 4852SOL    HW126015   1.933   1.373   6.660  0.1176  0.4020  0.2776
 4852SOL    HW226016   1.950   1.293   6.777 -1.3450 -1.4924 -2.2484
 4853SOL     OW26017   3.643   4.585   3.513 -0.2618 -0.2221  0.5647
 4853SOL    HW126018   3.657   4.490   3.510  0.7782 -0.0777  0.7449
 4853SOL    HW226019   3.647   4.602   3.607  1.7862 -1.2053  0.6667
 4854SOL     OW26020   1.534   3.764   6.840  0.2797  0.9023  0.1992
 4854SOL    HW126021   1.487   3.710   6.776  1.2533 -0.1941  0.4044
 4854SOL    HW226022   1.494   3.848   6.816  1.1780  1.1550 -0.3941
 4855SOL     OW26023   2.887   3.603  17.487 -0.7719 -0.0015  0.0050
 4855SOL    HW126024   2.972   3.557  17.490 -1.2067 -0.8168 -0.0406
 4855SOL    HW226025   2.889   3.671  17.554 -1.9924  1.2326 -1.2305
 4856SOL     OW26026   4.528   0.268   6.635  0.2762 -0.4278  0.4746
 4856SOL    HW126027   4.453   0.211   6.649 -0.5238  0.0533 -1.9964
 4856SOL    HW226028   4.523   0.314   6.719  2.8274  0.4506  0.1712
 4857SOL     OW26029   1.042   1.925  16.506  0.0689 -0.1136  0.5375
 4857SOL    HW126030   0.983   1.921  16.581 -0.6277  1.7222  0.0827
 4857SOL    HW226031   1.086   2.009  16.520  0.4589 -0.0994 -0.7300
 4858SOL     OW26032   1.142   1.238   7.777 -0.9678  0.1772  0.0249
 4858SOL    HW126033   1.151   1.267   7.686  2.3938 -0.1888  0.2306
 4858SOL    HW226034   1.057   1.269   7.808 -1.8056 -0.8121 -1.3084
 4859SOL     OW26035   2.865   0.653   2.572 -0.0310 -0.7948 -0.4767
 4859SOL    HW126036   2.773   0.667   2.594 -0.1934  1.2649 -2.5385
 4859SOL    HW226037   2.870   0.677   2.480 -2.4843  1.2883 -0.0513
 4860SOL     OW26038   4.609   3.651   5.018 -0.0238  0.1018  0.1764
 4860SOL    HW126039   4.672   3.702   4.968  1.3493 -0.4533  1.3639
 4860SOL    HW226040   4.638   3.561   4.999  1.1075  0.6774 -0.8442
 4861SOL     OW26041   0.242   2.864   2.806  0.6438  0.4871  0.5548
 4861SOL    HW126042   0.250   2.946   2.855  0.9447  1.0671 -0.4650
 4861SOL    HW226043   0.270   2.900   2.721  0.4198  1.7055  1.0013
 4862SOL     OW26044   1.252   1.873  10.949  0.1686 -0.1544 -0.1588
 4862SOL    HW126045   1.314   1.891  10.878  2.0665  0.3230  1.6062
 4862SOL    HW226046   1.294   1.918  11.022  0.5868  1.2917 -1.2866
 4863SOL     OW26047   4.664   2.116   8.121  0.1039  0.2338  0.0329
 4863SOL    HW126048   4.627   2.059   8.187  3.2738 -0.1443  1.4608
 4863SOL    HW226049   0.036   2.095   8.120  0.1551  0.4827 -0.7790
 4864SOL     OW26050   1.812   2.312  11.078  0.1149  0.0749 -0.2278
 4864SOL    HW126051   1.893   2.337  11.035 -0.8010  3.3016 -0.0869
 4864SOL    HW226052   1.773   2.395  11.105  2.0906  0.4656  1.3955
 4865SOL     OW26053   2.092   0.997   3.500  0.0451 -0.1021 -0.5840
 4865SOL    HW126054   2.009   1.038   3.525  0.0700  0.0758 -0.7930
 4865SOL    HW226055   2.086   1.019   3.407 -0.1086  1.7772 -0.1162
 4866SOL     OW26056   3.851   1.183  13.540  0.3015 -0.4227  0.4277
 4866SOL    HW126057   3.789   1.183  13.467  0.3022 -0.4739  0.4273
 4866SOL    HW226058   3.811   1.123  13.603 -0.4340 -1.7348 -1.2868
 4867SOL     OW26059   0.127   3.339  12.967 -0.0593 -0.3289 -0.6949
 4867SOL    HW126060   0.200   3.356  12.907  0.3683  1.7379  0.4337
 4867SOL    HW226061   0.058   3.342  12.901 -0.3880 -0.9330 -0.3716
 4868SOL     OW26062   2.626   0.116  17.553 -0.0029  0.9619 -0.3990
 4868SOL    HW126063   2.639   0.180  17.623 -1.3073 -0.0652  0.7728
 4868SOL    HW226064   2.583   0.175  17.492 -3.2646  0.1748  1.1619
 4869SOL     OW26065   1.266   1.897  15.226  0.7602  0.3083  0.3432
 4869SOL    HW126066   1.171   1.892  15.228  0.6682  1.4208 -1.1098
 4869SOL    HW226067   1.280   1.933  15.138  1.0398  0.3684  0.4130
 4870SOL     OW26068   1.931   4.265  17.306  0.3575  0.2155  0.1756
 4870SOL    HW126069   1.906   4.176  17.332 -1.7642  0.9236  0.5509
 4870SOL    HW226070   2.003   4.249  17.245 -0.0545  3.9540 -1.2942
 4871SOL     OW26071   4.614   0.888  13.750 -0.3249 -0.2715 -0.0481
 4871SOL    HW126072   4.558   0.810  13.749 -0.4391 -0.2002  1.5978
 4871SOL    HW226073   4.593   0.943  13.825  2.2048 -0.5854  0.8869
 4872SOL     OW26074   2.847   2.537   5.604  0.7224 -0.6167  0.0713
 4872SOL    HW126075   2.896   2.604   5.651  0.2016  0.0907 -0.4123
 4872SOL    HW226076   2.903   2.460   5.620  0.0824 -0.7785  1.5319
 4873SOL     OW26077   1.844   2.217   2.989 -0.4691 -0.1375 -0.2186
 4873SOL    HW126078   1.789   2.151   2.947 -0.6814  0.4821 -0.9193
 4873SOL    HW226079   1.863   2.165   3.067 -0.1892  0.6621  0.2518
 4874SOL     OW26080   3.532   0.469   2.305 -0.3679 -0.2087 -0.3211
 4874SOL    HW126081   3.462   0.529   2.281  1.0520  1.0746 -1.2844
 4874SOL    HW226082   3.571   0.527   2.370  0.0775  0.4122 -1.1359
 4875SOL     OW26083   2.132   1.581   6.457  0.6038 -0.4881  0.0322
 4875SOL    HW126084   2.120   1.534   6.375 -0.6190 -1.0335  0.5214
 4875SOL    HW226085   2.165   1.516   6.520  0.3954 -1.3907 -0.7932
 4876SOL     OW26086   3.625   0.830  11.265  0.0605  0.0776  0.0039
 4876SOL    HW126087   3.678   0.822  11.344  2.2502  2.1837 -1.2872
 4876SOL    HW226088   3.649   0.915  11.228 -1.8618  0.4507 -0.3996
 4877SOL     OW26089   4.421   1.928   4.964 -0.2826  0.1556 -0.1950
 4877SOL    HW126090   4.411   1.853   4.905  0.3127  0.0214 -0.1258
 4877SOL    HW226091   4.446   2.006   4.915  0.1015  1.4328  2.0130
 4878SOL     OW26092   1.668   3.757   3.112  0.4879  0.5237 -0.7389
 4878SOL    HW126093   1.741   3.698   3.131  0.2722  0.3340 -0.5035
 4878SOL    HW226094   1.683   3.755   3.018  2.3935  1.9949 -0.4751
 4879SOL     OW26095   4.081   4.243   4.860 -0.5067  0.2748 -0.3010
 4879SOL    HW126096   4.064   4.333   4.890  1.1142 -0.0344  1.5421
 4879SOL    HW226097   3.988   4.226   4.843 -0.4979 -0.2417  0.1483
 4880SOL     OW26098   2.191   2.497   7.384 -0.2058  0.3356 -0.0495
 4880SOL    HW126099   2.181   2.455   7.298 -2.1433  0.0410  0.3226
 4880SOL    HW226100   2.219   2.421   7.435  1.2745  1.9007  1.4841
 4881SOL     OW26101   2.354   1.074   4.041  0.0501  0.2904  0.3124
 4881SOL    HW126102   2.355   0.992   3.992 -0.7642  0.5781 -0.1964
 4881SOL    HW226103   2.388   1.133   3.974 -1.2673  1.1066  0.3705
 4882SOL     OW26104   2.712   1.806  11.059  0.1029  0.1779  0.3811
 4882SOL    HW126105   2.632   1.810  11.007  0.4289  0.7995 -0.0661
 4882SOL    HW226106   2.733   1.712  11.056 -1.4559 -0.2380  2.3800
 4883SOL     OW26107   3.634   1.147   1.741  0.2891 -0.2474 -0.3504
 4883SOL    HW126108   3.673   1.204   1.674 -2.9445  1.2595 -0.9535
 4883SOL    HW226109   3.568   1.095   1.695 -1.3150 -0.4235  2.1460
 4884SOL     OW26110   4.285   2.465  12.260  0.3218  0.1825  0.0410
 4884SOL    HW126111   4.317   2.536  12.315  1.0166 -0.5614  0.5910
 4884SOL    HW226112   4.353   2.400  12.277 -1.0035 -1.2243 -0.0534
 4885SOL     OW26113   1.816   2.595   9.539 -0.3411 -0.5297 -0.1376
 4885SOL    HW126114   1.734   2.561   9.505 -0.5470 -0.5573  0.3836
 4885SOL    HW226115   1.855   2.516   9.576 -3.4201 -0.8787  2.3951
 4886SOL     OW26116   0.290   3.563   6.622  0.8198  0.3939  0.4188
 4886SOL    HW126117   0.358   3.607   6.571  0.6915  1.8968  1.5651
 4886SOL    HW226118   0.320   3.571   6.712  1.0036 -1.8169  0.5758
 4887SOL     OW26119   2.665   3.927   3.183 -0.3621 -0.2639 -0.3050
 4887SOL    HW126120   2.666   3.961   3.093  4.2498  0.6775  0.1219
 4887SOL    HW226121   2.588   3.973   3.216  0.3000  1.3511 -1.0186
 4888SOL     OW26122   2.538   0.967   3.631  0.0368 -0.0375 -0.2075
 4888SOL    HW126123   2.445   0.946   3.638 -0.5027  2.5486  0.1636
 4888SOL    HW226124   2.544   0.942   3.538  2.7083 -0.2773  0.0163
 4889SOL     OW26125   0.091   1.066   7.123  0.8231 -0.1458 -0.2409
 4889SOL    HW126126   0.015   1.055   7.066  2.8165 -0.4278 -2.8060
 4889SOL    HW226127   0.064   1.023   7.205  0.7363  2.6230  1.1834
 4890SOL     OW26128   2.794   3.025   0.482 -0.3666 -0.2427  0.3106
 4890SOL    HW126129   2.773   3.030   0.389 -1.9137  0.0055  0.6743
 4890SOL    HW226130   2.867   2.963   0.485 -1.9465 -2.1469 -0.8309
 4891SOL     OW26131   2.431   0.180   5.080  0.4599 -0.0583  0.3186
 4891SOL    HW126132   2.373   0.244   5.121 -0.1818  0.1635 -0.9084
 4891SOL    HW226133   2.437   0.222   4.994 -0.7475 -1.6169 -0.5286
 4892SOL     OW26134   3.309   4.421   8.172  0.6082 -0.1846 -0.3470
 4892SOL    HW126135   3.352   4.368   8.239 -0.5539 -0.6316  0.0374
 4892SOL    HW226136   3.221   4.427   8.208  0.4717  0.6610 -0.8251
 4893SOL     OW26137   1.384   0.166   2.518  0.2887 -0.1247  0.2559
 4893SOL    HW126138   1.327   0.128   2.585  1.9216 -1.0427  1.1008
 4893SOL    HW226139   1.329   0.227   2.469 -0.4861  0.6190  2.0412
 4894SOL     OW26140   3.566   3.591  12.636 -0.4206  0.0802 -0.2464
 4894SOL    HW126141   3.558   3.538  12.557 -1.2869  1.5801 -1.1548
 4894SOL    HW226142   3.658   3.577  12.659 -0.5997 -1.3929 -0.4652
 4895SOL     OW26143   2.950   1.368   5.004 -0.0499  0.0960 -0.0731
 4895SOL    HW126144   3.012   1.301   5.031  2.0664  1.7107 -0.9460
 4895SOL    HW226145   2.961   1.408   5.090  1.3630 -1.4496  0.4610
 4896SOL     OW26146   2.108   0.058  11.034 -0.5591  0.0695  0.3821
 4896SOL    HW126147   2.175   0.073  11.101 -1.4472  0.2799  1.2174
 4896SOL    HW226148   2.076   0.148  11.036 -0.6111  0.0434  0.7670
 4897SOL     OW26149   0.092   2.106   8.861  0.1397  0.1845  0.2267
 4897SOL    HW126150   0.043   2.188   8.869 -0.1941 -0.2782  2.8366
 4897SOL    HW226151   0.174   2.144   8.830  0.2563 -0.5066 -0.3293
 4898SOL     OW26152   1.868   0.412   9.080 -0.0959  0.3859  0.6753
 4898SOL    HW126153   1.804   0.416   9.009  1.2276 -0.9065 -0.5806
 4898SOL    HW226154   1.813   0.433   9.155 -0.1965  0.0470  0.6995
 4899SOL     OW26155   4.335   4.444   2.733 -0.2143 -0.3720 -0.4965
 4899SOL    HW126156   4.257   4.485   2.697  0.0973  2.4863  2.0962
 4899SOL    HW226157   4.336   4.365   2.678 -1.6804 -1.1212  0.5606
 4900SOL     OW26158   3.406   0.266   8.259  1.2906 -0.5014  0.3014
 4900SOL    HW126159   3.446   0.338   8.308  0.3726  0.0838  0.2029
 4900SOL    HW226160   3.316   0.299   8.263  1.5079  0.1553 -0.2631
 4901SOL     OW26161   4.226   4.129   8.963 -0.4138 -0.0121 -0.7131
 4901SOL    HW126162   4.135   4.104   8.952 -1.3070  3.0736 -0.2675
 4901SOL    HW226163   4.229   4.078   9.044  2.0684 -0.4681 -1.0949
 4902SOL     OW26164   0.045   2.336   6.921 -0.4609 -0.0466  0.6048
 4902SOL    HW126165   0.117   2.345   6.983 -0.3687  0.6279  0.4074
 4902SOL    HW226166   0.074   2.256   6.877  0.8423  0.8468 -0.1957
 4903SOL     OW26167   4.328   1.265  11.503  0.4427  0.0994 -0.4375
 4903SOL    HW126168   4.265   1.335  11.486 -1.5325 -2.1352 -2.5100
 4903SOL    HW226169   4.350   1.234  11.415 -0.5901 -1.3163 -0.2055
 4904SOL     OW26170   2.995   0.635   8.779 -0.2555  0.0043  0.0780
 4904SOL    HW126171   3.052   0.682   8.840 -0.0165  0.9440 -0.8614
 4904SOL    HW226172   2.920   0.693   8.769 -0.6803 -0.4780  0.4616
 4905SOL     OW26173   4.372   0.022   4.991  0.1971  0.6814  0.1243
 4905SOL    HW126174   4.383   0.060   5.078 -0.5131 -0.5557  0.7508
 4905SOL    HW226175   4.418   4.659   4.997 -0.6282  0.0808 -2.0791
 4906SOL     OW26176   3.917   0.539   4.346  0.5106 -0.3342 -0.3546
 4906SOL    HW126177   3.849   0.508   4.286  1.2152  1.8568 -2.2902
 4906SOL    HW226178   3.985   0.547   4.279  0.1614  0.5018 -0.6104
 4907SOL     OW26179   3.353   0.219   0.499 -0.0689  0.4841 -0.2170
 4907SOL    HW126180   3.385   0.136   0.462  0.7099  0.1543  1.2214
 4907SOL    HW226181   3.348   0.278   0.423 -0.8249  1.9119  0.9515
 4908SOL     OW26182   4.368   3.052  13.311 -0.5008  0.1221  0.2274
 4908SOL    HW126183   4.378   2.968  13.267  0.0744  0.1374  0.3217
 4908SOL    HW226184   4.425   3.046  13.388 -1.3258  2.4357  1.0147
 4909SOL     OW26185   4.547   2.083   7.644 -0.0901  0.4607  0.4218
 4909SOL    HW126186   4.535   2.121   7.730 -3.3289 -0.4321  0.3639
 4909SOL    HW226187   4.623   2.026   7.656  0.7505  1.7576  1.2067
 4910SOL     OW26188   1.248   3.949   3.683  0.0131  0.2652 -0.2853
 4910SOL    HW126189   1.311   3.877   3.675 -1.4894 -0.9535 -1.0532
 4910SOL    HW226190   1.262   3.998   3.602 -3.1533  0.8654 -0.4659
 4911SOL     OW26191   2.112   1.316   7.164 -0.3271 -0.7627  0.2443
 4911SOL    HW126192   2.159   1.397   7.144 -3.0895  0.4976 -1.0188
 4911SOL    HW226193   2.031   1.357   7.194 -0.7643 -1.5764  0.1786
 4912SOL     OW26194   0.966   1.616   1.873  0.1995  0.3553  0.3316
 4912SOL    HW126195   0.941   1.585   1.960  2.4327  0.6605  1.0708
 4912SOL    HW226196   0.981   1.709   1.889 -1.3605  0.9077 -1.3959
 4913SOL     OW26197   1.058   4.273   1.962  0.3247 -0.2308  0.0784
 4913SOL    HW126198   1.044   4.311   1.876 -2.3234  1.9248  1.4614
 4913SOL    HW226199   1.059   4.179   1.946 -1.1624 -0.1839 -0.2455
 4914SOL     OW26200   3.724   2.556  12.593  0.5956  0.7282 -0.2319
 4914SOL    HW126201   3.741   2.480  12.538 -0.4178  0.6968 -0.5173
 4914SOL    HW226202   3.636   2.576  12.559  0.0115 -2.5731 -0.6221
 4915SOL     OW26203   4.283   4.610   6.689 -0.5537  0.5445 -0.2050
 4915SOL    HW126204   4.368   4.580   6.658 -0.9471  2.7449 -3.4692
 4915SOL    HW226205   4.238   4.529   6.712 -0.6227 -0.0597 -2.4696
 4916SOL     OW26206   0.345   2.263  16.592 -0.2284 -0.0536  0.0502
 4916SOL    HW126207   0.368   2.215  16.512 -0.8212  2.1844 -1.4713
 4916SOL    HW226208   0.255   2.287  16.570  0.2979  2.0197  0.2380
 4917SOL     OW26209   3.512   4.242   4.727 -0.2126  0.3138 -1.0559
 4917SOL    HW126210   3.515   4.234   4.632  1.0700 -0.9468 -0.9074
 4917SOL    HW226211   3.559   4.162   4.750 -0.6853 -0.2973 -2.2388
 4918SOL     OW26212   2.404   3.998   0.377  0.5263 -1.0958 -0.8379
 4918SOL    HW126213   2.353   4.031   0.450  1.0496  0.2035 -1.0558
 4918SOL    HW226214   2.344   3.952   0.318 -1.1079  0.5587 -0.4507
 4919SOL     OW26215   4.472   3.046   3.725  0.1997  0.2999  0.0951
 4919SOL    HW126216   4.468   3.093   3.808  0.6549  0.7129 -0.1126
 4919SOL    HW226217   4.535   3.099   3.676 -1.3267  1.1868 -0.9253
 4920SOL     OW26218   1.876   2.347   3.997 -0.1244  0.4168  0.8563
 4920SOL    HW126219   1.961   2.360   3.956 -0.1535 -1.9914  0.0429
 4920SOL    HW226220   1.840   2.435   3.991 -0.0177  0.5158  1.7211
 4921SOL     OW26221   3.781   1.292  14.507 -0.3161 -0.0333  0.1203
 4921SOL    HW126222   3.752   1.220  14.563 -0.9312  0.6064  0.6260
 4921SOL    HW226223   3.747   1.262  14.423  0.0863 -1.6516  0.5367
 4922SOL     OW26224   0.071   2.295  10.744  0.0598  0.1985 -0.2095
 4922SOL    HW126225   0.090   2.369  10.687 -1.8131 -0.4355 -1.6295
 4922SOL    HW226226   0.029   2.346  10.814  0.5380 -2.1535  1.7629
 4923SOL     OW26227   2.101   0.917   9.410 -0.3675 -0.3741 -0.3890
 4923SOL    HW126228   2.162   0.853   9.373  0.8586  0.3882  0.2859
 4923SOL    HW226229   2.159   0.986   9.443  0.9033 -1.9817  0.6881
 4924SOL     OW26230   2.740   0.441   4.701  0.6383  0.0745 -0.7333
 4924SOL    HW126231   2.663   0.399   4.663  0.8523  0.9692 -2.1525
 4924SOL    HW226232   2.745   0.512   4.637  1.9353  1.3482  0.7826
 4925SOL     OW26233   3.141   4.318   5.623  0.1634 -0.1602 -0.2150
 4925SOL    HW126234   3.102   4.317   5.536 -0.1140 -1.7989 -0.0681
 4925SOL    HW226235   3.228   4.357   5.611  1.5679 -3.3729 -0.4784
 4926SOL     OW26236   1.852   2.930   9.172  0.2752 -0.4538  0.3375
 4926SOL    HW126237   1.842   2.866   9.101  0.7554 -0.5247  0.3392
 4926SOL    HW226238   1.940   2.964   9.163  0.6300 -1.0812  1.4947
 4927SOL     OW26239   4.519   1.212   2.614  0.0085  0.3914 -0.1715
 4927SOL    HW126240   4.575   1.175   2.545 -0.0696 -0.4156  0.2042
 4927SOL    HW226241   4.461   1.138   2.631  0.8006  0.1744  1.5920
 4928SOL     OW26242   4.516   3.645   4.523 -0.3704 -0.3486  0.3589
 4928SOL    HW126243   4.523   3.663   4.616 -0.2230 -0.9834  0.4685
 4928SOL    HW226244   4.423   3.622   4.513 -0.1895 -0.3758 -1.2177
 4929SOL     OW26245   2.470   2.135  10.238  0.3486  0.7074 -0.2426
 4929SOL    HW126246   2.535   2.150  10.170 -0.4694 -1.2776 -1.4761
 4929SOL    HW226247   2.513   2.182  10.310  0.8652 -1.9746  1.2024
 4930SOL     OW26248   4.698   3.256   8.774 -0.3480  0.6369 -0.0655
 4930SOL    HW126249   4.691   3.341   8.816 -3.4274  0.3874 -0.0376
 4930SOL    HW226250   4.635   3.261   8.701 -0.7185  1.1118  0.2901
 4931SOL     OW26251   3.455   4.189   3.101 -0.2271  0.5962 -0.4202
 4931SOL    HW126252   3.544   4.158   3.121 -1.1819 -0.3612  2.2753
 4931SOL    HW226253   3.419   4.108   3.063 -0.5773  0.1532  0.8535
 4932SOL     OW26254   0.772   0.117   2.836  0.1901 -0.0753 -0.2839
 4932SOL    HW126255   0.815   0.183   2.889 -1.6179  0.9049 -0.0421
 4932SOL    HW226256   0.681   0.140   2.850  0.5410  0.3440  1.2903
 4933SOL     OW26257   2.925   2.984  16.392 -0.3300 -0.5754  0.6171
 4933SOL    HW126258   2.988   2.965  16.462  0.7846 -1.1691 -0.5428
 4933SOL    HW226259   2.941   2.927  16.317 -0.5305  0.7553 -0.4207
 4934SOL     OW26260   3.072   1.713   8.433  0.1430 -0.0359 -0.9197
 4934SOL    HW126261   3.062   1.772   8.508  0.9038 -0.5902 -0.3817
 4934SOL    HW226262   3.041   1.770   8.362  0.5576 -0.1122 -1.1677
 4935SOL     OW26263   0.458   2.083  12.266  0.0033 -0.2407  0.2500
 4935SOL    HW126264   0.487   2.175  12.268  0.0551 -0.2549  0.1081
 4935SOL    HW226265   0.468   2.070  12.172  2.3225  0.2914  0.4114
 4936SOL     OW26266   1.972   3.854   3.121  0.0492 -0.5629  0.4218
 4936SOL    HW126267   1.939   3.806   3.045  1.1729 -0.7218  0.0401
 4936SOL    HW226268   1.905   3.915   3.152  2.4338  3.5642 -2.5471
 4937SOL     OW26269   1.483   3.654   2.702 -0.0035 -0.0924 -0.4153
 4937SOL    HW126270   1.390   3.643   2.681 -0.5240  1.9769  0.8470
 4937SOL    HW226271   1.473   3.617   2.789  2.0843 -0.0291 -0.1535
 4938SOL     OW26272   2.492   0.270   5.939  0.2260  0.7349  0.3646
 4938SOL    HW126273   2.526   0.234   5.857 -0.5561  0.2208  0.2712
 4938SOL    HW226274   2.439   0.198   5.973  1.2129 -0.0282  0.2995
 4939SOL     OW26275   2.799   0.248   5.587 -0.2293 -0.1644  0.0413
 4939SOL    HW126276   2.861   0.258   5.659  0.6627 -0.4256 -0.6899
 4939SOL    HW226277   2.823   0.159   5.564  1.0183  0.6459 -1.7981
 4940SOL     OW26278   0.089   2.394   2.904 -0.1460  0.0325 -0.6372
 4940SOL    HW126279   0.072   2.474   2.854 -0.7707  0.9071  0.9729
 4940SOL    HW226280   0.114   2.427   2.991  0.5762  0.0761 -0.8633
 4941SOL     OW26281   2.168   1.991   9.080  0.0132 -0.0879 -0.0769
 4941SOL    HW126282   2.245   2.044   9.059  0.6675 -1.4229 -1.0232
 4941SOL    HW226283   2.181   1.916   9.022 -1.0251 -1.2933  1.2285
 4942SOL     OW26284   2.390   0.676   5.231  0.2482 -0.4511 -0.5130
 4942SOL    HW126285   2.385   0.644   5.141  0.9509 -0.1218 -0.6645
 4942SOL    HW226286   2.338   0.609   5.275  1.1203 -1.6891 -1.3903
 4943SOL     OW26287   3.603   2.313   8.325 -0.6931  0.2696 -0.0460
 4943SOL    HW126288   3.541   2.379   8.295  0.6329  0.7415 -1.7709
 4943SOL    HW226289   3.662   2.368   8.376 -1.1785  2.2505 -1.6508
 4944SOL     OW26290   0.239   2.614   6.214  0.4985  0.5699 -0.2706
 4944SOL    HW126291   0.171   2.583   6.274 -0.7490  1.9603 -0.9759
 4944SOL    HW226292   0.274   2.678   6.277 -0.7547  1.2975 -0.3190
 4945SOL     OW26293   2.235   3.258  14.252  0.1593  0.2181  0.2779
 4945SOL    HW126294   2.145   3.270  14.222 -0.5248 -0.1374  2.1878
 4945SOL    HW226295   2.215   3.243  14.345 -0.1520 -0.2174  0.1395
 4946SOL     OW26296   0.695   2.603   6.341 -0.2800  0.4900 -0.4928
 4946SOL    HW126297   0.734   2.560   6.264  0.1300  0.9908 -0.5630
 4946SOL    HW226298   0.776   2.625   6.388 -0.6232  1.0923 -0.1943
 4947SOL     OW26299   4.303   3.357   3.579 -0.3135 -0.4496  0.7042
 4947SOL    HW126300   4.314   3.359   3.674  1.0162  0.6670  0.5208
 4947SOL    HW226301   4.323   3.448   3.556 -0.7111 -0.5089  0.1420
 4948SOL     OW26302   4.222   1.880  12.925 -0.5066  0.1123  0.1345
 4948SOL    HW126303   4.209   1.892  13.019 -0.8727  1.3354 -0.0738
 4948SOL    HW226304   4.136   1.849  12.896 -0.5895  0.5928 -0.1209
 4949SOL     OW26305   4.017   3.577   8.151  0.4692 -0.9529 -0.4891
 4949SOL    HW126306   4.003   3.500   8.096 -2.3980 -0.3520 -0.5647
 4949SOL    HW226307   4.023   3.536   8.237  1.0131  0.4892  0.1656
 4950SOL     OW26308   2.180   0.461  11.522 -0.2895  0.5783 -0.4485
 4950SOL    HW126309   2.221   0.386  11.566  0.3265  0.8989 -0.4748
 4950SOL    HW226310   2.242   0.530  11.544 -0.8602  1.0910 -0.4578
 4951SOL     OW26311   2.551   1.077   9.636 -0.7081  0.4155 -0.1143
 4951SOL    HW126312   2.595   1.067   9.552 -0.1101 -0.4153  0.3043
 4951SOL    HW226313   2.539   1.172   9.641 -2.5194  0.1714  0.5058
 4952SOL     OW26314   3.093   3.828   4.029  0.1077  0.3574  0.3051
 4952SOL    HW126315   3.057   3.779   4.103 -0.1043 -2.3344 -1.5628
 4952SOL    HW226316   3.031   3.898   4.009 -0.6423  0.1920  2.0407
 4953SOL     OW26317   0.298   3.533   0.605 -0.1618 -0.0522  0.2567
 4953SOL    HW126318   0.244   3.610   0.583 -0.7823 -1.3886 -2.9401
 4953SOL    HW226319   0.373   3.540   0.547  1.6745 -0.4277  2.6017
 4954SOL     OW26320   0.963   3.102   4.802  0.0831 -0.1211  0.2270
 4954SOL    HW126321   0.876   3.092   4.762 -0.1956  1.0023  0.5673
 4954SOL    HW226322   1.015   3.150   4.738  0.3851 -0.8654 -0.0917
 4955SOL     OW26323   3.736   2.872  15.216  0.5892 -0.1949 -0.5121
 4955SOL    HW126324   3.796   2.944  15.194  0.3156  0.1510 -0.1231
 4955SOL    HW226325   3.801   2.801  15.212 -1.7607 -2.4436  1.3093
 4956SOL     OW26326   2.594   1.003   0.655 -0.3166 -0.4006 -0.0552
 4956SOL    HW126327   2.572   1.045   0.571 -0.0851  0.3545  0.2595
 4956SOL    HW226328   2.687   1.023   0.658 -0.3926 -0.2896  1.7372
 4957SOL     OW26329   4.082   2.796   4.325 -0.0177 -0.0656  0.8541
 4957SOL    HW126330   3.992   2.773   4.300 -0.1641  1.5789 -0.1742
 4957SOL    HW226331   4.082   2.764   4.415  1.5530 -1.3288  0.3997
 4958SOL     OW26332   0.337   4.221   7.567  0.6830  0.4048  0.0112
 4958SOL    HW126333   0.302   4.245   7.653 -2.4882 -0.9874 -0.9219
 4958SOL    HW226334   0.430   4.220   7.591 -0.3189 -2.3045  3.7974
 4959SOL     OW26335   1.872   4.645   6.209  0.2240 -0.0946  0.1881
 4959SOL    HW126336   1.922   0.004   6.224 -1.2655  1.2669 -2.0305
 4959SOL    HW226337   1.812   4.645   6.284 -2.2312 -0.5377 -1.7525
 4960SOL     OW26338   4.597   0.441  16.416 -0.0637 -0.0271  0.5438
 4960SOL    HW126339   4.506   0.457  16.391  0.7323  2.7144 -0.6018
 4960SOL    HW226340   4.595   0.348  16.436  0.5398 -0.2812 -0.6146
 4961SOL     OW26341   1.927   3.145   1.267  0.4664 -0.2902 -0.3615
 4961SOL    HW126342   1.945   3.064   1.314  1.8684  0.4474  0.3968
 4961SOL    HW226343   1.874   3.190   1.333  1.6837 -2.2615  1.9678
 4962SOL     OW26344   0.928   4.253  16.988  0.2752 -0.1543 -0.3639
 4962SOL    HW126345   0.970   4.198  16.922 -2.4574 -2.6349 -0.0231
 4962SOL    HW226346   0.834   4.248  16.970  0.2029  0.0839 -0.0582
 4963SOL     OW26347   0.004   0.684   6.615  0.1132  0.6336 -0.5848
 4963SOL    HW126348   4.712   0.772   6.579  2.1716  0.8593 -0.8069
 4963SOL    HW226349   4.638   0.645   6.620  0.3089  0.2011 -0.5213
 4964SOL     OW26350   1.190   2.682   3.256  0.3547 -0.1702  0.9565
 4964SOL    HW126351   1.278   2.661   3.286  1.2393 -0.5866 -1.9456
 4964SOL    HW226352   1.136   2.604   3.271 -1.3131  0.5866 -1.0221
 4965SOL     OW26353   3.657   0.140   6.962 -0.2525  0.1617 -0.0188
 4965SOL    HW126354   3.628   0.052   6.987  0.6924 -0.0087  0.5097
 4965SOL    HW226355   3.582   0.199   6.969 -0.3880  0.0394 -0.4569
 4966SOL     OW26356   0.755   2.813   8.201 -0.2245 -0.0598  0.4123
 4966SOL    HW126357   0.844   2.847   8.206  0.4138 -1.6685  0.0743
 4966SOL    HW226358   0.713   2.898   8.211 -1.8052 -0.9398  1.3893
 4967SOL     OW26359   3.483   0.998   7.715  0.1491 -0.2199 -0.1066
 4967SOL    HW126360   3.527   1.082   7.708  0.1878 -0.1255  1.4528
 4967SOL    HW226361   3.547   0.946   7.763 -1.7060 -0.1842  2.3929
 4968SOL     OW26362   3.317   3.981   4.118 -0.1431  0.3198 -0.2190
 4968SOL    HW126363   3.266   3.936   4.051  2.5229 -3.0632  0.0175
 4968SOL    HW226364   3.291   3.926   4.193 -0.4935  0.9260  0.0976
 4969SOL     OW26365   1.055   3.843   8.488 -0.2099  0.1017 -0.1630
 4969SOL    HW126366   1.088   3.857   8.576  0.9269  1.7423 -0.8682
 4969SOL    HW226367   1.115   3.772   8.467 -0.7502 -0.1460 -0.8984
 4970SOL     OW26368   0.032   2.056  15.355  0.3657  0.1655 -0.2572
 4970SOL    HW126369   0.016   2.144  15.322 -0.2158 -0.3524 -1.3762
 4970SOL    HW226370   0.026   2.064  15.450 -0.8923 -1.6199 -0.1675
 4971SOL     OW26371   3.952   0.149   8.714  0.8458  0.1400  0.3065
 4971SOL    HW126372   3.996   0.201   8.647  1.1179  0.2279  0.5551
 4971SOL    HW226373   4.013   0.146   8.787  0.3539  0.6006  0.7298
 4972SOL     OW26374   2.737   1.199  11.346  1.1429  0.6607 -0.2864
 4972SOL    HW126375   2.758   1.284  11.384 -1.1240  1.5503 -1.0280
 4972SOL    HW226376   2.729   1.225  11.254 -0.3200 -1.8552 -0.8880
 4973SOL     OW26377   3.288   2.254   5.447 -0.1635 -0.4987  0.0806
 4973SOL    HW126378   3.248   2.220   5.366  0.6139  1.4957 -1.1192
 4973SOL    HW226379   3.335   2.177   5.478  2.2550  0.3844 -1.4518
 4974SOL     OW26380   0.927   4.221  17.628 -0.1115  0.2990  0.2695
 4974SOL    HW126381   0.999   4.244  17.687 -1.1938  1.5951  1.0696
 4974SOL    HW226382   0.867   4.295  17.632 -1.1019 -0.3869 -2.0746
 4975SOL     OW26383   2.786   3.584   8.684  0.5217 -0.2004 -0.1403
 4975SOL    HW126384   2.747   3.662   8.645  1.9251  0.1228 -0.8949
 4975SOL    HW226385   2.816   3.628   8.764 -1.5828 -0.2520  0.6732
 4976SOL     OW26386   4.088   2.149   6.249 -0.3812 -0.2414  0.1362
 4976SOL    HW126387   4.049   2.062   6.255  1.9352 -1.2355  0.6666
 4976SOL    HW226388   4.135   2.154   6.166 -0.5386 -2.1194 -0.0495
 4977SOL     OW26389   3.337   1.245  14.572 -0.0321 -0.3713 -0.0551
 4977SOL    HW126390   3.346   1.312  14.640  0.8945 -0.0208 -0.5248
 4977SOL    HW226391   3.328   1.163  14.622  3.1218  0.4094  1.7848
 4978SOL     OW26392   3.891   1.445   8.687 -0.9449  0.1644  0.0110
 4978SOL    HW126393   3.841   1.500   8.748 -2.8525 -0.5912 -0.8739
 4978SOL    HW226394   3.925   1.375   8.743  1.7960  0.6415 -1.0679
 4979SOL     OW26395   4.093   0.203   8.950 -0.2635  0.3674  0.3963
 4979SOL    HW126396   4.170   0.154   8.978 -1.1017 -1.6246 -0.8304
 4979SOL    HW226397   4.128   0.292   8.941  0.5964 -0.0678 -0.6081
 4980SOL     OW26398   2.265   3.638   5.434  0.2109 -0.0191  0.2030
 4980SOL    HW126399   2.211   3.625   5.512 -2.6887 -0.7874 -1.9190
 4980SOL    HW226400   2.243   3.564   5.377  2.0123 -0.3691 -0.0168
 4981SOL     OW26401   4.645   3.814   5.569 -0.3661  0.0612 -0.0824
 4981SOL    HW126402   4.596   3.864   5.635 -0.5838 -1.0616  0.6155
 4981SOL    HW226403   4.681   3.883   5.514 -2.3981  0.8084 -0.4681
 4982SOL     OW26404   3.302   0.305   7.938 -0.3502  0.0928 -0.0757
 4982SOL    HW126405   3.306   0.401   7.944 -0.5048  0.0703  0.4155
 4982SOL    HW226406   3.206   0.299   7.944 -0.4609  0.5831 -1.2425
 4983SOL     OW26407   2.881   4.667   7.901  0.4015  0.4991  0.0237
 4983SOL    HW126408   2.803   4.615   7.918  1.1079  0.5010  3.2928
 4983SOL    HW226409   2.944   4.600   7.929 -0.1568  0.3543  0.9239
 4984SOL     OW26410   3.912   3.907   4.793 -0.3856 -0.3497 -0.0365
 4984SOL    HW126411   3.927   3.817   4.825 -0.2943 -0.4179 -0.2719
 4984SOL    HW226412   3.918   3.898   4.698 -0.6779 -2.1828  0.1048
 4985SOL     OW26413   4.248   2.990  10.356  0.1673 -0.1455  0.0786
 4985SOL    HW126414   4.163   3.034  10.349  0.5524  0.4567 -0.7884
 4985SOL    HW226415   4.231   2.921  10.420  0.7828 -1.5223 -1.2677
 4986SOL     OW26416   2.005   1.840   8.202 -0.0952 -0.6456  0.0798
 4986SOL    HW126417   1.985   1.838   8.109  3.4081  1.8116 -0.7498
 4986SOL    HW226418   2.101   1.842   8.202 -0.1477  1.8856 -1.7245
 4987SOL     OW26419   1.510   3.360   1.949  0.6730 -0.1280 -0.0478
 4987SOL    HW126420   1.464   3.276   1.955  2.6149 -1.1990 -0.3969
 4987SOL    HW226421   1.601   3.339   1.968 -0.3989 -1.3922  3.9210
 4988SOL     OW26422   0.958   1.293   7.030  0.1825 -0.0866 -0.0788
 4988SOL    HW126423   0.990   1.236   7.099 -0.6280  0.6649  0.9294
 4988SOL    HW226424   1.025   1.308   6.964 -0.3679 -2.8738 -1.2764
 4989SOL     OW26425   0.087   0.780   6.082  0.4760 -0.2507  0.1412
 4989SOL    HW126426   0.002   0.824   6.075  1.5641  1.8662  0.0505
 4989SOL    HW226427   0.105   0.806   6.172 -2.7781 -0.2054  0.7818
 4990SOL     OW26428   1.677   0.213  10.234 -0.3191 -0.5064  0.1795
 4990SOL    HW126429   1.718   0.194  10.150 -0.2006 -1.9229  0.5582
 4990SOL    HW226430   1.676   0.121  10.262 -0.3723 -1.5592 -3.2308
 4991SOL     OW26431   0.677   0.158   2.548  0.2488  0.3142  0.4955
 4991SOL    HW126432   0.644   0.078   2.505  4.0900 -0.5128 -0.8775
 4991SOL    HW226433   0.706   0.121   2.631 -0.6399  0.5758  0.9233
 4992SOL     OW26434   4.641   0.941   1.835 -0.3255  0.0556  0.3107
 4992SOL    HW126435   4.670   0.918   1.747 -4.4510  1.5794 -1.4659
 4992SOL    HW226436   4.709   0.997   1.873  1.0584 -0.7135 -1.0740
 4993SOL     OW26437   2.487   1.636  16.832  0.1562 -0.1821 -0.6571
 4993SOL    HW126438   2.409   1.672  16.875 -0.5737 -1.1550 -1.1628
 4993SOL    HW226439   2.550   1.660  16.899 -0.4776 -0.1568 -0.0660
 4994SOL     OW26440   4.543   3.127  14.201 -0.7098  0.0575  0.2129
 4994SOL    HW126441   4.532   3.176  14.283 -0.2938 -0.8686  0.8280
 4994SOL    HW226442   4.585   3.190  14.143 -0.4144 -1.2848 -1.0338
 4995SOL     OW26443   3.593   2.126   4.071 -0.6459  0.7742  0.2490
 4995SOL    HW126444   3.538   2.051   4.047 -0.2861  0.4898  0.3207
 4995SOL    HW226445   3.605   2.123   4.165 -2.6762  0.1335  0.4845
 4996SOL     OW26446   0.715   2.214  13.969  0.2096  0.5739  0.5141
 4996SOL    HW126447   0.710   2.251  13.881  0.7079 -0.2884  0.1245
 4996SOL    HW226448   0.796   2.256  13.997  0.1063  0.8705  0.3644
 4997SOL     OW26449   1.803   3.471   3.598 -0.2778 -0.2469 -0.3492
 4997SOL    HW126450   1.892   3.501   3.618 -0.2981  1.0081 -2.1682
 4997SOL    HW226451   1.786   3.529   3.524 -1.7683 -1.3127 -0.8500
 4998SOL     OW26452   0.700   1.660   7.767  0.2620 -0.1128 -0.2489
 4998SOL    HW126453   0.632   1.611   7.720  0.9380 -0.7946 -0.5207
 4998SOL    HW226454   0.645   1.714   7.824 -0.7720 -1.0046 -0.3991
 4999SOL     OW26455   2.148   2.340   1.718  0.2448 -0.1668  0.3154
 4999SOL    HW126456   2.061   2.325   1.681  0.4507  2.3588 -1.1907
 4999SOL    HW226457   2.134   2.352   1.812  3.1598  1.3208  0.5621
 5000SOL     OW26458   1.011   1.315  14.198  0.0602  0.1769  0.3158
 5000SOL    HW126459   0.932   1.290  14.150  1.0625 -2.6760  0.1359
 5000SOL    HW226460   1.055   1.234  14.226 -1.6515 -0.4832  1.1515
 5001SOL     OW26461   3.804   2.108   0.168  0.0636 -0.3245 -0.0435
 5001SOL    HW126462   3.866   2.150   0.107 -1.3145  1.2812 -0.3379
 5001SOL    HW226463   3.726   2.106   0.113  0.2158 -2.1400 -0.1808
 5002SOL     OW26464   0.705   4.362   7.702 -0.1889  0.1066  0.7110
 5002SOL    HW126465   0.671   4.316   7.779 -1.3492  1.4512  0.9846
 5002SOL    HW226466   0.795   4.330   7.710 -0.5098 -0.1985  3.1663
 5003SOL     OW26467   0.874   3.261   8.048  0.4363  0.2411  0.0083
 5003SOL    HW126468   0.903   3.189   7.991  2.1118  0.8724  0.0829
 5003SOL    HW226469   0.944   3.259   8.112  0.5520 -1.5201 -0.1831
 5004SOL     OW26470   0.950   2.493   3.004 -0.1555  0.4695  0.0206
 5004SOL    HW126471   0.996   2.570   2.970 -2.5280  0.1203 -4.1085
 5004SOL    HW226472   0.864   2.535   3.007 -0.4451 -0.1275  0.1856
 5005SOL     OW26473   2.474   0.619   6.445 -0.6444 -0.0848 -0.2424
 5005SOL    HW126474   2.488   0.710   6.473  1.0067 -0.8353  1.4112
 5005SOL    HW226475   2.424   0.632   6.365  1.3352  2.3671 -1.1031
 5006SOL     OW26476   4.357   3.538   9.438  0.0799  0.4522  0.3310
 5006SOL    HW126477   4.329   3.616   9.486  1.5980  1.4621 -0.4567
 5006SOL    HW226478   4.445   3.530   9.474  0.6186 -1.1768 -1.3280
 5007SOL     OW26479   3.646   0.769   6.441  0.5366  0.4260 -0.1686
 5007SOL    HW126480   3.675   0.840   6.385 -1.7153  0.8852 -0.7502
 5007SOL    HW226481   3.726   0.746   6.488 -0.7748 -0.0235  1.8466
 5008SOL     OW26482   0.938   2.200   6.554 -0.3721  0.1897 -0.2350
 5008SOL    HW126483   0.903   2.144   6.484 -0.6981  0.5718 -0.3821
 5008SOL    HW226484   1.000   2.250   6.502  0.6006 -0.6805  0.0951
 5009SOL     OW26485   0.407   2.492   1.700 -0.1346 -0.3496 -0.2010
 5009SOL    HW126486   0.374   2.488   1.790  0.0941 -2.8706 -0.2111
 5009SOL    HW226487   0.339   2.443   1.655  0.9569 -1.0212 -1.1290
 5010SOL     OW26488   0.659   1.988   8.798  0.2598  0.2634 -0.1109
 5010SOL    HW126489   0.744   1.970   8.839  0.5028 -0.0280 -0.7486
 5010SOL    HW226490   0.663   2.083   8.813 -3.4065  0.2430  1.0085
 5011SOL     OW26491   1.694   3.338   6.499  0.4499 -0.4345 -0.6858
 5011SOL    HW126492   1.705   3.245   6.522 -0.0348 -0.0274  1.1237
 5011SOL    HW226493   1.775   3.346   6.448 -0.1900  0.0928 -1.6298
 5012SOL     OW26494   2.878   3.009  10.846  0.2794  0.1929 -0.1284
 5012SOL    HW126495   2.833   2.937  10.802 -0.0698 -0.8814  1.9479
 5012SOL    HW226496   2.841   2.992  10.933  1.1021  0.7005  0.3312
 5013SOL     OW26497   0.496   0.986   2.355  0.9704 -0.0376 -0.1203
 5013SOL    HW126498   0.537   0.954   2.435 -1.9351 -2.5595  0.3384
 5013SOL    HW226499   0.405   0.970   2.379  1.0443 -0.5345 -0.1715
 5014SOL     OW26500   2.465   3.596   3.198  0.2111  0.3773 -0.5196
 5014SOL    HW126501   2.452   3.620   3.290 -0.0808 -0.1826 -0.4174
 5014SOL    HW226502   2.400   3.654   3.156 -2.7491 -1.6983  1.2172
 5015SOL     OW26503   1.796   4.199   9.992  0.6436 -0.5287 -0.3157
 5015SOL    HW126504   1.731   4.223  10.058  0.8344  0.8840 -0.6445
 5015SOL    HW226505   1.867   4.255  10.022 -0.7061  1.1405 -0.2288
 5016SOL     OW26506   3.575   0.908  13.987 -0.2852 -0.0596 -0.1012
 5016SOL    HW126507   3.496   0.898  13.933 -1.2205  1.5485  0.9938
 5016SOL    HW226508   3.551   0.976  14.050  1.9376 -1.1401  1.9134
 5017SOL     OW26509   0.760   1.879   9.695  0.2902  0.2127 -0.4092
 5017SOL    HW126510   0.673   1.866   9.733 -0.8125 -0.3974 -3.1451
 5017SOL    HW226511   0.787   1.791   9.669 -0.6274 -0.1576 -0.1138
 5018SOL     OW26512   3.083   4.591   0.993  0.3578 -0.4321 -0.6451
 5018SOL    HW126513   3.080   4.505   1.033 -2.5795 -0.5511 -1.1642
 5018SOL    HW226514   3.118   4.639   1.068 -0.8836  1.6628 -1.3920
 5019SOL     OW26515   1.274   4.435   3.287 -0.8814  0.9361  0.1335
 5019SOL    HW126516   1.188   4.472   3.266 -0.7974  1.2021  0.2493
 5019SOL    HW226517   1.308   4.408   3.203 -0.3750  2.2779 -0.0910
 5020SOL     OW26518   2.468   0.017   0.837 -0.0601  0.1411  0.0816
 5020SOL    HW126519   2.373   0.017   0.823 -0.3145 -1.4669  1.9799
 5020SOL    HW226520   2.489   0.099   0.883 -0.6023  0.7175 -0.6813
 5021SOL     OW26521   4.290   2.181   8.207 -0.3856  0.5829  0.7014
 5021SOL    HW126522   4.327   2.202   8.292 -2.5084  3.7183  0.8243
 5021SOL    HW226523   4.320   2.243   8.141  0.2694 -0.9635 -0.4696
 5022SOL     OW26524   2.335   2.543  15.960 -0.0225  0.4648  0.1699
 5022SOL    HW126525   2.355   2.568  16.050  2.0651 -1.4744  0.2303
 5022SOL    HW226526   2.396   2.470  15.951 -0.2378  0.5188 -1.7743
 5023SOL     OW26527   4.551   1.942   2.577  0.2467  0.6456  0.3374
 5023SOL    HW126528   4.531   1.850   2.597  3.0549 -0.0158  0.0981
 5023SOL    HW226529   4.526   1.963   2.667  1.4586  0.7887  0.6418
 5024SOL     OW26530   3.919   0.825   2.708 -0.2633 -0.2748  0.0287
 5024SOL    HW126531   3.990   0.767   2.681 -0.1399  1.0807 -2.5879
 5024SOL    HW226532   3.870   0.833   2.626  0.3684 -0.0012 -0.3210
 5025SOL     OW26533   4.612   0.948   6.084 -0.6344 -0.6027 -0.3947
 5025SOL    HW126534   4.562   0.953   6.003 -0.2517 -2.9173 -0.7672
 5025SOL    HW226535   4.635   1.040   6.095 -2.4430 -0.3897  1.4957
 5026SOL     OW26536   1.648   3.046   1.866 -0.5127  0.2073 -0.0130
 5026SOL    HW126537   1.721   2.985   1.879 -1.1839 -0.3016  1.4657
 5026SOL    HW226538   1.692   3.125   1.895  2.9513 -1.2103 -1.4500
 5027SOL     OW26539   1.066   2.858   5.490  0.2036 -0.4875  0.6086
 5027SOL    HW126540   1.146   2.809   5.510  0.8484 -0.5099 -2.0126
 5027SOL    HW226541   1.008   2.810   5.550  0.4689 -1.5669  0.0083
 5028SOL     OW26542   2.724   3.655   5.034 -0.7023  0.2580  0.9341
 5028SOL    HW126543   2.651   3.600   5.004  1.5403 -2.3863  0.3212
 5028SOL    HW226544   2.765   3.596   5.096 -0.6699 -0.0078  0.6607
 5029SOL     OW26545   0.770   4.486  17.122  0.0214  0.7952 -0.0869
 5029SOL    HW126546   0.726   4.408  17.088 -0.0690  1.0756 -0.6130
 5029SOL    HW226547   0.830   4.439  17.181 -1.2210 -1.5427 -0.6596
 5030SOL     OW26548   2.914   0.024  13.572 -0.5054  0.5232  0.0393
 5030SOL    HW126549   2.836   0.054  13.618 -1.0669 -2.7301  1.2183
 5030SOL    HW226550   2.932   4.672  13.631 -1.6579  0.7684  0.6893
 5031SOL     OW26551   1.323   0.755   7.846 -0.3918  0.4053  0.2289
 5031SOL    HW126552   1.263   0.690   7.809  1.0026 -0.1774 -1.0291
 5031SOL    HW226553   1.402   0.726   7.799 -1.5032  0.1818 -1.4988
 5032SOL     OW26554   2.390   1.135   6.346 -0.6450 -0.1248  0.3472
 5032SOL    HW126555   2.358   1.205   6.287 -2.5580 -0.9950  0.3534
 5032SOL    HW226556   2.431   1.191   6.411  3.0992 -1.0636 -1.2041
 5033SOL     OW26557   3.678   3.708   4.761  0.1982  0.2983  0.5785
 5033SOL    HW126558   3.673   3.663   4.677 -1.1349  0.0159  0.8189
 5033SOL    HW226559   3.603   3.674   4.809 -0.7362 -0.2178 -1.2613
 5034SOL     OW26560   3.702   3.148   4.431 -0.0968  0.3118 -0.1097
 5034SOL    HW126561   3.662   3.071   4.391  2.1533  0.1357 -2.0346
 5034SOL    HW226562   3.678   3.138   4.524 -0.3449  2.1247  0.0190
 5035SOL     OW26563   1.506   0.829   8.338  0.0760  0.6162 -0.8373
 5035SOL    HW126564   1.530   0.867   8.253 -0.3288 -1.3750 -1.8544
 5035SOL    HW226565   1.434   0.889   8.356 -0.8445 -0.4737 -0.8789
 5036SOL     OW26566   4.393   3.561   2.323 -0.2824 -0.0746 -0.0105
 5036SOL    HW126567   4.422   3.652   2.329 -1.2847  0.3498 -1.6708
 5036SOL    HW226568   4.475   3.518   2.346 -1.1233 -1.0491  1.1535
 5037SOL     OW26569   4.199   1.499   8.503 -0.2313  0.1273 -0.5289
 5037SOL    HW126570   4.109   1.531   8.508  0.0443  0.7155  0.6753
 5037SOL    HW226571   4.185   1.405   8.492 -0.6449 -0.0974  1.8203
 5038SOL     OW26572   1.279   0.622   8.159  0.1256 -0.5328 -0.6806
 5038SOL    HW126573   1.288   0.677   8.237 -0.3068  0.1579 -1.1097
 5038SOL    HW226574   1.347   0.665   8.107 -0.4590  0.3001 -0.7708
 5039SOL     OW26575   2.667   4.449   2.310 -0.1230  0.4027 -0.4728
 5039SOL    HW126576   2.732   4.468   2.377  0.3186 -0.6475 -0.6014
 5039SOL    HW226577   2.621   4.384   2.363 -0.8798  0.1099 -1.4726
 5040SOL     OW26578   4.424   4.420   0.248 -0.3047  0.8547  0.2301
 5040SOL    HW126579   4.518   4.432   0.239 -0.5555  0.8314 -2.3922
 5040SOL    HW226580   4.413   4.338   0.296  0.9318 -0.5009 -1.8002
 5041SOL     OW26581   4.088   0.922   5.445  0.4174  0.8431 -0.1519
 5041SOL    HW126582   4.002   0.922   5.486  0.9728 -1.1576  1.0066
 5041SOL    HW226583   4.134   0.867   5.509 -3.2326 -1.8411  0.1796
 5042SOL     OW26584   4.288   1.275   9.540 -0.2415 -0.3697 -0.2638
 5042SOL    HW126585   4.380   1.254   9.530  0.2224  1.9018 -0.7416
 5042SOL    HW226586   4.295   1.219   9.617 -0.8845 -1.2255 -0.8357
 5043SOL     OW26587   2.585   1.212  13.830  0.0576  0.1358  0.0920
 5043SOL    HW126588   2.552   1.213  13.740 -4.2971  0.7706  1.6909
 5043SOL    HW226589   2.589   1.305  13.852 -2.8237 -0.0240  1.3381
 5044SOL     OW26590   1.349   2.036   3.540  0.0720 -0.1564  0.1344
 5044SOL    HW126591   1.341   2.002   3.630 -1.9807 -0.9020 -0.3388
 5044SOL    HW226592   1.426   2.090   3.556  0.4271 -0.5070 -0.3952
 5045SOL     OW26593   3.179   3.036   5.276  0.5011  0.1961  0.5996
 5045SOL    HW126594   3.222   3.113   5.313  1.6891 -0.0366 -0.3031
 5045SOL    HW226595   3.087   3.065   5.275  0.4420 -0.0056 -0.4514
 5046SOL     OW26596   1.985   1.842   8.685  0.0590 -0.5776 -0.2044
 5046SOL    HW126597   1.967   1.748   8.674  0.7085 -0.8227  0.8149
 5046SOL    HW226598   2.080   1.847   8.673  0.1025 -0.0673  0.3924
 5047SOL     OW26599   1.907   4.531   8.755 -0.2018 -0.7803  0.1585
 5047SOL    HW126600   1.903   4.486   8.839 -0.4232 -1.5203 -0.2470
 5047SOL    HW226601   1.846   4.487   8.696  0.0526  1.1581 -1.5653
 5048SOL     OW26602   1.070   2.137   5.486 -0.1294 -0.1325  0.3990
 5048SOL    HW126603   1.165   2.130   5.499  0.1267 -0.6815 -1.6919
 5048SOL    HW226604   1.052   2.216   5.537  0.6544 -0.0530  0.5554
 5049SOL     OW26605   4.236   4.721   2.862 -0.4755 -0.0879 -0.3033
 5049SOL    HW126606   4.257   4.684   2.947  0.9264  0.4424 -0.4244
 5049SOL    HW226607   4.183   0.068   2.902  0.3823 -0.2896  1.1667
 5050SOL     OW26608   4.018   4.544   1.571  0.0174  0.1606  0.2488
 5050SOL    HW126609   4.084   4.593   1.523  0.7679 -0.6622  0.4298
 5050SOL    HW226610   3.954   4.531   1.501 -0.5984 -1.5849  1.1236
 5051SOL     OW26611   0.672   2.855   1.280  0.2413 -0.2452 -0.2346
 5051SOL    HW126612   0.666   2.946   1.253 -0.1739  0.1886  1.2942
 5051SOL    HW226613   0.665   2.828   1.189  0.6768  0.5496 -0.5045
 5052SOL     OW26614   1.028   1.277  15.579 -0.3994  0.4413 -0.8401
 5052SOL    HW126615   1.099   1.317  15.530 -1.5358 -1.2505 -3.8713
 5052SOL    HW226616   0.961   1.345  15.580  0.5025  1.3563 -2.2634
 5053SOL     OW26617   0.425   1.702   6.318  0.3302 -0.1724 -0.1328
 5053SOL    HW126618   0.364   1.690   6.245 -0.4152  0.6999  0.3513
 5053SOL    HW226619   0.367   1.676   6.389  0.2041  0.3533 -0.0509
 5054SOL     OW26620   0.232   3.164  14.819 -0.7895 -0.1151 -0.0758
 5054SOL    HW126621   0.268   3.181  14.906  2.5188  0.2412 -1.4927
 5054SOL    HW226622   0.310   3.127  14.776 -0.3056 -1.6020  2.0542
 5055SOL     OW26623   4.700   2.587   0.090 -0.1340 -0.2848 -0.0568
 5055SOL    HW126624   4.662   2.527   0.154  0.0582 -0.7733 -0.3889
 5055SOL    HW226625   0.007   2.647   0.158 -1.2272 -0.8812  0.9296
 5056SOL     OW26626   3.236   0.686   0.893 -0.5031  0.7520 -0.0256
 5056SOL    HW126627   3.259   0.724   0.977 -0.2376  3.4183 -1.3005
 5056SOL    HW226628   3.311   0.629   0.873 -1.0196  0.1496 -0.2695
 5057SOL     OW26629   4.368   2.130   8.718 -0.2761  0.1242 -0.0728
 5057SOL    HW126630   4.317   2.064   8.764  1.6561 -0.5658  1.0589
 5057SOL    HW226631   4.438   2.151   8.781  1.1819  0.0583 -1.6805
 5058SOL     OW26632   0.734   2.148   5.340 -0.0855  0.0265  0.4203
 5058SOL    HW126633   0.748   2.172   5.248 -1.9238  0.2759  0.2090
 5058SOL    HW226634   0.681   2.069   5.331 -0.2929  0.3000 -0.7670
 5059SOL     OW26635   4.190   2.353  10.681  1.0143 -0.5286  0.0952
 5059SOL    HW126636   4.248   2.391  10.746 -1.1777  1.9376  0.6080
 5059SOL    HW226637   4.111   2.344  10.734  1.1382  1.5002  0.6244
 5060SOL     OW26638   1.764   1.830   7.213 -0.1808  0.1741  0.3773
 5060SOL    HW126639   1.695   1.892   7.235  1.2951  2.3750 -1.2439
 5060SOL    HW226640   1.756   1.756   7.274  1.0040  0.8648  1.3865
 5061SOL     OW26641   3.561   2.094   1.238 -0.5615  0.7638  0.0894
 5061SOL    HW126642   3.549   2.186   1.260  0.1222  0.6591  0.9096
 5061SOL    HW226643   3.642   2.078   1.287 -2.7186  1.0786  3.7065
 5062SOL     OW26644   4.496   1.713   2.725  0.1593 -0.1882 -0.5661
 5062SOL    HW126645   4.513   1.632   2.677 -2.0155 -1.2072  0.3571
 5062SOL    HW226646   4.418   1.694   2.777  1.3931 -0.5547  1.1621
 5063SOL     OW26647   0.452   3.854   6.807 -0.2022  0.3183 -0.3035
 5063SOL    HW126648   0.375   3.909   6.796 -0.4565  0.3025  1.4593
 5063SOL    HW226649   0.414   3.797   6.873  0.3385  1.1483  0.7188
 5064SOL     OW26650   4.631   4.265  10.176 -0.1010 -0.3092  0.2221
 5064SOL    HW126651   4.635   4.244  10.269  3.4188 -0.2025  0.1040
 5064SOL    HW226652   4.681   4.195  10.134  0.3196 -0.2381  0.6013
 5065SOL     OW26653   3.451   3.474   8.660  0.2844  0.2880  0.8288
 5065SOL    HW126654   3.540   3.496   8.632 -0.3918  1.0364 -0.7231
 5065SOL    HW226655   3.478   3.389   8.695  1.5346  0.8327  1.2041
 5066SOL     OW26656   3.122   0.266  14.917  0.3043 -0.3584  0.0707
 5066SOL    HW126657   3.057   0.254  14.987  0.5814  2.6370  0.8363
 5066SOL    HW226658   3.072   0.237  14.840 -0.6544 -0.2001  0.6328
 5067SOL     OW26659   2.714   2.305  10.825 -0.6064 -0.3944  0.1307
 5067SOL    HW126660   2.671   2.220  10.829 -3.2416  0.8147 -2.1990
 5067SOL    HW226661   2.801   2.287  10.791 -0.8079  1.3127 -1.3132
 5068SOL     OW26662   4.350   1.135   5.617 -0.0254 -0.3394  0.3260
 5068SOL    HW126663   4.419   1.179   5.567 -0.5076 -1.6999 -1.5353
 5068SOL    HW226664   4.312   1.089   5.542 -1.9642 -0.2231  1.2135
 5069SOL     OW26665   0.656   3.277   2.465  0.0181 -0.4813 -0.4941
 5069SOL    HW126666   0.610   3.266   2.382 -2.6495  3.4304  0.4733
 5069SOL    HW226667   0.584   3.316   2.515  0.3319 -0.1836 -0.2676
 5070SOL     OW26668   0.893   0.181   3.224 -0.2446  0.2870  0.1814
 5070SOL    HW126669   0.907   0.096   3.265  0.3031  0.4767  0.3834
 5070SOL    HW226670   0.851   0.235   3.291  0.9009  0.6079  0.6272
 5071SOL     OW26671   4.433   2.944  15.303  0.8192 -1.0799 -0.4509
 5071SOL    HW126672   4.352   2.896  15.320  0.0865  0.1772 -0.3896
 5071SOL    HW226673   4.408   3.018  15.358  0.5834 -1.1911 -0.4110
 5072SOL     OW26674   2.610   4.527   2.047  0.0461  0.0127  0.0485
 5072SOL    HW126675   2.637   4.527   2.139  0.4515  0.4913 -0.0687
 5072SOL    HW226676   2.524   4.570   2.053  0.1397  0.3499 -0.9965
 5073SOL     OW26677   3.778   1.682   2.149 -0.4590  0.3682  0.3015
 5073SOL    HW126678   3.759   1.659   2.241  0.7864  0.4824  0.5906
 5073SOL    HW226679   3.790   1.594   2.112  1.4000  0.6895  0.1550
 5074SOL     OW26680   3.582   3.205  17.274  0.6057  0.1622  0.8170
 5074SOL    HW126681   3.596   3.154  17.354  0.7853 -0.5600  0.3263
 5074SOL    HW226682   3.613   3.140  17.212  1.5349  0.2868  1.1481
 5075SOL     OW26683   1.151   3.433   2.331  0.1060  0.3207  0.8716
 5075SOL    HW126684   1.087   3.369   2.364 -0.1364  0.0672 -0.0833
 5075SOL    HW226685   1.085   3.495   2.300  1.1687 -0.1058 -2.2738
 5076SOL     OW26686   2.344   2.774  11.575  0.3578  0.1427  0.3881
 5076SOL    HW126687   2.414   2.718  11.543  0.0441  0.1971 -0.3816
 5076SOL    HW226688   2.279   2.705  11.588 -0.0556  0.5455  0.5014
 5077SOL     OW26689   0.561   2.242   3.256  0.0235 -0.2912 -0.4641
 5077SOL    HW126690   0.647   2.282   3.245  0.9413 -2.2872 -0.5959
 5077SOL    HW226691   0.576   2.201   3.341 -2.6741 -1.2873 -0.4659
 5078SOL     OW26692   1.497   0.503  10.608  0.1624  0.1439 -0.1300
 5078SOL    HW126693   1.525   0.415  10.634 -0.3334  0.0979  0.2522
 5078SOL    HW226694   1.469   0.501  10.517 -1.9687  1.7362  0.4692
 5079SOL     OW26695   2.510   1.969   3.382  0.4626 -0.3768 -0.0563
 5079SOL    HW126696   2.526   2.062   3.403  2.2982 -0.3492 -1.6342
 5079SOL    HW226697   2.497   1.967   3.288 -1.7730 -1.2873  0.2847
 5080SOL     OW26698   0.636   2.776  14.343 -0.4438  0.2561  0.2988
 5080SOL    HW126699   0.589   2.715  14.285 -0.9242  2.9777 -2.1342
 5080SOL    HW226700   0.663   2.720  14.416  1.2122 -0.7786 -1.1116
 5081SOL     OW26701   2.154   3.992   0.805  0.0073  0.0706  0.1525
 5081SOL    HW126702   2.224   3.932   0.833 -0.6686 -1.0180 -0.4876
 5081SOL    HW226703   2.133   4.026   0.892  0.9542 -0.6358  0.6627
 5082SOL     OW26704   0.523   1.243   5.660 -0.3978  0.1249  0.2860
 5082SOL    HW126705   0.535   1.157   5.620 -1.6727 -0.2117  0.6286
 5082SOL    HW226706   0.428   1.252   5.672 -0.6078  0.8443 -1.8393
 5083SOL     OW26707   4.552   4.643   8.460 -0.3268  0.3829 -0.2505
 5083SOL    HW126708   4.580   4.718   8.407  1.0099  0.7703  0.9962
 5083SOL    HW226709   4.583   4.571   8.404  2.1618 -0.3696  2.0846
 5084SOL     OW26710   2.625   3.318   2.848 -0.4399 -0.2060  0.6382
 5084SOL    HW126711   2.635   3.392   2.788 -1.7197  0.6970  1.5243
 5084SOL    HW226712   2.644   3.359   2.933  1.4016  2.1043 -0.8844
 5085SOL     OW26713   1.322   0.329   8.554 -0.0316  0.1915  0.1157
 5085SOL    HW126714   1.350   0.417   8.531 -0.3767  0.3123  0.1511
 5085SOL    HW226715   1.236   0.342   8.595 -1.1742 -5.1584 -0.5158
 5086SOL     OW26716   3.166   1.739  10.927  0.0012 -0.3298 -0.4516
 5086SOL    HW126717   3.089   1.684  10.942  0.4472 -0.9539 -0.4537
 5086SOL    HW226718   3.242   1.689  10.957 -0.4042 -1.2264 -0.9210
 5087SOL     OW26719   2.918   2.133   1.687  0.7262 -0.2196  0.2024
 5087SOL    HW126720   3.013   2.123   1.680  1.1248  3.4799  0.0564
 5087SOL    HW226721   2.902   2.099   1.599 -0.7237 -1.0018  0.7834
 5088SOL     OW26722   4.229   2.853   5.757 -0.1095 -0.5931  0.0212
 5088SOL    HW126723   4.206   2.821   5.670 -0.6644 -1.0040  0.3176
 5088SOL    HW226724   4.163   2.921   5.765 -0.0711 -0.7568  1.6357
 5089SOL     OW26725   0.357   3.738   2.106  0.1435 -0.0830  0.1930
 5089SOL    HW126726   0.309   3.696   2.177  1.3868  1.1549  1.7574
 5089SOL    HW226727   0.443   3.705   2.133  0.4958  0.9332  0.3197
 5090SOL     OW26728   1.069   0.727  11.037  0.2107 -0.2922 -0.1460
 5090SOL    HW126729   1.070   0.637  11.071  0.4942 -0.5284 -0.7780
 5090SOL    HW226730   1.042   0.779  11.113 -0.1355  0.6875 -0.9527
 5091SOL     OW26731   1.452   0.199   5.282 -0.4589 -0.1513 -0.1383
 5091SOL    HW126732   1.428   0.114   5.320  0.4886  0.6064  2.1489
 5091SOL    HW226733   1.386   0.221   5.216 -0.6576  1.2665  0.5259
 5092SOL     OW26734   4.699   1.623   8.585  0.4280  0.2241  0.7379
 5092SOL    HW126735   4.604   1.616   8.599  0.3847 -0.2768  0.1825
 5092SOL    HW226736   4.711   1.718   8.593 -2.0677  0.5085  1.2877
 5093SOL     OW26737   2.154   4.411   9.226 -0.5561  0.1757  0.1424
 5093SOL    HW126738   2.227   4.461   9.261  1.5544 -0.7348 -2.9222
 5093SOL    HW226739   2.180   4.393   9.135  0.2092  1.3862  0.1261
 5094SOL     OW26740   3.261   2.959   1.197 -0.4695 -0.5400  0.1678
 5094SOL    HW126741   3.328   2.917   1.252 -1.4214  0.5694  2.1728
 5094SOL    HW226742   3.178   2.929   1.235 -0.2313 -1.9299 -0.4005
 5095SOL     OW26743   0.806   2.373   3.278 -0.3664  0.0099  0.2679
 5095SOL    HW126744   0.788   2.467   3.278 -2.1285 -0.3367  2.7118
 5095SOL    HW226745   0.895   2.383   3.242 -0.8958  2.2544 -0.3971
 5096SOL     OW26746   4.471   3.080   7.003 -0.1621 -0.0903  0.5215
 5096SOL    HW126747   4.482   3.062   6.910  1.7742 -3.0707  1.3070
 5096SOL    HW226748   4.392   3.133   6.996 -0.8521 -1.2056 -0.1598
 5097SOL     OW26749   1.656   0.084   7.839 -0.1278  0.2927  0.3704
 5097SOL    HW126750   1.656   0.049   7.928 -1.6180 -1.4286 -0.2877
 5097SOL    HW226751   1.565   0.066   7.814 -0.2760  1.0360  0.3763
 5098SOL     OW26752   1.706   3.277  13.194  0.0150 -0.1521  0.4568
 5098SOL    HW126753   1.731   3.270  13.286  1.2218 -2.7227 -0.0719
 5098SOL    HW226754   1.712   3.373  13.185  1.7503 -0.5399 -2.3857
 5099SOL     OW26755   1.304   1.102   4.130 -0.2938 -0.4344 -0.3881
 5099SOL    HW126756   1.243   1.107   4.203  2.0826  2.6503  1.4244
 5099SOL    HW226757   1.244   1.084   4.057 -2.1840  5.0346 -0.1681
 5100SOL     OW26758   2.147   0.909   4.809  0.1529 -0.1686 -0.5893
 5100SOL    HW126759   2.068   0.874   4.768 -0.6795  0.8445  0.1609
 5100SOL    HW226760   2.202   0.927   4.732  0.1776  0.2167 -0.4798
 5101SOL     OW26761   4.522   1.591   3.425  0.9525 -0.3712 -0.2475
 5101SOL    HW126762   4.461   1.518   3.417  0.6149  0.0885 -1.7477
 5101SOL    HW226763   4.544   1.616   3.336  1.3322 -0.2450 -0.1200
 5102SOL     OW26764   2.715   4.241   1.899  0.0102 -1.0996  0.5983
 5102SOL    HW126765   2.682   4.258   1.811  2.1439 -0.7105 -0.1329
 5102SOL    HW226766   2.810   4.238   1.894  0.0980  2.9229 -0.2330
 5103SOL     OW26767   4.184   3.754   3.470  0.2901  0.2413  0.2744
 5103SOL    HW126768   4.151   3.752   3.380  2.0680 -0.6322 -0.3687
 5103SOL    HW226769   4.254   3.689   3.466  0.7657  0.8714 -1.6879
 5104SOL     OW26770   0.603   2.561   1.520  0.1195  0.4176 -0.2757
 5104SOL    HW126771   0.653   2.480   1.533  0.6703  0.7551 -0.3128
 5104SOL    HW226772   0.561   2.563   1.607 -2.0759 -0.0498 -1.3127
 5105SOL     OW26773   0.886   4.063   2.885 -0.0121 -0.0399 -1.1600
 5105SOL    HW126774   0.925   4.061   2.798  1.0090  0.4698 -0.7193
 5105SOL    HW226775   0.854   3.973   2.884 -1.1153  0.3620 -1.2481
 5106SOL     OW26776   3.348   1.010   1.264  0.5609 -0.0192 -0.1652
 5106SOL    HW126777   3.286   1.051   1.324  1.3720 -0.9438  1.3129
 5106SOL    HW226778   3.292   0.962   1.204 -0.2002  2.8981 -1.7495
 5107SOL     OW26779   3.499   4.509   4.833  0.3887  0.0636 -0.5278
 5107SOL    HW126780   3.417   4.550   4.862  0.7373 -0.2401  0.9163
 5107SOL    HW226781   3.474   4.424   4.796 -1.6480 -0.0593  1.1193
 5108SOL     OW26782   2.213   2.932   1.672  0.4479 -0.7815 -0.1041
 5108SOL    HW126783   2.253   2.970   1.594  2.0185 -1.1094  0.5455
 5108SOL    HW226784   2.129   2.897   1.643  1.7757 -0.8748 -3.8327
 5109SOL     OW26785   0.029   4.411   8.553 -0.1731 -0.0128 -0.8492
 5109SOL    HW126786   4.701   4.371   8.481  0.3878  0.3802 -1.4474
 5109SOL    HW226787   4.677   4.421   8.613 -0.0940 -1.1528 -0.5578
 5110SOL     OW26788   0.293   0.678   7.605 -0.5448  0.5196  0.2249
 5110SOL    HW126789   0.366   0.685   7.544  1.5432 -2.3397  2.3446
 5110SOL    HW226790   0.213   0.677   7.552 -0.5068 -0.0351  0.1753
 5111SOL     OW26791   4.614   2.385   2.227 -0.5654  0.2601 -0.4395
 5111SOL    HW126792   4.637   2.292   2.227  0.5949  0.5571 -2.5821
 5111SOL    HW226793   4.562   2.389   2.307 -0.0274 -1.3979 -0.0025
 5112SOL     OW26794   2.148   2.205   1.325  0.5173  0.2687 -0.2790
 5112SOL    HW126795   2.208   2.205   1.250  0.1595 -2.3496 -0.5413
 5112SOL    HW226796   2.174   2.279   1.381 -0.9599  0.2274  0.4576
 5113SOL     OW26797   1.705   0.234  13.313 -0.2682 -0.5904  0.0267
 5113SOL    HW126798   1.760   0.191  13.248 -0.4272 -1.0918  0.2217
 5113SOL    HW226799   1.748   0.319  13.309 -1.3828 -0.0251 -0.1210
 5114SOL     OW26800   3.139   0.135  11.374  0.0456  0.9265  0.4872
 5114SOL    HW126801   3.202   0.069  11.404 -1.4608 -0.7140  0.0280
 5114SOL    HW226802   3.198   0.182  11.316  2.6275 -0.9562  1.5982
 5115SOL     OW26803   3.470   0.462   1.910 -0.2084  0.1730  0.4632
 5115SOL    HW126804   3.478   0.419   1.825  0.9911 -0.3282  0.8216
 5115SOL    HW226805   3.485   0.547   1.870  1.7660  0.2273  1.3066
 5116SOL     OW26806   3.734   3.522   8.590  0.7983 -0.3455  0.7485
 5116SOL    HW126807   3.726   3.612   8.620  1.9786 -0.8857  2.6398
 5116SOL    HW226808   3.829   3.518   8.584  0.7066  0.8792 -1.6564
 5117SOL     OW26809   0.170   3.290   9.073  0.2357  0.4547  0.1541
 5117SOL    HW126810   0.129   3.359   9.022  2.2560  0.8843 -0.8794
 5117SOL    HW226811   0.249   3.268   9.023  1.7450 -0.9884  3.1685
 5118SOL     OW26812   0.532   1.067   8.070 -0.0572  0.3151  0.1067
 5118SOL    HW126813   0.619   1.078   8.031  1.2885 -3.6513  2.0287
 5118SOL    HW226814   0.499   1.157   8.069  1.3320  0.8315 -0.5529
 5119SOL     OW26815   4.332   0.793   5.597 -0.1843  0.1672  0.0040
 5119SOL    HW126816   4.318   0.699   5.586 -0.4830  0.2409 -0.2417
 5119SOL    HW226817   4.297   0.806   5.685 -1.0441  0.1626 -0.3292
 5120SOL     OW26818   4.146   1.350   1.772 -0.6251 -0.2242  0.3485
 5120SOL    HW126819   4.051   1.342   1.765 -0.5570  0.1605 -0.9124
 5120SOL    HW226820   4.172   1.359   1.680 -1.4100  2.2588  0.3810
 5121SOL     OW26821   4.152   0.652  16.156  0.8335 -0.1048  0.4890
 5121SOL    HW126822   4.076   0.700  16.190 -0.1772 -1.5272  0.2101
 5121SOL    HW226823   4.165   0.673  16.063  0.4050 -1.6432  0.0873
 5122SOL     OW26824   1.639   3.677   6.495  0.3410  0.1178 -0.2439
 5122SOL    HW126825   1.629   3.772   6.507  0.0162 -0.2163  2.0707
 5122SOL    HW226826   1.687   3.675   6.412 -0.8030 -0.9120 -0.8759
 5123SOL     OW26827   1.764   3.928   2.371 -0.2799  0.6571  0.2713
 5123SOL    HW126828   1.759   3.896   2.281 -0.0982 -2.7319  1.4650
 5123SOL    HW226829   1.802   4.014   2.356 -2.3999  1.1739 -2.1392
 5124SOL     OW26830   4.116   3.093  15.065  0.3186  0.7186 -0.4175
 5124SOL    HW126831   4.162   3.021  15.109 -1.3432  0.6085  1.1379
 5124SOL    HW226832   4.165   3.169  15.096  1.3513  0.0089 -0.2932
 5125SOL     OW26833   3.146   4.371   0.330 -0.3774  0.1333  0.5082
 5125SOL    HW126834   3.184   4.451   0.294 -0.7353  0.1860  0.2425
 5125SOL    HW226835   3.113   4.401   0.414 -1.6365  0.9355 -0.2658
 5126SOL     OW26836   0.418   1.236   0.193  0.0746  0.4857 -0.7758
 5126SOL    HW126837   0.485   1.175   0.226  0.4392  2.0023  1.2919
 5126SOL    HW226838   0.473   1.289   0.134 -1.5913  3.0085 -0.0517
 5127SOL     OW26839   1.944   4.313   3.146 -0.0246 -0.0125  0.6987
 5127SOL    HW126840   1.964   4.396   3.189  2.5134 -0.5596  0.5715
 5127SOL    HW226841   2.006   4.319   3.074  0.0392  1.3696  0.8719
 5128SOL     OW26842   0.087   1.229  16.287 -0.1348 -0.1002  0.0299
 5128SOL    HW126843   0.060   1.317  16.311  0.5888  0.1770 -0.1768
 5128SOL    HW226844   0.067   1.181  16.367 -1.4582 -1.7703 -1.2805
 5129SOL     OW26845   2.932   4.021   2.918  0.1696  0.5673 -0.5432
 5129SOL    HW126846   2.885   4.010   2.836  0.9083 -0.6343 -0.7960
 5129SOL    HW226847   2.910   4.112   2.936  2.7367  0.9430  0.7746
 5130SOL     OW26848   4.013   1.749   7.241  0.1411  0.5985 -0.0202
 5130SOL    HW126849   4.020   1.827   7.186  2.4863 -0.6836 -1.5279
 5130SOL    HW226850   3.920   1.746   7.264  0.2173 -0.9249  0.0701
 5131SOL     OW26851   4.513   1.976  13.739  0.3819  0.1612 -0.0028
 5131SOL    HW126852   4.507   1.903  13.801 -0.8718 -0.9179 -1.4023
 5131SOL    HW226853   4.606   1.995  13.750  0.3856 -0.2276  0.6560
 5132SOL     OW26854   4.041   3.658  11.138 -0.1748  0.0381 -0.3968
 5132SOL    HW126855   4.090   3.732  11.174 -0.4946  0.4749 -0.8561
 5132SOL    HW226856   3.996   3.634  11.219 -2.7663 -0.0726 -1.8501
 5133SOL     OW26857   2.170   4.472   8.949  0.4242  0.0708 -0.1001
 5133SOL    HW126858   2.092   4.419   8.933 -0.1822  1.0324 -0.3252
 5133SOL    HW226859   2.214   4.455   8.866  1.2307  0.1853  0.3088
 5134SOL     OW26860   4.449   2.243  14.807  0.4114  0.3047  0.6114
 5134SOL    HW126861   4.465   2.231  14.713  0.9604  2.7572  0.3707
 5134SOL    HW226862   4.507   2.315  14.832 -2.3623  2.5599  0.5599
 5135SOL     OW26863   0.964   3.518   7.806 -0.5253 -0.3264 -0.0081
 5135SOL    HW126864   0.983   3.612   7.794  1.9854 -1.0083 -1.2855
 5135SOL    HW226865   1.051   3.489   7.833 -0.1461 -0.5700 -1.4816
 5136SOL     OW26866   0.942   4.082   4.798  0.1438 -0.2893 -0.4929
 5136SOL    HW126867   0.939   4.052   4.889  1.3130 -0.4267 -0.5053
 5136SOL    HW226868   1.022   4.034   4.777  0.9122  1.2890 -1.0943
 5137SOL     OW26869   0.973   4.241  13.238  0.1784  0.4587  0.7159
 5137SOL    HW126870   1.017   4.282  13.163 -4.0348 -0.5758 -2.3591
 5137SOL    HW226871   1.000   4.150  13.221 -0.3126  0.6020 -0.7986
 5138SOL     OW26872   0.649   4.297   2.985  0.1171 -0.2367  0.4491
 5138SOL    HW126873   0.634   4.221   3.042  0.8052 -0.8398 -0.1652
 5138SOL    HW226874   0.635   4.268   2.895 -3.1611  1.9163  0.2757
 5139SOL     OW26875   3.935   4.430  15.158 -0.3343 -0.0860  0.2329
 5139SOL    HW126876   3.857   4.427  15.213 -0.2818 -2.0450  0.2150
 5139SOL    HW226877   3.984   4.354  15.189 -0.2664  0.3026  1.0815
 5140SOL     OW26878   2.899   0.012   5.503  0.3172 -0.2791 -0.3829
 5140SOL    HW126879   2.904   0.031   5.409 -1.0497 -0.4836 -0.4925
 5140SOL    HW226880   2.890   4.639   5.493  0.3541 -0.3047 -0.1591
 5141SOL     OW26881   3.451   0.886   0.090  0.2781 -0.4751 -0.2936
 5141SOL    HW126882   3.419   0.975   0.097  0.3139 -0.5588  0.9004
 5141SOL    HW226883   3.389   0.840   0.147 -0.2092  0.2346 -0.2534
 5142SOL     OW26884   2.742   3.852   5.655 -0.2858 -0.2888  0.1316
 5142SOL    HW126885   2.715   3.942   5.635  0.2850 -0.0530  0.4467
 5142SOL    HW226886   2.819   3.839   5.601  0.0476 -1.4510  0.8880
 5143SOL     OW26887   1.608   3.562   3.325  0.0976  0.0434  0.0491
 5143SOL    HW126888   1.657   3.631   3.368 -1.3497  1.5770 -0.7695
 5143SOL    HW226889   1.523   3.595   3.353 -0.2944  0.2724 -1.4004
 5144SOL     OW26890   3.342   1.384  12.286 -0.0338 -0.1166 -0.3475
 5144SOL    HW126891   3.434   1.388  12.309  0.0702 -2.5369 -0.3705
 5144SOL    HW226892   3.325   1.304  12.236  2.1600  0.8001 -2.5183
 5145SOL     OW26893   2.839   3.063   5.486 -0.4443  0.1692  0.2751
 5145SOL    HW126894   2.853   3.157   5.502 -0.4213  0.6731 -2.7663
 5145SOL    HW226895   2.745   3.062   5.468 -0.6760  1.9880  1.4063
 5146SOL     OW26896   3.124   0.224  17.214 -0.6089  0.5254  0.7522
 5146SOL    HW126897   3.199   0.202  17.159 -1.4974  0.0108 -0.2649
 5146SOL    HW226898   3.072   0.290  17.167  0.0081  0.4286 -0.0738
 5147SOL     OW26899   1.057   3.430  17.617  0.1846  0.1486  0.3826
 5147SOL    HW126900   1.109   3.503  17.651 -0.5902  0.4115  1.0090
 5147SOL    HW226901   1.073   3.374   0.005  1.1098  0.8100  0.6722
 5148SOL     OW26902   4.650   1.986   9.089 -0.4963 -0.3887  0.2852
 5148SOL    HW126903   4.660   1.988   9.184  1.5186  0.7428  0.0721
 5148SOL    HW226904   0.022   1.980   9.069 -0.6872  0.0356 -0.7347
 5149SOL     OW26905   1.118   3.231   8.236  0.3518  0.5434  0.3066
 5149SOL    HW126906   1.161   3.276   8.309 -0.8855 -0.3374  1.5681
 5149SOL    HW226907   1.184   3.239   8.167  1.8266 -1.5746  1.4749
 5150SOL     OW26908   3.853   0.173   3.668 -0.4678 -0.4937 -0.2521
 5150SOL    HW126909   3.866   0.240   3.736 -0.5243 -1.1480  0.3937
 5150SOL    HW226910   3.938   0.170   3.624 -0.4296 -0.4435 -0.1834
 5151SOL     OW26911   0.670   1.909   7.522  0.1301 -0.4005 -1.0698
 5151SOL    HW126912   0.732   1.924   7.593  2.4595  1.4326 -3.4930
 5151SOL    HW226913   0.725   1.862   7.460  0.7962 -0.6410 -0.2979
 5152SOL     OW26914   0.089   3.954  12.726  0.0434  0.0362 -0.4523
 5152SOL    HW126915   0.142   3.898  12.783 -0.5333 -0.5610 -0.5040
 5152SOL    HW226916   0.002   3.947  12.766 -0.3062  2.3279 -0.7894
 5153SOL     OW26917   2.978   4.103  14.397 -0.2744 -0.4508  0.4356
 5153SOL    HW126918   2.896   4.058  14.377 -0.2962 -0.7716  1.2368
 5153SOL    HW226919   2.954   4.186  14.438  1.7117  0.9443 -1.2330
 5154SOL     OW26920   2.419   0.711  12.251  0.5748 -0.2624 -0.1726
 5154SOL    HW126921   2.422   0.698  12.346  0.9094 -1.8342 -0.3880
 5154SOL    HW226922   2.510   0.705  12.223  1.0254 -1.1383  1.4586
 5155SOL     OW26923   3.309   0.042   8.548 -0.0921  0.3262  0.1742
 5155SOL    HW126924   3.395   0.011   8.519  0.5792  1.7711  0.5832
 5155SOL    HW226925   3.330   0.133   8.569  1.5142  0.4018 -1.7804
 5156SOL     OW26926   1.012   0.074  16.141 -0.2516  0.1144 -0.3875
 5156SOL    HW126927   0.921   0.068  16.170  0.8320  0.0810  2.9935
 5156SOL    HW226928   1.002   0.149  16.083 -0.3533  0.2834 -0.1504
 5157SOL     OW26929   1.999   3.015   3.767  0.0189 -0.1078  0.0953
 5157SOL    HW126930   1.919   3.059   3.737  0.9451  0.6233 -1.3071
 5157SOL    HW226931   2.051   3.016   3.687  0.5662  3.4459  0.4878
 5158SOL     OW26932   0.005   0.141  14.065 -0.4444  0.2825 -0.3809
 5158SOL    HW126933   4.707   0.106  14.152  1.9701  1.2708  0.5172
 5158SOL    HW226934   0.017   0.060  14.014 -0.0846  0.5648 -0.7399
 5159SOL     OW26935   0.186   0.660   7.169 -0.4648  0.8347  0.3064
 5159SOL    HW126936   0.145   0.622   7.092  0.1058  1.8887 -0.5166
 5159SOL    HW226937   0.156   0.587   7.223 -1.1270  1.2361  0.4870
 5160SOL     OW26938   2.344   4.059  12.582 -0.2690 -0.0039  0.1037
 5160SOL    HW126939   2.334   4.030  12.672  0.8326  0.6547  0.4304
 5160SOL    HW226940   2.435   4.036  12.566 -0.2048  0.5507 -0.3475
 5161SOL     OW26941   2.399   2.644   5.218  0.6033 -0.9074 -0.3499
 5161SOL    HW126942   2.451   2.658   5.297  0.4919 -0.2666 -0.3946
 5161SOL    HW226943   2.461   2.606   5.156 -1.1920 -3.3099 -0.6890
 5162SOL     OW26944   2.357   3.296   8.264 -0.0971 -0.1755 -0.1362
 5162SOL    HW126945   2.442   3.292   8.308 -1.1143  0.1069  1.8667
 5162SOL    HW226946   2.370   3.243   8.186  1.9772 -1.4402  1.0694
 5163SOL     OW26947   2.144   1.667  15.475  0.8425  0.4326 -0.5724
 5163SOL    HW126948   2.067   1.661  15.532  1.8029 -0.4593  0.6444
 5163SOL    HW226949   2.131   1.754  15.437 -1.4660 -0.1298 -1.0952
 5164SOL     OW26950   1.160   4.302  14.371 -0.5645  0.1335 -0.5502
 5164SOL    HW126951   1.239   4.296  14.318  1.0594 -0.0035  1.9172
 5164SOL    HW226952   1.202   4.275  14.453  0.4881 -0.6947 -1.3631
 5165SOL     OW26953   3.794   0.547   6.900  0.0614 -0.0471 -0.3306
 5165SOL    HW126954   3.791   0.469   6.957 -1.0715  0.9446  0.9541
 5165SOL    HW226955   3.858   0.604   6.943 -1.1011  1.9448 -1.2734
 5166SOL     OW26956   0.980   2.449  11.615  0.3568 -0.1832  0.1921
 5166SOL    HW126957   0.966   2.387  11.543  1.9894 -0.4832  0.1339
 5166SOL    HW226958   1.040   2.513  11.578  1.5377 -0.8676  0.9135
 5167SOL     OW26959   3.970   0.578  11.456 -0.2035  0.1635 -0.2982
 5167SOL    HW126960   3.983   0.520  11.381 -2.2502  0.5576 -0.9636
 5167SOL    HW226961   3.878   0.604  11.449 -0.4538 -0.9507 -1.1106
 5168SOL     OW26962   1.000   3.883   7.079 -0.0458  0.8358  0.1039
 5168SOL    HW126963   1.062   3.823   7.037  0.2270  1.9241 -1.0432
 5168SOL    HW226964   1.045   3.967   7.085 -0.2638  0.8880  0.9642
 5169SOL     OW26965   2.230   3.727   8.557 -0.5508 -0.1558 -0.4522
 5169SOL    HW126966   2.298   3.724   8.624 -1.0213 -1.5444 -0.0280
 5169SOL    HW226967   2.163   3.768   8.612  0.7207  1.7359 -0.3194
 5170SOL     OW26968   0.520   4.418   0.937  0.3928  0.3954  0.3408
 5170SOL    HW126969   0.556   4.401   1.025 -2.9595 -3.1617  1.0029
 5170SOL    HW226970   0.427   4.406   0.953  0.5670 -1.1352  0.2610
 5171SOL     OW26971   0.392   0.476   9.643  0.1179  0.5412 -0.9526
 5171SOL    HW126972   0.480   0.499   9.616 -1.0431  3.1483 -2.5372
 5171SOL    HW226973   0.366   0.553   9.693 -1.9716 -0.0808 -1.0437
 5172SOL     OW26974   4.246   3.260   5.300 -0.3198 -1.2260 -0.2983
 5172SOL    HW126975   4.291   3.255   5.216 -0.9722 -0.5057 -0.6891
 5172SOL    HW226976   4.306   3.229   5.369  0.7360  3.1066  0.7182
 5173SOL     OW26977   1.197   1.028   6.996  0.1602 -0.5173  0.2453
 5173SOL    HW126978   1.239   1.029   7.082 -0.5117 -0.9317  0.5795
 5173SOL    HW226979   1.210   0.935   6.980 -1.2511 -0.4858 -1.0727
 5174SOL     OW26980   4.150   0.807  13.025 -0.3204 -0.4627 -0.1268
 5174SOL    HW126981   4.201   0.726  13.022 -0.3663 -0.5162  0.8092
 5174SOL    HW226982   4.096   0.785  13.101 -0.7105  1.1087  0.0460
 5175SOL     OW26983   1.534   1.175   9.026 -0.3320 -0.2961  0.5605
 5175SOL    HW126984   1.528   1.249   9.086  0.6209  0.6587 -0.5026
 5175SOL    HW226985   1.489   1.107   9.075 -2.0465  0.8182  0.5130
 5176SOL     OW26986   2.543   0.437  11.344 -0.1249 -0.0338 -0.3505
 5176SOL    HW126987   2.558   0.486  11.425 -2.3191  0.5753 -0.3241
 5176SOL    HW226988   2.626   0.441  11.297  0.6676 -2.9859  0.8127
 5177SOL     OW26989   4.601   3.763   4.105  0.0557  0.7270  0.3698
 5177SOL    HW126990   4.561   3.698   4.047  0.0764  1.5275 -0.5394
 5177SOL    HW226991   4.628   3.708   4.179 -1.7872  0.3953  0.7956
 5178SOL     OW26992   1.486   1.756   5.726  0.3563  0.1137 -0.3883
 5178SOL    HW126993   1.576   1.754   5.693 -0.4389 -2.5728 -2.4108
 5178SOL    HW226994   1.480   1.702   5.805  0.1963  1.0554  0.2390
 5179SOL     OW26995   3.710   0.114   3.443  0.2951 -0.7441 -0.1911
 5179SOL    HW126996   3.759   0.130   3.524 -1.1342 -0.2691  0.5703
 5179SOL    HW226997   3.682   0.024   3.460  1.0404  0.0951  5.5167
 5180SOL     OW26998   4.394   4.071   4.657  0.1467  0.2879  0.1115
 5180SOL    HW126999   4.372   4.160   4.686 -0.1993  0.8892 -2.0510
 5180SOL    HW227000   4.345   4.071   4.575  0.7118  1.3596 -0.2224
 5181SOL     OW27001   1.299   3.115  17.099 -0.1833 -0.0194  0.1049
 5181SOL    HW127002   1.245   3.185  17.061  1.0442  2.2243  2.4863
 5181SOL    HW227003   1.238   3.056  17.142 -0.0430 -0.3533 -0.1558
 5182SOL     OW27004   4.205   1.046   4.346  0.4090  0.5340  0.3755
 5182SOL    HW127005   4.252   1.122   4.313 -1.2972  0.7603 -1.4998
 5182SOL    HW227006   4.192   0.999   4.264  0.3503 -0.5727  1.0171
 5183SOL     OW27007   2.292   2.493  13.324 -0.4045 -0.3998  0.6145
 5183SOL    HW127008   2.287   2.398  13.313  1.1849 -0.3707 -0.2098
 5183SOL    HW227009   2.257   2.516  13.238  2.8582 -0.2989 -0.6463
 5184SOL     OW27010   3.508   4.571   0.783  0.5225  0.0830  0.1923
 5184SOL    HW127011   3.600   4.558   0.808  0.7070  0.2733 -0.3812
 5184SOL    HW227012   3.505   4.539   0.693 -1.1335  1.8657 -0.3854
 5185SOL     OW27013   4.298   0.148  15.568 -0.7708 -0.7023 -0.1372
 5185SOL    HW127014   4.287   0.063  15.612 -1.9778 -1.3556 -1.6573
 5185SOL    HW227015   4.342   0.209  15.627 -2.5110 -0.7997  1.2538
 5186SOL     OW27016   3.421   1.744   5.754 -0.2831  0.0369  0.5925
 5186SOL    HW127017   3.489   1.783   5.700 -0.8534 -0.5877 -0.5939
 5186SOL    HW227018   3.373   1.825   5.772 -0.8855 -0.4039  0.9718
 5187SOL     OW27019   1.192   2.810  11.050 -0.4923 -0.6475 -0.0858
 5187SOL    HW127020   1.260   2.754  11.015 -0.8186 -1.5812  0.7730
 5187SOL    HW227021   1.132   2.832  10.979 -1.1067 -1.9801  0.0291
 5188SOL     OW27022   4.127   1.725   0.853 -0.2621 -0.0552 -0.3686
 5188SOL    HW127023   4.148   1.667   0.926 -2.1416  0.9171  0.9496
 5188SOL    HW227024   4.040   1.692   0.830  0.1339 -1.5270  0.2504
 5189SOL     OW27025   2.326   2.887   9.479 -0.0434 -0.7798  0.3523
 5189SOL    HW127026   2.237   2.870   9.508  0.8535 -1.3846  2.7119
 5189SOL    HW227027   2.326   2.983   9.476  0.8054 -0.8020 -0.4105
 5190SOL     OW27028   4.282   3.841   6.811  0.0127  0.5831 -0.1777
 5190SOL    HW127029   4.203   3.797   6.842 -0.3080  2.2567  1.3293
 5190SOL    HW227030   4.326   3.869   6.892  0.9063 -1.8135  0.2045
 5191SOL     OW27031   2.475   1.440  13.909 -0.3758 -0.7704  0.1237
 5191SOL    HW127032   2.429   1.427  13.992  1.6602 -0.4711  1.2801
 5191SOL    HW227033   2.471   1.536  13.907 -2.4538 -0.8561 -0.0122
 5192SOL     OW27034   1.887   0.410   9.439  0.2820 -0.0870 -0.1057
 5192SOL    HW127035   1.948   0.483   9.429  1.9173 -1.4870 -0.3295
 5192SOL    HW227036   1.927   0.344   9.383 -0.4736  0.1124 -0.8861
 5193SOL     OW27037   4.613   0.179   1.891 -0.0996  0.7750 -0.2826
 5193SOL    HW127038   4.530   0.173   1.845 -0.6487 -0.0029  0.7902
 5193SOL    HW227039   4.668   0.120   1.840  2.0871  1.1460  1.6247
 5194SOL     OW27040   0.421   3.338  11.702  0.3545  0.8046  0.3824
 5194SOL    HW127041   0.455   3.390  11.629  2.0478  1.1209  1.3935
 5194SOL    HW227042   0.433   3.252  11.663  0.4219  0.5124  1.0552
 5195SOL     OW27043   1.941   0.269  11.190 -0.1600  0.2656  0.0909
 5195SOL    HW127044   1.874   0.282  11.257  1.6391  1.7558  1.5936
 5195SOL    HW227045   2.006   0.218  11.239  0.9286  0.1699 -1.4473
 5196SOL     OW27046   3.707   0.788   8.862 -0.0517 -0.6932  0.1941
 5196SOL    HW127047   3.684   0.716   8.921 -0.0308  1.6416  3.0218
 5196SOL    HW227048   3.762   0.751   8.793 -2.0190  0.5621 -2.0499
 5197SOL     OW27049   0.678   1.218   6.529 -0.8006 -0.2459  0.0691
 5197SOL    HW127050   0.634   1.186   6.451  1.7648  1.2257 -1.9981
 5197SOL    HW227051   0.674   1.313   6.517 -0.5559 -0.2615 -0.1285
 5198SOL     OW27052   3.883   3.187   3.655  0.4063  0.7108 -0.0220
 5198SOL    HW127053   3.865   3.242   3.732  1.2190  1.1774 -0.1621
 5198SOL    HW227054   3.955   3.132   3.685  0.2402  0.4630 -0.0830
 5199SOL     OW27055   0.217   1.765   4.011 -0.8035  0.1877  0.4140
 5199SOL    HW127056   0.128   1.793   4.031 -0.2632  1.9820  0.3339
 5199SOL    HW227057   0.204   1.770   3.916 -0.8640 -1.0416  0.3612
 5200SOL     OW27058   0.971   4.074   8.891 -0.0633  0.5851  0.4466
 5200SOL    HW127059   0.991   3.990   8.931  0.5821  0.7453  0.4612
 5200SOL    HW227060   1.052   4.088   8.841  1.2953  1.0631  2.8104
 5201SOL     OW27061   1.082   4.299   6.305  0.3312 -0.4542  0.0387
 5201SOL    HW127062   1.059   4.295   6.212 -1.6575 -3.7584  0.6808
 5201SOL    HW227063   1.059   4.215   6.345  1.5735 -1.2601 -0.9168
 5202SOL     OW27064   2.962   2.058   2.335 -0.2258 -0.0727  0.1286
 5202SOL    HW127065   2.992   1.986   2.389 -0.1040  0.1687  0.3825
 5202SOL    HW227066   2.868   2.042   2.331 -0.2852  0.1139  0.7866
 5203SOL     OW27067   4.689   2.654  17.514 -0.3324  0.0050 -0.1214
 5203SOL    HW127068   4.655   2.575  17.474 -2.0811 -0.9616  3.2644
 5203SOL    HW227069   4.704   2.630  17.606  2.8147 -0.0702 -0.6583
 5204SOL     OW27070   2.666   0.996  10.971  0.4246  0.3892 -0.3790
 5204SOL    HW127071   2.576   0.983  10.941  0.3156 -2.2586  1.1187
 5204SOL    HW227072   2.706   0.912  10.950 -0.0917  0.3215 -1.1342
 5205SOL     OW27073   1.242   4.570  14.378  0.0794  0.5808  0.1047
 5205SOL    HW127074   1.195   4.653  14.382  0.2802  0.7254 -0.4562
 5205SOL    HW227075   1.172   4.507  14.362  1.3604 -0.3096 -2.1410
 5206SOL     OW27076   3.381   3.227  17.572 -0.1831  0.4007 -1.0839
 5206SOL    HW127077   3.304   3.179  17.542  0.3763 -1.7694  0.9437
 5206SOL    HW227078   3.370   3.221  17.667 -2.0340 -1.5810 -1.4024
 5207SOL     OW27079   2.045   0.247   9.323 -0.1913  0.0762 -0.1686
 5207SOL    HW127080   2.090   0.327   9.296  2.0002 -0.6216  1.4825
 5207SOL    HW227081   2.109   0.201   9.376 -1.3614 -0.2111  0.9986
 5208SOL     OW27082   4.045   3.516   1.308  0.4296  0.0929  0.1563
 5208SOL    HW127083   4.127   3.468   1.319  0.1784 -0.2934  0.3515
 5208SOL    HW227084   4.017   3.531   1.398 -1.0085  0.5648 -0.3659
 5209SOL     OW27085   4.695   3.354  12.720 -0.7422 -0.1796 -0.3462
 5209SOL    HW127086   4.667   3.445  12.729 -2.4509 -0.5016 -2.2728
 5209SOL    HW227087   4.627   3.326  12.658 -1.7715  0.0353  0.6741
 5210SOL     OW27088   0.484   4.112   8.192  0.2169  0.4430 -0.1707
 5210SOL    HW127089   0.545   4.043   8.167  0.5035  1.0142 -1.0305
 5210SOL    HW227090   0.536   4.172   8.245  1.9674 -2.4188  1.3293
 5211SOL     OW27091   2.696   4.690   3.001  0.0883  0.8679  0.1247
 5211SOL    HW127092   2.609   4.695   2.961  1.2850  0.8140 -2.5006
 5211SOL    HW227093   2.670   4.634   3.074 -2.1828  0.3356 -1.1123
 5212SOL     OW27094   4.260   2.441   7.749  0.5957 -0.0178 -0.1692
 5212SOL    HW127095   4.283   2.480   7.665  1.3392  1.5872  0.7849
 5212SOL    HW227096   4.195   2.502   7.783 -0.2063 -0.2111 -1.3740
 5213SOL     OW27097   0.483   1.678   8.274  0.0422  0.4108 -0.9311
 5213SOL    HW127098   0.572   1.656   8.248  0.4532  1.9145 -0.7975
 5213SOL    HW227099   0.491   1.773   8.287 -1.2525  0.1783  1.6212
 5214SOL     OW27100   0.557   1.428  13.896  0.0294  0.2445 -0.7480
 5214SOL    HW127101   0.523   1.480  13.970  2.9332 -0.6075  1.1746
 5214SOL    HW227102   0.516   1.343  13.909  1.5047 -0.2339  0.7203
 5215SOL     OW27103   1.887   0.999   7.615 -0.4707  0.1035  0.5952
 5215SOL    HW127104   1.862   0.954   7.696  1.9690  0.7847  1.7412
 5215SOL    HW227105   1.819   1.066   7.617 -1.2730 -0.6175 -2.3915
 5216SOL     OW27106   1.286   0.047   5.761  0.9253 -0.1714  0.6411
 5216SOL    HW127107   1.279   0.009   5.673  1.1119  1.6439 -0.1447
 5216SOL    HW227108   1.319   0.133   5.735  2.2755 -0.8608  0.0853
 5217SOL     OW27109   0.037   2.256   9.489 -0.2749  0.0647  0.4604
 5217SOL    HW127110   0.079   2.312   9.555 -1.0082  2.0047 -0.7307
 5217SOL    HW227111   0.111   2.219   9.441 -1.3551  1.2220 -2.0863
 5218SOL     OW27112   0.460   1.648   4.093 -0.4087  0.1959  0.0193
 5218SOL    HW127113   0.514   1.638   4.014  0.9756  2.0564  0.7192
 5218SOL    HW227114   0.398   1.716   4.067 -0.1374 -0.1248 -1.5115
 5219SOL     OW27115   3.159   4.638  17.391 -0.1403  0.1705 -0.4768
 5219SOL    HW127116   3.095   4.661  17.323  0.2188 -0.6349 -1.0873
 5219SOL    HW227117   3.159   4.542  17.384 -0.6229  0.1164  0.2504
 5220SOL     OW27118   2.868   4.355   0.102  0.0907 -0.0232 -0.3804
 5220SOL    HW127119   2.905   4.357   0.190 -1.4005 -3.0383  0.3371
 5220SOL    HW227120   2.834   4.266   0.088 -2.1568  1.3184 -3.4710
 5221SOL     OW27121   4.618   1.708   8.954 -0.2060 -0.5043 -0.7485
 5221SOL    HW127122   4.593   1.796   8.982 -1.6972 -0.4557 -2.2243
 5221SOL    HW227123   4.711   1.714   8.974 -0.3312  0.8819 -0.5748
 5222SOL     OW27124   4.271   4.626  15.648  0.1868 -0.7248 -0.3978
 5222SOL    HW127125   4.341   4.572  15.611  0.4404  0.5363 -1.7412
 5222SOL    HW227126   4.233   4.581  15.723  0.0877  1.4496  0.8695
 5223SOL     OW27127   2.649   1.141   2.843  0.8599  0.0496  0.6029
 5223SOL    HW127128   2.683   1.183   2.922 -0.7464 -1.6274  2.1919
 5223SOL    HW227129   2.578   1.091   2.881  0.6325  0.4499  0.7098
 5224SOL     OW27130   0.184   2.052  16.653  0.4072  0.5333 -0.4023
 5224SOL    HW127131   0.273   2.086  16.661  0.7683 -0.3804 -0.6560
 5224SOL    HW227132   0.134   2.103  16.718  1.1479  0.7689 -0.0186
 5225SOL     OW27133   0.108   1.926  16.894  0.0443 -0.0580  0.4880
 5225SOL    HW127134   0.013   1.930  16.887  0.2654  1.8943 -1.4327
 5225SOL    HW227135   0.127   2.020  16.885  1.0053 -0.4334 -1.5430
 5226SOL     OW27136   3.953   2.131  13.159 -0.0432  0.3042  0.3496
 5226SOL    HW127137   4.013   2.065  13.194  0.6981  0.5909 -0.3757
 5226SOL    HW227138   4.015   2.197  13.127  1.0194 -0.9585 -0.1629
 5227SOL     OW27139   2.300   4.244   7.666 -0.3002 -0.1872  0.1582
 5227SOL    HW127140   2.389   4.223   7.694 -0.1297  0.3851  0.0252
 5227SOL    HW227141   2.246   4.210   7.737 -0.4733 -0.6838 -0.2048
 5228SOL     OW27142   3.812   0.710   4.718  0.1746 -0.9060 -0.4431
 5228SOL    HW127143   3.872   0.639   4.695 -0.1297 -0.6457 -2.0641
 5228SOL    HW227144   3.770   0.737   4.636  1.4477  1.5332 -0.3058
 5229SOL     OW27145   2.448   1.614   3.628 -0.5746  0.2578 -0.3266
 5229SOL    HW127146   2.534   1.617   3.586 -0.8092  2.9862 -0.6254
 5229SOL    HW227147   2.455   1.682   3.695  0.5993  1.2173 -1.4342
 5230SOL     OW27148   2.364   0.507  10.856 -0.7366 -0.0064 -0.3061
 5230SOL    HW127149   2.337   0.425  10.895  0.8802 -0.3411  0.1143
 5230SOL    HW227150   2.455   0.513  10.886 -0.5889 -1.5383 -0.4873
 5231SOL     OW27151   3.853   2.314   2.467  0.5657 -0.5236 -0.4713
 5231SOL    HW127152   3.795   2.344   2.537 -0.5896 -1.1175 -1.1673
 5231SOL    HW227153   3.810   2.358   2.394 -3.2377 -0.2477  1.9373
 5232SOL     OW27154   3.614   3.675   1.932 -0.3404 -0.5527 -0.2646
 5232SOL    HW127155   3.692   3.652   1.881 -0.7454 -0.5689 -0.8734
 5232SOL    HW227156   3.646   3.724   2.008 -1.0105  0.0577 -0.3764
 5233SOL     OW27157   1.316   4.168   4.476  0.3716 -0.5362  0.6505
 5233SOL    HW127158   1.295   4.191   4.385  2.9111 -0.1760  0.1653
 5233SOL    HW227159   1.272   4.082   4.477  1.0617 -0.9348 -2.0815
 5234SOL     OW27160   4.296   0.148   6.753 -0.3384 -0.0778 -0.6050
 5234SOL    HW127161   4.213   0.173   6.794  0.6989 -0.6514  1.8196
 5234SOL    HW227162   4.285   0.053   6.755 -1.4833  0.0271 -1.5001
 5235SOL     OW27163   1.883   1.990   2.297  0.0466 -0.2119  0.2128
 5235SOL    HW127164   1.866   1.912   2.245 -1.9353  1.4768 -1.6634
 5235SOL    HW227165   1.828   1.972   2.374 -0.3644  0.6957  0.1275
 5236SOL     OW27166   4.704   1.907   5.918  0.2753 -0.0041  0.0039
 5236SOL    HW127167   4.681   1.815   5.909 -0.3347  0.4041 -2.5178
 5236SOL    HW227168   4.717   1.922   6.012 -1.0370 -1.2574  0.3847
 5237SOL     OW27169   2.387   0.185   6.370  0.2038  0.6202  0.8588
 5237SOL    HW127170   2.482   0.171   6.373  0.3708  1.7224  0.7473
 5237SOL    HW227171   2.367   0.112   6.311  3.5192 -0.9088  1.6301
 5238SOL     OW27172   3.414   0.336  11.724  0.4570  0.3217 -0.5428
 5238SOL    HW127173   3.422   0.425  11.690  1.5025  0.6856  0.6325
 5238SOL    HW227174   3.407   0.342  11.819 -3.4696 -1.2954 -0.7354
 5239SOL     OW27175   3.561   0.233   3.867  0.3413 -0.1175  0.3442
 5239SOL    HW127176   3.645   0.279   3.871  1.3967 -1.9423 -0.6986
 5239SOL    HW227177   3.520   0.262   3.786  2.2249  1.6924  0.0307
 5240SOL     OW27178   1.368   4.054  15.767  0.5591  0.2635  0.4144
 5240SOL    HW127179   1.396   3.981  15.712 -1.1159  1.0198 -1.4759
 5240SOL    HW227180   1.382   4.022  15.856  0.2244 -0.5033  0.1921
 5241SOL     OW27181   0.023   1.953   4.832  0.3505 -0.2646  0.1012
 5241SOL    HW127182   4.661   1.993   4.807  0.1334 -0.1226  1.0536
 5241SOL    HW227183   0.007   1.861   4.815 -0.2270 -0.3863  1.3242
 5242SOL     OW27184   1.932   3.012   4.042  0.1322  0.5709  0.7378
 5242SOL    HW127185   2.008   2.994   4.098 -0.4603  0.8663  1.6457
 5242SOL    HW227186   1.974   3.012   3.956 -2.6862  0.5526 -0.6097
 5243SOL     OW27187   3.879   1.548   4.575  0.3574 -0.1638 -0.1451
 5243SOL    HW127188   3.954   1.490   4.585  0.3090  0.4739  4.0079
 5243SOL    HW227189   3.906   1.620   4.632 -1.0539 -0.5108  0.9937
 5244SOL     OW27190   0.916   2.933   9.239 -0.0995  0.4607  0.4063
 5244SOL    HW127191   0.823   2.918   9.257  0.0777  0.3263  1.1941
 5244SOL    HW227192   0.929   3.026   9.259  1.5885  1.3239 -4.6750
 5245SOL     OW27193   0.613   1.213   3.589 -0.4769  0.4144 -0.3695
 5245SOL    HW127194   0.549   1.143   3.575 -1.6127  1.7830 -2.1794
 5245SOL    HW227195   0.675   1.192   3.520  1.5623 -0.1937  1.6727
 5246SOL     OW27196   2.163   4.311   0.864 -0.0493 -0.3550  0.2906
 5246SOL    HW127197   2.081   4.262   0.864  0.5796 -1.3949  1.8970
 5246SOL    HW227198   2.178   4.319   0.958  0.4904 -0.8308  0.2493
 5247SOL     OW27199   3.211   3.191  14.527  0.1298  0.2812  0.1463
 5247SOL    HW127200   3.217   3.283  14.502 -0.6773  0.1896 -0.4098
 5247SOL    HW227201   3.289   3.151  14.489 -0.5066 -2.3372  1.6340
 5248SOL     OW27202   0.652   2.266   2.504  0.0831 -0.3731  0.1869
 5248SOL    HW127203   0.710   2.199   2.469  1.5767  1.4006 -0.6736
 5248SOL    HW227204   0.583   2.262   2.437 -0.4080 -0.3066  0.6831
 5249SOL     OW27205   0.061   0.178   4.969 -0.4669 -0.0502  0.1574
 5249SOL    HW127206   0.127   0.167   4.900  0.5896  0.6717  1.0586
 5249SOL    HW227207   4.703   0.139   4.933  0.0688 -0.7377 -0.2907
 5250SOL     OW27208   2.866   0.943   3.186  0.3290 -0.8647 -0.1579
 5250SOL    HW127209   2.858   0.883   3.111 -2.0359  1.3769 -1.7215
 5250SOL    HW227210   2.817   1.019   3.156  0.6912 -0.6911 -0.3057
 5251SOL     OW27211   1.880   2.316   9.338  0.6919 -0.4333 -0.1847
 5251SOL    HW127212   1.911   2.232   9.306  0.0318 -0.7066 -0.1111
 5251SOL    HW227213   1.792   2.290   9.368  1.5657 -1.8399  1.1693
 5252SOL     OW27214   0.122   4.677   2.790 -0.2649  0.0358  0.0144
 5252SOL    HW127215   0.039   4.632   2.806  1.5837 -2.3625  2.7008
 5252SOL    HW227216   0.101   0.004   2.710  0.9749  0.0319 -0.3133
 5253SOL     OW27217   3.471   0.932   3.102  0.1963 -0.6132 -0.0078
 5253SOL    HW127218   3.451   0.892   3.017  1.0585 -1.4650  0.1973
 5253SOL    HW227219   3.547   0.986   3.079 -0.5377  0.9001  1.0642
 5254SOL     OW27220   0.720   0.217   4.989 -0.4165 -0.1261 -0.0111
 5254SOL    HW127221   0.746   0.300   5.030 -1.1761 -0.6944  1.6102
 5254SOL    HW227222   0.764   0.219   4.904  0.0605 -0.5028  0.2253
 5255SOL     OW27223   0.568   2.451  14.562  0.9935 -0.2015 -0.4386
 5255SOL    HW127224   0.514   2.390  14.613  0.3270  0.4348 -0.3764
 5255SOL    HW227225   0.604   2.500  14.637  0.9636 -1.9305  0.7059
 5256SOL     OW27226   4.583   1.590   3.054  0.2716 -0.5515  0.3463
 5256SOL    HW127227   4.594   1.677   3.014  0.1642 -0.3301  0.7941
 5256SOL    HW227228   4.565   1.531   2.982  0.0514  1.2645 -1.0868
 5257SOL     OW27229   2.035   1.919   7.738  0.3123  0.0645  0.3001
 5257SOL    HW127230   2.007   2.000   7.781  0.9360  0.9964 -1.0740
 5257SOL    HW227231   2.128   1.923   7.759  0.8010 -3.0529 -1.2457
 5258SOL     OW27232   3.990   3.576   7.815  0.3599  0.6201  0.4252
 5258SOL    HW127233   3.898   3.601   7.805 -0.1562 -1.4899 -0.1407
 5258SOL    HW227234   4.041   3.653   7.790  0.2055  0.3171 -0.8175
 5259SOL     OW27235   3.061   0.267  10.603  0.1801  0.9271  0.1428
 5259SOL    HW127236   3.084   0.188  10.651 -1.7140  0.2878  0.0030
 5259SOL    HW227237   3.111   0.248  10.524 -0.9620  0.6772 -0.5228
 5260SOL     OW27238   4.222   3.510  12.226  0.3920  0.2393  0.5437
 5260SOL    HW127239   4.271   3.452  12.284  0.1771 -0.0120  0.4705
 5260SOL    HW227240   4.235   3.594  12.271 -1.2847  1.2411 -0.8229
 5261SOL     OW27241   2.497   2.809  13.297 -0.4408  0.6006 -0.7118
 5261SOL    HW127242   2.470   2.888  13.249 -1.1376  1.5050  1.1475
 5261SOL    HW227243   2.491   2.746  13.225  0.5843  0.2149 -0.4627
 5262SOL     OW27244   3.697   1.900   1.961  0.2170  0.3651 -0.1819
 5262SOL    HW127245   3.773   1.873   1.909  0.5837  2.3045 -0.6516
 5262SOL    HW227246   3.691   1.843   2.038  0.0178 -1.0582 -1.2547
 5263SOL     OW27247   3.853   0.660  12.303 -0.3748 -0.0049  0.2039
 5263SOL    HW127248   3.946   0.670  12.286 -0.3500 -1.6035 -0.6383
 5263SOL    HW227249   3.818   0.665  12.213 -1.9203  1.5731  0.8913
 5264SOL     OW27250   1.404   3.645   7.358  0.3115  0.3512 -0.2760
 5264SOL    HW127251   1.318   3.603   7.356  0.4968 -0.1082  1.4582
 5264SOL    HW227252   1.424   3.647   7.452 -0.0084 -1.2167 -0.1680
 5265SOL     OW27253   0.536   2.035  14.783  0.1158  0.4512 -0.7164
 5265SOL    HW127254   0.498   1.955  14.747 -0.0951  0.1470  0.1912
 5265SOL    HW227255   0.616   2.002  14.823 -0.8179  0.8144  1.4663
 5266SOL     OW27256   2.899   4.349   7.047  0.0163  0.2349  0.3154
 5266SOL    HW127257   2.842   4.341   7.123  2.2075 -0.8442  1.8307
 5266SOL    HW227258   2.902   4.255   7.028  0.1394  0.4641 -0.8157
 5267SOL     OW27259   0.135   0.417   7.057  0.2285 -0.3574  0.0008
 5267SOL    HW127260   0.177   0.342   7.098  1.6205  0.0347 -0.7080
 5267SOL    HW227261   0.139   0.388   6.965  0.8454 -0.8917  0.1947
 5268SOL     OW27262   1.053   4.418  12.383  0.1185 -0.1375 -0.0245
 5268SOL    HW127263   0.992   4.491  12.372 -0.2841 -0.2153  1.8317
 5268SOL    HW227264   1.128   4.455  12.336 -0.1918  1.9433  1.1314
 5269SOL     OW27265   1.640   2.976   2.708  0.1087 -0.1541  0.3359
 5269SOL    HW127266   1.634   2.933   2.794  3.2005 -0.3428  0.4393
 5269SOL    HW227267   1.653   3.064   2.742  2.7989 -0.6108  0.4647
 5270SOL     OW27268   1.267   3.532   2.566  0.0492 -1.0488  0.5234
 5270SOL    HW127269   1.195   3.516   2.505  0.0797 -2.0408  0.7353
 5270SOL    HW227270   1.342   3.491   2.522 -0.5801 -1.3948 -0.2240
 5271SOL     OW27271   1.632   0.738   1.696  0.7597  0.7247 -0.1653
 5271SOL    HW127272   1.610   0.808   1.758 -0.3055  1.1042 -0.9633
 5271SOL    HW227273   1.660   0.789   1.620 -0.6605 -0.6468 -1.6262
 5272SOL     OW27274   3.325   2.793   3.011  0.0397  0.0047 -0.2113
 5272SOL    HW127275   3.296   2.843   3.088 -0.7291 -0.7861  0.0095
 5272SOL    HW227276   3.415   2.779   3.039 -0.6327 -0.6951  1.6510
 5273SOL     OW27277   4.707   2.139   5.270 -0.0466  0.0979 -0.1362
 5273SOL    HW127278   0.031   2.195   5.332 -0.0178 -0.1262  0.0477
 5273SOL    HW227279   0.045   2.116   5.198 -1.5931  1.9271 -1.9889
 5274SOL     OW27280   2.241   0.680   5.783  0.1675 -0.3356  0.4766
 5274SOL    HW127281   2.275   0.644   5.701  0.9124 -0.4509  0.8277
 5274SOL    HW227282   2.248   0.602   5.839  0.2560 -1.0812 -0.5748
 5275SOL     OW27283   4.224   2.111   3.474  0.7991 -1.0777  0.3328
 5275SOL    HW127284   4.277   2.167   3.418  0.2996  0.3922  1.3498
 5275SOL    HW227285   4.179   2.167   3.537  0.8587  0.3990 -0.9429
 5276SOL     OW27286   3.419   0.301   6.941 -0.1115 -0.3019  0.5607
 5276SOL    HW127287   3.379   0.378   6.901 -1.8114 -1.4719  0.0429
 5276SOL    HW227288   3.353   0.232   6.931  0.3382 -0.3651 -1.9283
 5277SOL     OW27289   2.908   3.526   7.144 -0.2000 -0.1155 -0.2767
 5277SOL    HW127290   2.954   3.567   7.071 -0.1902 -1.6845 -1.1478
 5277SOL    HW227291   2.975   3.475   7.188 -0.6248 -2.4578 -2.3486
 5278SOL     OW27292   3.502   0.314   1.655 -0.6580 -0.4835 -0.5022
 5278SOL    HW127293   3.548   0.269   1.726 -0.2646 -1.5738 -1.4585
 5278SOL    HW227294   3.577   0.336   1.600 -0.6039 -2.9221 -1.3925
 5279SOL     OW27295   3.839   3.510   0.592  0.0015  0.7589  0.4130
 5279SOL    HW127296   3.851   3.527   0.685  2.5201 -0.1796  0.2727
 5279SOL    HW227297   3.920   3.465   0.567  0.1430  1.3666 -0.2194
 5280SOL     OW27298   1.432   3.853   4.347  0.8692 -0.5172 -0.1844
 5280SOL    HW127299   1.498   3.918   4.371 -1.8110  1.7536  1.0997
 5280SOL    HW227300   1.420   3.877   4.256  2.0410 -1.6074 -0.6313
 5281SOL     OW27301   3.732   1.315  14.010 -0.0510 -0.0355  0.1238
 5281SOL    HW127302   3.782   1.309  13.929  0.0200  0.2717  0.1433
 5281SOL    HW227303   3.646   1.315  13.967  0.0300  0.6873 -0.0380
 5282SOL     OW27304   0.535   4.345   3.623 -0.1608  0.4598  0.0818
 5282SOL    HW127305   0.494   4.380   3.702  0.1628  0.3528  0.2978
 5282SOL    HW227306   0.577   4.264   3.652 -0.7472 -0.5153 -1.8478
 5283SOL     OW27307   4.145   3.567  14.127 -0.6032  0.2807 -0.2688
 5283SOL    HW127308   4.090   3.615  14.065 -0.0602  0.5864 -0.5147
 5283SOL    HW227309   4.073   3.516  14.165 -0.0018 -0.5647 -0.2606
 5284SOL     OW27310   0.217   0.234   4.068  0.6525 -0.2193  0.1629
 5284SOL    HW127311   0.127   0.245   4.099 -0.1818  0.0050 -2.3232
 5284SOL    HW227312   0.262   0.241   4.152  0.0554  2.3724  0.2592
 5285SOL     OW27313   2.099   0.043   7.049 -0.6944 -0.3839  0.4677
 5285SOL    HW127314   2.167   4.697   7.048 -1.3765 -1.0778  1.4876
 5285SOL    HW227315   2.069   0.035   7.139 -2.2586 -1.4385 -0.1489
 5286SOL     OW27316   2.758   3.868   1.516 -0.0488 -0.9353  0.5445
 5286SOL    HW127317   2.781   3.945   1.569  0.9026 -1.5839  1.0621
 5286SOL    HW227318   2.674   3.852   1.559 -1.2183  1.6635 -0.7478
 5287SOL     OW27319   4.694   3.643   6.571  0.6028  0.3596 -0.0065
 5287SOL    HW127320   0.023   3.613   6.496  0.1143  1.8514 -0.9328
 5287SOL    HW227321   4.707   3.575   6.637  0.0931  0.7121  0.4617
 5288SOL     OW27322   2.878   2.543  16.989  0.3820  0.3405  0.2606
 5288SOL    HW127323   2.888   2.527  17.082 -1.5774 -1.9283  0.0595
 5288SOL    HW227324   2.801   2.600  16.987 -1.0788 -1.6562 -0.8773
 5289SOL     OW27325   2.878   2.327   4.432  0.2991 -0.2424 -0.0436
 5289SOL    HW127326   2.906   2.412   4.465  0.3059  0.6291 -2.2987
 5289SOL    HW227327   2.923   2.266   4.490 -0.3115  1.4364  2.1724
 5290SOL     OW27328   0.095   3.938   0.408  0.1401  0.5573 -0.1985
 5290SOL    HW127329   0.100   4.018   0.460  2.2442 -0.9417  1.9487
 5290SOL    HW227330   0.098   3.984   0.324  1.7630 -1.4572 -1.2588
 5291SOL     OW27331   4.440   4.300   4.378  0.3621 -0.2048 -0.1840
 5291SOL    HW127332   4.356   4.266   4.347  1.0320 -0.9056 -1.2100
 5291SOL    HW227333   4.449   4.369   4.313 -0.6980 -0.1428 -0.2719
 5292SOL     OW27334   1.537   3.903  15.269 -0.3855 -0.4606  0.3002
 5292SOL    HW127335   1.558   3.829  15.213  0.9413  0.5429 -0.5331
 5292SOL    HW227336   1.573   3.983  15.229  1.5816 -1.4137  0.1878
 5293SOL     OW27337   2.671   0.148   6.366 -0.1120  0.1114 -0.1650
 5293SOL    HW127338   2.690   0.241   6.384 -1.0254  0.3316 -0.3388
 5293SOL    HW227339   2.667   0.113   6.455 -1.2778 -1.2326 -0.7452
 5294SOL     OW27340   0.109   0.983   3.191  0.2868 -0.4393  0.1537
 5294SOL    HW127341   0.048   0.938   3.249 -0.3607  0.9999  0.5743
 5294SOL    HW227342   0.180   0.920   3.174  1.2682  0.3456  1.3107
 5295SOL     OW27343   4.630   2.070   5.693 -0.1309  0.0833  0.4368
 5295SOL    HW127344   4.648   2.012   5.767  0.1831  0.9058  1.0075
 5295SOL    HW227345   4.620   2.009   5.620 -0.2378 -0.6269  1.0445
 5296SOL     OW27346   4.386   4.565   3.526 -0.0336  0.7760 -0.3658
 5296SOL    HW127347   4.315   4.504   3.505  0.2969  0.3250 -0.1632
 5296SOL    HW227348   4.397   4.618   3.448 -0.9574  0.6874 -0.5595
 5297SOL     OW27349   3.432   3.630   3.008 -0.1338 -0.2011 -0.0753
 5297SOL    HW127350   3.499   3.685   3.049 -1.9262  2.3783 -0.5771
 5297SOL    HW227351   3.487   3.598   2.937  1.7393 -0.1733  1.3646
 5298SOL     OW27352   3.599   0.623   0.635 -0.1772  0.2097 -0.4042
 5298SOL    HW127353   3.626   0.573   0.558  0.7091 -0.9159  0.6360
 5298SOL    HW227354   3.624   0.714   0.618  0.3020  0.2493  0.5066
 5299SOL     OW27355   4.153   4.712   3.368  0.1257  0.1149  0.5577
 5299SOL    HW127356   4.156   0.080   3.401  0.0745 -0.0887  1.1310
 5299SOL    HW227357   4.070   4.671   3.394 -0.0539 -0.1560 -0.4674
 5300SOL     OW27358   1.150   2.406   8.566 -0.4347  0.6627  0.2898
 5300SOL    HW127359   1.146   2.317   8.531 -1.0918  0.8688 -0.1667
 5300SOL    HW227360   1.111   2.394   8.653 -0.9912 -0.8804 -0.1765
 5301SOL     OW27361   0.840   2.368   5.454  0.5037 -0.2973 -0.6977
 5301SOL    HW127362   0.806   2.286   5.420 -1.1841 -0.5996  1.7202
 5301SOL    HW227363   0.793   2.426   5.395  1.0940  0.9762  0.0677
 5302SOL     OW27364   4.693   4.301   2.832 -0.5193  0.1442 -0.3012
 5302SOL    HW127365   4.695   4.242   2.907  0.3785  1.4066  0.6464
 5302SOL    HW227366   0.064   4.313   2.810 -0.5054 -0.1875 -0.4384
 5303SOL     OW27367   2.342   3.258   0.784 -0.6528  0.4405 -0.0919
 5303SOL    HW127368   2.425   3.296   0.755  0.0517  1.5687  3.3230
 5303SOL    HW227369   2.276   3.320   0.753 -0.3757  0.7954  0.0347
 5304SOL     OW27370   2.530   2.385   2.606  0.2219 -0.0574  0.3949
 5304SOL    HW127371   2.523   2.443   2.683 -0.0253 -0.9060  1.0153
 5304SOL    HW227372   2.475   2.318   2.646  0.4456 -0.1232  0.5966
 5305SOL     OW27373   3.172   0.641   5.843 -0.0448  0.5695 -0.1022
 5305SOL    HW127374   3.213   0.601   5.767 -0.1958  1.1771 -0.5066
 5305SOL    HW227375   3.092   0.589   5.851 -0.3088  1.3464  2.5250
 5306SOL     OW27376   3.654   3.757  14.452 -0.3083  0.0163 -0.1102
 5306SOL    HW127377   3.675   3.721  14.366  1.6630 -0.7515  0.6824
 5306SOL    HW227378   3.668   3.680  14.507  1.6566  0.3722 -0.1019
 5307SOL     OW27379   1.639   2.980  16.315  0.1981  0.1643 -0.2183
 5307SOL    HW127380   1.638   2.960  16.408  0.8530  1.2628  0.0254
 5307SOL    HW227381   1.662   2.895  16.276 -0.2940  0.2582 -0.7136
 5308SOL     OW27382   4.163   2.096   5.696 -0.6497  0.0407  0.0797
 5308SOL    HW127383   4.185   2.128   5.783 -0.6268  0.5564 -0.1162
 5308SOL    HW227384   4.246   2.054   5.673 -1.2320  0.8328 -3.5669
 5309SOL     OW27385   3.031   1.324  11.687  0.4749  0.6679  0.4397
 5309SOL    HW127386   3.044   1.247  11.743  2.2160  0.2571 -0.5297
 5309SOL    HW227387   3.016   1.287  11.600  1.5352 -0.8246  0.8806
 5310SOL     OW27388   1.945   1.501   1.527  0.4139  0.2605 -0.3725
 5310SOL    HW127389   1.953   1.525   1.620 -1.1662  0.0016 -0.1702
 5310SOL    HW227390   1.996   1.572   1.489 -0.0128  0.4255 -0.6236
 5311SOL     OW27391   3.756   3.955   7.823 -0.4433 -0.2306  0.1146
 5311SOL    HW127392   3.744   4.028   7.761 -0.5081  0.9764  1.5560
 5311SOL    HW227393   3.832   3.981   7.876 -0.2018  0.0300 -0.3506
 5312SOL     OW27394   3.575   3.570   0.080  0.1465  0.4113 -0.3867
 5312SOL    HW127395   3.534   3.552   0.165  1.0261 -0.9761 -0.2455
 5312SOL    HW227396   3.670   3.557   0.091  0.1385 -1.0383 -2.1461
 5313SOL     OW27397   2.595   2.181   2.070  0.0108  0.0908 -0.1877
 5313SOL    HW127398   2.508   2.186   2.030 -0.0982  1.5049  0.2489
 5313SOL    HW227399   2.647   2.200   1.992 -0.4304  0.2552 -0.4461
 5314SOL     OW27400   4.714   4.021  15.422  0.3989  0.0956  0.4435
 5314SOL    HW127401   0.007   3.993  15.513 -1.1858  0.3754  0.7838
 5314SOL    HW227402   4.691   3.940  15.378  2.0077 -1.1472  1.9012
 5315SOL     OW27403   3.996   0.856   3.215  0.4897 -0.3897  0.3949
 5315SOL    HW127404   4.006   0.776   3.163 -2.4255 -0.4397 -0.0748
 5315SOL    HW227405   4.004   0.926   3.150  1.1892  0.1108  1.0190
 5316SOL     OW27406   4.270   1.219  10.021 -0.2946  0.0198  0.2644
 5316SOL    HW127407   4.352   1.171  10.035 -0.1437  0.0008 -0.6276
 5316SOL    HW227408   4.292   1.306  10.054  1.0205 -1.3011  2.8361
 5317SOL     OW27409   0.748   3.872  17.507  0.3832  0.3250 -0.1030
 5317SOL    HW127410   0.660   3.903  17.490 -0.0620 -1.0154 -0.2750
 5317SOL    HW227411   0.781   3.900  17.592  2.0023 -0.0860 -0.5874
 5318SOL     OW27412   2.387   3.625  10.179 -0.0308 -0.4898 -0.4712
 5318SOL    HW127413   2.456   3.676  10.222 -0.5974 -1.2210  1.3143
 5318SOL    HW227414   2.310   3.627  10.235  0.3043 -0.8544  0.0134
 5319SOL     OW27415   1.187   2.943  11.305 -0.0846 -0.3561  0.4684
 5319SOL    HW127416   1.201   2.897  11.222  0.0682  0.5954 -0.0297
 5319SOL    HW227417   1.277   2.950  11.336 -0.4339  0.6135  1.2689
 5320SOL     OW27418   3.576   1.465  13.265 -0.3205  0.0578 -0.2969
 5320SOL    HW127419   3.504   1.504  13.316 -1.4240 -3.1710  0.6359
 5320SOL    HW227420   3.655   1.496  13.309 -1.9818  2.9204  0.6288
 5321SOL     OW27421   3.796   2.703   5.760  0.5114  0.3639  0.8969
 5321SOL    HW127422   3.701   2.703   5.771  0.1972  0.0496 -1.8561
 5321SOL    HW227423   3.812   2.687   5.667  4.4653 -1.2181  1.8555
 5322SOL     OW27424   1.259   3.425  17.037  0.1537 -0.1288  0.0981
 5322SOL    HW127425   1.345   3.427  17.079  0.1227 -0.5690  0.1849
 5322SOL    HW227426   1.224   3.487  17.101 -0.7470 -1.1772  0.6223
 5323SOL     OW27427   2.874   1.483   7.801 -0.4766 -0.6026 -0.2750
 5323SOL    HW127428   2.931   1.515   7.872 -0.3000  0.5837 -0.9496
 5323SOL    HW227429   2.914   1.398   7.784  1.8874  0.2967  0.7134
 5324SOL     OW27430   0.038   0.708   2.483 -0.0870 -0.6264  0.1190
 5324SOL    HW127431   4.681   0.681   2.435  0.0508  0.3866 -0.6588
 5324SOL    HW227432   0.098   0.725   2.411 -1.1343 -0.3568 -0.6832
 5325SOL     OW27433   3.370   3.366  15.764 -0.4111  0.1508 -0.3164
 5325SOL    HW127434   3.415   3.397  15.842  0.1258 -0.9579 -0.1823
 5325SOL    HW227435   3.410   3.279  15.762 -1.1775 -0.2289  0.9293
 5326SOL     OW27436   2.771   0.959  11.209 -0.1812 -0.4133 -0.9566
 5326SOL    HW127437   2.705   0.946  11.141 -1.2052  0.3906 -0.1153
 5326SOL    HW227438   2.736   1.026  11.268 -0.2152 -0.8209 -0.5090
 5327SOL     OW27439   1.762   1.091   7.127  0.0196 -0.6681  0.3270
 5327SOL    HW127440   1.782   0.997   7.123 -1.1201 -0.9199  0.3211
 5327SOL    HW227441   1.667   1.095   7.139  0.1434  1.1348  0.6101
 5328SOL     OW27442   2.933   2.448   8.365 -0.1723  0.5918  0.4364
 5328SOL    HW127443   3.025   2.465   8.346 -0.3677 -0.2320 -1.2443
 5328SOL    HW227444   2.909   2.469   8.275  0.7817  1.1845  0.3164
 5329SOL     OW27445   1.595   2.730   7.236 -0.0745 -0.2532  0.5728
 5329SOL    HW127446   1.690   2.747   7.235 -0.1584  0.3389  1.8693
 5329SOL    HW227447   1.586   2.667   7.164  0.2306  0.3602 -0.0026
 5330SOL     OW27448   0.379   2.534   9.548 -0.2728  0.3355  0.0702
 5330SOL    HW127449   0.325   2.518   9.471 -0.0019 -0.7860  0.1161
 5330SOL    HW227450   0.364   2.453   9.597  2.2473 -0.4834 -0.5198
 5331SOL     OW27451   1.820   3.856  11.086  0.6068 -0.5775 -0.0037
 5331SOL    HW127452   1.726   3.871  11.073  0.5187 -2.9640 -2.1475
 5331SOL    HW227453   1.866   3.915  11.026 -0.0144 -0.8424 -0.7342
 5332SOL     OW27454   1.532   2.143   9.057 -0.0988 -0.2299  0.7039
 5332SOL    HW127455   1.600   2.150   9.124  0.7218 -0.1388 -0.1256
 5332SOL    HW227456   1.560   2.214   8.999  0.2340  0.1444  1.3218
 5333SOL     OW27457   0.714   1.514   8.479 -0.1291  0.1232  0.2645
 5333SOL    HW127458   0.656   1.466   8.419 -0.1552  0.9046 -0.3440
 5333SOL    HW227459   0.755   1.444   8.529  0.7497  0.2525 -0.2704
 5334SOL     OW27460   2.778   0.291   2.471 -0.0466 -0.3808  0.1008
 5334SOL    HW127461   2.706   0.351   2.450 -0.3302 -1.3784 -1.8367
 5334SOL    HW227462   2.780   0.233   2.395  3.6786 -2.1265  1.5523
 5335SOL     OW27463   1.586   1.698  12.110  0.6392  0.1868  0.0887
 5335SOL    HW127464   1.507   1.688  12.164  0.9358 -1.1837  0.2697
 5335SOL    HW227465   1.655   1.712  12.175 -1.8163 -0.5463  2.8683
 5336SOL     OW27466   1.095   1.738   1.626 -0.1805 -0.1134  0.3302
 5336SOL    HW127467   1.180   1.700   1.603 -0.3197  0.2145 -0.7154
 5336SOL    HW227468   1.074   1.673   1.694 -1.7301 -1.1671 -1.1396
 5337SOL     OW27469   2.402   1.312  10.679 -0.2041  0.4601  0.2182
 5337SOL    HW127470   2.332   1.377  10.673 -0.1118  0.4187 -1.1612
 5337SOL    HW227471   2.378   1.274  10.764  0.1563  0.0460  0.1307
 5338SOL     OW27472   3.440   1.786   4.481 -0.4291 -0.5136  0.4818
 5338SOL    HW127473   3.510   1.723   4.502  1.0406  0.9203 -0.1243
 5338SOL    HW227474   3.453   1.781   4.387 -1.7478 -0.2738  0.2945
 5339SOL     OW27475   1.413   3.733   3.702  0.9262 -0.0392 -0.2428
 5339SOL    HW127476   1.490   3.741   3.758 -1.1452 -1.2429  2.7968
 5339SOL    HW227477   1.377   3.648   3.727  0.3201  0.5238  0.8031
 5340SOL     OW27478   3.658   2.030  14.922  0.3918  0.4355 -0.3026
 5340SOL    HW127479   3.685   2.032  14.831  1.7539 -0.0214  0.0877
 5340SOL    HW227480   3.617   2.116  14.924  2.7677  1.5720 -1.1448
 5341SOL     OW27481   3.418   4.267  14.924 -0.0023 -0.3511  0.1385
 5341SOL    HW127482   3.373   4.340  14.882 -0.1701 -0.1817  0.6111
 5341SOL    HW227483   3.509   4.285  14.899 -0.3629  1.7195  0.2397
 5342SOL     OW27484   4.398   3.163  15.490  0.2019  0.5878 -0.3795
 5342SOL    HW127485   4.492   3.167  15.507  0.0885  0.6100  0.2249
 5342SOL    HW227486   4.378   3.254  15.510 -0.2964 -0.2422  2.8643
 5343SOL     OW27487   3.867   3.725  16.265 -0.2162 -0.4971 -0.0612
 5343SOL    HW127488   3.826   3.756  16.184  1.3240 -0.1364 -0.6830
 5343SOL    HW227489   3.918   3.803  16.284 -2.1134  0.5860  0.6734
 5344SOL     OW27490   1.361   0.567   6.233 -0.7259 -0.0901  0.3566
 5344SOL    HW127491   1.358   0.559   6.328  1.9413  0.2898  0.4825
 5344SOL    HW227492   1.452   0.544   6.215 -0.9257 -0.8884  0.3715
 5345SOL     OW27493   2.567   0.093  14.916 -0.1267 -0.4061  0.1738
 5345SOL    HW127494   2.643   0.075  14.971 -1.2955 -3.3102  0.7984
 5345SOL    HW227495   2.621   0.127  14.844 -0.4072 -0.3659 -0.0158
 5346SOL     OW27496   0.869   4.164   0.689 -0.3458  0.3095  0.0326
 5346SOL    HW127497   0.803   4.139   0.624  2.3878 -1.7564 -1.8939
 5346SOL    HW227498   0.862   4.093   0.753  1.7640 -3.7288 -4.1997
 5347SOL     OW27499   2.268   1.395   3.671 -0.2741  0.1411  0.2697
 5347SOL    HW127500   2.248   1.423   3.760 -0.7234  0.6763  0.0012
 5347SOL    HW227501   2.330   1.461   3.640 -0.5965  0.2885 -0.0709
 5348SOL     OW27502   1.490   2.234   4.196  0.3654 -0.3928 -0.4110
 5348SOL    HW127503   1.472   2.253   4.288 -0.7792  0.5193 -0.8247
 5348SOL    HW227504   1.576   2.196   4.214 -0.5840 -1.7064  1.3986
 5349SOL     OW27505   2.982   2.398   8.657  0.2616 -0.0554 -0.2809
 5349SOL    HW127506   2.930   2.440   8.588  0.1703 -0.8172 -0.6793
 5349SOL    HW227507   2.958   2.306   8.649 -1.1053  0.1967  0.7542
 5350SOL     OW27508   1.428   4.213   2.490 -0.4634  0.1903  0.0075
 5350SOL    HW127509   1.420   4.138   2.432  1.3023  0.0342 -0.0382
 5350SOL    HW227510   1.471   4.278   2.434  1.3744  0.2845  1.4908
 5351SOL     OW27511   3.415   1.555  12.906  0.5226  0.7568  0.5829
 5351SOL    HW127512   3.410   1.586  12.996  1.1521  1.8013  0.2570
 5351SOL    HW227513   3.451   1.631  12.862  2.7969 -0.9169 -0.4205
 5352SOL     OW27514   2.622   0.926   1.220 -0.0406 -0.1801  0.7609
 5352SOL    HW127515   2.556   0.859   1.238 -1.0627  0.3834 -0.9633
 5352SOL    HW227516   2.635   0.958   1.310  2.4987  0.4934  0.1519
 5353SOL     OW27517   0.967   3.168   9.368 -0.7680  0.0338 -0.0421
 5353SOL    HW127518   0.968   3.094   9.428 -2.9492  1.3562  1.6268
 5353SOL    HW227519   1.046   3.216   9.391 -1.1572  0.7955 -0.2684
 5354SOL     OW27520   0.521   3.673  17.117 -0.1286 -0.0476  0.3765
 5354SOL    HW127521   0.593   3.685  17.178  0.9074 -1.8300 -0.5274
 5354SOL    HW227522   0.462   3.621  17.171  0.6107 -2.2286 -0.9377
 5355SOL     OW27523   3.623   0.282   9.233 -0.0464  0.4791  0.2325
 5355SOL    HW127524   3.696   0.267   9.173  0.7703 -1.6280  1.7179
 5355SOL    HW227525   3.566   0.208   9.211  0.7534 -0.9130  2.7214
 5356SOL     OW27526   2.603   1.066   1.654  0.1221  0.0738 -0.6692
 5356SOL    HW127527   2.588   0.972   1.646 -1.4355  0.3715 -1.1916
 5356SOL    HW227528   2.524   1.102   1.614 -0.5976 -0.7200  0.0615
 5357SOL     OW27529   0.890   2.908   8.967  0.0411  0.6549 -0.1629
 5357SOL    HW127530   0.798   2.921   8.944 -0.1775  0.0672  0.3696
 5357SOL    HW227531   0.901   2.932   9.058 -0.8738  1.2645 -0.2124
 5358SOL     OW27532   1.044   3.562  11.294  0.0508 -0.2617  0.0668
 5358SOL    HW127533   1.028   3.655  11.307 -1.0272 -0.3040 -0.9693
 5358SOL    HW227534   1.120   3.539  11.347  0.3475 -0.1595 -0.3126
 5359SOL     OW27535   4.554   4.488   3.733 -0.5875 -0.1171 -0.4971
 5359SOL    HW127536   4.499   4.450   3.801  1.1444 -1.1700  0.3330
 5359SOL    HW227537   4.493   4.493   3.659 -1.0409 -0.4194 -0.1440
 5360SOL     OW27538   4.321   2.909  14.589  0.7218  0.1091  0.0548
 5360SOL    HW127539   4.267   2.952  14.523 -0.2669 -1.0450  0.1282
 5360SOL    HW227540   4.263   2.923  14.664  0.4258 -2.1272  0.2438
 5361SOL     OW27541   3.251   1.402   1.383 -0.0946  0.0810 -0.1081
 5361SOL    HW127542   3.185   1.458   1.344  0.3566  0.6243 -0.0860
 5361SOL    HW227543   3.293   1.365   1.306  0.1649 -1.2342  0.6516
 5362SOL     OW27544   2.875   4.685  17.586  0.5483 -0.5906 -0.0325
 5362SOL    HW127545   2.788   0.004  17.582  1.0600  0.4193 -1.1331
 5362SOL    HW227546   2.849   4.617  17.524 -0.2720  1.2023 -1.6761
 5363SOL     OW27547   3.947   3.018   8.281  0.7842 -0.7771  0.9862
 5363SOL    HW127548   3.875   3.063   8.325  0.9471  1.4389 -0.9581
 5363SOL    HW227549   4.001   2.986   8.353  0.0593 -2.1618  0.9103
 5364SOL     OW27550   3.043   2.597  16.321 -0.3859  0.2476 -0.4962
 5364SOL    HW127551   3.030   2.524  16.380  0.6889  0.3322 -0.1604
 5364SOL    HW227552   2.952   2.601  16.292 -0.9462 -0.9411  1.1372
 5365SOL     OW27553   0.614   0.536   5.078 -0.1689  0.1541  0.4279
 5365SOL    HW127554   0.596   0.526   5.171  0.5386  0.1076  0.5608
 5365SOL    HW227555   0.709   0.549   5.078 -0.0779 -0.4641 -0.2951
 5366SOL     OW27556   0.056   3.385   5.395  0.4413  0.2042 -0.3876
 5366SOL    HW127557   0.057   3.453   5.463 -1.0280 -1.2776  1.1155
 5366SOL    HW227558   0.033   3.442   5.322  2.1239  0.0839 -1.0039
 5367SOL     OW27559   4.694   2.112   2.208  0.1033 -0.0475 -0.0994
 5367SOL    HW127560   0.055   2.091   2.165 -1.2853  0.1354 -2.8561
 5367SOL    HW227561   4.716   2.109   2.301  1.5918 -0.6385 -0.4702
 5368SOL     OW27562   0.477   0.299  13.830 -0.4310  0.0344 -0.2070
 5368SOL    HW127563   0.415   0.301  13.756  0.1043 -1.2674 -0.6909
 5368SOL    HW227564   0.462   0.212  13.865  0.3619 -0.9180 -2.2717
 5369SOL     OW27565   4.313   1.395   3.431  0.0763  0.1513  0.3061
 5369SOL    HW127566   4.277   1.316   3.390  1.0790  1.2381 -2.6754
 5369SOL    HW227567   4.237   1.427   3.480  0.5675  2.7948 -0.6464
 5370SOL     OW27568   0.121   3.690   7.139 -0.0851  0.0775  0.5121
 5370SOL    HW127569   0.093   3.687   7.231 -0.7511 -0.4297  0.2901
 5370SOL    HW227570   0.108   3.784   7.128 -0.0204  0.2179  1.5944
 5371SOL     OW27571   4.062   1.275   4.877 -0.3003 -0.5126 -0.4518
 5371SOL    HW127572   4.066   1.182   4.854  3.2250 -0.1918 -1.1482
 5371SOL    HW227573   4.015   1.276   4.961  2.6879 -1.4225  1.2409
 5372SOL     OW27574   2.155   1.493   7.724 -0.3829 -0.1018  0.2893
 5372SOL    HW127575   2.235   1.447   7.698  1.1715  2.3224  0.8342
 5372SOL    HW227576   2.105   1.426   7.772 -0.3591 -0.6783 -0.4909
 5373SOL     OW27577   1.486   3.384   5.073 -0.3434 -0.1616 -0.8542
 5373SOL    HW127578   1.436   3.314   5.114 -0.0663 -0.4784 -1.0576
 5373SOL    HW227579   1.574   3.349   5.080 -0.9340 -1.6450 -0.9351
 5374SOL     OW27580   2.921   1.065  11.483  0.0189  0.1230  0.3543
 5374SOL    HW127581   2.943   0.994  11.424 -0.8084 -0.2469  0.4876
 5374SOL    HW227582   2.857   1.119  11.437 -0.7989  0.0874  1.4424
 5375SOL     OW27583   4.593   2.679  15.132  0.2572 -0.6508 -0.0336
 5375SOL    HW127584   4.684   2.708  15.122  0.3772 -1.2652 -0.7575
 5375SOL    HW227585   4.552   2.741  15.072  1.5920 -1.8320 -2.1931
 5376SOL     OW27586   0.446   4.425  16.988  0.3261  0.3287  0.2485
 5376SOL    HW127587   0.511   4.363  17.019  1.5905  0.5455 -1.9710
 5376SOL    HW227588   0.377   4.362  16.969 -0.3835  1.3513 -0.6055
 5377SOL     OW27589   2.127   2.615   6.654 -0.3498 -0.6099 -0.1839
 5377SOL    HW127590   2.106   2.607   6.561 -2.5166 -0.1916  0.2575
 5377SOL    HW227591   2.221   2.619   6.668 -0.1016  1.0201 -2.3868
 5378SOL     OW27592   4.526   3.314   9.065 -0.8231 -0.3515 -0.6026
 5378SOL    HW127593   4.435   3.325   9.037 -0.9480 -2.0444 -0.8693
 5378SOL    HW227594   4.555   3.405   9.069  0.5334 -0.7496 -1.0851
 5379SOL     OW27595   0.792   1.896   6.413 -0.0171  0.0704  0.6956
 5379SOL    HW127596   0.853   1.825   6.432 -0.2239 -0.6495 -1.3207
 5379SOL    HW227597   0.718   1.889   6.473 -1.6629 -0.0621 -1.3304
 5380SOL     OW27598   3.927   3.909   3.556 -0.2513  0.4455 -0.1223
 5380SOL    HW127599   4.019   3.884   3.558 -0.7909 -1.3694  1.7708
 5380SOL    HW227600   3.923   3.948   3.643  1.8456 -1.7637  0.9545
 5381SOL     OW27601   3.053   4.047   4.958  0.2592  0.1191  0.0673
 5381SOL    HW127602   3.114   4.093   4.900  0.0078 -0.2164 -0.4611
 5381SOL    HW227603   3.101   3.966   4.975  0.6351  0.4910  0.7850
 5382SOL     OW27604   3.065   1.500   1.217 -0.1275 -0.1825 -0.3429
 5382SOL    HW127605   3.019   1.583   1.229  1.7671  0.7665  0.3546
 5382SOL    HW227606   3.086   1.511   1.124  1.6369 -1.5785 -0.1243
 5383SOL     OW27607   2.899   0.326   0.542  0.1512 -0.3577 -0.4075
 5383SOL    HW127608   2.841   0.317   0.617 -0.6630 -0.4841 -1.0416
 5383SOL    HW227609   2.985   0.331   0.582  0.3205  0.7386 -0.9213
 5384SOL     OW27610   0.982   0.219  10.742 -0.1625 -0.4586  0.1997
 5384SOL    HW127611   0.978   0.297  10.687  0.7593  0.0680  0.8809
 5384SOL    HW227612   1.042   0.253  10.808  0.1132  0.9798 -0.7926
 5385SOL     OW27613   3.445   3.822   3.610 -0.1842  0.2474 -0.5397
 5385SOL    HW127614   3.482   3.736   3.628  0.1217  0.0698 -1.9998
 5385SOL    HW227615   3.436   3.817   3.515 -2.9848  0.4026 -0.2790
 5386SOL     OW27616   4.029   1.953   7.043 -0.2470 -0.4170 -0.0399
 5386SOL    HW127617   3.959   2.017   7.033  0.2260  0.3450  1.5305
 5386SOL    HW227618   4.018   1.916   6.956 -0.3359  2.9478 -1.4621
 5387SOL     OW27619   2.588   0.359   1.955 -0.5312 -0.5469 -0.2658
 5387SOL    HW127620   2.645   0.373   1.880  1.3670  0.9560  1.4430
 5387SOL    HW227621   2.560   0.448   1.977  0.2826  0.1941 -2.1847
 5388SOL     OW27622   0.488   1.136  10.014 -0.2618  0.3288 -0.2953
 5388SOL    HW127623   0.495   1.041  10.014  0.2145  0.3603  0.7626
 5388SOL    HW227624   0.393   1.145  10.022 -0.2978 -1.8327  1.6714
 5389SOL     OW27625   0.822   1.616   9.604  0.1490  0.1126  0.1115
 5389SOL    HW127626   0.829   1.530   9.644  1.7569  0.1778 -0.0245
 5389SOL    HW227627   0.908   1.655   9.617 -0.0623  0.7320 -0.3162
 5390SOL     OW27628   3.585   1.356   8.424  0.0703  0.5017 -0.7369
 5390SOL    HW127629   3.669   1.325   8.390  0.2564  0.3294 -0.1071
 5390SOL    HW227630   3.590   1.342   8.518 -1.1971  0.4446 -0.6757
 5391SOL     OW27631   4.159   0.181  15.035 -0.4843  0.6936 -0.2577
 5391SOL    HW127632   4.076   0.161  15.078 -1.0062  0.0568 -1.5695
 5391SOL    HW227633   4.215   0.123  15.087  0.4894  1.6904 -0.1869
 5392SOL     OW27634   2.352   2.272   3.874 -0.5190 -0.0661 -0.5405
 5392SOL    HW127635   2.361   2.213   3.799 -0.0402 -1.2335  0.4372
 5392SOL    HW227636   2.414   2.342   3.856  0.5019 -0.8185  0.1013
 5393SOL     OW27637   4.242   0.395   8.645  0.5743  0.2074 -0.2537
 5393SOL    HW127638   4.251   0.432   8.733  1.6203 -1.2127  0.2345
 5393SOL    HW227639   4.244   0.466   8.581  1.4851 -0.1113 -0.5893
 5394SOL     OW27640   2.174   3.348   0.432 -0.1387  0.4246 -0.3368
 5394SOL    HW127641   2.225   3.378   0.356 -1.2557  0.4778 -1.0704
 5394SOL    HW227642   2.139   3.260   0.419 -0.0166  0.4125 -0.5835
 5395SOL     OW27643   4.290   4.140   9.493  0.4829 -0.3875 -0.5583
 5395SOL    HW127644   4.297   4.215   9.552 -0.2322  0.1067 -1.0987
 5395SOL    HW227645   4.242   4.084   9.554  2.7149 -2.4149 -0.6564
 5396SOL     OW27646   0.568   1.619   2.236  0.0480  0.3748  0.3326
 5396SOL    HW127647   0.525   1.627   2.322 -2.0723 -0.8132 -0.6186
 5396SOL    HW227648   0.508   1.558   2.191 -0.3524  1.3416 -0.4317
 5397SOL     OW27649   2.271   0.487   5.972 -0.2578 -0.5053  0.3816
 5397SOL    HW127650   2.320   0.405   5.969  0.6376  0.0459  0.0669
 5397SOL    HW227651   2.187   0.443   5.959 -0.4326 -0.5308  1.5582
 5398SOL     OW27652   4.209   2.362   0.938 -0.1850 -0.4250 -0.0699
 5398SOL    HW127653   4.300   2.366   0.908 -0.7806  0.8710 -1.7222
 5398SOL    HW227654   4.174   2.328   0.855  0.1159  1.6657 -1.0456
 5399SOL     OW27655   2.046   2.277   9.779  0.3798 -0.5979 -0.2916
 5399SOL    HW127656   2.031   2.248   9.868 -1.0432 -1.0627 -0.6930
 5399SOL    HW227657   2.129   2.233   9.759  1.3304  0.2434  1.8451
 5400SOL     OW27658   1.075   2.721   6.976 -0.1307 -0.1007  0.3283
 5400SOL    HW127659   1.034   2.649   6.927  1.0408  0.3576 -1.3263
 5400SOL    HW227660   1.021   2.716   7.055  1.6409 -1.5577  1.4745
 5401SOL     OW27661   3.261   1.354   1.921  0.1229  0.9442  0.3003
 5401SOL    HW127662   3.169   1.376   1.939 -0.1358 -0.7519  1.0303
 5401SOL    HW227663   3.300   1.324   2.004  0.0539 -1.2729 -0.4868
 5402SOL     OW27664   3.117   1.913   1.600 -0.0433  0.5851 -0.4110
 5402SOL    HW127665   3.115   1.867   1.684 -0.5446 -0.5384 -1.0349
 5402SOL    HW227666   3.162   1.855   1.538  2.5009  0.7263  1.3222
 5403SOL     OW27667   4.090   2.147   8.463 -0.0851  0.1156  0.2415
 5403SOL    HW127668   4.162   2.206   8.443 -0.9178  1.0006 -0.1297
 5403SOL    HW227669   4.109   2.135   8.556 -1.1382 -0.4017  0.3876
 5404SOL     OW27670   2.179   3.115  15.063  0.4901  0.0218 -0.4498
 5404SOL    HW127671   2.120   3.190  15.075  0.3350 -0.4123  1.5519
 5404SOL    HW227672   2.151   3.066  15.141 -0.4867 -1.0918 -1.4846
 5405SOL     OW27673   2.398   0.198   8.272  0.2306  0.0260  0.4569
 5405SOL    HW127674   2.367   0.145   8.199  0.3428 -2.2318  2.0730
 5405SOL    HW227675   2.314   0.237   8.298  0.1428 -0.9965  1.6905
 5406SOL     OW27676   4.517   4.357   6.710 -0.1818  0.0821 -0.3710
 5406SOL    HW127677   4.609   4.334   6.709 -1.1174 -3.6592  0.8520
 5406SOL    HW227678   4.492   4.285   6.652 -2.7858  0.4306  0.2986
 5407SOL     OW27679   1.869   3.497   7.356 -0.9397  0.3979  0.2089
 5407SOL    HW127680   1.909   3.491   7.443 -0.4712 -0.1671 -0.0481
 5407SOL    HW227681   1.951   3.515   7.310 -1.3631  0.4494 -0.5317
 5408SOL     OW27682   0.539   4.262   0.692  0.4700  0.0453  0.0978
 5408SOL    HW127683   0.564   4.316   0.766  0.3881 -0.6318  0.6270
 5408SOL    HW227684   0.465   4.215   0.731  0.4893  0.9285  1.1781
 5409SOL     OW27685   0.813   2.937   7.119 -0.0490 -0.2420 -0.2131
 5409SOL    HW127686   0.826   2.843   7.134  0.0906 -0.3534 -0.9874
 5409SOL    HW227687   0.871   2.970   7.187  0.9578  0.2861 -1.3288
 5410SOL     OW27688   2.365   0.530   3.052 -0.3464  0.0866 -0.2285
 5410SOL    HW127689   2.285   0.520   3.001  0.1075 -1.8026 -0.5482
 5410SOL    HW227690   2.389   0.618   3.022 -1.1147  0.7341  1.0537
 5411SOL     OW27691   3.942   3.188  14.852  0.0271  0.5569  0.6190
 5411SOL    HW127692   3.983   3.221  14.932  1.6160  2.6013 -1.0573
 5411SOL    HW227693   3.915   3.100  14.879  1.1775  0.8744  2.8350
 5412SOL     OW27694   1.819   0.752   9.219  0.0732  0.3477 -0.2685
 5412SOL    HW127695   1.728   0.722   9.225  0.1528  0.2802  0.7092
 5412SOL    HW227696   1.853   0.729   9.306 -0.7552 -1.6394 -0.4624
 5413SOL     OW27697   2.653   1.879   6.673 -0.0678  0.5093  0.3901
 5413SOL    HW127698   2.628   1.838   6.590 -1.2923 -0.0848  1.0561
 5413SOL    HW227699   2.665   1.801   6.727 -1.8413  1.3936  2.0415
 5414SOL     OW27700   1.735   3.678  11.792 -0.3736 -0.6140 -0.5587
 5414SOL    HW127701   1.674   3.634  11.733 -0.6845 -0.1427 -0.5915
 5414SOL    HW227702   1.818   3.642  11.761  0.7345  0.3506  1.2750
 5415SOL     OW27703   3.231   3.914   9.063 -0.4570 -0.4171  0.0781
 5415SOL    HW127704   3.230   4.006   9.088  0.3381 -0.2071 -0.6860
 5415SOL    HW227705   3.212   3.872   9.147 -0.0884  1.3046  1.0199
 5416SOL     OW27706   0.959   3.507   4.703 -0.1903  0.0520  0.2502
 5416SOL    HW127707   1.044   3.507   4.747 -0.6897 -3.2989  1.2051
 5416SOL    HW227708   0.972   3.483   4.611  2.3646  1.1924  0.3239
 5417SOL     OW27709   2.039   1.543   7.368  0.4451  0.2811 -0.6685
 5417SOL    HW127710   2.026   1.594   7.448  1.9808 -2.4887  1.3616
 5417SOL    HW227711   2.004   1.468   7.415 -0.1426  0.4176 -0.8842
 5418SOL     OW27712   1.601   1.037  12.257 -0.1131  0.3554 -0.6707
 5418SOL    HW127713   1.645   1.049  12.342 -0.2931 -0.7932 -0.4127
 5418SOL    HW227714   1.607   0.944  12.235 -0.8473  0.1425  0.0288
 5419SOL     OW27715   2.600   2.777   2.533  0.6700 -0.8712 -0.7078
 5419SOL    HW127716   2.685   2.754   2.570  0.2739  0.5231  1.0969
 5419SOL    HW227717   2.622   2.774   2.440 -1.6323 -0.8148 -1.2644
 5420SOL     OW27718   2.325   1.736  12.658 -0.5160  0.4453  0.2995
 5420SOL    HW127719   2.368   1.653  12.681  1.3430  2.1788  3.0127
 5420SOL    HW227720   2.244   1.734  12.710 -0.3447 -0.5616  0.5363
 5421SOL     OW27721   2.390   2.842  12.762 -0.0021  0.3171 -0.0446
 5421SOL    HW127722   2.335   2.767  12.737 -1.1805  1.7693 -1.8034
 5421SOL    HW227723   2.336   2.860  12.839 -0.7858  2.4033 -1.0995
 5422SOL     OW27724   4.234   3.289  11.782  0.2257  0.4852 -0.6881
 5422SOL    HW127725   4.264   3.290  11.872 -2.4224  2.9108  0.1849
 5422SOL    HW227726   4.160   3.231  11.800  0.9341 -0.4955 -0.9509
 5423SOL     OW27727   1.516   1.689   9.256  0.2611 -0.1443  0.3960
 5423SOL    HW127728   1.596   1.707   9.305 -1.0560  3.6435  1.1173
 5423SOL    HW227729   1.525   1.760   9.193  2.1037 -2.0306 -1.4881
 5424SOL     OW27730   2.653   0.829  10.435 -0.3842 -0.1897 -0.2296
 5424SOL    HW127731   2.564   0.813  10.405 -0.9776  2.6939  0.0065
 5424SOL    HW227732   2.704   0.811  10.356 -0.1448  0.2821 -0.1816
 5425SOL     OW27733   1.836   1.307   9.081 -0.3432  0.8545 -0.4238
 5425SOL    HW127734   1.931   1.300   9.087 -0.6354 -1.6733  1.3326
 5425SOL    HW227735   1.821   1.393   9.043  1.1760  1.5230  0.5148
 5426SOL     OW27736   1.976   1.207   2.578  0.1711 -0.8626 -1.0236
 5426SOL    HW127737   1.986   1.112   2.585  0.6680 -0.7872 -0.6854
 5426SOL    HW227738   1.926   1.217   2.497  1.9804 -1.4884 -2.2320
 5427SOL     OW27739   0.157   0.598   5.913  0.3340 -0.4693 -0.2659
 5427SOL    HW127740   0.148   0.669   5.977 -0.3580 -0.1582 -0.7060
 5427SOL    HW227741   0.064   0.577   5.908  0.3689 -1.2659  2.0313
 5428SOL     OW27742   4.195   2.523   5.963 -0.0456  0.3264  0.5774
 5428SOL    HW127743   4.131   2.594   5.954  0.3540  0.6043 -0.0503
 5428SOL    HW227744   4.258   2.560   5.901  0.7200  0.4883  1.4506
 5429SOL     OW27745   4.410   0.385  16.087 -0.3282  0.5806 -0.2439
 5429SOL    HW127746   4.473   0.456  16.078  1.8097 -1.0375  1.9127
 5429SOL    HW227747   4.358   0.424  16.158 -2.2658 -1.4804 -0.5442
 5430SOL     OW27748   3.580   1.851  15.355  0.3476 -0.2381 -0.5143
 5430SOL    HW127749   3.623   1.937  15.352  0.0944 -0.1033 -0.3606
 5430SOL    HW227750   3.595   1.822  15.266  1.2718  1.4116 -0.9028
 5431SOL     OW27751   1.356   1.701  16.455  0.1780  0.2531  0.2623
 5431SOL    HW127752   1.399   1.785  16.472 -2.2226  1.5547 -0.0958
 5431SOL    HW227753   1.392   1.670  16.373 -4.1752 -0.8586 -1.2374
 5432SOL     OW27754   1.260   1.593   9.373  0.4095 -0.4068  0.1528
 5432SOL    HW127755   1.352   1.616   9.383  0.5255 -0.5778 -0.5457
 5432SOL    HW227756   1.239   1.547   9.455  0.3573 -1.7489 -0.6131
 5433SOL     OW27757   0.345   0.551   3.550  0.1986 -0.2946  0.6190
 5433SOL    HW127758   0.294   0.474   3.576 -0.6654 -1.1720 -3.6791
 5433SOL    HW227759   0.284   0.625   3.551 -0.4739 -0.8306 -0.7588
 5434SOL     OW27760   1.018   1.484  15.121  0.6459  0.0176 -0.3627
 5434SOL    HW127761   1.027   1.497  15.215  0.5293  1.5837 -0.5699
 5434SOL    HW227762   1.007   1.389  15.128  4.5703 -0.3095  1.2303
 5435SOL     OW27763   1.074   2.240   6.837 -0.3860 -0.1296 -0.1507
 5435SOL    HW127764   1.007   2.176   6.859 -0.0298  0.2214  1.9028
 5435SOL    HW227765   1.158   2.200   6.861 -1.0700 -1.1645  0.5351
 5436SOL     OW27766   0.943   3.265   3.043 -0.8202  0.5737  0.2505
 5436SOL    HW127767   0.953   3.189   3.101  0.9497  1.3534  0.9561
 5436SOL    HW227768   0.849   3.270   3.023 -1.0448 -0.2002  1.0998
 5437SOL     OW27769   1.101   3.570   2.784  0.6449 -0.4055 -0.0573
 5437SOL    HW127770   1.098   3.666   2.786 -0.7133 -0.4818  1.8298
 5437SOL    HW227771   1.165   3.557   2.715  1.2834 -1.5826  0.7513
 5438SOL     OW27772   3.045   1.380   2.300  0.4157  0.2381  0.4668
 5438SOL    HW127773   3.049   1.352   2.392  2.3051 -0.9627  0.0101
 5438SOL    HW227774   3.117   1.339   2.253  0.1969  0.1164  0.2380
 5439SOL     OW27775   3.630   3.372   5.714  0.1625 -0.1010 -0.2724
 5439SOL    HW127776   3.620   3.444   5.776  1.9769 -0.7758  0.8041
 5439SOL    HW227777   3.561   3.317   5.749  1.5041 -1.7809 -0.2733
 5440SOL     OW27778   0.608   1.680   8.669  0.5554  0.4101  0.0382
 5440SOL    HW127779   0.653   1.630   8.600  0.3271 -0.5101  0.5533
 5440SOL    HW227780   0.678   1.708   8.727  0.1145  0.8913  0.3291
 5441SOL     OW27781   1.003   4.370   5.084  0.2111 -0.0071 -0.4186
 5441SOL    HW127782   0.951   4.421   5.147 -2.5779 -1.7139 -1.3483
 5441SOL    HW227783   1.045   4.441   5.035 -0.4200  0.4605 -0.2892
 5442SOL     OW27784   3.386   1.690  13.128  0.7108 -0.2246  0.4220
 5442SOL    HW127785   3.320   1.747  13.089  0.2417 -1.4842 -0.6137
 5442SOL    HW227786   3.411   1.744  13.203  0.1676 -0.7126  0.9531
 5443SOL     OW27787   2.902   1.060   3.663  0.1032 -0.0631 -0.1190
 5443SOL    HW127788   2.901   1.135   3.605 -1.3069  0.1951  0.2293
 5443SOL    HW227789   2.884   1.101   3.748 -0.7932  2.8822 -1.7455
 5444SOL     OW27790   3.401   1.757   4.760  0.2374  0.1754 -0.0232
 5444SOL    HW127791   3.326   1.722   4.808  0.0211 -0.5102 -0.8626
 5444SOL    HW227792   3.371   1.755   4.669 -1.4503 -1.0567  0.5596
 5445SOL     OW27793   0.776   4.418   0.044  0.1127 -0.5728 -0.1380
 5445SOL    HW127794   0.829   4.484   0.088  2.5564 -1.8755 -1.1203
 5445SOL    HW227795   0.751   4.349   0.105 -1.1125  0.1669  0.1849
 5446SOL     OW27796   2.975   0.524   0.850  0.2187 -0.3538 -0.3660
 5446SOL    HW127797   2.979   0.436   0.888  2.0590 -0.9642 -1.9528
 5446SOL    HW227798   3.061   0.564   0.863 -1.2771  2.1052  1.6964
 5447SOL     OW27799   4.501   1.499   5.660 -0.3968 -0.2607 -0.1799
 5447SOL    HW127800   4.453   1.523   5.581  1.0737  3.3484  0.0502
 5447SOL    HW227801   4.585   1.472   5.621 -0.7477 -0.0232 -1.0788
 5448SOL     OW27802   2.754   2.240   6.358  0.1462 -0.4571 -0.3504
 5448SOL    HW127803   2.715   2.181   6.422 -0.2972 -1.6495 -1.7115
 5448SOL    HW227804   2.829   2.272   6.408 -1.0427  0.2938  0.9485
 5449SOL     OW27805   2.737   4.717   4.835 -0.3059 -0.9335 -0.1604
 5449SOL    HW127806   2.704   0.032   4.753  0.7571 -0.9463 -0.5995
 5449SOL    HW227807   2.829   0.004   4.809 -0.6436  0.7372 -0.8231
 5450SOL     OW27808   4.107   4.228  14.324  0.0971 -0.5986 -0.0680
 5450SOL    HW127809   4.125   4.275  14.404 -0.4307 -3.5031  1.7599
 5450SOL    HW227810   4.117   4.301  14.263  0.6552 -2.2879 -2.0290
 5451SOL     OW27811   4.485   2.226   5.888 -0.4380  0.0080  0.6872
 5451SOL    HW127812   4.555   2.209   5.825 -0.9104 -1.1045  0.4541
 5451SOL    HW227813   4.521   2.177   5.962 -0.1485 -0.2466  0.3783
 5452SOL     OW27814   0.025   2.524  13.917  0.0417 -0.5790  0.2105
 5452SOL    HW127815   4.719   2.565  13.999 -0.2976  1.6634 -1.0410
 5452SOL    HW227816   0.109   2.482  13.935  0.9692 -0.5704 -3.9662
 5453SOL     OW27817   0.166   0.771  11.984 -0.2482  0.0690  0.4409
 5453SOL    HW127818   0.183   0.860  11.953 -1.0270 -0.1376 -0.5657
 5453SOL    HW227819   0.156   0.734  11.897  3.1494 -0.1431  0.1533
 5454SOL     OW27820   0.975   3.296   6.060 -0.3171 -0.0750 -0.6715
 5454SOL    HW127821   0.980   3.333   5.972 -0.4592 -1.2712 -1.1890
 5454SOL    HW227822   0.970   3.202   6.040  1.3582 -0.6325  1.4493
 5455SOL     OW27823   1.440   4.318   6.904 -0.3575  0.3487  0.1772
 5455SOL    HW127824   1.455   4.231   6.940 -0.5917 -0.6305 -2.0653
 5455SOL    HW227825   1.466   4.374   6.976 -0.7239  0.1240  0.4858
 5456SOL     OW27826   1.813   3.054  13.029  0.3422 -0.2851 -0.1183
 5456SOL    HW127827   1.822   3.137  13.076 -0.2860  0.1858 -0.8325
 5456SOL    HW227828   1.865   3.071  12.951  1.0708  2.7604  1.0283
 5457SOL     OW27829   0.786   0.441  12.437  0.4376 -0.1289  0.5548
 5457SOL    HW127830   0.734   0.397  12.504 -1.9721  1.6954 -0.1068
 5457SOL    HW227831   0.741   0.413  12.358  0.2309 -0.8275  0.9185
 5458SOL     OW27832   2.507   0.997   5.713  0.0216 -0.3993 -0.0212
 5458SOL    HW127833   2.433   0.969   5.767 -0.0691 -0.1522 -0.0144
 5458SOL    HW227834   2.483   0.943   5.638 -1.1485 -0.3321  0.3015
 5459SOL     OW27835   0.912   1.799   7.601  0.5771 -0.4447  0.0003
 5459SOL    HW127836   0.988   1.760   7.645  0.4667  1.4963  1.8915
 5459SOL    HW227837   0.849   1.765   7.665  0.2753  0.4668  0.1886
 5460SOL     OW27838   0.246   1.235   5.929 -0.6927 -0.2984  0.3295
 5460SOL    HW127839   0.329   1.208   5.968 -1.5412 -3.6462 -0.2194
 5460SOL    HW227840   0.218   1.152   5.892 -2.4060 -0.5258  2.0979
 5461SOL     OW27841   2.815   2.744   1.896  0.7541  0.0587 -0.1158
 5461SOL    HW127842   2.820   2.725   1.802 -0.5992  0.5210 -0.2760
 5461SOL    HW227843   2.817   2.655   1.930 -0.1154  0.8575  2.0644
 5462SOL     OW27844   2.404   2.013   2.704 -0.2067  0.4053 -0.5100
 5462SOL    HW127845   2.477   2.015   2.642 -0.9186 -1.9081 -1.3956
 5462SOL    HW227846   2.411   2.095   2.754 -1.6100  0.3074 -0.1531
 5463SOL     OW27847   1.859   0.286   4.081  0.4759  0.3251 -0.2557
 5463SOL    HW127848   1.891   0.345   4.012 -1.4756  2.4307  0.6476
 5463SOL    HW227849   1.936   0.287   4.138  0.2024 -2.4686  0.1569
 5464SOL     OW27850   0.106   2.028  11.032  0.4052 -0.2314  0.3536
 5464SOL    HW127851   0.073   2.074  10.954  1.8011  0.7048  0.3049
 5464SOL    HW227852   0.164   2.093  11.072  0.6092  0.2549 -0.7256
 5465SOL     OW27853   1.516   1.557   6.368 -0.3953  0.2820 -0.0587
 5465SOL    HW127854   1.465   1.633   6.395 -0.6252 -0.0062  0.3304
 5465SOL    HW227855   1.595   1.572   6.421 -0.6112  1.1850  0.0059
 5466SOL     OW27856   3.626   3.068   5.838  0.1089  0.3132 -0.5465
 5466SOL    HW127857   3.718   3.056   5.813 -0.3161 -0.2043 -1.8526
 5466SOL    HW227858   3.571   3.018   5.779  0.1218 -0.1471 -0.1691
 5467SOL     OW27859   4.700   4.496   7.907 -0.3280  0.5198 -0.2816
 5467SOL    HW127860   4.710   4.591   7.895 -0.3064  0.2788 -2.2450
 5467SOL    HW227861   4.699   4.476   7.813 -2.2508  1.3631 -0.4362
 5468SOL     OW27862   1.320   2.123   5.608 -0.2407  0.6119  0.6378
 5468SOL    HW127863   1.269   2.135   5.688  0.0415  1.1984  0.7292
 5468SOL    HW227864   1.328   2.029   5.593 -0.1599  0.3287  2.4935
 5469SOL     OW27865   3.461   2.188  12.529 -0.7430  0.0639 -0.5644
 5469SOL    HW127866   3.374   2.178  12.568 -0.2619 -1.1441  0.2061
 5469SOL    HW227867   3.505   2.159  12.609 -1.5355  0.2364 -0.0623
 5470SOL     OW27868   3.978   1.648  10.336 -0.8222  0.2761  0.0246
 5470SOL    HW127869   3.925   1.631  10.258 -0.4173  0.4518 -0.2963
 5470SOL    HW227870   4.037   1.716  10.303  0.9874 -1.1839  0.2422
 5471SOL     OW27871   3.557   4.598  10.426  0.1397  0.1815  0.3198
 5471SOL    HW127872   3.503   4.599  10.347  1.6672  3.5977 -0.7083
 5471SOL    HW227873   3.501   4.664  10.467 -1.5133 -0.0723 -1.5154
 5472SOL     OW27874   1.639   0.635   4.606 -0.2258  0.6077 -0.3186
 5472SOL    HW127875   1.674   0.672   4.525  0.2000 -1.2079 -0.9694
 5472SOL    HW227876   1.633   0.547   4.570  2.2348  0.0927  0.5298
 5473SOL     OW27877   4.148   2.930  14.799 -0.1627 -0.1081 -0.8634
 5473SOL    HW127878   4.150   2.968  14.887 -0.8138  0.0572 -0.9205
 5473SOL    HW227879   4.053   2.921  14.799 -0.2760  1.2564  2.5085
 5474SOL     OW27880   3.550   4.057   0.315  0.1502  0.6088 -0.4277
 5474SOL    HW127881   3.475   4.113   0.337  0.0558  0.4503 -0.3476
 5474SOL    HW227882   3.515   4.010   0.239  2.1878  0.0593 -1.0076
 5475SOL     OW27883   0.879   2.457   7.386  0.3196 -0.3134  0.2303
 5475SOL    HW127884   0.820   2.403   7.438  0.3568 -0.0734  0.5191
 5475SOL    HW227885   0.946   2.399   7.350 -0.2207 -1.1957  0.6507
 5476SOL     OW27886   2.048   4.387   7.142 -0.5371 -0.7363  0.8221
 5476SOL    HW127887   1.954   4.377   7.130 -0.4534  0.6939 -0.9975
 5476SOL    HW227888   2.074   4.454   7.080 -2.8866  1.0777  1.8108
 5477SOL     OW27889   2.750   2.870   3.362  0.3529 -0.8474  0.3699
 5477SOL    HW127890   2.731   2.914   3.445  1.3555 -0.8734  0.6111
 5477SOL    HW227891   2.708   2.925   3.296 -0.4706 -2.1640 -0.1989
 5478SOL     OW27892   2.170   3.232   1.302  0.7885 -0.1635  0.4179
 5478SOL    HW127893   2.075   3.228   1.301  0.7471  0.8901 -0.4066
 5478SOL    HW227894   2.184   3.171   1.229  0.0671 -0.4496  0.5185
 5479SOL     OW27895   1.347   4.343  10.643  0.0165  0.4172 -0.0724
 5479SOL    HW127896   1.361   4.415  10.581 -0.1604 -0.8367 -1.5896
 5479SOL    HW227897   1.438   4.339  10.672 -0.0107  1.7994  0.1943
 5480SOL     OW27898   2.126   1.905   3.175  0.1203 -0.1072  0.0784
 5480SOL    HW127899   2.060   1.972   3.193  0.9800  0.3480  1.4885
 5480SOL    HW227900   2.183   1.913   3.251 -2.0649  0.3670  1.6551
 5481SOL     OW27901   1.821   1.171   0.703 -0.4695  0.2365  0.8357
 5481SOL    HW127902   1.894   1.133   0.653  1.6881  1.7419  2.8159
 5481SOL    HW227903   1.750   1.107   0.706  0.2311 -0.5387  1.0579
 5482SOL     OW27904   2.983   1.743   6.331 -0.2378 -0.0837  0.2816
 5482SOL    HW127905   2.988   1.745   6.426 -3.4151  1.3920  0.4041
 5482SOL    HW227906   3.006   1.836   6.324 -1.2598  0.5240  4.7912
 5483SOL     OW27907   1.410   0.495   2.667 -0.1074 -1.0147 -0.2773
 5483SOL    HW127908   1.458   0.505   2.585 -1.7546  0.9253 -1.0022
 5483SOL    HW227909   1.478   0.475   2.731  0.2954  0.3946 -0.2734
 5484SOL     OW27910   1.280   1.455   9.095 -0.8483  0.0412  0.6984
 5484SOL    HW127911   1.360   1.407   9.115  0.0967  1.6416  0.7955
 5484SOL    HW227912   1.290   1.533   9.150 -1.2620  0.7073 -0.1588
 5485SOL     OW27913   1.850   3.086  14.927  0.1818  0.1915  0.1130
 5485SOL    HW127914   1.816   3.172  14.953  0.3417  0.7726 -1.5987
 5485SOL    HW227915   1.927   3.078  14.984 -0.8011 -1.5277  1.1852
 5486SOL     OW27916   4.586   1.354   2.835 -0.0459 -0.9546 -0.2746
 5486SOL    HW127917   4.569   1.302   2.757 -0.7815  0.8965 -1.3455
 5486SOL    HW227918   4.513   1.318   2.885  1.1940 -1.3295  1.2766
 5487SOL     OW27919   0.381   3.495   9.457 -0.2534  0.6831 -0.0579
 5487SOL    HW127920   0.384   3.580   9.413  0.3557 -0.0167 -1.3646
 5487SOL    HW227921   0.292   3.463   9.440  0.0225  0.4000 -0.9326
 5488SOL     OW27922   0.181   1.716   6.618 -0.1553  0.4344  0.3569
 5488SOL    HW127923   0.223   1.640   6.578 -1.5000  0.7673 -1.6822
 5488SOL    HW227924   0.239   1.744   6.689  1.6728 -1.5655 -0.3588
 5489SOL     OW27925   2.102   1.483   5.858  0.4093 -0.1058 -0.3595
 5489SOL    HW127926   2.141   1.403   5.823  1.1990 -0.7222  1.9382
 5489SOL    HW227927   2.068   1.515   5.774  0.7392  1.0954 -0.0355
 5490SOL     OW27928   1.608   4.287   4.840 -0.2989 -0.2919  0.1827
 5490SOL    HW127929   1.701   4.310   4.848 -0.5928  0.1819  2.4699
 5490SOL    HW227930   1.566   4.359   4.792  0.4732  0.8016  1.1277
 5491SOL     OW27931   4.022   1.086   2.805 -0.1862  0.6610 -0.3575
 5491SOL    HW127932   4.050   1.080   2.897 -1.5463  0.8061  0.0604
 5491SOL    HW227933   3.992   0.995   2.796 -1.6063  1.0729  0.2849
 5492SOL     OW27934   4.659   0.648  11.545  0.0404 -0.0999  0.1568
 5492SOL    HW127935   4.583   0.617  11.594  1.3018 -2.4532  0.6601
 5492SOL    HW227936   4.719   0.574  11.549  1.0375  0.6596 -0.8294
 5493SOL     OW27937   3.296   0.773   0.609 -0.3182 -0.1352  0.0876
 5493SOL    HW127938   3.298   0.723   0.691  1.7950  1.3579  0.9309
 5493SOL    HW227939   3.333   0.856   0.638 -0.5516  0.6659 -1.9541
 5494SOL     OW27940   4.404   4.710   7.076 -0.0753  0.8026 -0.2907
 5494SOL    HW127941   4.463   4.714   7.151 -0.6464 -1.1434  0.2688
 5494SOL    HW227942   4.458   0.036   7.012  0.3935  0.1716 -0.3593
 5495SOL     OW27943   4.061   1.817  16.914 -0.4640 -0.0681 -0.0275
 5495SOL    HW127944   4.034   1.886  16.975 -0.8910 -1.3721  1.2360
 5495SOL    HW227945   4.110   1.861  16.845  1.0438 -1.7692 -0.0463
 5496SOL     OW27946   0.725   3.461   7.973  0.0071  0.3748 -0.3858
 5496SOL    HW127947   0.746   3.373   8.003 -2.0554  0.2029  0.5858
 5496SOL    HW227948   0.790   3.466   7.904  0.5170  2.2225  0.2200
 5497SOL     OW27949   2.275   0.126  17.200  0.0102  0.1180 -0.1284
 5497SOL    HW127950   2.200   0.165  17.244  1.6252 -0.2537  2.9250
 5497SOL    HW227951   2.343   0.193  17.211  0.8062 -0.6754 -0.1696
 5498SOL     OW27952   1.650   1.825   2.401 -0.2682 -0.0917 -0.2448
 5498SOL    HW127953   1.683   1.751   2.349 -0.5661 -0.4751  0.1130
 5498SOL    HW227954   1.599   1.869   2.333  2.0181  0.3688 -1.6615
 5499SOL     OW27955   3.223   3.720  15.287 -0.4801 -0.2894  0.2524
 5499SOL    HW127956   3.305   3.695  15.244  0.0172 -0.2379  1.1705
 5499SOL    HW227957   3.173   3.638  15.289  0.8979 -1.1748 -2.0034
 5500SOL     OW27958   0.499   2.524   5.850  0.3148 -0.9508 -0.2935
 5500SOL    HW127959   0.507   2.435   5.883  2.0437 -0.6426  0.1017
 5500SOL    HW227960   0.407   2.539   5.874  0.1259 -3.0311  0.2434
 5501SOL     OW27961   2.872   0.744  11.900 -0.2767 -0.2612 -0.5302
 5501SOL    HW127962   2.832   0.826  11.871 -0.0565  0.1857  0.4148
 5501SOL    HW227963   2.966   0.753  11.885  0.1241 -1.0408  1.4509
 5502SOL     OW27964   4.597   1.275   0.008 -0.1109 -0.7339  0.1276
 5502SOL    HW127965   4.641   1.224  17.628  0.5245  0.1632 -0.1329
 5502SOL    HW227966   4.640   1.238   0.085 -0.3138 -0.9866  0.1173
 5503SOL     OW27967   4.070   0.994   6.131 -0.1451  0.2013 -0.2213
 5503SOL    HW127968   4.119   1.066   6.171 -0.5222 -0.0516  0.7043
 5503SOL    HW227969   4.024   1.045   6.064  0.4339  1.9962  0.7446
 5504SOL     OW27970   3.745   3.650   5.633 -0.0254 -0.1815 -0.5661
 5504SOL    HW127971   3.836   3.624   5.620  0.4599  0.1270  2.1198
 5504SOL    HW227972   3.743   3.629   5.726 -0.3459 -0.4006 -0.6245
 5505SOL     OW27973   4.151   3.424   5.479  0.5256 -0.1276  0.4645
 5505SOL    HW127974   4.239   3.457   5.494  0.3543  0.8085 -0.5955
 5505SOL    HW227975   4.172   3.365   5.407  0.4726  0.7615 -0.2878
 5506SOL     OW27976   0.182   0.171  17.652 -0.0632 -0.0614  0.3399
 5506SOL    HW127977   0.206   0.100  17.592 -0.1006  0.5178 -0.3581
 5506SOL    HW227978   0.087   0.174  17.641  0.2378  0.5157 -2.3336
 5507SOL     OW27979   3.736   4.457   1.989  0.3075  0.0960  0.2742
 5507SOL    HW127980   3.712   4.541   2.028 -0.5273 -0.8858  1.8853
 5507SOL    HW227981   3.787   4.411   2.057  1.1927  0.6687 -0.0004
 5508SOL     OW27982   0.766   3.558   8.975  0.0449  0.5269 -0.1053
 5508SOL    HW127983   0.860   3.571   8.978  0.1420 -0.4531  0.7281
 5508SOL    HW227984   0.773   3.487   8.911 -0.5397  1.5317 -1.3045
 5509SOL     OW27985   2.266   0.739  14.857 -0.1901  0.0446 -0.0357
 5509SOL    HW127986   2.294   0.799  14.787  3.3353  0.0741  1.4354
 5509SOL    HW227987   2.338   0.677  14.849  0.4175  0.7652 -0.1169
 5510SOL     OW27988   4.655   2.573   7.131  0.5772  0.4289  0.3406
 5510SOL    HW127989   4.713   2.541   7.062  0.3629 -2.6856  1.5874
 5510SOL    HW227990   4.659   2.667   7.114 -0.2528  0.2875 -0.6071
 5511SOL     OW27991   3.346   0.798  13.880 -0.2556  0.1132 -0.6832
 5511SOL    HW127992   3.269   0.850  13.860  0.6901  1.9335  0.3917
 5511SOL    HW227993   3.384   0.780  13.794  1.9304  0.9667  0.0827
 5512SOL     OW27994   4.091   2.587  13.184  0.2620  0.1829 -0.1257
 5512SOL    HW127995   4.044   2.666  13.154 -0.3303 -0.8761 -2.0071
 5512SOL    HW227996   4.084   2.612  13.276  0.4717  1.2053 -0.3785
 5513SOL     OW27997   3.386   4.521   0.545  0.3018  0.6717  0.5039
 5513SOL    HW127998   3.292   4.502   0.538  0.4548  0.2679 -0.4446
 5513SOL    HW227999   3.384   4.606   0.500 -0.0768  0.2383 -0.3033
 5514SOL     OW28000   1.665   2.201  16.963  0.0522 -1.0889 -0.3921
 5514SOL    HW128001   1.678   2.252  17.044 -0.1373 -1.7346  0.0467
 5514SOL    HW228002   1.627   2.257  16.895 -0.2554 -0.1412  0.5456
 5515SOL     OW28003   0.112   3.684   7.873  0.3817 -0.4953 -0.7369
 5515SOL    HW128004   0.109   3.763   7.926  1.0275 -1.3165  0.5261
 5515SOL    HW228005   0.171   3.705   7.801 -0.3424 -1.1377 -1.5359
 5516SOL     OW28006   4.488   3.441   6.187 -0.5948 -0.1029 -0.0217
 5516SOL    HW128007   4.406   3.405   6.219 -0.7967 -1.1779 -1.7648
 5516SOL    HW228008   4.467   3.513   6.128  2.1482 -0.3696 -1.3359
 5517SOL     OW28009   4.391   4.530  12.911  0.1641  0.4456 -0.5875
 5517SOL    HW128010   4.364   4.515  13.001  1.0613  2.2912 -0.0229
 5517SOL    HW228011   4.393   4.625  12.903  1.0064  0.4590 -0.2167
 5518SOL     OW28012   2.915   1.907  15.411 -0.1772  0.3356 -0.1036
 5518SOL    HW128013   2.834   1.912  15.359  0.5049 -0.7833 -1.2665
 5518SOL    HW228014   2.961   1.989  15.394 -1.0433  0.7811 -0.3072
 5519SOL     OW28015   1.354   2.951   8.222 -0.2453 -0.0148 -0.7562
 5519SOL    HW128016   1.296   2.993   8.158 -0.8078 -2.7939 -2.0703
 5519SOL    HW228017   1.294   2.940   8.296  0.4940  1.2598  0.0236
 5520SOL     OW28018   4.629   4.027   2.703  0.0089 -0.2197  0.0448
 5520SOL    HW128019   4.625   4.106   2.756 -2.3185  0.5660 -1.3211
 5520SOL    HW228020   4.587   4.052   2.621  0.9125  0.6660 -0.1489
 5521SOL     OW28021   4.257   4.133   7.751  0.7140  0.5817 -0.4989
 5521SOL    HW128022   4.314   4.195   7.796  0.0198  0.0491  1.1617
 5521SOL    HW228023   4.313   4.092   7.686 -0.9951 -0.3852 -1.3531
 5522SOL     OW28024   3.764   2.201   5.880 -0.0181  0.5434 -0.3117
 5522SOL    HW128025   3.833   2.240   5.826  1.5322 -1.5483  0.1055
 5522SOL    HW228026   3.821   2.134   5.920 -0.0388  0.2476 -0.7712
 5523SOL     OW28027   0.303   0.264   5.098 -0.1637 -0.2753  0.8700
 5523SOL    HW128028   0.221   0.224   5.068  0.5720 -1.0193 -0.1424
 5523SOL    HW228029   0.298   0.354   5.067 -1.7790 -0.3143  1.0204
 5524SOL     OW28030   3.165   0.772  13.180 -0.1936 -0.1371 -0.0553
 5524SOL    HW128031   3.217   0.839  13.135 -1.2018  0.4229 -0.4021
 5524SOL    HW228032   3.236   0.714  13.207 -1.0480 -1.3651 -0.4290
 5525SOL     OW28033   1.127   3.758  12.658  0.3500  0.1405 -1.1292
 5525SOL    HW128034   1.207   3.805  12.638  1.7001 -1.9809 -0.6560
 5525SOL    HW228035   1.160   3.694  12.721 -0.4001 -0.6466 -1.5365
 5526SOL     OW28036   1.949   4.328   7.989  0.4013 -0.0228 -0.5438
 5526SOL    HW128037   1.907   4.261   7.935  1.0365 -1.5371  0.8673
 5526SOL    HW228038   1.925   4.403   7.934  1.0005 -0.0268 -0.8165
 5527SOL     OW28039   4.204   0.927   8.226 -0.0555  0.0116 -0.0175
 5527SOL    HW128040   4.212   0.974   8.143  0.5539 -2.8523 -1.5696
 5527SOL    HW228041   4.242   0.985   8.292  0.6298 -3.7100  2.8355
 5528SOL     OW28042   0.189   2.376   4.160  0.2913 -0.7548 -0.1056
 5528SOL    HW128043   0.140   2.412   4.234  2.3936  1.1974  0.3080
 5528SOL    HW228044   0.228   2.456   4.126  0.3984 -0.5999  0.3813
 5529SOL     OW28045   1.590   4.504   7.090 -0.2060  0.0711 -1.1325
 5529SOL    HW128046   1.672   4.456   7.086  0.3635  1.0564 -1.3366
 5529SOL    HW228047   1.618   4.593   7.112 -0.8705  0.2668 -1.0597
 5530SOL     OW28048   0.733   4.216   6.326 -0.2178  0.1283 -0.1095
 5530SOL    HW128049   0.817   4.205   6.281 -0.0043  0.2505  0.2625
 5530SOL    HW228050   0.679   4.213   6.247  2.1036  0.6231 -1.7321
 5531SOL     OW28051   3.000   1.257   7.755  0.2735 -0.2960  0.6302
 5531SOL    HW128052   3.010   1.217   7.841 -0.2880 -0.0464  0.8081
 5531SOL    HW228053   2.954   1.192   7.702 -0.8082  1.2201 -0.3216
 5532SOL     OW28054   2.181   0.711  12.524 -0.5074 -0.2941 -0.1099
 5532SOL    HW128055   2.153   0.784  12.468 -1.3967 -1.3060 -0.9841
 5532SOL    HW228056   2.276   0.721  12.516  0.0302 -2.0976  3.9476
 5533SOL     OW28057   0.384   0.504   4.319 -0.3321 -0.4442  0.2808
 5533SOL    HW128058   0.416   0.556   4.393  0.8625  2.2303 -2.1033
 5533SOL    HW228059   0.349   0.578   4.270 -0.8083  0.7266  2.3877
 5534SOL     OW28060   2.959   0.201  12.371  0.1959 -0.2075 -0.0900
 5534SOL    HW128061   2.896   0.231  12.437 -0.2241  0.2850 -0.7139
 5534SOL    HW228062   2.910   0.130  12.330  1.1009 -0.5342 -0.6023
 5535SOL     OW28063   2.715   3.452   2.571  0.1582 -0.0829  0.5568
 5535SOL    HW128064   2.622   3.469   2.553  0.2701  2.1456  2.0431
 5535SOL    HW228065   2.716   3.357   2.566 -1.0074 -0.1016  0.6337
 5536SOL     OW28066   3.607   1.850   5.561 -0.4152 -0.0006 -0.6657
 5536SOL    HW128067   3.653   1.792   5.501 -1.2926 -2.0055  0.5931
 5536SOL    HW228068   3.675   1.916   5.568 -0.9751  0.4667  0.4571
 5537SOL     OW28069   0.202   2.819   7.136  0.3172  0.9034  0.1371
 5537SOL    HW128070   0.183   2.889   7.199 -1.3280 -0.9942  1.7382
 5537SOL    HW228071   0.284   2.781   7.168  0.6958  1.5083 -0.1138
 5538SOL     OW28072   1.694   0.233   6.283  0.4702  0.0803  0.1262
 5538SOL    HW128073   1.786   0.241   6.257  0.7087 -1.1377  0.6059
 5538SOL    HW228074   1.666   0.174   6.213  0.7473  0.8931 -0.6698
 5539SOL     OW28075   0.209   0.525   2.683 -0.0414  0.0386  0.0550
 5539SOL    HW128076   0.130   0.492   2.726  0.8147 -1.3873  0.4922
 5539SOL    HW228077   0.183   0.527   2.590  1.0795 -0.5080 -0.2629
 5540SOL     OW28078   3.155   1.199  15.249 -0.0838  0.1458 -0.6141
 5540SOL    HW128079   3.062   1.176  15.245  0.3006 -1.3308 -0.9163
 5540SOL    HW228080   3.159   1.235  15.337 -2.7331 -2.6358  0.6178
 5541SOL     OW28081   2.885   3.765   0.100 -0.3546 -0.2900  0.3509
 5541SOL    HW128082   2.806   3.749   0.151  0.5942 -1.6208  1.4231
 5541SOL    HW228083   2.947   3.757   0.172  0.8791  0.6510 -0.6077
 5542SOL     OW28084   4.553   0.904  11.643 -0.2428 -0.5683  0.5107
 5542SOL    HW128085   4.506   0.884  11.723 -0.2714  2.4878  1.2840
 5542SOL    HW228086   4.545   0.819  11.600  2.9373 -1.4637  1.6788
 5543SOL     OW28087   0.007   1.051   8.309  0.5675 -0.3632  0.1198
 5543SOL    HW128088   0.085   1.047   8.254  0.2262  0.6096 -0.4227
 5543SOL    HW228089   0.020   0.965   8.350 -1.4585 -0.4145  0.6625
 5544SOL     OW28090   2.484   4.686   8.684  0.0928  0.5194  0.1688
 5544SOL    HW128091   2.523   4.653   8.603 -2.1586  2.0059 -1.5414
 5544SOL    HW228092   2.404   0.002   8.648 -0.2001  2.3559  2.7814
 5545SOL     OW28093   0.514   0.231   2.896  0.1872 -0.1701 -0.1148
 5545SOL    HW128094   0.447   0.248   2.829 -0.0874  1.0468  0.4583
 5545SOL    HW228095   0.484   0.287   2.967  0.0050  0.0116 -0.3320
 5546SOL     OW28096   0.910   2.966   4.157  0.5401  0.0572 -0.3338
 5546SOL    HW128097   0.973   2.903   4.122 -0.5766 -1.4495  0.3824
 5546SOL    HW228098   0.949   2.972   4.245 -0.4887 -1.7063  0.2286
 5547SOL     OW28099   3.719   0.140   1.031  0.1091 -0.0998  0.0323
 5547SOL    HW128100   3.696   0.047   1.034  0.3809 -0.1263  1.5195
 5547SOL    HW228101   3.739   0.146   0.938  0.7752 -0.1230  0.1766
 5548SOL     OW28102   4.470   2.028   2.057 -0.0712  0.3468  0.0681
 5548SOL    HW128103   4.555   2.045   2.099 -0.4433  2.3567  0.0254
 5548SOL    HW228104   4.412   2.043   2.131  1.2394 -0.9871  1.3585
 5549SOL     OW28105   4.689   4.218   4.968  0.1347  0.2952  0.0216
 5549SOL    HW128106   0.002   4.197   4.881  2.1194  0.5245  0.7525
 5549SOL    HW228107   0.040   4.259   5.016  1.3986 -0.3599 -1.3136
 5550SOL     OW28108   1.537   2.679  14.606  0.4328  0.3970 -0.6785
 5550SOL    HW128109   1.522   2.703  14.515  3.9716 -1.0991 -1.6638
 5550SOL    HW228110   1.503   2.763  14.637 -0.5778 -0.8818  1.7564
 5551SOL     OW28111   3.670   1.887  13.141  0.0604  0.7754 -0.0995
 5551SOL    HW128112   3.609   1.912  13.210 -0.2926 -2.1018  0.6060
 5551SOL    HW228113   3.746   1.850  13.186  1.2212  0.6835 -2.1368
 5552SOL     OW28114   0.198   0.363   0.186 -0.5323 -0.1418  0.1036
 5552SOL    HW128115   0.188   0.277   0.145  1.4741 -0.4025  0.1702
 5552SOL    HW228116   0.283   0.390   0.151 -0.9116  0.0881 -0.6246
 5553SOL     OW28117   2.424   2.391   7.221 -0.2054 -0.7929 -0.5694
 5553SOL    HW128118   2.445   2.469   7.170 -1.0614 -1.0067 -1.2498
 5553SOL    HW228119   2.336   2.373   7.188 -0.3499 -0.8437 -0.1566
 5554SOL     OW28120   4.145   2.440   7.336 -0.2028 -0.2594 -0.2687
 5554SOL    HW128121   4.214   2.494   7.374 -0.5208 -1.2417  1.6950
 5554SOL    HW228122   4.188   2.387   7.268 -0.4229  1.6191 -1.8522
 5555SOL     OW28123   1.583   1.534   3.872 -0.2914  0.4878  0.4264
 5555SOL    HW128124   1.675   1.508   3.870 -0.3640  0.2311  0.5318
 5555SOL    HW228125   1.545   1.476   3.937  0.8230 -0.0205  0.6213
 5556SOL     OW28126   2.620   4.637  17.228  0.4736 -0.2192 -0.4695
 5556SOL    HW128127   2.649   4.695  17.158  0.6613 -1.0101 -1.0429
 5556SOL    HW228128   2.569   4.574  17.176  0.4930 -0.4819 -0.1694
 5557SOL     OW28129   0.449   0.588   3.203  0.1465  0.4672 -0.1312
 5557SOL    HW128130   0.519   0.575   3.139 -2.1775  1.0062 -2.7876
 5557SOL    HW228131   0.389   0.516   3.182 -0.4172  0.4424  1.5442
 5558SOL     OW28132   3.534   1.513   6.565  0.1444  0.2373 -0.3262
 5558SOL    HW128133   3.544   1.555   6.650  0.9525 -0.3763 -0.1059
 5558SOL    HW228134   3.621   1.531   6.528 -0.1419  0.3034 -0.9770
 5559SOL     OW28135   0.144   3.913   2.958  0.5208 -0.1700 -0.0315
 5559SOL    HW128136   0.155   3.868   3.042 -0.4478 -3.5823 -1.7220
 5559SOL    HW228137   0.093   3.846   2.913  1.0422  0.7261 -1.9447
 5560SOL     OW28138   0.414   2.031   4.100 -0.2926 -0.3054  0.7794
 5560SOL    HW128139   0.427   2.121   4.070 -0.8079 -0.6206 -0.3941
 5560SOL    HW228140   0.430   1.991   4.015  2.1528 -1.3916  1.7756
 5561SOL     OW28141   1.505   2.780   5.930  0.2344 -0.0405  0.0087
 5561SOL    HW128142   1.454   2.819   5.859 -0.8019  1.0443  1.3546
 5561SOL    HW228143   1.593   2.767   5.892  0.5299 -0.2076  0.7618
 5562SOL     OW28144   2.000   2.458  10.742  0.0359  0.1692 -0.3280
 5562SOL    HW128145   1.923   2.514  10.729 -0.4043 -0.4205 -0.2338
 5562SOL    HW228146   1.998   2.458  10.838 -0.7311  0.2655 -0.3392
 5563SOL     OW28147   0.182   2.111  12.201 -0.4371  0.3112 -0.1453
 5563SOL    HW128148   0.145   2.082  12.285  2.0848  2.0197  1.5485
 5563SOL    HW228149   0.272   2.093  12.228 -0.6748  0.7706  0.9316
 5564SOL     OW28150   0.196   0.819   7.387 -0.2053  0.5892  0.1522
 5564SOL    HW128151   0.108   0.855   7.389  0.3236  1.7798  1.9018
 5564SOL    HW228152   0.186   0.752   7.319 -1.0280  2.2154 -1.3463
 5565SOL     OW28153   2.058   2.445  15.315  0.3501  0.5587  0.3672
 5565SOL    HW128154   2.133   2.498  15.288  1.1730 -0.9918 -0.3936
 5565SOL    HW228155   1.978   2.474  15.271  1.7298  0.4170 -2.2384
 5566SOL     OW28156   1.181   3.767   5.885 -0.0862 -0.5750  0.3443
 5566SOL    HW128157   1.224   3.807   5.808 -0.6405 -2.2555 -0.8313
 5566SOL    HW228158   1.234   3.696   5.919 -1.0949 -0.6436  1.7369
 5567SOL     OW28159   3.933   4.626   6.901 -0.3039  0.2684  0.0085
 5567SOL    HW128160   3.909   4.582   6.819  0.1896 -1.5096  0.8046
 5567SOL    HW228161   4.023   4.594   6.914 -0.7699 -1.0685 -0.0689
 5568SOL     OW28162   0.972   3.044   7.633 -0.0648  0.4260 -0.0443
 5568SOL    HW128163   1.024   2.993   7.571 -0.3764  1.1472 -0.8978
 5568SOL    HW228164   0.881   3.019   7.615 -0.3281  2.4214 -1.4652
 5569SOL     OW28165   0.211   3.792  15.321 -0.1222  0.4448  0.2894
 5569SOL    HW128166   0.116   3.797  15.312 -0.5532 -1.3608  3.7570
 5569SOL    HW228167   0.222   3.706  15.361  1.6075  0.6283  0.2388
 5570SOL     OW28168   1.217   3.182  13.628  0.7548  0.0790  0.4164
 5570SOL    HW128169   1.175   3.123  13.690  0.6736 -0.4614 -0.1549
 5570SOL    HW228170   1.152   3.188  13.558 -2.2338 -0.8950  3.1297
 5571SOL     OW28171   3.294   4.163   0.404 -0.3874 -0.5054 -0.6157
 5571SOL    HW128172   3.230   4.229   0.377 -0.2957  0.6068  1.8635
 5571SOL    HW228173   3.232   4.113   0.458  1.0826 -0.7158  0.8889
 5572SOL     OW28174   1.097   2.047   5.220  0.3680  0.2940 -0.4302
 5572SOL    HW128175   1.041   2.077   5.291  0.1964  1.2473 -0.9587
 5572SOL    HW228176   1.110   1.964   5.266  0.9299  0.5040 -0.2032
 5573SOL     OW28177   4.602   0.955   2.908  0.1170 -0.0795 -0.3443
 5573SOL    HW128178   4.591   0.869   2.867  0.7224  0.4370 -1.6130
 5573SOL    HW228179   4.672   0.986   2.851 -0.4259  1.9014  0.0586
 5574SOL     OW28180   1.717   0.246   1.060  0.3872 -0.1824  0.7233
 5574SOL    HW128181   1.743   0.223   1.149 -0.7496  1.3615  1.4676
 5574SOL    HW228182   1.796   0.287   1.026  0.4459 -2.3969 -1.7911
 5575SOL     OW28183   1.508   1.143   6.990  0.1026  0.1640 -0.3035
 5575SOL    HW128184   1.543   1.232   6.981  2.5469 -0.5441  2.0871
 5575SOL    HW228185   1.501   1.135   7.085  0.6510  3.0974 -0.0310
 5576SOL     OW28186   3.984   0.236  10.565 -0.1774 -0.5810 -0.0328
 5576SOL    HW128187   4.036   0.168  10.608  0.6936 -0.7175 -1.3053
 5576SOL    HW228188   3.968   0.203  10.477  2.0282 -0.3878 -0.4947
 5577SOL     OW28189   2.181   4.495   4.263  0.0537 -0.0066  0.7379
 5577SOL    HW128190   2.230   4.539   4.194 -2.1439 -0.5732 -1.2119
 5577SOL    HW228191   2.232   4.517   4.340  2.0707 -1.4900 -0.1592
 5578SOL     OW28192   4.356   1.894   5.901  0.4622  0.1126  0.0625
 5578SOL    HW128193   4.449   1.874   5.914  0.7514  0.2951 -1.7970
 5578SOL    HW228194   4.349   1.887   5.806 -0.5185  0.5971  0.0952
 5579SOL     OW28195   2.534   3.339   0.621  0.0501 -0.3170 -0.9423
 5579SOL    HW128196   2.625   3.368   0.614  0.8454 -2.6840 -0.4676
 5579SOL    HW228197   2.534   3.282   0.545 -0.6655 -0.7249 -0.6361
 5580SOL     OW28198   1.566   4.557   5.337 -0.2107 -0.3831 -0.0094
 5580SOL    HW128199   1.634   4.508   5.291  0.3214  1.6119 -1.2976
 5580SOL    HW228200   1.487   4.527   5.292 -1.2437 -0.5136  1.8907
 5581SOL     OW28201   0.957   2.783   8.488  0.4884  0.3953 -0.1726
 5581SOL    HW128202   1.033   2.809   8.436  0.4235  0.6759 -0.1268
 5581SOL    HW228203   0.988   2.803   8.576  0.6684 -0.7054  0.0078
 5582SOL     OW28204   3.872   1.350   5.808  1.2392  0.4223 -0.2759
 5582SOL    HW128205   3.930   1.307   5.746  2.9602  2.3956 -0.0517
 5582SOL    HW228206   3.933   1.419   5.836  2.8782 -1.9574  2.0495
 5583SOL     OW28207   0.808   2.031   6.742  0.0080 -0.0071 -0.6544
 5583SOL    HW128208   0.865   1.975   6.795  1.1324  1.1956 -0.5832
 5583SOL    HW228209   0.870   2.045   6.671 -0.8712  2.9431 -0.8466
 5584SOL     OW28210   0.889   2.766  11.989  0.5166  0.1797  0.1247
 5584SOL    HW128211   0.930   2.842  12.031  2.5872 -1.3990  0.9139
 5584SOL    HW228212   0.966   2.716  11.966 -0.1445 -0.1098 -1.4686
 5585SOL     OW28213   3.470   2.959   4.418  0.6748  0.0549 -0.1538
 5585SOL    HW128214   3.379   2.982   4.436  0.7922  0.6852 -0.3699
 5585SOL    HW228215   3.506   2.939   4.504 -1.8625 -2.0226  0.4344
 5586SOL     OW28216   3.518   3.332   3.989 -0.5725  0.2730 -0.5304
 5586SOL    HW128217   3.455   3.323   4.060 -0.1831 -0.5156 -0.2924
 5586SOL    HW228218   3.493   3.258   3.935  0.3193 -1.2639  1.1711
 5587SOL     OW28219   0.424   3.718   2.864 -0.4376 -0.2609  0.1952
 5587SOL    HW128220   0.344   3.666   2.865 -1.1039  0.7319 -2.5099
 5587SOL    HW228221   0.464   3.693   2.948  1.9256 -1.4306 -1.3044
 5588SOL     OW28222   2.164   1.881   4.099  0.4832 -0.3545  0.1877
 5588SOL    HW128223   2.098   1.832   4.148 -0.5789  1.2853  0.3981
 5588SOL    HW228224   2.115   1.948   4.053  0.1552  0.2704  1.4556
 5589SOL     OW28225   1.670   1.552   1.944 -0.4958 -0.3652 -0.7626
 5589SOL    HW128226   1.718   1.487   1.891 -0.8390 -2.1645  1.1287
 5589SOL    HW228227   1.582   1.528   1.915 -1.2745 -0.2666  1.5390
 5590SOL     OW28228   1.923   4.172   0.674 -0.1461 -0.8560 -0.6100
 5590SOL    HW128229   1.869   4.241   0.636  2.1240  1.2770  0.0613
 5590SOL    HW228230   1.903   4.171   0.767  2.2485  1.7519 -0.0755
 5591SOL     OW28231   0.132   1.501   7.848 -0.4501 -0.3067 -0.1988
 5591SOL    HW128232   0.136   1.554   7.927 -0.2414 -1.5924  0.6635
 5591SOL    HW228233   0.153   1.558   7.773  0.1214 -0.5397 -0.2218
 5592SOL     OW28234   0.818   2.566   8.119  0.7483 -0.6491  0.3561
 5592SOL    HW128235   0.794   2.655   8.145 -0.7578 -1.0877  0.4942
 5592SOL    HW228236   0.879   2.552   8.192  0.6990 -2.9339 -0.0183
 5593SOL     OW28237   1.665   0.595   9.573 -0.0937  0.2948  0.2920
 5593SOL    HW128238   1.759   0.579   9.565 -0.2574 -0.3186 -0.4436
 5593SOL    HW228239   1.635   0.540   9.501  0.8704 -1.9848  1.6215
 5594SOL     OW28240   1.397   3.247   6.714  0.4098  0.3050  0.3953
 5594SOL    HW128241   1.482   3.261   6.756  1.3913 -0.7994 -1.2144
 5594SOL    HW228242   1.353   3.200   6.785 -0.9525  2.6240  1.0931
 5595SOL     OW28243   3.710   3.047   8.929  0.1338 -0.1113 -0.1708
 5595SOL    HW128244   3.617   3.068   8.937  0.2568 -0.0050  0.9428
 5595SOL    HW228245   3.703   2.961   8.970 -0.3494  0.0220  0.0292
 5596SOL     OW28246   2.318   3.672   5.786  0.2636  0.0278  0.3030
 5596SOL    HW128247   2.360   3.694   5.703  1.4854  1.8525  1.4210
 5596SOL    HW228248   2.232   3.663   5.746 -0.5409  0.4407  1.9720
 5597SOL     OW28249   3.682   4.598   1.718 -0.4179 -0.0273  0.2668
 5597SOL    HW128250   3.672   4.503   1.710 -1.1514 -0.0876  1.7820
 5597SOL    HW228251   3.613   4.603   1.784 -0.9929 -2.0350 -0.1720
 5598SOL     OW28252   3.678   0.118   2.427 -0.1959 -0.4808  0.0835
 5598SOL    HW128253   3.650   0.058   2.497 -0.9626 -0.2551 -0.0282
 5598SOL    HW228254   3.610   0.185   2.433  0.0072 -0.2875  0.2387
 5599SOL     OW28255   2.292   1.863   7.809  0.0379 -0.2010 -0.2279
 5599SOL    HW128256   2.322   1.813   7.733  1.5085  0.2460  0.0685
 5599SOL    HW228257   2.311   1.795   7.874  0.3644 -0.8236 -0.9794
 5600SOL     OW28258   4.243   1.960   2.708 -0.2578 -0.7777  0.5994
 5600SOL    HW128259   4.178   1.891   2.718 -1.8270 -0.0287 -4.3956
 5600SOL    HW228260   4.249   1.992   2.797 -0.0075 -1.2790  0.7614
 5601SOL     OW28261   0.376   1.051   8.854 -0.1209 -0.0031 -0.1383
 5601SOL    HW128262   0.367   1.139   8.817 -0.8098  0.1052  0.2799
 5601SOL    HW228263   0.321   1.047   8.932  0.1039 -0.8755 -0.0230
 5602SOL     OW28264   2.302   1.176  11.989  0.2690 -0.5261  0.5153
 5602SOL    HW128265   2.285   1.245  12.053 -1.7616 -1.5720  1.0970
 5602SOL    HW228266   2.255   1.107  12.035  0.1276 -1.1614 -0.5941
 5603SOL     OW28267   2.302   3.377   3.159  0.5231  0.4506  0.5547
 5603SOL    HW128268   2.315   3.352   3.067  1.9472  0.8253  0.6541
 5603SOL    HW228269   2.367   3.448   3.161 -0.1779  1.1359 -0.6764
 5604SOL     OW28270   0.733   1.665   3.094 -0.1733 -0.3567 -0.0494
 5604SOL    HW128271   0.749   1.578   3.056 -0.2284 -0.7602  0.8555
 5604SOL    HW228272   0.669   1.705   3.035  0.7266  1.9491  0.5368
 5605SOL     OW28273   4.298   1.992   4.598 -0.3623  0.0260  0.3354
 5605SOL    HW128274   4.347   2.024   4.674  1.4205 -0.1093 -0.7544
 5605SOL    HW228275   4.331   2.057   4.535 -4.2309  2.2541  0.6334
 5606SOL     OW28276   3.666   2.579   3.958 -0.5790 -0.5563 -0.2581
 5606SOL    HW128277   3.577   2.566   3.992 -1.3506  2.5677 -1.1058
 5606SOL    HW228278   3.701   2.549   4.042  0.4080 -0.7143 -0.7197
 5607SOL     OW28279   2.435   4.337  17.433 -0.1882  0.0388 -0.3062
 5607SOL    HW128280   2.435   4.416  17.487  0.0446  0.6084 -1.1505
 5607SOL    HW228281   2.479   4.276  17.492  1.5608 -0.3667 -2.0260
 5608SOL     OW28282   1.574   4.595   2.603 -0.3097 -0.2140  0.2383
 5608SOL    HW128283   1.609   4.507   2.618 -0.9541 -0.0732  2.5069
 5608SOL    HW228284   1.517   4.602   2.679  0.0055  2.8965  0.1696
 5609SOL     OW28285   3.613   2.007   4.688 -0.5963  0.1210 -0.5555
 5609SOL    HW128286   3.657   1.972   4.611 -2.2296  1.1853 -1.9839
 5609SOL    HW228287   3.582   1.931   4.738  0.3820 -0.7488 -1.2766
 5610SOL     OW28288   1.583   3.625   6.135  0.2484 -0.4638 -0.0222
 5610SOL    HW128289   1.614   3.566   6.066 -2.3548  0.8047 -2.2505
 5610SOL    HW228290   1.496   3.591   6.155 -0.4525  0.9751 -0.6729
 5611SOL     OW28291   3.418   2.168  15.898  0.9290 -0.4819  0.1057
 5611SOL    HW128292   3.425   2.169  15.993  1.3044  0.3337  0.0707
 5611SOL    HW228293   3.331   2.129  15.889  1.0149 -0.6941  0.1962
 5612SOL     OW28294   2.417   0.195  16.932  0.1406  0.4551 -0.0030
 5612SOL    HW128295   2.359   0.160  17.000  0.2093 -0.3463 -0.3568
 5612SOL    HW228296   2.468   0.117  16.910  0.4918 -0.0300  2.6022
 5613SOL     OW28297   1.226   3.548   4.820  0.1677 -0.2849  0.3659
 5613SOL    HW128298   1.241   3.509   4.907 -1.7040  1.3499  1.4150
 5613SOL    HW228299   1.280   3.492   4.764 -0.2227 -0.7127  0.4159
 5614SOL     OW28300   1.200   4.174   4.204  0.2480  0.1276 -0.2405
 5614SOL    HW128301   1.201   4.089   4.160  0.8271  0.2072 -0.3876
 5614SOL    HW228302   1.110   4.204   4.195  1.0402  2.0137 -2.0615
 5615SOL     OW28303   4.623   2.487   4.986 -0.2275 -0.2423 -0.1670
 5615SOL    HW128304   4.673   2.533   4.919 -1.2996  1.3554  0.1323
 5615SOL    HW228305   4.696   2.432   5.013 -0.7105 -0.5835  0.4488
 5616SOL     OW28306   2.276   1.270   4.214  0.6170 -0.3735  0.1132
 5616SOL    HW128307   2.294   1.219   4.135 -1.4573  0.9800 -1.2316
 5616SOL    HW228308   2.283   1.360   4.183  0.8870 -0.1587  0.8039
 5617SOL     OW28309   0.987   3.623  15.763  0.1221 -0.7195 -0.2688
 5617SOL    HW128310   1.028   3.606  15.848  0.3392  1.1304  0.0078
 5617SOL    HW228311   1.064   3.655  15.717  0.3775 -1.4020 -0.3019
 5618SOL     OW28312   4.515   2.008   3.871  0.4947 -0.0435 -0.1187
 5618SOL    HW128313   4.538   1.918   3.850  2.8564  0.5585 -0.1499
 5618SOL    HW228314   4.490   2.038   3.784 -0.3979 -0.1635  0.0961
 5619SOL     OW28315   3.039   3.301   3.591  0.3964  0.4692  0.0617
 5619SOL    HW128316   3.044   3.312   3.496 -0.0383 -0.1290 -0.0306
 5619SOL    HW228317   2.945   3.304   3.607  0.4871 -0.1836  0.7467
 5620SOL     OW28318   2.809   4.631   0.980 -0.4878 -0.1951  0.4500
 5620SOL    HW128319   2.900   4.599   0.978 -1.4442 -2.9262 -0.1308
 5620SOL    HW228320   2.807   4.670   0.892  1.6568  1.4818  1.1509
 5621SOL     OW28321   4.533   3.949   6.732  0.0811  0.1269 -0.3232
 5621SOL    HW128322   4.440   3.926   6.727 -0.2204  0.8953  1.7997
 5621SOL    HW228323   4.570   3.867   6.765 -0.4348  0.2376  0.5168
 5622SOL     OW28324   4.039   3.686   0.794 -0.0447 -0.0231 -0.0301
 5622SOL    HW128325   4.060   3.691   0.888  1.4382 -0.0397 -0.3665
 5622SOL    HW228326   3.964   3.746   0.797  0.2434  0.3644 -0.8521
 5623SOL     OW28327   0.786   3.710   5.251  0.4300  0.3186  0.1841
 5623SOL    HW128328   0.751   3.786   5.298 -1.0282  1.7697 -3.1994
 5623SOL    HW228329   0.771   3.729   5.158  0.7403 -1.2130 -0.1661
 5624SOL     OW28330   2.024   0.947   9.124  0.4157  0.2116  0.1779
 5624SOL    HW128331   2.104   0.894   9.117  0.0535  0.0597 -2.6988
 5624SOL    HW228332   1.982   0.904   9.199 -0.4943 -1.1580 -1.1294
 5625SOL     OW28333   2.081   3.464  16.507  0.2510  0.1351  0.6292
 5625SOL    HW128334   2.054   3.519  16.581 -1.8183 -0.0963  0.0440
 5625SOL    HW228335   2.113   3.387  16.554  1.6670 -0.2756 -1.0247
 5626SOL     OW28336   4.589   0.190  14.819 -0.3635  0.1736 -0.2681
 5626SOL    HW128337   4.530   0.137  14.765  0.1546  0.8057 -1.4544
 5626SOL    HW228338   4.528   0.254  14.856  0.4600  0.1586  1.1211
 5627SOL     OW28339   0.670   0.411   7.911  0.7165 -0.8361  0.4575
 5627SOL    HW128340   0.600   0.351   7.937 -1.0249  1.4045  0.9084
 5627SOL    HW228341   0.625   0.470   7.850 -0.0241 -2.0392 -0.1646
 5628SOL     OW28342   0.791   1.997  15.771 -0.0336  0.5267  0.2205
 5628SOL    HW128343   0.738   2.076  15.783 -0.3193  0.4747 -0.7091
 5628SOL    HW228344   0.874   2.041  15.788  1.0435 -0.4440 -2.6534
 5629SOL     OW28345   1.133   0.421   6.139  0.2451 -0.2484  0.0292
 5629SOL    HW128346   1.107   0.418   6.231 -3.0053  0.2226 -0.8677
 5629SOL    HW228347   1.214   0.473   6.143 -0.0496  0.3507 -1.8508
 5630SOL     OW28348   0.046   3.151   4.234  0.5780  0.8614 -0.1776
 5630SOL    HW128349   4.678   3.182   4.238  0.1814 -0.0657 -1.7306
 5630SOL    HW228350   0.101   3.228   4.250  1.4777  0.5766 -1.8769
 5631SOL     OW28351   1.919   3.865   6.612  0.5947  0.4551 -0.0365
 5631SOL    HW128352   1.835   3.910   6.605  0.5504 -0.1239 -3.3910
 5631SOL    HW228353   1.921   3.851   6.706  1.8664 -2.4839 -0.4952
 5632SOL     OW28354   2.413   1.859  12.196 -0.0333  0.5197 -0.4890
 5632SOL    HW128355   2.415   1.955  12.203 -2.5874  0.6642 -2.0901
 5632SOL    HW228356   2.344   1.827  12.255  1.1175 -0.2219  0.4556
 5633SOL     OW28357   3.571   0.415   8.444  0.1034  0.0437  0.0162
 5633SOL    HW128358   3.636   0.408   8.514  1.2843 -0.5305 -1.1316
 5633SOL    HW228359   3.504   0.361   8.486  0.5153 -0.6843 -0.2577
 5634SOL     OW28360   1.360   1.639  11.851  0.4672 -0.4681  0.4111
 5634SOL    HW128361   1.395   1.652  11.939  1.4146 -0.6917  0.0659
 5634SOL    HW228362   1.409   1.710  11.809  0.3471 -1.0057 -0.6376
 5635SOL     OW28363   4.310   0.826  13.447  0.4291 -0.0025  0.3370
 5635SOL    HW128364   4.259   0.748  13.469 -0.2594  0.7317  1.3912
 5635SOL    HW228365   4.351   0.798  13.366 -2.8675  0.4342 -1.4918
 5636SOL     OW28366   3.455   0.741   7.961 -0.3211 -0.0528 -0.3956
 5636SOL    HW128367   3.412   0.679   8.020 -0.3131 -0.4785 -0.8450
 5636SOL    HW228368   3.396   0.816   7.966  0.7344  0.7316  0.3155
 5637SOL     OW28369   3.558   0.240  12.106  0.2803  0.4773  0.5480
 5637SOL    HW128370   3.537   0.217  12.196 -1.2001  2.4948  0.7293
 5637SOL    HW228371   3.488   0.301  12.082  0.9696  0.1009 -2.4619
 5638SOL     OW28372   4.341   2.940   4.795  0.5816 -0.2774  0.6553
 5638SOL    HW128373   4.273   2.956   4.861 -1.1452  1.3354 -1.5362
 5638SOL    HW228374   4.389   3.022   4.785  1.7373 -1.0600 -0.0646
 5639SOL     OW28375   1.618   3.060   5.699 -0.1273 -0.3672 -0.3690
 5639SOL    HW128376   1.612   3.131   5.762 -3.6167 -1.3635  0.4252
 5639SOL    HW228377   1.653   3.101   5.620 -3.0094  1.3070 -0.7613
 5640SOL     OW28378   4.373   1.754   5.184  0.1957  0.2832 -0.3059
 5640SOL    HW128379   4.450   1.709   5.148  0.6987  2.2252 -1.6124
 5640SOL    HW228380   4.413   1.838   5.205 -0.9223  1.0391 -1.2170
 5641SOL     OW28381   4.265   3.795   2.003 -0.7377  0.5158  0.2611
 5641SOL    HW128382   4.283   3.702   2.022  0.7988  0.4402 -1.5330
 5641SOL    HW228383   4.189   3.794   1.945 -0.3815 -0.8883 -0.1901
 5642SOL     OW28384   0.812   3.482   8.469 -0.4126  0.0520  0.1744
 5642SOL    HW128385   0.809   3.458   8.561  0.5186 -0.9184 -0.0492
 5642SOL    HW228386   0.904   3.505   8.456 -0.5932  0.9890  0.5686
 5643SOL     OW28387   2.435   2.710   1.945 -0.0585  0.0026  0.3479
 5643SOL    HW128388   2.499   2.652   1.905 -0.2615  0.1301 -0.1628
 5643SOL    HW228389   2.440   2.795   1.901  0.5756 -0.3543 -0.2672
 5644SOL     OW28390   1.131   2.503   7.197 -0.2396 -0.8565 -0.1440
 5644SOL    HW128391   1.199   2.455   7.246 -0.5080  0.5407  1.6159
 5644SOL    HW228392   1.156   2.503   7.105 -0.4299  0.4547 -0.1975
 5645SOL     OW28393   1.328   1.701   2.100 -0.1223 -0.2600 -0.0989
 5645SOL    HW128394   1.250   1.732   2.054  0.1874  2.0490  0.9166
 5645SOL    HW228395   1.335   1.607   2.084 -1.2257 -0.2284 -0.8069
 5646SOL     OW28396   4.140   0.336   4.468 -0.0235  0.1842  0.0085
 5646SOL    HW128397   4.178   0.249   4.483  1.2376  0.4647 -1.5250
 5646SOL    HW228398   4.217   0.389   4.447 -0.1653  0.1572 -0.5704
 5647SOL     OW28399   3.513   4.240  11.330 -0.3781  0.1661 -0.6406
 5647SOL    HW128400   3.486   4.149  11.347  0.1890 -0.2724 -2.0830
 5647SOL    HW228401   3.531   4.231  11.237 -1.6938  1.2497 -1.0098
 5648SOL     OW28402   2.760   2.851   7.937 -0.0373  0.1334 -0.1141
 5648SOL    HW128403   2.846   2.857   7.978  0.6012 -1.7888 -1.1809
 5648SOL    HW228404   2.779   2.779   7.877 -2.7853  0.2686 -1.1522
 5649SOL     OW28405   1.860   0.940  11.692  0.0912  0.1224 -0.0052
 5649SOL    HW128406   1.850   1.023  11.646 -0.3685  0.9282  1.5541
 5649SOL    HW228407   1.926   0.892  11.642 -0.8143 -0.7907 -0.3160
 5650SOL     OW28408   1.033   1.090   7.270 -0.1819  0.6939 -0.1378
 5650SOL    HW128409   0.946   1.052   7.255 -0.9236  1.9964  0.8444
 5650SOL    HW228410   1.035   1.076   7.364  2.2501  0.2654 -0.2621
 5651SOL     OW28411   1.055   2.372   4.002  0.1829 -0.2438  0.4709
 5651SOL    HW128412   0.984   2.410   3.950 -1.5821 -0.2213  2.9244
 5651SOL    HW228413   1.111   2.444   4.029 -0.6497  1.0575 -1.3118
 5652SOL     OW28414   0.702   4.684  15.407  0.4610 -0.4976  0.8174
 5652SOL    HW128415   0.685   4.597  15.443  1.6922 -1.6572 -1.3658
 5652SOL    HW228416   0.613   4.714  15.394  0.5579 -0.4833  0.1906
 5653SOL     OW28417   3.291   1.493   5.371  0.4193 -0.6305 -0.1332
 5653SOL    HW128418   3.218   1.551   5.389  1.7361  1.5257 -1.7695
 5653SOL    HW228419   3.318   1.468   5.459  0.7110 -4.1208 -1.1778
 5654SOL     OW28420   4.641   1.178   3.717 -0.3197 -0.7710  0.9934
 5654SOL    HW128421   0.008   1.205   3.742 -1.0134  1.5275  0.9833
 5654SOL    HW228422   4.619   1.218   3.633  1.8475 -1.5090  0.0621
 5655SOL     OW28423   1.196   1.834   8.795 -0.4281  0.1854 -0.3335
 5655SOL    HW128424   1.231   1.763   8.742 -1.2898 -1.0834  0.8321
 5655SOL    HW228425   1.248   1.821   8.874 -2.0845  0.2917  0.7763
 5656SOL     OW28426   1.035   0.428  12.870 -0.2615  0.0661  0.3820
 5656SOL    HW128427   1.125   0.456  12.852  0.0535  0.0853  2.0261
 5656SOL    HW228428   0.995   0.513  12.889 -0.2358  0.0707  0.4150
 5657SOL     OW28429   1.507   1.073  11.147 -0.4597 -0.1065  0.2885
 5657SOL    HW128430   1.568   1.044  11.216  1.4555  1.5827 -0.6922
 5657SOL    HW228431   1.552   1.039  11.070 -0.5528  2.2764 -0.8006
 5658SOL     OW28432   0.429   2.815  10.661 -0.0388  0.2899 -0.2050
 5658SOL    HW128433   0.404   2.907  10.672  1.0324  0.2122  2.8234
 5658SOL    HW228434   0.345   2.776  10.635  0.6918 -1.8206  0.6137
 5659SOL     OW28435   1.531   0.821   0.402 -0.3400 -0.2546 -0.3180
 5659SOL    HW128436   1.441   0.838   0.374 -0.6093  0.4504  0.9863
 5659SOL    HW228437   1.519   0.741   0.452 -1.4019 -0.0031 -0.1739
 5660SOL     OW28438   2.233   3.028  12.972 -0.2548 -0.8042  0.5575
 5660SOL    HW128439   2.193   2.990  12.894 -1.1824  0.5184  0.3972
 5660SOL    HW228440   2.257   3.116  12.942  0.6256 -0.7377  1.4461
 5661SOL     OW28441   3.582   3.958   4.782 -0.1678  0.3412 -0.5643
 5661SOL    HW128442   3.647   3.888   4.772  1.1990  1.3442  1.3022
 5661SOL    HW228443   3.534   3.936   4.702  0.8631 -1.3038 -0.7327
 5662SOL     OW28444   3.071   4.662   4.037  0.2432 -0.1605 -0.5231
 5662SOL    HW128445   2.978   4.640   4.025  0.7042 -2.0235 -0.6693
 5662SOL    HW228446   3.115   4.608   3.971 -1.6234 -2.5369  0.1299
 5663SOL     OW28447   3.580   2.637   9.107  0.7044  0.1988 -0.5637
 5663SOL    HW128448   3.638   2.658   9.180  0.8067 -2.6068  0.1612
 5663SOL    HW228449   3.581   2.541   9.109 -1.9482  0.2008  0.5426
 5664SOL     OW28450   3.092   0.952   2.362  0.7746 -0.9268  0.1656
 5664SOL    HW128451   3.155   0.915   2.424 -0.7282 -4.0783 -0.1519
 5664SOL    HW228452   3.012   0.916   2.401  0.1189 -0.6316 -0.9166
 5665SOL     OW28453   3.490   2.827   1.309 -0.5312  0.2412  0.0258
 5665SOL    HW128454   3.571   2.793   1.346 -1.5896 -1.9514  0.3235
 5665SOL    HW228455   3.436   2.774   1.368  1.6352  0.6373  2.3424
 5666SOL     OW28456   3.940   0.552  15.618  0.3746  0.3428  0.6262
 5666SOL    HW128457   3.934   0.526  15.710  0.3855  2.4013  1.1969
 5666SOL    HW228458   3.853   0.556  15.580  0.9174 -0.5758 -0.7038
 5667SOL     OW28459   2.038   2.733   5.588 -0.0215 -0.3432  0.1374
 5667SOL    HW128460   2.122   2.777   5.574  0.4157 -2.1022 -2.6358
 5667SOL    HW228461   1.984   2.795   5.636  1.7856  1.0634  0.3704
 5668SOL     OW28462   2.402   3.383   2.373  0.1047 -0.1189  0.3505
 5668SOL    HW128463   2.362   3.387   2.286  0.6519  0.7342  0.1456
 5668SOL    HW228464   2.491   3.367   2.341  0.3523  0.6036  0.6811
 5669SOL     OW28465   3.196   1.921  15.421  0.1129  0.3890 -0.3684
 5669SOL    HW128466   3.184   1.935  15.327  1.1063  1.7841 -0.2960
 5669SOL    HW228467   3.153   1.839  15.443 -2.1810  1.1113 -2.1024
 5670SOL     OW28468   3.575   2.356   1.301 -0.3545  0.1408  0.0476
 5670SOL    HW128469   3.657   2.383   1.342  0.7155 -0.7308 -1.5183
 5670SOL    HW228470   3.575   2.388   1.211 -0.4395  2.8760  0.9918
 5671SOL     OW28471   0.247   0.997  12.829  0.3945 -0.1634 -0.9763
 5671SOL    HW128472   0.282   0.918  12.869 -1.8331 -0.2003  0.9213
 5671SOL    HW228473   0.271   1.053  12.903 -1.0336 -1.5519  0.5263
 5672SOL     OW28474   1.947   0.876   5.432  0.1992  0.2985 -0.0620
 5672SOL    HW128475   1.940   0.968   5.458  1.6611  1.1262 -2.5971
 5672SOL    HW228476   1.924   0.843   5.519 -0.9679  1.1531 -0.0494
 5673SOL     OW28477   3.689   1.208   7.044  0.1389 -0.3094  0.5582
 5673SOL    HW128478   3.782   1.204   7.024  0.0758  0.9744  0.0091
 5673SOL    HW228479   3.646   1.187   6.961 -1.4614 -2.6732  1.9901
 5674SOL     OW28480   1.927   1.562   8.301  0.1848  0.3855  0.6141
 5674SOL    HW128481   2.021   1.549   8.308  0.5770  3.4481  1.2796
 5674SOL    HW228482   1.916   1.647   8.257  3.5002  0.3655 -0.2522
 5675SOL     OW28483   4.479   4.048   5.996  0.1714 -0.0877 -0.0652
 5675SOL    HW128484   4.391   4.010   6.003  0.2932 -0.8834 -2.6677
 5675SOL    HW228485   4.516   4.010   6.076 -1.6412 -2.4863 -0.3613
 5676SOL     OW28486   0.171   1.182   4.395 -0.5043  0.0850 -0.2526
 5676SOL    HW128487   0.142   1.203   4.306 -0.9405  1.6263  0.2636
 5676SOL    HW228488   0.162   1.266   4.438 -1.0385 -1.1242  1.9788
 5677SOL     OW28489   4.410   2.287   3.394  0.1590  0.2703  0.4267
 5677SOL    HW128490   4.490   2.236   3.389 -1.9704 -2.9202 -1.0466
 5677SOL    HW228491   4.448   2.374   3.405  0.3137  0.1498  0.8521
 5678SOL     OW28492   1.100   4.463   5.558 -0.3537  0.3253  0.1771
 5678SOL    HW128493   1.142   4.414   5.488  1.9451  1.7520  0.5540
 5678SOL    HW228494   1.092   4.550   5.517  2.0154  1.2786  1.7284
 5679SOL     OW28495   3.363   2.014   2.525  0.5462 -0.3962  0.1088
 5679SOL    HW128496   3.448   2.021   2.480  0.0531 -2.9405 -1.1938
 5679SOL    HW228497   3.382   1.947   2.590  1.1798  0.3689  0.7120
 5680SOL     OW28498   4.316   4.347   5.477 -0.0277 -0.2968 -0.1969
 5680SOL    HW128499   4.222   4.350   5.498  0.5639  2.0685  2.1797
 5680SOL    HW228500   4.316   4.286   5.403 -0.1017 -1.1463  0.5094
 5681SOL     OW28501   3.084   4.050  10.572  0.2606  0.3257 -0.4943
 5681SOL    HW128502   3.175   4.044  10.541  0.2587 -0.7586 -0.2842
 5681SOL    HW228503   3.036   3.988  10.517 -0.8952  0.1832  0.7008
 5682SOL     OW28504   4.582   0.181  16.010 -0.1523  0.3986 -0.6515
 5682SOL    HW128505   4.611   0.111  16.069 -1.0642 -0.4380 -1.1896
 5682SOL    HW228506   4.517   0.234  16.055  0.9112 -0.5367  2.0285
 5683SOL     OW28507   3.843   0.170   4.140  0.3617  0.6068  0.2541
 5683SOL    HW128508   3.929   0.212   4.141  0.7722 -0.2333  0.4632
 5683SOL    HW228509   3.789   0.247   4.155  0.1838  0.4692  0.3121
 5684SOL     OW28510   2.991   2.482   3.732  0.4702 -0.1845 -0.3284
 5684SOL    HW128511   3.071   2.439   3.702 -0.5999 -0.1239 -3.2211
 5684SOL    HW228512   2.948   2.505   3.650  0.2507  0.0531 -0.1458
 5685SOL     OW28513   1.299   3.081   9.649  0.4716  0.7469 -1.1886
 5685SOL    HW128514   1.357   3.157   9.648  1.3662  0.1297  1.4546
 5685SOL    HW228515   1.316   3.040   9.734 -0.8613  0.7920 -0.9054
 5686SOL     OW28516   1.452   1.623  15.450  0.2094  0.3069  0.1429
 5686SOL    HW128517   1.524   1.560  15.449  0.3339  0.4580 -1.4452
 5686SOL    HW228518   1.421   1.622  15.359 -0.3878 -1.6203  0.3739
 5687SOL     OW28519   3.789   2.811  13.287 -0.1660 -0.2212  0.3368
 5687SOL    HW128520   3.758   2.870  13.356 -1.1513  1.1276 -1.2443
 5687SOL    HW228521   3.827   2.880  13.233  0.8547 -2.0160 -1.2066
 5688SOL     OW28522   2.312   2.947   7.631 -0.2391 -0.0822  0.0754
 5688SOL    HW128523   2.358   2.911   7.707  1.6103 -1.1014 -1.5470
 5688SOL    HW228524   2.268   2.869   7.594 -3.6996  2.4809 -1.2458
 5689SOL     OW28525   2.507   2.983   2.700  0.2591  0.7823 -0.3272
 5689SOL    HW128526   2.440   3.026   2.647 -0.4190  0.5065  0.3071
 5689SOL    HW228527   2.514   2.896   2.660  1.1626 -0.2476  2.0962
 5690SOL     OW28528   0.099   1.008  16.087  0.1663  0.5095 -0.4088
 5690SOL    HW128529   0.095   0.937  16.152  0.0918 -0.3904 -1.3899
 5690SOL    HW228530   0.117   1.089  16.134  0.9350  0.6351 -0.9206
 5691SOL     OW28531   0.970   0.428   2.540 -0.0980  0.4726 -0.4294
 5691SOL    HW128532   1.032   0.367   2.580 -0.7639 -0.1502 -0.3430
 5691SOL    HW228533   1.022   0.508   2.531  1.0072 -0.2745 -0.7070
 5692SOL     OW28534   1.494   1.899  17.644  0.0392  0.0368 -1.2100
 5692SOL    HW128535   1.584   1.877  17.619  0.5039  0.7728 -0.2042
 5692SOL    HW228536   1.489   1.852   0.039  0.6754  0.0250 -1.1727
 5693SOL     OW28537   2.626   1.228   3.588 -0.1827  0.1001  0.3178
 5693SOL    HW128538   2.649   1.137   3.568  0.4540 -0.0114  1.5476
 5693SOL    HW228539   2.691   1.275   3.536 -1.1724  2.1621  0.9379
 5694SOL     OW28540   1.681   3.077   4.055 -0.3355  0.0968  0.1437
 5694SOL    HW128541   1.669   3.047   3.965 -1.1471 -0.8626  0.5791
 5694SOL    HW228542   1.775   3.097   4.057 -0.6549  1.4861  1.1688
 5695SOL     OW28543   4.007   4.365  11.419 -0.9668  0.2688 -0.0114
 5695SOL    HW128544   3.986   4.299  11.354  0.1615  0.3276 -0.4260
 5695SOL    HW228545   3.926   4.371  11.471 -1.7226  1.7422 -1.3635
 5696SOL     OW28546   1.005   0.037   6.289 -0.2248  0.0648 -0.1398
 5696SOL    HW128547   1.083   4.704   6.306 -1.2878 -1.4078 -0.0190
 5696SOL    HW228548   0.937   4.692   6.295  2.0102 -2.0915  1.3111
 5697SOL     OW28549   0.455   4.435   3.186  0.5022  0.2646  0.2261
 5697SOL    HW128550   0.365   4.460   3.168  0.6001  0.2788 -0.2459
 5697SOL    HW228551   0.515   4.501   3.151  0.1987  0.3662 -0.1055
 5698SOL     OW28552   1.970   3.542   9.007 -0.3508 -0.0009  0.1362
 5698SOL    HW128553   1.976   3.482   8.933  4.2006 -0.4628  0.8557
 5698SOL    HW228554   1.934   3.473   9.063  2.0900 -0.4363  1.1982
 5699SOL     OW28555   2.653   3.877   1.145 -0.1633 -0.5116 -0.9596
 5699SOL    HW128556   2.749   3.871   1.148 -0.2937 -2.2961 -0.5370
 5699SOL    HW228557   2.638   3.964   1.108 -2.9490 -0.8653 -0.6507
 5700SOL     OW28558   0.375   3.496   7.246 -0.5489  0.1437  0.6365
 5700SOL    HW128559   0.452   3.443   7.224 -1.5563 -1.1171  0.1715
 5700SOL    HW228560   0.327   3.435   7.302 -0.2057 -1.8954 -1.3156
 5701SOL     OW28561   2.421   0.678  10.675 -0.3713 -0.4961 -0.5270
 5701SOL    HW128562   2.484   0.622  10.630  1.9303  0.5997  1.3446
 5701SOL    HW228563   2.392   0.615  10.741 -0.9165 -0.1665 -0.4550
 5702SOL     OW28564   4.684   2.911   4.978  0.0752 -0.3513 -0.1409
 5702SOL    HW128565   4.634   2.857   4.917  0.3886 -0.9079  0.1028
 5702SOL    HW228566   4.675   2.869   5.063 -1.6462 -3.2374 -1.7617
 5703SOL     OW28567   3.230   2.949   4.494 -0.2341  0.0361 -0.4973
 5703SOL    HW128568   3.223   2.872   4.550 -0.2763  1.8440  1.9945
 5703SOL    HW228569   3.181   2.909   4.422 -1.2501  0.5190 -0.0835
 5704SOL     OW28570   0.622   3.752   8.426  0.7044  0.2141 -0.2832
 5704SOL    HW128571   0.679   3.694   8.375 -0.4227 -2.2510  1.2218
 5704SOL    HW228572   0.680   3.822   8.456 -0.3945  0.7272  0.6484
 5705SOL     OW28573   0.417   0.553   5.999  0.0543 -0.0272 -0.1543
 5705SOL    HW128574   0.424   0.482   5.936 -0.9377  1.0514 -1.4858
 5705SOL    HW228575   0.324   0.573   5.992 -0.1272 -0.7626  0.3250
 5706SOL     OW28576   0.435   1.867   8.607  0.0842  0.1074  0.2573
 5706SOL    HW128577   0.505   1.804   8.622  0.1525  0.8127  2.9203
 5706SOL    HW228578   0.479   1.944   8.644  2.4899 -0.3608 -1.6412
 5707SOL     OW28579   1.911   0.593   4.180  0.6402  0.0635 -0.4365
 5707SOL    HW128580   1.965   0.637   4.114  0.4499 -3.1003 -2.6685
 5707SOL    HW228581   1.966   0.523   4.215  0.2123  0.3417  0.7886
 5708SOL     OW28582   0.954   0.488   5.378  0.2318 -0.3515  0.1992
 5708SOL    HW128583   1.002   0.445   5.449  1.6081 -1.5291 -1.4394
 5708SOL    HW228584   0.978   0.579   5.394  0.5314 -0.7819  2.1951
 5709SOL     OW28585   0.581   0.124   8.222 -0.3040 -0.1758 -0.9905
 5709SOL    HW128586   0.567   0.185   8.294 -0.1439  0.3292 -1.3853
 5709SOL    HW228587   0.551   0.041   8.260  0.3147  0.4625  0.8668
 5710SOL     OW28588   3.023   4.095   5.676  0.3752 -0.0014  0.4176
 5710SOL    HW128589   3.074   4.022   5.641  0.4335 -0.7271  2.0576
 5710SOL    HW228590   3.089   4.164   5.670 -0.3866  0.6652 -0.3873
 5711SOL     OW28591   2.867   0.167   2.696  0.2625  0.1400  0.1733
 5711SOL    HW128592   2.852   0.239   2.634  0.0063 -0.0176  0.0539
 5711SOL    HW228593   2.906   0.098   2.643  0.8926  1.2839 -0.8521
 5712SOL     OW28594   0.485   3.588   5.952  0.4941 -0.1002  0.1021
 5712SOL    HW128595   0.552   3.654   5.941  0.6912 -0.5746 -1.5130
 5712SOL    HW228596   0.527   3.502   5.954  2.1974  0.7509  0.0830
 5713SOL     OW28597   1.942   4.036   9.741 -0.3263 -1.0297  0.3424
 5713SOL    HW128598   1.859   4.028   9.695 -1.4219  3.0926  1.5539
 5713SOL    HW228599   2.008   4.022   9.673 -1.0723  0.5884 -0.7036
 5714SOL     OW28600   3.383   1.428  14.776 -0.2713 -0.2553  0.8383
 5714SOL    HW128601   3.315   1.458  14.835 -1.8153  0.0645 -1.1004
 5714SOL    HW228602   3.409   1.511  14.736  0.4796 -0.7286  0.3268
 5715SOL     OW28603   1.975   0.004   8.276  0.2736 -0.0828  0.0224
 5715SOL    HW128604   2.024   4.648   8.248 -0.7950 -0.7999  0.1350
 5715SOL    HW228605   1.961   4.705   8.368  0.3029 -1.8563 -0.3704
 5716SOL     OW28606   1.364   0.177   3.046 -0.3149  0.0939 -0.5728
 5716SOL    HW128607   1.442   0.136   3.008  0.7458 -1.8092  3.7169
 5716SOL    HW228608   1.291   0.133   3.003  0.0270 -1.1790  0.1568
 5717SOL     OW28609   4.189   3.008   6.008 -0.3379  0.1563 -0.3655
 5717SOL    HW128610   4.202   2.924   5.964  1.7632  0.5582 -0.4886
 5717SOL    HW228611   4.254   3.051   5.952 -0.1545  1.0187  0.5185
 5718SOL     OW28612   3.462   2.083   6.791 -0.3636  0.3680  0.1029
 5718SOL    HW128613   3.370   2.109   6.795 -0.3536  0.5075 -0.5142
 5718SOL    HW228614   3.468   2.004   6.844 -0.5556  0.7540  0.6904
 5719SOL     OW28615   4.386   0.848   4.644 -0.3685 -0.3315 -0.1334
 5719SOL    HW128616   4.372   0.810   4.731  2.1646  0.2521  0.5326
 5719SOL    HW228617   4.304   0.897   4.641 -0.0847  0.0446 -1.5506
 5720SOL     OW28618   0.535   2.009   3.141  0.6468  0.7340  0.0942
 5720SOL    HW128619   0.494   1.969   3.218 -0.3469 -3.3166 -2.4978
 5720SOL    HW228620   0.518   2.100   3.164  0.1853  1.0936 -1.6674
 5721SOL     OW28621   3.221   2.530   2.021 -0.2359  0.4047 -0.4211
 5721SOL    HW128622   3.128   2.554   2.017  0.2789  2.3283 -1.0782
 5721SOL    HW228623   3.237   2.454   2.076 -3.1425 -0.2832 -0.5048
 5722SOL     OW28624   0.967   3.426   5.462 -0.6356 -0.2489 -0.3133
 5722SOL    HW128625   1.000   3.512   5.437 -1.6047  0.9929  2.5755
 5722SOL    HW228626   0.877   3.445   5.490 -0.2099 -0.7784  1.4114
 5723SOL     OW28627   0.028   4.055   8.436 -0.1433  0.4785  0.8907
 5723SOL    HW128628   0.088   4.013   8.497  0.3424 -1.6599 -1.0844
 5723SOL    HW228629   4.680   3.993   8.417 -0.1431  1.1202 -1.2043
 5724SOL     OW28630   1.749   3.764   7.539 -0.3521  0.1727 -0.1707
 5724SOL    HW128631   1.702   3.787   7.459  1.2096  2.9766 -0.2849
 5724SOL    HW228632   1.811   3.703   7.499 -1.7558 -0.5602 -1.2044
 5725SOL     OW28633   1.881   0.021   3.951  0.2000  0.7384 -0.4476
 5725SOL    HW128634   1.900   0.102   3.998  0.1448 -0.3291  1.3981
 5725SOL    HW228635   1.786   0.028   3.939  0.2721  1.7895 -0.4237
 5726SOL     OW28636   1.918   1.381   4.510  0.4243 -0.2265 -0.2085
 5726SOL    HW128637   1.995   1.436   4.498 -0.1008  0.4061 -0.7512
 5726SOL    HW228638   1.943   1.311   4.450 -4.5191 -0.5559 -1.9048
 5727SOL     OW28639   0.153   3.184   9.581 -0.2207  0.2700  0.7793
 5727SOL    HW128640   0.167   3.182   9.676  1.0019  0.1218  0.5962
 5727SOL    HW228641   0.201   3.112   9.540  1.7602  1.9546  0.1213
 5728SOL     OW28642   1.844   0.855   7.837 -0.4478  0.0242  0.3410
 5728SOL    HW128643   1.812   0.872   7.926 -1.0580  0.0018  0.1258
 5728SOL    HW228644   1.857   0.761   7.850  1.3201  0.3733  1.0822
 5729SOL     OW28645   0.877   1.935   8.307 -0.7688  0.4855  0.7027
 5729SOL    HW128646   0.936   1.957   8.380 -0.6777  2.0473  0.1351
 5729SOL    HW228647   0.848   2.017   8.268 -0.2031 -0.7794 -2.3973
 5730SOL     OW28648   2.130   1.997   2.718 -0.0055  0.6260 -0.3050
 5730SOL    HW128649   2.143   2.090   2.697 -0.1833  1.0643  1.5241
 5730SOL    HW228650   2.219   1.967   2.704 -0.6800 -0.4665 -2.2185
 5731SOL     OW28651   4.387   4.531   1.134  0.2268  0.1071 -0.1186
 5731SOL    HW128652   4.446   4.496   1.202  0.6896  1.3956  0.1417
 5731SOL    HW228653   4.320   4.464   1.138  1.3763 -0.9082  2.4295
 5732SOL     OW28654   2.770   1.053   4.327  0.1693  0.7907  0.1140
 5732SOL    HW128655   2.757   1.146   4.344  0.0702  0.9477 -0.8451
 5732SOL    HW228656   2.688   1.024   4.287  1.7314 -1.9739 -1.1414
 5733SOL     OW28657   1.959   3.028  15.206 -0.1893 -0.0042  0.6555
 5733SOL    HW128658   1.944   2.944  15.249  0.2275  0.1139  1.0399
 5733SOL    HW228659   1.904   3.089  15.254 -0.2157 -1.1412  2.0765
 5734SOL     OW28660   3.120   0.758  15.686 -0.2809  0.1732  0.6408
 5734SOL    HW128661   3.185   0.828  15.697  0.4158 -0.4325  0.4383
 5734SOL    HW228662   3.076   0.770  15.770 -1.1464 -0.5090  0.2804
 5735SOL     OW28663   4.277   0.737   4.416 -0.2069 -0.5392 -0.2345
 5735SOL    HW128664   4.334   0.785   4.476 -0.6957 -0.9009  0.5253
 5735SOL    HW228665   4.218   0.807   4.388 -1.2740 -1.9152 -1.4756
 5736SOL     OW28666   1.640   3.500   9.077 -0.4736  0.0290  0.3883
 5736SOL    HW128667   1.630   3.431   9.012  0.5114  0.3305 -0.0810
 5736SOL    HW228668   1.551   3.530   9.095  0.6280  2.8001  1.3006
 5737SOL     OW28669   2.312   0.609  16.205 -0.4855  0.0774  0.2428
 5737SOL    HW128670   2.406   0.592  16.213 -0.3348 -0.0470 -1.8874
 5737SOL    HW228671   2.302   0.641  16.115 -1.2185 -2.1766 -0.4608
 5738SOL     OW28672   4.005   2.224   5.422 -0.0937 -0.0711  0.5115
 5738SOL    HW128673   4.055   2.260   5.349  1.1220  0.4906  1.5970
 5738SOL    HW228674   3.958   2.153   5.379  1.4801 -0.0950 -1.1597
 5739SOL     OW28675   4.221   1.299   5.272 -0.4815 -0.1342  0.2297
 5739SOL    HW128676   4.146   1.357   5.266  0.6598  1.6127  2.8953
 5739SOL    HW228677   4.288   1.343   5.220  1.6513 -2.8463  0.6821
 5740SOL     OW28678   1.418   3.356   2.394 -0.1617 -0.7074  0.1603
 5740SOL    HW128679   1.415   3.262   2.377  1.0356 -0.9096  1.0320
 5740SOL    HW228680   1.334   3.380   2.357  0.3697  1.6133  0.4917
 5741SOL     OW28681   3.228   4.655   4.516 -0.3064  0.2242 -0.0100
 5741SOL    HW128682   3.189   4.598   4.581  0.5328 -0.6559 -0.2806
 5741SOL    HW228683   3.208   4.611   4.433  0.3072  0.7273 -0.4214
 5742SOL     OW28684   0.029   4.376  12.708 -0.3144 -0.2689  0.0338
 5742SOL    HW128685   0.037   4.471  12.718  0.5847  0.0665 -3.8715
 5742SOL    HW228686   0.112   4.349  12.747  0.3697 -0.4570 -1.5528
 5743SOL     OW28687   1.029   0.983   7.508  0.1152  0.1539  0.2917
 5743SOL    HW128688   1.088   0.986   7.583 -2.0332  0.6847  1.9596
 5743SOL    HW228689   0.988   0.897   7.520  0.6981 -0.2395 -0.5199
 5744SOL     OW28690   3.538   2.956  16.920  0.4467 -0.7074 -0.3456
 5744SOL    HW128691   3.519   3.047  16.896  0.3549  0.0202  2.4937
 5744SOL    HW228692   3.459   2.923  16.961 -0.7989  2.0149 -0.5309
 5745SOL     OW28693   3.532   2.227   2.343  0.3946  0.0245 -0.5150
 5745SOL    HW128694   3.594   2.257   2.410 -1.9161 -0.0444  1.6617
 5745SOL    HW228695   3.556   2.281   2.268  0.2971  0.7673 -0.0065
 5746SOL     OW28696   3.464   1.008  17.501  0.1944  0.5263 -0.2657
 5746SOL    HW128697   3.378   0.986  17.465  1.5667 -2.5221 -1.6922
 5746SOL    HW228698   3.497   1.064  17.430 -1.9235  1.1556 -0.7454
 5747SOL     OW28699   4.576   0.655  10.497 -0.2519  0.3153  0.1594
 5747SOL    HW128700   4.499   0.648  10.553 -0.1082 -0.1495  0.3019
 5747SOL    HW228701   4.581   0.748  10.478  0.2742 -0.0497 -1.4979
 5748SOL     OW28702   2.598   1.149   7.562 -0.0344  0.1790  0.5760
 5748SOL    HW128703   2.563   1.062   7.544 -2.0779  1.4266 -1.5230
 5748SOL    HW228704   2.618   1.138   7.655  1.7117  3.0707  0.5658
 5749SOL     OW28705   2.440   4.603   3.514  0.0313  0.2858 -0.6821
 5749SOL    HW128706   2.525   4.635   3.546  0.5639 -1.3363 -0.4904
 5749SOL    HW228707   2.387   4.637   3.586  1.1896 -0.8155  0.6955
 5750SOL     OW28708   0.257   0.913   7.751 -0.6760 -0.3279  0.0762
 5750SOL    HW128709   0.177   0.884   7.795 -2.7511  1.6056 -2.4379
 5750SOL    HW228710   0.271   0.832   7.700  1.1866  0.2597 -0.3715
 5751SOL     OW28711   2.107   4.089   3.737  0.6353  0.2639 -0.6930
 5751SOL    HW128712   2.103   4.008   3.789 -1.1596  0.3016 -0.7882
 5751SOL    HW228713   2.015   4.098   3.715 -0.2369 -1.7405  2.0550
 5752SOL     OW28714   4.292   2.118  16.437 -0.0096  0.0852  0.2002
 5752SOL    HW128715   4.259   2.184  16.375  0.7181  1.4081  1.2163
 5752SOL    HW228716   4.233   2.046  16.414  0.8049 -0.8951  1.2388
 5753SOL     OW28717   1.828   4.358   5.582  0.2966  0.1282 -0.2481
 5753SOL    HW128718   1.853   4.337   5.492 -1.6089  1.5303 -1.1033
 5753SOL    HW228719   1.903   4.414   5.605 -0.1079 -0.3551  2.2737
 5754SOL     OW28720   0.218   4.568  16.875  0.2156 -0.2653 -0.5713
 5754SOL    HW128721   0.287   4.606  16.819 -0.4877  0.8826 -0.6451
 5754SOL    HW228722   0.264   4.571  16.959 -0.9258  1.4183 -0.0261
 5755SOL     OW28723   4.667   4.001  11.146 -0.1583 -0.6390  0.0935
 5755SOL    HW128724   4.619   3.960  11.218 -1.8254  0.9988 -0.0530
 5755SOL    HW228725   0.021   3.943  11.145 -0.2066 -0.6985 -0.1288
 5756SOL     OW28726   0.631   0.905   4.234  0.8045 -0.5871  0.0326
 5756SOL    HW128727   0.648   0.956   4.155  2.1488 -1.2773 -0.1252
 5756SOL    HW228728   0.544   0.930   4.266 -0.0293  0.1303 -2.7945
 5757SOL     OW28729   2.231   4.199   3.178  0.1108 -0.3910 -0.1806
 5757SOL    HW128730   2.280   4.271   3.219  0.3162 -0.8297  0.3546
 5757SOL    HW228731   2.155   4.189   3.235 -0.2759 -2.1945 -1.0065
 5758SOL     OW28732   0.541   2.897   5.855 -0.2100  0.6413  0.0024
 5758SOL    HW128733   0.500   2.914   5.770 -0.7054  1.8883  0.4825
 5758SOL    HW228734   0.478   2.827   5.873  0.5723  0.5087  2.1991
 5759SOL     OW28735   3.653   0.962   3.972  0.2445 -0.4404  0.2484
 5759SOL    HW128736   3.558   0.975   3.974  0.2352 -0.2217 -1.5898
 5759SOL    HW228737   3.676   0.995   4.059 -0.6297 -1.4763  0.8724
 5760SOL     OW28738   0.538   1.152   6.767  0.3099  0.3110  0.2888
 5760SOL    HW128739   0.583   1.170   6.684 -0.5841 -1.7792 -0.6483
 5760SOL    HW228740   0.539   1.056   6.773  0.7810  0.3970  1.5763
 5761SOL     OW28741   4.041   0.732   5.262  0.0298 -0.0730 -0.2591
 5761SOL    HW128742   4.074   0.642   5.263  2.0027  0.6671  0.7228
 5761SOL    HW228743   4.094   0.776   5.328 -0.4931 -1.0960  0.8566
 5762SOL     OW28744   4.009   0.384   2.678  0.3935 -0.7047  0.1118
 5762SOL    HW128745   4.018   0.294   2.645 -0.3826 -0.1817 -1.5483
 5762SOL    HW228746   3.989   0.368   2.770 -0.1138  1.1520  0.3092
 5763SOL     OW28747   2.332   1.026   8.457  0.7422  0.5538 -0.5055
 5763SOL    HW128748   2.323   1.041   8.363  1.1816 -3.9683 -1.2830
 5763SOL    HW228749   2.427   1.017   8.465  0.9034  1.9539 -0.8799
 5764SOL     OW28750   3.585   0.377   4.493  0.4113  0.2552 -0.0085
 5764SOL    HW128751   3.679   0.390   4.486  0.5409  0.0437  1.3329
 5764SOL    HW228752   3.588   0.317   4.567 -0.8289  0.3406  0.1190
 5765SOL     OW28753   2.436   4.166   8.469  0.0911 -0.1708  0.3828
 5765SOL    HW128754   2.375   4.129   8.404  1.0055 -0.4378 -0.3128
 5765SOL    HW228755   2.502   4.206   8.413 -0.2385  1.0078  0.8227
 5766SOL     OW28756   0.709   2.417  10.622 -0.3552 -0.2391  0.5653
 5766SOL    HW128757   0.690   2.503  10.661 -0.8963 -0.2971  0.4400
 5766SOL    HW228758   0.749   2.368  10.694  2.1678 -1.9740 -2.0242
 5767SOL     OW28759   3.343   0.030   9.003 -0.4017  0.3120 -0.2159
 5767SOL    HW128760   3.390   0.036   9.087 -0.5492  2.3188 -0.2952
 5767SOL    HW228761   3.257   0.060   9.032 -1.2376 -2.8995  0.6866
 5768SOL     OW28762   1.233   1.698   6.705  0.0222 -0.1071  0.3326
 5768SOL    HW128763   1.284   1.618   6.712 -0.9731 -0.8046 -0.2871
 5768SOL    HW228764   1.203   1.695   6.614 -0.2720  0.6367  0.4035
 5769SOL     OW28765   0.194   2.699   2.233  0.3693 -0.5554 -0.8483
 5769SOL    HW128766   0.184   2.680   2.140  0.7143  0.4024 -1.0843
 5769SOL    HW228767   0.254   2.774   2.232 -1.8330  1.1532 -3.6832
 5770SOL     OW28768   2.984   0.982  14.767 -0.2153  0.0223 -0.2951
 5770SOL    HW128769   2.911   0.967  14.827  2.5846 -1.8473  2.5874
 5770SOL    HW228770   3.042   0.911  14.794  1.0318  0.5802 -1.5049
 5771SOL     OW28771   3.764   0.914   7.806  0.0452  0.7295  0.6724
 5771SOL    HW128772   3.825   0.847   7.835 -0.5403 -0.6308 -1.2421
 5771SOL    HW228773   3.783   0.925   7.712  0.1802  0.2796  0.6445
 5772SOL     OW28774   4.698   3.341   3.109  0.6855  0.5340  0.1437
 5772SOL    HW128775   4.673   3.363   3.019 -0.0464 -0.1009  0.1909
 5772SOL    HW228776   4.634   3.280   3.146  1.3019  0.5298  1.2052
 5773SOL     OW28777   0.812   0.873   3.454 -0.1737 -0.1070 -0.2797
 5773SOL    HW128778   0.768   0.888   3.538  1.0009 -1.0871  0.5089
 5773SOL    HW228779   0.812   0.964   3.426 -0.6499 -0.1766 -0.5172
 5774SOL     OW28780   3.379   0.533   9.924  0.0530  0.3820  0.2114
 5774SOL    HW128781   3.386   0.537   9.828 -0.2891 -0.2846  0.1617
 5774SOL    HW228782   3.471   0.555   9.942  0.1622  1.2570 -1.3609
 5775SOL     OW28783   0.791   3.584   6.545 -0.5144 -0.2078 -0.0081
 5775SOL    HW128784   0.834   3.504   6.574  1.0329  0.6546  0.0502
 5775SOL    HW228785   0.775   3.624   6.631  1.3587 -0.4065  0.4368
 5776SOL     OW28786   3.986   3.186   8.793  0.0468  0.1138  0.0150
 5776SOL    HW128787   4.081   3.186   8.807 -0.1492  2.9216  1.5313
 5776SOL    HW228788   3.946   3.178   8.880  0.0150 -2.4286 -0.2432
 5777SOL     OW28789   2.594   2.726   3.051 -0.0803  0.5202 -0.1949
 5777SOL    HW128790   2.513   2.686   3.021 -0.1480  0.5709 -0.0804
 5777SOL    HW228791   2.633   2.761   2.971 -0.0480  0.0396 -0.3838
 5778SOL     OW28792   3.440   4.036   0.051  0.0335 -0.1100  0.3931
 5778SOL    HW128793   3.486   3.971  17.686  1.6375  0.3824  1.1665
 5778SOL    HW228794   3.386   4.067  17.667 -0.1766 -0.5723  0.3504
 5779SOL     OW28795   3.196   2.360  13.102  0.1439  0.9938  0.2147
 5779SOL    HW128796   3.259   2.405  13.157 -0.2561  0.3361  1.1941
 5779SOL    HW228797   3.119   2.345  13.157  0.5328 -0.1639  0.4318
 5780SOL     OW28798   2.201   3.561   7.952  0.4743 -0.0640 -0.0564
 5780SOL    HW128799   2.277   3.584   7.900  0.3280 -3.0269 -1.5488
 5780SOL    HW228800   2.169   3.496   7.890  1.7047  0.2220 -0.9788
 5781SOL     OW28801   4.645   3.465  17.565 -0.8956 -0.2329 -0.3116
 5781SOL    HW128802   4.584   3.481  17.638 -1.2304  1.3959 -0.9540
 5781SOL    HW228803   4.671   3.374  17.583  1.1127  0.2519 -0.7473
 5782SOL     OW28804   0.953   4.111   6.726 -0.1144  0.5228  0.4323
 5782SOL    HW128805   0.868   4.067   6.728  0.3188 -0.3433  0.0677
 5782SOL    HW228806   0.962   4.147   6.814 -2.5457 -0.8424  1.2482
 5783SOL     OW28807   3.798   1.240   2.321 -0.3949 -0.0711 -0.0243
 5783SOL    HW128808   3.789   1.243   2.416  0.4399 -1.8962  0.1056
 5783SOL    HW228809   3.707   1.233   2.293 -0.2873  1.8133 -0.8531
 5784SOL     OW28810   2.506   4.242   4.191  0.0181 -0.1028  0.5554
 5784SOL    HW128811   2.426   4.195   4.170 -0.2113  1.0610 -1.1919
 5784SOL    HW228812   2.503   4.239   4.287 -0.4657 -0.7381  0.5188
 5785SOL     OW28813   4.615   3.115  10.294  0.1077  0.0005  0.0385
 5785SOL    HW128814   4.566   3.046  10.249 -4.1687  0.8262  3.4203
 5785SOL    HW228815   4.661   3.165  10.226  0.9218 -2.7178 -1.4112
 5786SOL     OW28816   0.098   3.709   8.980  0.3785  0.0889  0.1669
 5786SOL    HW128817   0.172   3.705   8.920  0.4078 -0.1284  0.2174
 5786SOL    HW228818   0.078   3.803   8.974  1.4649  0.2936 -0.1669
 5787SOL     OW28819   3.609   4.248  11.064  0.0233  0.3861  0.5224
 5787SOL    HW128820   3.525   4.213  11.035  0.2896 -0.6915  1.0660
 5787SOL    HW228821   3.655   4.257  10.981 -0.7564  0.9983  0.1530
 5788SOL     OW28822   3.601   3.100  15.179 -0.0406 -0.5021  0.0946
 5788SOL    HW128823   3.631   3.010  15.168 -0.6737 -1.0297  2.4832
 5788SOL    HW228824   3.676   3.144  15.140 -0.6910 -0.5023 -1.1537
 5789SOL     OW28825   1.054   2.405   8.843 -0.1443 -0.2060  0.3958
 5789SOL    HW128826   1.077   2.442   8.928 -0.0882 -1.7904  1.0605
 5789SOL    HW228827   0.988   2.344   8.875 -3.0099  2.9974  0.5358
 5790SOL     OW28828   0.738   2.954   1.828 -0.0259  0.0783 -0.0413
 5790SOL    HW128829   0.727   2.939   1.734  0.3198  2.6746 -0.4943
 5790SOL    HW228830   0.673   2.901   1.874 -0.0167  1.4029  1.4469
 5791SOL     OW28831   2.356   2.681  12.479 -0.3957 -0.1637  0.2615
 5791SOL    HW128832   2.303   2.701  12.557  0.5710 -0.6409  1.0442
 5791SOL    HW228833   2.383   2.591  12.501 -1.2731  0.0805  2.3539
 5792SOL     OW28834   1.876   1.580  12.280  0.7417 -0.0451 -0.4281
 5792SOL    HW128835   1.832   1.663  12.297  1.6172  0.6886 -1.6827
 5792SOL    HW228836   1.917   1.574  12.366 -0.0050  1.7891  0.0508
 5793SOL     OW28837   1.103   1.009   3.334  0.5855 -0.0060  0.5675
 5793SOL    HW128838   1.135   0.972   3.252  0.5151 -0.5463  0.7824
 5793SOL    HW228839   1.019   0.964   3.335  0.2644  0.5106 -3.1905
 5794SOL     OW28840   2.010   1.928   1.043  0.2937 -0.4106 -0.4747
 5794SOL    HW128841   1.997   1.925   1.138  0.6060 -3.7936 -0.5391
 5794SOL    HW228842   1.927   1.970   1.023 -0.1357 -0.1817  1.7083
 5795SOL     OW28843   4.463   0.102  16.834  0.0915  0.3798  0.2712
 5795SOL    HW128844   4.514   0.165  16.886 -0.3107  1.3058 -0.4532
 5795SOL    HW228845   4.377   0.143  16.829 -0.7471 -1.3210  0.8840
 5796SOL     OW28846   4.466   3.694   4.777 -0.2524 -0.4882  0.9561
 5796SOL    HW128847   4.379   3.722   4.806 -0.9024  0.1829 -1.6144
 5796SOL    HW228848   4.515   3.695   4.860  1.3006  0.6667  0.0335
 5797SOL     OW28849   3.563   1.731   3.393  0.0085 -0.4350  0.1291
 5797SOL    HW128850   3.649   1.772   3.404 -0.3777  0.1878  0.8524
 5797SOL    HW228851   3.587   1.672   3.322  0.2933  1.6093 -1.4766
 5798SOL     OW28852   3.687   1.167  16.567 -0.2801 -0.4180  0.3905
 5798SOL    HW128853   3.759   1.206  16.517 -1.0962 -1.0101 -1.2167
 5798SOL    HW228854   3.614   1.218  16.532 -2.1629 -2.0401  2.0266
 5799SOL     OW28855   0.925   2.661   7.205 -0.2572 -0.3858 -0.0434
 5799SOL    HW128856   1.002   2.605   7.207  0.3699  0.4972  1.3875
 5799SOL    HW228857   0.870   2.619   7.271 -1.5249  0.8081 -0.3331
 5800SOL     OW28858   3.591   1.634   6.813 -0.7997 -0.5062  0.0181
 5800SOL    HW128859   3.668   1.684   6.840 -0.9797  0.2204 -0.8253
 5800SOL    HW228860   3.601   1.566   6.879  0.6634 -0.0498  0.2561
 5801SOL     OW28861   1.715   1.971   4.712 -0.3643  0.7654 -0.1479
 5801SOL    HW128862   1.788   1.909   4.720 -0.2376  0.7286 -1.5049
 5801SOL    HW228863   1.752   2.042   4.659  0.2688 -0.1703 -0.9784
 5802SOL     OW28864   0.900   2.484  16.861  0.2058  0.3320 -0.0661
 5802SOL    HW128865   0.906   2.550  16.930  0.1411  0.6723 -0.3866
 5802SOL    HW228866   0.981   2.436  16.878 -0.1775 -0.8371 -1.5389
 5803SOL     OW28867   3.805   3.000   1.362  0.4547  0.5869 -0.2395
 5803SOL    HW128868   3.848   3.085   1.361  0.6444  0.4311 -4.6540
 5803SOL    HW228869   3.754   3.002   1.281 -2.2586  1.2687  1.4586
 5804SOL     OW28870   2.325   0.268  16.210 -0.4197  0.0900 -0.2697
 5804SOL    HW128871   2.265   0.305  16.145  0.5256  2.4619  0.2169
 5804SOL    HW228872   2.283   0.294  16.292 -0.4331  0.0872 -0.2755
 5805SOL     OW28873   1.815   1.418  15.609  0.9979 -0.4355 -0.4463
 5805SOL    HW128874   1.785   1.488  15.667 -2.0355  0.4890 -3.1587
 5805SOL    HW228875   1.875   1.375  15.669  1.6913 -3.4467 -3.3085
 5806SOL     OW28876   4.046   0.160   5.712  0.0524  0.2635 -0.8551
 5806SOL    HW128877   4.038   0.067   5.691  1.0204  0.4800 -2.2088
 5806SOL    HW228878   4.034   0.168   5.806  2.0689  2.9609 -0.8107
 5807SOL     OW28879   4.517   2.099   0.374  0.0717 -0.4271  0.0671
 5807SOL    HW128880   4.584   2.035   0.395 -1.6770 -2.1613  0.3215
 5807SOL    HW228881   4.444   2.044   0.401 -1.1546  1.5174  0.7306
 5808SOL     OW28882   1.888   0.469  13.219  0.3921  0.0320 -0.3340
 5808SOL    HW128883   1.839   0.536  13.266 -0.0529 -0.4850 -0.0688
 5808SOL    HW228884   1.866   0.491  13.128 -0.8676  0.6369  0.1315
 5809SOL     OW28885   3.901   1.856   3.071 -0.0483  0.2917  0.3004
 5809SOL    HW128886   3.982   1.812   3.091  0.9872  2.5161  1.0184
 5809SOL    HW228887   3.895   1.927   3.135  0.2050 -1.4300  2.2175
 5810SOL     OW28888   1.811   1.033   1.549 -0.2527  0.1931  0.0148
 5810SOL    HW128889   1.824   1.070   1.462  1.1028 -0.1593  0.0701
 5810SOL    HW228890   1.740   0.978   1.517  1.4555 -1.1598 -1.4419
 5811SOL     OW28891   1.889   4.288   1.307 -0.6214 -0.2319  0.0005
 5811SOL    HW128892   1.917   4.370   1.267 -0.5466 -1.0685 -1.6705
 5811SOL    HW228893   1.909   4.229   1.234  1.9681 -0.0938  0.5979
 5812SOL     OW28894   3.683   1.630   2.609 -0.2112  0.0762  0.0043
 5812SOL    HW128895   3.680   1.706   2.550 -0.0948  0.7789  0.9065
 5812SOL    HW228896   3.595   1.640   2.646 -0.6046 -4.2744  0.2346
 5813SOL     OW28897   1.243   1.284  10.693  0.5859  0.3008 -0.1393
 5813SOL    HW128898   1.313   1.220  10.703 -0.7012 -1.1790 -0.8005
 5813SOL    HW228899   1.177   1.254  10.755  1.1446 -0.0391  0.2949
 5814SOL     OW28900   1.191   2.019   2.308 -0.1233  0.3081  0.1344
 5814SOL    HW128901   1.156   1.957   2.245  1.1587 -0.0974 -0.1784
 5814SOL    HW228902   1.239   1.954   2.360 -1.7909  0.1845  1.5241
 5815SOL     OW28903   0.978   2.611   4.791 -0.1387  0.3158  0.0720
 5815SOL    HW128904   1.059   2.566   4.768  1.4267  2.9370  0.4272
 5815SOL    HW228905   1.006   2.654   4.872 -1.5914  0.0591  0.7023
 5816SOL     OW28906   2.303   2.692   3.918 -0.0897  0.2620 -0.1600
 5816SOL    HW128907   2.328   2.783   3.933 -0.6426  0.2432  0.9374
 5816SOL    HW228908   2.208   2.706   3.923 -0.0831 -0.4729  2.0645
 5817SOL     OW28909   1.218   0.526   9.939 -0.3451 -0.3615 -0.2382
 5817SOL    HW128910   1.261   0.474   9.871  2.3570  3.6968 -1.6046
 5817SOL    HW228911   1.205   0.454  10.000 -0.7014 -1.0199 -1.0922
 5818SOL     OW28912   3.067   0.439   1.629  0.0195  0.7047  0.6204
 5818SOL    HW128913   3.132   0.375   1.601 -1.0095 -1.0967  2.4249
 5818SOL    HW228914   3.020   0.451   1.546 -0.2573 -1.7621  0.4425
 5819SOL     OW28915   3.219   2.933   7.171  0.5102  0.1408  0.3410
 5819SOL    HW128916   3.255   2.845   7.164 -1.6693 -0.8921  1.9073
 5819SOL    HW228917   3.287   2.973   7.225  0.4884  0.4301  0.1532
 5820SOL     OW28918   2.543   1.341   4.714 -0.4214  0.0434 -0.0116
 5820SOL    HW128919   2.609   1.314   4.778  0.5769  1.9733 -0.2249
 5820SOL    HW228920   2.465   1.316   4.763 -0.5023  0.5300  0.1100
 5821SOL     OW28921   2.335   3.749  17.484 -0.1049 -0.9528 -0.0990
 5821SOL    HW128922   2.332   3.744  17.579  3.7758  2.2258  0.1506
 5821SOL    HW228923   2.253   3.794  17.465 -0.7054 -1.7170  0.6823
 5822SOL     OW28924   2.038   1.453   6.216  0.0479  0.7037  0.2139
 5822SOL    HW128925   2.009   1.363   6.230 -1.7177  0.8883 -2.3100
 5822SOL    HW228926   1.956   1.500   6.228  0.9956  2.7622 -1.4149
 5823SOL     OW28927   2.207   0.149   5.768 -0.3703  0.1934  0.2889
 5823SOL    HW128928   2.182   0.229   5.814 -2.6819  0.1354 -0.8914
 5823SOL    HW228929   2.149   0.089   5.814 -1.2208  0.6915 -0.1377
 5824SOL     OW28930   2.550   0.709   0.773  0.2015  0.4035 -0.5336
 5824SOL    HW128931   2.645   0.710   0.760  0.3502  0.6644  0.5713
 5824SOL    HW228932   2.520   0.775   0.836 -2.5558 -0.4267 -0.9794
 5825SOL     OW28933   3.766   0.159   5.683 -0.2305 -0.3557  0.2778
 5825SOL    HW128934   3.855   0.155   5.718 -0.8770 -1.3634  1.8557
 5825SOL    HW228935   3.728   0.218   5.748  0.1282 -1.0592  1.1220
 5826SOL     OW28936   2.359   0.564  11.145 -0.0204 -0.2122  0.0659
 5826SOL    HW128937   2.400   0.541  11.228 -2.2177 -0.4484  1.0968
 5826SOL    HW228938   2.338   0.474  11.119  0.3934  0.3400 -2.1567
 5827SOL     OW28939   0.869   1.065   2.544  0.0928  0.3202  0.6754
 5827SOL    HW128940   0.856   0.970   2.539  0.8845  0.2650 -0.6383
 5827SOL    HW228941   0.948   1.076   2.491  0.6788 -0.3455  1.4023
 5828SOL     OW28942   3.300   4.719   7.301  0.2041 -0.4790  0.2930
 5828SOL    HW128943   3.392   4.694   7.291  0.0308 -0.9139 -0.2382
 5828SOL    HW228944   3.247   4.649   7.263 -0.2353  0.4993 -0.9117
 5829SOL     OW28945   2.962   2.396   6.595  0.0781 -0.4628  0.3350
 5829SOL    HW128946   3.035   2.428   6.648  0.4533  0.1058 -0.5401
 5829SOL    HW228947   2.993   2.399   6.504 -0.6313  0.9265  0.1392
 5830SOL     OW28948   0.305   0.408   8.201  0.5328  0.9303 -0.3313
 5830SOL    HW128949   0.284   0.483   8.145 -1.3305 -0.8691 -1.9854
 5830SOL    HW228950   0.217   0.379   8.225  1.2083 -0.3203  0.6262
 5831SOL     OW28951   3.497   2.692  17.374 -0.2397 -0.0495  0.7700
 5831SOL    HW128952   3.432   2.631  17.340  0.6294  0.9347 -2.5968
 5831SOL    HW228953   3.522   2.638  17.450  0.8365  2.0894  1.9182
 5832SOL     OW28954   2.804   3.907   7.966 -0.1680  0.2466 -0.4758
 5832SOL    HW128955   2.838   3.834   7.914  0.7554  0.4897 -0.2119
 5832SOL    HW228956   2.715   3.876   7.980  0.1014 -0.1312  0.4337
 5833SOL     OW28957   1.837   2.251   5.262  0.3027  0.4947 -0.3523
 5833SOL    HW128958   1.894   2.204   5.322 -1.5055 -0.9169  0.2605
 5833SOL    HW228959   1.760   2.194   5.256 -1.7744  3.3843 -1.7228
 5834SOL     OW28960   1.879   1.886   5.141  0.3364  0.4389  0.3404
 5834SOL    HW128961   1.827   1.965   5.125 -0.3362 -0.0129  0.3246
 5834SOL    HW228962   1.816   1.815   5.144  0.8593 -0.0132  0.5445
 5835SOL     OW28963   2.008   4.386   2.082 -0.0726 -0.4517  0.6810
 5835SOL    HW128964   2.000   4.347   1.995  0.8707 -1.1080  0.8845
 5835SOL    HW228965   2.085   4.340   2.114  0.1261  0.0143  0.8767
 5836SOL     OW28966   2.273   0.556   5.510 -0.0499  0.1683  0.0576
 5836SOL    HW128967   2.243   0.465   5.511  0.3090  0.0425 -0.2796
 5836SOL    HW228968   2.193   0.597   5.478 -0.6855 -0.2664  1.1054
 5837SOL     OW28969   3.828   1.328   0.759  0.2235  0.7835  0.4998
 5837SOL    HW128970   3.758   1.313   0.822 -1.6021 -1.7408 -2.1051
 5837SOL    HW228971   3.814   1.254   0.700  0.3037 -0.2314  1.7558
 5838SOL     OW28972   3.694   3.181   0.018  0.0578  1.0107  0.2607
 5838SOL    HW128973   3.701   3.222  17.619  0.7547  2.7442  1.1366
 5838SOL    HW228974   3.664   3.094  17.681 -0.3339  1.1668  0.1843
 5839SOL     OW28975   3.017   0.164  14.680 -0.4780 -0.4389 -0.3772
 5839SOL    HW128976   3.031   0.165  14.586  0.4720 -0.4244 -0.2280
 5839SOL    HW228977   3.050   0.077  14.700 -1.7126 -0.2934  2.3498
 5840SOL     OW28978   1.123   2.636  13.004  0.2709 -0.7552  0.0080
 5840SOL    HW128979   1.167   2.626  12.919 -1.1878 -0.8199 -0.7378
 5840SOL    HW228980   1.035   2.612  12.976 -0.5172  1.1482  0.8896
 5841SOL     OW28981   4.155   4.207   7.282  0.2647  0.1846 -0.2145
 5841SOL    HW128982   4.135   4.163   7.364 -3.6553 -0.8181 -1.6810
 5841SOL    HW228983   4.070   4.189   7.240  0.2611 -0.5346  0.1041
 5842SOL     OW28984   1.510   3.693  10.905 -0.5569 -0.2488 -0.3542
 5842SOL    HW128985   1.547   3.782  10.904 -1.8113  0.3141  2.2914
 5842SOL    HW228986   1.542   3.663  10.820 -0.8040  0.4408 -0.6912
 5843SOL     OW28987   0.788   3.422  12.871 -0.0946  0.2220 -0.0255
 5843SOL    HW128988   0.867   3.427  12.817  0.2697 -2.0760  0.2904
 5843SOL    HW228989   0.822   3.420  12.961  1.7125 -1.2219 -0.7425
 5844SOL     OW28990   4.623   3.261   7.205  0.1686  0.0800  0.1572
 5844SOL    HW128991   4.610   3.180   7.156  1.3245 -0.0324  0.0288
 5844SOL    HW228992   4.542   3.308   7.186  0.4141  0.5571  0.2968
 5845SOL     OW28993   3.491   0.757   9.364  0.3521 -0.4608  0.1978
 5845SOL    HW128994   3.447   0.740   9.447 -2.5839 -0.3472 -1.3117
 5845SOL    HW228995   3.547   0.679   9.360 -0.5740 -1.0871 -0.6542
 5846SOL     OW28996   2.764   0.645  17.117  0.1833 -0.0540 -0.9633
 5846SOL    HW128997   2.798   0.687  17.196 -3.5953 -0.0677  0.6873
 5846SOL    HW228998   2.774   0.717  17.055  2.3799  1.8802  1.6228
 5847SOL     OW28999   3.551   0.799  13.361  0.3750 -0.0136 -0.0552
 5847SOL    HW129000   3.574   0.713  13.325  1.6942  0.6923 -0.8804
 5847SOL    HW229001   3.498   0.839  13.292 -1.5630  0.8356  1.9177
 5848SOL     OW29002   0.091   3.490   3.788  0.2196  0.3205 -0.1154
 5848SOL    HW129003   0.015   3.538   3.754  0.6198 -0.6175 -2.3129
 5848SOL    HW229004   0.128   3.564   3.837 -1.9255  1.6026 -0.4317
 5849SOL     OW29005   4.674   2.838   6.447  0.6183 -0.3226 -0.1061
 5849SOL    HW129006   4.677   2.763   6.388 -0.8184 -0.8853  0.5289
 5849SOL    HW229007   4.581   2.842   6.469  0.4843  2.6725 -1.1476
 5850SOL     OW29008   3.444   0.258  10.969 -0.0018 -0.0680  0.3571
 5850SOL    HW129009   3.436   0.277  10.875  0.1262  2.3146  0.8209
 5850SOL    HW229010   3.364   0.208  10.984 -0.7175  1.2655  1.0060
 5851SOL     OW29011   0.022   1.008   8.635 -0.0749 -0.2269  0.1191
 5851SOL    HW129012   0.116   1.000   8.623  0.0144  0.7144  0.1842
 5851SOL    HW229013   4.701   0.966   8.560  1.4894 -1.5352 -0.0433
 5852SOL     OW29014   2.364   2.315  16.293 -0.0473 -0.0791 -0.0465
 5852SOL    HW129015   2.298   2.322  16.363 -0.0652  0.4613 -0.1139
 5852SOL    HW229016   2.329   2.388  16.243  1.9524 -0.1807 -1.5730
 5853SOL     OW29017   0.079   4.300   8.294  0.2178  0.4559 -0.3726
 5853SOL    HW129018   0.056   4.208   8.308  1.1443  0.1142 -1.1387
 5853SOL    HW229019   4.716   4.346   8.287  0.4830  0.9140 -0.5275
 5854SOL     OW29020   0.480   3.464   8.989 -0.8525  0.3947  0.0231
 5854SOL    HW129021   0.463   3.523   8.916 -1.5627  0.9367  0.6306
 5854SOL    HW229022   0.564   3.497   9.022  0.2725 -1.9259 -0.4781
 5855SOL     OW29023   1.444   3.336   8.919  0.2595 -0.1411 -0.2338
 5855SOL    HW129024   1.403   3.286   8.990 -1.2365  1.0257 -0.2856
 5855SOL    HW229025   1.495   3.268   8.874  2.2289  1.7016 -0.7663
 5856SOL     OW29026   4.230   1.006   7.952  0.0581 -0.5500  0.0415
 5856SOL    HW129027   4.178   1.004   7.872 -1.0944 -0.9157  0.7900
 5856SOL    HW229028   4.289   0.931   7.945  1.4201  0.6145 -0.8661
 5857SOL     OW29029   0.400   3.716   7.058  0.1887  0.1907 -0.0023
 5857SOL    HW129030   0.328   3.686   7.114  0.4056  0.4497  0.4174
 5857SOL    HW229031   0.459   3.761   7.118  1.0660 -0.1258 -0.6369
 5858SOL     OW29032   1.135   4.673   6.676  0.0913 -0.1894 -0.0356
 5858SOL    HW129033   1.132   4.613   6.601  0.3154  1.0648 -1.0499
 5858SOL    HW229034   1.059   4.651   6.729  1.7348  0.1169  2.4809
 5859SOL     OW29035   2.145   1.410   5.481 -0.5051 -0.4969 -0.0664
 5859SOL    HW129036   2.167   1.404   5.388  2.3030 -0.5779  0.5920
 5859SOL    HW229037   2.211   1.350   5.515 -1.5438 -2.0406 -0.8056
 5860SOL     OW29038   0.254   2.353   5.568  0.7537  0.4837  0.3927
 5860SOL    HW129039   0.219   2.403   5.642 -1.7635  0.2007 -0.5775
 5860SOL    HW229040   0.345   2.331   5.587  0.6831  0.8788  1.1987
 5861SOL     OW29041   2.660   3.109   3.865  0.5862 -0.5543  0.1511
 5861SOL    HW129042   2.568   3.131   3.872  0.6647 -0.4104  0.7241
 5861SOL    HW229043   2.671   3.052   3.941  0.5475 -2.2601 -1.1115
 5862SOL     OW29044   1.817   2.750   5.111 -0.4160 -0.0424  0.0068
 5862SOL    HW129045   1.744   2.717   5.058 -0.5823  0.5678 -0.1460
 5862SOL    HW229046   1.830   2.842   5.088 -2.0495  0.4857  1.1753
 5863SOL     OW29047   0.595   3.414  17.282 -0.0229 -0.0148  0.2941
 5863SOL    HW129048   0.627   3.503  17.298 -0.9161  0.0999  1.5246
 5863SOL    HW229049   0.663   3.376  17.228  0.1646  1.7746 -0.7306
 5864SOL     OW29050   1.520   1.971   4.334 -0.6817 -0.1671 -0.5247
 5864SOL    HW129051   1.435   1.938   4.362  0.3035 -3.7844 -1.7574
 5864SOL    HW229052   1.530   2.051   4.385  0.9703 -1.5928  1.3928
 5865SOL     OW29053   4.101   1.617   6.870  0.2498  0.2949  0.4583
 5865SOL    HW129054   4.089   1.523   6.880 -0.5261  0.4019  0.5535
 5865SOL    HW229055   4.034   1.642   6.807 -1.3553 -1.8262  1.3468
 5866SOL     OW29056   1.018   0.381  10.989  0.3287 -0.3939  0.4667
 5866SOL    HW129057   1.032   0.451  11.053  0.7326  0.4700 -0.5660
 5866SOL    HW229058   1.012   0.301  11.041 -2.5685 -0.6689 -0.2926
 5867SOL     OW29059   2.534   3.196   0.382 -0.9792 -0.0550 -0.2776
 5867SOL    HW129060   2.608   3.142   0.356 -0.7693 -0.4304  1.1093
 5867SOL    HW229061   2.473   3.184   0.308 -0.3700 -1.6732 -0.5054
 5868SOL     OW29062   4.556   4.541   5.036  0.1440 -0.4698  0.1053
 5868SOL    HW129063   4.644   4.558   5.002  0.9512 -2.2295  1.3226
 5868SOL    HW229064   4.561   4.550   5.132 -2.7321  1.2619  0.0859
 5869SOL     OW29065   1.252   0.284  15.160 -0.0036 -0.8329 -0.1635
 5869SOL    HW129066   1.306   0.289  15.081 -0.3588 -1.3905 -0.4415
 5869SOL    HW229067   1.291   0.208  15.204 -0.4274  0.0515  1.7440
 5870SOL     OW29068   2.369   0.908  14.646 -0.1226  0.4967 -0.2018
 5870SOL    HW129069   2.390   1.001  14.657 -1.3685  0.7817 -0.1626
 5870SOL    HW229070   2.449   0.877  14.605  0.6155  2.9413 -0.5926
 5871SOL     OW29071   1.831   0.850  12.577  0.0316 -0.1810  1.2291
 5871SOL    HW129072   1.812   0.940  12.548  0.2233 -0.7186 -0.5870
 5871SOL    HW229073   1.798   0.804  12.500 -1.4276  2.7282  0.0923
 5872SOL     OW29074   2.579   2.387   4.780 -0.3559  0.4849  0.5536
 5872SOL    HW129075   2.600   2.478   4.761 -0.3657  0.6174  1.2004
 5872SOL    HW229076   2.530   2.369   4.700  2.5662  0.2862 -1.1962
 5873SOL     OW29077   3.836   4.577  17.474  0.0344 -1.0912  0.7265
 5873SOL    HW129078   3.839   4.608  17.564 -1.7888 -0.0758  0.4373
 5873SOL    HW229079   3.876   4.654  17.432  0.1367 -1.5570 -0.0390
 5874SOL     OW29080   1.737   1.608  13.468  0.0030  0.0431  0.3036
 5874SOL    HW129081   1.833   1.606  13.470  0.0625  0.9051 -2.4184
 5874SOL    HW229082   1.722   1.701  13.483  0.1828  0.3746 -1.5502
 5875SOL     OW29083   1.682   3.778   4.160  0.2531 -0.1828 -0.6345
 5875SOL    HW129084   1.654   3.766   4.251 -1.8722 -0.9692 -1.3750
 5875SOL    HW229085   1.775   3.784   4.180  0.3412 -1.7292 -0.5206
 5876SOL     OW29086   3.623   3.266   9.929  0.4008 -0.7477 -0.1837
 5876SOL    HW129087   3.678   3.225   9.862  0.5460 -0.6759 -0.1075
 5876SOL    HW229088   3.578   3.186   9.957 -0.5613  0.0437  0.5284
 5877SOL     OW29089   4.093   4.605   1.198 -0.1214  0.3486  0.6519
 5877SOL    HW129090   4.136   4.626   1.115 -1.3038 -2.6413 -0.7406
 5877SOL    HW229091   4.080   4.691   1.238 -3.3699  0.6112 -0.9891
 5878SOL     OW29092   2.344   1.237   5.537  0.1951  0.5381 -0.2298
 5878SOL    HW129093   2.402   1.214   5.464  3.0557 -0.3446  2.3173
 5878SOL    HW229094   2.281   1.164   5.539  1.1263 -0.2918 -1.1037
 5879SOL     OW29095   4.654   3.563   9.126  0.2224 -0.0912 -0.2353
 5879SOL    HW129096   4.582   3.625   9.114 -0.9482 -0.8615  2.8597
 5879SOL    HW229097   0.009   3.604   9.085  0.8953  0.4726  1.5626
 5880SOL     OW29098   0.484   2.827   8.049 -0.2073  0.1777 -0.1457
 5880SOL    HW129099   0.400   2.856   8.013 -0.8090 -2.2017 -0.6820
 5880SOL    HW229100   0.462   2.734   8.062  0.1042  0.0919 -0.2305
 5881SOL     OW29101   0.371   1.424   4.378  0.2388 -0.6973 -0.3711
 5881SOL    HW129102   0.321   1.421   4.297  1.5647 -2.3177 -1.1435
 5881SOL    HW229103   0.308   1.468   4.435 -0.0238  0.8371 -1.8518
 5882SOL     OW29104   3.266   4.158  17.379  0.3938 -0.4483 -0.3754
 5882SOL    HW129105   3.337   4.135  17.439 -0.2135  2.0030  1.2607
 5882SOL    HW229106   3.231   4.072  17.354 -1.8600  1.0186 -2.1423
 5883SOL     OW29107   0.925   0.787   7.089  0.4520 -0.3712  0.0755
 5883SOL    HW129108   0.929   0.800   6.994  0.2308  1.4845  0.3114
 5883SOL    HW229109   0.872   0.865   7.108 -1.0790 -1.6061  0.8666
 5884SOL     OW29110   2.852   1.826   7.091 -0.0982 -0.4117 -0.2647
 5884SOL    HW129111   2.874   1.811   7.183  1.3509  0.9411 -0.3878
 5884SOL    HW229112   2.760   1.803   7.079 -0.5430  1.0549  0.3165
 5885SOL     OW29113   1.996   2.423   5.150  0.4920 -0.0940  0.4662
 5885SOL    HW129114   1.975   2.502   5.200 -0.9319  0.4034 -0.9318
 5885SOL    HW229115   1.941   2.356   5.190  0.9192 -1.0425 -0.5509
 5886SOL     OW29116   1.616   1.335  15.102 -0.1120  0.1523  0.3201
 5886SOL    HW129117   1.667   1.344  15.182 -2.1766  1.4678  1.4705
 5886SOL    HW229118   1.599   1.241  15.096  0.1879  0.0010  1.8055
 5887SOL     OW29119   2.952   0.440  14.239  0.0131 -0.6066 -0.0017
 5887SOL    HW129120   2.921   0.531  14.243 -0.2904 -0.7275  0.3724
 5887SOL    HW229121   2.966   0.438  14.144 -1.0988 -0.9478 -0.1638
 5888SOL     OW29122   1.547   1.376   7.270 -0.3891 -0.1224  0.5332
 5888SOL    HW129123   1.563   1.409   7.358 -1.9865 -1.7553  1.4358
 5888SOL    HW229124   1.461   1.335   7.265 -0.4184 -0.0591  0.5183
 5889SOL     OW29125   4.533   2.526  10.642 -0.5821  0.0530 -0.4404
 5889SOL    HW129126   4.485   2.557  10.720 -0.5856  0.4902 -0.6174
 5889SOL    HW229127   4.621   2.506  10.673 -1.0466 -1.8772 -0.4109
 5890SOL     OW29128   3.089   1.126   0.574 -0.0313 -0.2605  0.2954
 5890SOL    HW129129   3.139   1.198   0.537  0.4759 -0.2423  1.0157
 5890SOL    HW229130   3.144   1.098   0.647 -0.3287  1.7752  1.3102
 5891SOL     OW29131   0.553   4.544   0.223  0.0702 -0.0676 -0.1185
 5891SOL    HW129132   0.611   4.497   0.163 -3.7650 -1.0806 -3.0197
 5891SOL    HW229133   0.573   4.510   0.311 -0.4989  0.7096  0.3125
 5892SOL     OW29134   3.499   2.133  13.346  0.0472  0.7360  0.7420
 5892SOL    HW129135   3.463   2.203  13.401  1.7880  1.7813  0.5276
 5892SOL    HW229136   3.586   2.171  13.342  0.4524 -0.2462  0.3294
 5893SOL     OW29137   3.414   1.429   6.092 -0.2203  0.3888  0.1725
 5893SOL    HW129138   3.468   1.403   6.167  1.0040 -0.6051 -1.0393
 5893SOL    HW229139   3.472   1.489   6.046  0.1296  0.1093  0.2474
 5894SOL     OW29140   2.206   3.133   7.822  0.2578 -0.3244  0.0560
 5894SOL    HW129141   2.194   3.202   7.757 -0.9956 -0.2999  0.3011
 5894SOL    HW229142   2.261   3.076   7.768 -0.6463 -0.3698 -0.8164
 5895SOL     OW29143   4.402   4.068   7.533  0.4077  0.3962  0.0464
 5895SOL    HW129144   4.426   4.145   7.482  0.8301 -0.0589 -0.4433
 5895SOL    HW229145   4.465   4.004   7.500  0.3217 -0.7836  2.2243
 5896SOL     OW29146   1.705   2.143   6.929  0.0326  0.6055  0.2793
 5896SOL    HW129147   1.645   2.172   6.998 -3.4423 -0.5869 -2.2803
 5896SOL    HW229148   1.686   2.210   6.863 -1.5776  1.7579  1.8984
 5897SOL     OW29149   0.101   2.966   3.624 -0.3569  0.1546 -0.5417
 5897SOL    HW129150   0.173   3.011   3.668 -0.8901 -1.2318  1.7343
 5897SOL    HW229151   0.060   3.045   3.588  0.7247  0.6117 -0.7748
 5898SOL     OW29152   1.353   2.001  11.882 -0.4310 -0.3915 -0.7782
 5898SOL    HW129153   1.272   1.989  11.832 -1.1629 -1.6683  0.7372
 5898SOL    HW229154   1.420   1.957  11.830 -1.6026 -1.0640 -1.6977
 5899SOL     OW29155   1.647   4.307   3.171 -0.4405  0.1410  0.5031
 5899SOL    HW129156   1.617   4.244   3.106  1.8543 -0.4859  0.0486
 5899SOL    HW229157   1.740   4.313   3.147 -0.2694 -2.1977  0.5988
 5900SOL     OW29158   1.588   3.991   8.608  0.3712 -0.3827 -0.1294
 5900SOL    HW129159   1.603   3.897   8.614 -0.1088 -0.4711 -0.3427
 5900SOL    HW229160   1.667   4.024   8.565 -0.0363  0.0189 -0.5555
 5901SOL     OW29161   3.204   0.070   8.104 -0.6785  0.5541 -0.2595
 5901SOL    HW129162   3.120   0.111   8.084  1.0162  3.9030 -0.5304
 5901SOL    HW229163   3.171   0.011   8.171  0.2791 -0.6815 -0.8749
 5902SOL     OW29164   3.868   4.553   4.517 -0.6363 -0.1667 -0.0304
 5902SOL    HW129165   3.784   4.524   4.553 -0.1964  0.4925  1.5165
 5902SOL    HW229166   3.890   4.612   4.589  0.7405 -0.8883  0.1374
 5903SOL     OW29167   1.101   2.093   4.427 -0.0970 -0.0560  0.3669
 5903SOL    HW129168   1.072   2.076   4.338 -0.4112  1.2611  0.2212
 5903SOL    HW229169   1.156   2.014   4.426  2.1470  1.5009  0.4023
 5904SOL     OW29170   2.819   1.221  10.556 -0.3845 -0.1024  0.1204
 5904SOL    HW129171   2.843   1.296  10.501 -1.9197  1.6751  1.8480
 5904SOL    HW229172   2.865   1.145  10.520  1.1762  0.5914  0.6734
 5905SOL     OW29173   3.634   0.117   0.753 -0.0953  0.4892 -0.0258
 5905SOL    HW129174   3.580   0.065   0.812  0.4803 -1.1414 -0.9374
 5905SOL    HW229175   3.601   0.088   0.668 -1.1033 -0.7035  0.7663
 5906SOL     OW29176   4.023   1.499   0.728  0.2538  0.0051 -0.0954
 5906SOL    HW129177   3.940   1.453   0.741  0.0661  0.2330 -0.4925
 5906SOL    HW229178   4.083   1.426   0.713  2.7960  1.7232  1.6708
 5907SOL     OW29179   2.847   3.718  11.275  0.2399  0.2783 -0.0409
 5907SOL    HW129180   2.785   3.783  11.309  0.6145 -0.0450  1.2867
 5907SOL    HW229181   2.859   3.675  11.360  0.7238 -1.2103 -0.8822
 5908SOL     OW29182   2.773   4.054   2.623  0.7874 -0.5910  0.2832
 5908SOL    HW129183   2.797   4.137   2.664  2.7514 -0.7404 -0.5735
 5908SOL    HW229184   2.737   4.093   2.543  0.4696 -0.6071  0.4199
 5909SOL     OW29185   3.031   3.864   8.603 -0.6530  0.0006  0.7906
 5909SOL    HW129186   3.118   3.853   8.563 -0.9336  0.3956  0.0705
 5909SOL    HW229187   3.054   3.847   8.694 -1.0631  0.5904  1.0048
 5910SOL     OW29188   0.196   0.342   3.638 -0.1546  0.0952  0.8564
 5910SOL    HW129189   0.127   0.295   3.591 -0.3314  0.2595  0.9538
 5910SOL    HW229190   0.228   0.268   3.690  1.3151  1.1204  1.3970
 5911SOL     OW29191   0.262   2.804   4.583  0.4060  0.4824  0.3642
 5911SOL    HW129192   0.230   2.849   4.661  1.7931  0.0217  1.2105
 5911SOL    HW229193   0.333   2.859   4.549  0.5076 -1.4068 -2.4958
 5912SOL     OW29194   2.191   4.063   4.870 -0.6714 -0.6117 -0.3405
 5912SOL    HW129195   2.247   4.103   4.804 -0.5741  0.8812  0.6601
 5912SOL    HW229196   2.217   4.111   4.949  1.7823 -2.0414 -0.2805
 5913SOL     OW29197   3.740   1.679   5.405 -0.7960 -0.0073 -0.7955
 5913SOL    HW129198   3.725   1.618   5.333 -1.6428 -0.9145  0.1511
 5913SOL    HW229199   3.797   1.739   5.355 -0.1314  2.0595  2.4355
 5914SOL     OW29200   1.013   3.325  14.360  0.2873 -0.3401  0.5023
 5914SOL    HW129201   1.008   3.392  14.291 -1.7709 -0.5097  0.4872
 5914SOL    HW229202   1.063   3.259  14.311 -0.2897 -2.1141  2.3133
 5915SOL     OW29203   4.554   2.649  15.402  0.2809  0.1537 -0.1320
 5915SOL    HW129204   4.571   2.743  15.397  1.0547  0.0026 -0.3771
 5915SOL    HW229205   4.556   2.629  15.309  0.1169 -0.4034 -0.0125
 5916SOL     OW29206   2.019   0.109   9.609 -0.1116  0.4950  0.5130
 5916SOL    HW129207   1.945   0.170   9.608 -1.1083 -0.7102  1.6663
 5916SOL    HW229208   1.975   0.028   9.584 -0.8460  1.1678 -0.4164
 5917SOL     OW29209   0.443   2.117  15.093  0.1098  0.1048 -0.1073
 5917SOL    HW129210   0.458   2.101  15.000 -0.5772 -0.3758 -0.1319
 5917SOL    HW229211   0.349   2.104  15.099  0.1255  1.1370  2.6561
 5918SOL     OW29212   3.835   2.010   4.874  0.4716  0.6890  0.0935
 5918SOL    HW129213   3.775   2.049   4.810 -0.5637  1.5063  1.5698
 5918SOL    HW229214   3.919   2.029   4.832  0.7699  2.5867  1.5595
 5919SOL     OW29215   4.197   2.947   6.890  0.2473  0.4221 -0.6597
 5919SOL    HW129216   4.266   2.915   6.948  0.0984  1.6924  0.2359
 5919SOL    HW229217   4.178   3.031   6.933  1.3671  0.6717 -0.6536
 5920SOL     OW29218   2.657   1.724  17.004  0.9478 -0.1572  0.0566
 5920SOL    HW129219   2.748   1.699  17.019  1.5725  2.5219  0.7113
 5920SOL    HW229220   2.641   1.791  17.070 -1.5282  2.1785 -2.9198
 5921SOL     OW29221   4.029   3.345   7.958  0.3745  0.0753 -1.1305
 5921SOL    HW129222   4.068   3.294   7.888 -1.4722 -2.5313 -0.2575
 5921SOL    HW229223   3.991   3.415   7.905 -0.5360 -1.1688 -2.1059
 5922SOL     OW29224   4.039   0.005   3.985 -0.2040 -0.2665  0.0111
 5922SOL    HW129225   4.101   0.002   4.058 -0.3598 -1.5119  0.0946
 5922SOL    HW229226   3.970   0.057   4.025 -0.5571  1.4758 -2.8633
 5923SOL     OW29227   0.969   1.697   6.366  0.4262 -0.2156 -0.5378
 5923SOL    HW129228   1.041   1.745   6.406 -0.1150  0.0843  0.0856
 5923SOL    HW229229   0.979   1.715   6.272  2.2437  1.7671  0.0435
 5924SOL     OW29230   2.363   1.136   7.114  0.2127 -0.4592  0.7728
 5924SOL    HW129231   2.408   1.197   7.172 -2.1754  1.1168  0.9432
 5924SOL    HW229232   2.283   1.184   7.133  2.0113  2.9116 -0.0628
 5925SOL     OW29233   3.224   3.555   8.508  0.1156  0.4059 -0.1974
 5925SOL    HW129234   3.273   3.637   8.504 -1.3627  1.3369  0.7512
 5925SOL    HW229235   3.295   3.493   8.520  0.4443  1.2908  2.4646
 5926SOL     OW29236   3.570   2.457   0.408  0.3145  0.1388  0.3643
 5926SOL    HW129237   3.623   2.379   0.421 -1.7309 -1.6032 -1.6821
 5926SOL    HW229238   3.581   2.479   0.315  0.2660  0.7828  0.5083
 5927SOL     OW29239   4.347   0.128  10.249 -0.1196  0.3368  0.1021
 5927SOL    HW129240   4.407   0.199  10.226 -0.4872  0.1900 -1.3298
 5927SOL    HW229241   4.269   0.183  10.263  0.7894  2.2639 -2.3850
 5928SOL     OW29242   1.707   4.334   1.092 -0.0883  0.3171  0.4241
 5928SOL    HW129243   1.755   4.398   1.145  0.0625  0.2654  0.3504
 5928SOL    HW229244   1.619   4.360   1.119 -0.6496 -0.0048 -1.1164
 5929SOL     OW29245   0.856   1.132  16.512  0.0727  0.6306 -0.4494
 5929SOL    HW129246   0.823   1.052  16.552 -1.2973  2.1168  1.4007
 5929SOL    HW229247   0.779   1.167  16.465 -0.2696  1.0566  0.4334
 5930SOL     OW29248   1.281   0.938  15.993 -0.0272  0.1771 -0.3074
 5930SOL    HW129249   1.192   0.965  16.018 -0.0190 -1.3613  1.3958
 5930SOL    HW229250   1.290   0.859  16.047 -0.7849  1.1622  1.2760
 5931SOL     OW29251   1.118   2.887   3.501 -0.0775  0.1870 -0.6526
 5931SOL    HW129252   1.168   2.932   3.433  0.7182  0.6190  0.2224
 5931SOL    HW229253   1.162   2.803   3.495  0.7629  0.3653  3.4346
 5932SOL     OW29254   1.085   3.828   2.152 -0.2990 -0.7962  0.1884
 5932SOL    HW129255   1.101   3.882   2.074 -0.1908  1.3745  1.7267
 5932SOL    HW229256   1.033   3.891   2.203  2.6048  1.2096  0.6518
 5933SOL     OW29257   4.205   0.339  15.322  0.1168 -0.4035  0.2940
 5933SOL    HW129258   4.277   0.386  15.280 -0.8448  0.3920 -0.4644
 5933SOL    HW229259   4.167   0.291  15.248  1.0744  0.4881 -0.7724
 5934SOL     OW29260   3.324   2.302  13.457  0.1829  0.2079  0.3943
 5934SOL    HW129261   3.313   2.373  13.393 -0.5220 -0.2848 -0.0335
 5934SOL    HW229262   3.260   2.336  13.520  1.4092  0.1398  1.6527
 5935SOL     OW29263   0.027   2.344   8.764 -0.0338 -0.0083  0.9447
 5935SOL    HW129264   0.003   2.351   8.672  0.9447  2.6845  0.8849
 5935SOL    HW229265   4.659   2.335   8.795 -0.0018 -1.6844  0.5181
 5936SOL     OW29266   1.459   4.257   3.681 -0.0141  0.2554  0.2524
 5936SOL    HW129267   1.444   4.214   3.597  0.0390  3.2930 -1.3180
 5936SOL    HW229268   1.502   4.340   3.662 -1.5141  0.6887 -1.2602
 5937SOL     OW29269   2.826   0.059   2.247 -0.1073  0.2266  0.2493
 5937SOL    HW129270   2.871   0.014   2.175  0.2666 -0.4807  0.9249
 5937SOL    HW229271   2.734   0.046   2.226  0.6712 -1.0315 -2.3529
 5938SOL     OW29272   4.318   0.110   6.110 -0.3225  0.1696  0.2652
 5938SOL    HW129273   4.286   0.068   6.190  1.5250 -0.3251  0.7403
 5938SOL    HW229274   4.304   0.036   6.051  2.9626  0.6109 -1.0716
 5939SOL     OW29275   0.908   0.713   6.437 -0.2750 -0.1145  0.4432
 5939SOL    HW129276   0.995   0.747   6.457 -0.0531 -1.3811  1.5980
 5939SOL    HW229277   0.932   0.621   6.433  1.2376  0.2913  0.0256
 5940SOL     OW29278   3.545   4.281   5.484 -0.4217  0.3777 -0.0688
 5940SOL    HW129279   3.507   4.225   5.552 -2.3061  0.4819 -1.0208
 5940SOL    HW229280   3.589   4.349   5.535  2.0371 -1.4394  0.2164
 5941SOL     OW29281   0.199   3.219  12.270  0.3062 -0.1142 -0.6013
 5941SOL    HW129282   0.179   3.229  12.177 -0.1681 -1.1056 -0.6121
 5941SOL    HW229283   0.277   3.273  12.280  1.2920 -1.8479  0.9887
 5942SOL     OW29284   0.210   3.059   5.255  0.3934 -0.6789  0.0772
 5942SOL    HW129285   0.230   3.052   5.349 -1.9854 -0.6647  0.5759
 5942SOL    HW229286   0.145   2.990   5.248  0.3527 -0.6016 -0.2795
 5943SOL     OW29287   2.731   3.678   2.765 -0.0154  0.1196 -0.2714
 5943SOL    HW129288   2.639   3.687   2.791 -0.6857 -0.9997 -2.2136
 5943SOL    HW229289   2.722   3.650   2.673 -0.1021  2.6826 -1.0497
 5944SOL     OW29290   3.062   3.877   4.619 -0.0133  0.0935  0.2720
 5944SOL    HW129291   3.099   3.848   4.702  0.8548  0.2908 -0.0415
 5944SOL    HW229292   3.058   3.791   4.576 -1.9972  0.4603 -0.2892
 5945SOL     OW29293   3.022   4.157   1.395 -0.1863  0.2183 -0.5328
 5945SOL    HW129294   2.993   4.232   1.344  1.5296  2.1930  1.4222
 5945SOL    HW229295   3.116   4.172   1.404 -0.2595 -0.1874  1.1015
 5946SOL     OW29296   2.108   1.215  11.758 -0.5760 -0.0690  0.2230
 5946SOL    HW129297   2.154   1.228  11.841 -0.5819 -0.8130  0.3414
 5946SOL    HW229298   2.027   1.265  11.769 -0.7762 -0.5138  0.7398
 5947SOL     OW29299   0.216   3.961   8.652 -0.5771 -0.0974 -0.3745
 5947SOL    HW129300   0.290   3.942   8.710 -1.4203  0.3892  0.8670
 5947SOL    HW229301   0.252   3.924   8.572  0.9068 -0.9506  0.6946
 5948SOL     OW29302   1.867   4.550   9.216 -0.2722  0.4181 -0.2867
 5948SOL    HW129303   1.922   4.500   9.276 -0.5335  0.5020  0.0264
 5948SOL    HW229304   1.927   4.619   9.188  1.2501 -0.4451  0.8735
 5949SOL     OW29305   3.437   0.084  14.278  0.0728  0.1021 -0.2901
 5949SOL    HW129306   3.353   0.054  14.243  0.0723  0.1758 -0.3518
 5949SOL    HW229307   3.501   0.053  14.214  0.4033  0.9265 -0.3590
 5950SOL     OW29308   1.392   4.638   2.002  0.0672  0.1462 -0.4211
 5950SOL    HW129309   1.307   4.681   1.996  0.9713  1.8297 -1.0887
 5950SOL    HW229310   1.378   4.600   2.088 -0.1990 -1.0379 -0.9915
 5951SOL     OW29311   2.709   2.835   7.365  0.6402 -0.7238  0.4378
 5951SOL    HW129312   2.784   2.791   7.404  1.6484 -0.3696 -1.1089
 5951SOL    HW229313   2.657   2.839   7.445 -1.3679 -1.9475 -0.7853
 5952SOL     OW29314   2.659   0.466   3.471  0.2699 -0.6415 -0.3798
 5952SOL    HW129315   2.715   0.532   3.513 -2.2657  1.5626 -0.5158
 5952SOL    HW229316   2.578   0.515   3.456 -0.5958 -1.6539  0.9509
 5953SOL     OW29317   2.681   0.219   7.399 -0.1678  0.1466 -0.2840
 5953SOL    HW129318   2.673   0.132   7.359 -3.7757  0.1917  0.3643
 5953SOL    HW229319   2.596   0.258   7.381 -0.4059 -0.9831 -1.6230
 5954SOL     OW29320   1.841   2.939   6.349 -0.4145  0.5568 -0.1976
 5954SOL    HW129321   1.771   2.880   6.378  0.2397 -0.9681 -1.7649
 5954SOL    HW229322   1.885   2.953   6.433  0.0040 -1.2427 -0.1340
 5955SOL     OW29323   1.241   4.330   7.712 -0.3709  0.5381 -0.3147
 5955SOL    HW129324   1.291   4.250   7.727 -2.0275 -0.1427  1.5585
 5955SOL    HW229325   1.306   4.374   7.656 -0.0619  0.5093  0.0166
 5956SOL     OW29326   1.416   1.468   1.912 -0.6754 -0.1551 -0.1742
 5956SOL    HW129327   1.341   1.445   1.857  0.8917  1.3194 -2.8993
 5956SOL    HW229328   1.398   1.435   2.000 -2.5178 -0.6231 -0.7296
 5957SOL     OW29329   1.652   0.771  11.551  0.1258 -0.2204  0.2671
 5957SOL    HW129330   1.610   0.849  11.585  1.2231  0.4572  0.0642
 5957SOL    HW229331   1.733   0.768  11.602  1.6273 -0.6818 -2.1515
 5958SOL     OW29332   0.556   1.001   5.143 -0.3708  0.1085 -0.1464
 5958SOL    HW129333   0.601   0.916   5.148  1.9330  1.3318  0.1311
 5958SOL    HW229334   0.515   1.027   5.225 -1.2736 -1.7516 -0.0058
 5959SOL     OW29335   4.346   4.685  14.933  0.0673 -0.4275 -0.2189
 5959SOL    HW129336   4.271   0.022  14.922  2.3590  2.8176  1.3132
 5959SOL    HW229337   4.391   4.706  14.851  0.3505 -1.1909 -0.2634
 5960SOL     OW29338   3.933   0.113   2.607  0.0951 -0.3682  0.3417
 5960SOL    HW129339   3.899   0.088   2.693 -1.3962  3.3747  0.8472
 5960SOL    HW229340   3.857   0.134   2.551  0.3996 -1.1106 -0.3570
 5961SOL     OW29341   2.400   3.230   2.013  0.0480 -0.6831 -0.3658
 5961SOL    HW129342   2.382   3.251   1.921  0.9824 -1.1683 -0.6661
 5961SOL    HW229343   2.316   3.250   2.053  1.2249 -0.6488  2.1177
 5962SOL     OW29344   2.458   0.706  17.498  0.0972  0.6971 -0.1257
 5962SOL    HW129345   2.388   0.766  17.522  0.0511  1.2107 -1.5271
 5962SOL    HW229346   2.490   0.687  17.586 -2.4070  1.3872  0.9305
 5963SOL     OW29347   0.667   2.712  11.504  0.3051  0.6167 -0.5251
 5963SOL    HW129348   0.714   2.646  11.556  0.5625  0.4582 -0.9560
 5963SOL    HW229349   0.578   2.691  11.531  0.9716  0.2553  1.4254
 5964SOL     OW29350   1.553   0.279   9.895 -0.0735 -0.0085 -0.0466
 5964SOL    HW129351   1.514   0.256   9.979 -0.4433  0.9760  0.0497
 5964SOL    HW229352   1.607   0.201   9.883 -1.0740 -1.0231  1.9693
 5965SOL     OW29353   0.009   2.539   6.391 -0.6284  0.6790 -0.3383
 5965SOL    HW129354   4.643   2.503   6.377 -1.1195  1.8887 -0.4378
 5965SOL    HW229355   0.026   2.508   6.479  0.7409  1.5715 -0.2824
 5966SOL     OW29356   1.771   4.119   4.298 -0.0279 -0.0403  0.3080
 5966SOL    HW129357   1.865   4.106   4.309 -0.0729 -1.3211 -0.8190
 5966SOL    HW229358   1.752   4.109   4.205 -1.2842 -1.3183  0.6931
 5967SOL     OW29359   4.351   3.052   2.666 -0.1913 -0.3050 -0.1261
 5967SOL    HW129360   4.386   2.967   2.639 -0.9152 -1.3723  2.3081
 5967SOL    HW229361   4.398   3.065   2.748 -1.7717  2.6078  0.3374
 5968SOL     OW29362   4.581   4.309  14.659  0.2618 -0.3133  0.0942
 5968SOL    HW129363   4.529   4.240  14.618  2.8288 -1.5653 -1.0351
 5968SOL    HW229364   4.664   4.307  14.612  0.3038  1.8762  0.0442
 5969SOL     OW29365   4.461   4.316   2.124  0.2115 -0.1223 -0.6555
 5969SOL    HW129366   4.496   4.238   2.167 -0.8376 -0.5323 -0.5642
 5969SOL    HW229367   4.368   4.298   2.138  0.2201  1.3360  1.3926
 5970SOL     OW29368   0.397   4.443   7.053  0.2416 -0.8842  0.0232
 5970SOL    HW129369   0.465   4.408   6.996 -0.0716  0.6757 -1.3053
 5970SOL    HW229370   0.446   4.456   7.135  0.1496 -3.0355  0.4242
 5971SOL     OW29371   2.102   4.029   3.419 -0.4680 -0.1214  0.1672
 5971SOL    HW129372   2.137   4.040   3.508  1.3545 -2.0322 -0.3093
 5971SOL    HW229373   2.051   4.109   3.406 -0.1595  0.1024  0.3347
 5972SOL     OW29374   1.076   3.841   8.969  0.7420 -0.7251  0.0561
 5972SOL    HW129375   1.070   3.757   8.923 -0.3824 -0.2074 -0.7410
 5972SOL    HW229376   1.170   3.841   8.984  0.7507  0.8427 -0.0521
 5973SOL     OW29377   3.372   3.775  12.564  0.1178  0.4605  0.2594
 5973SOL    HW129378   3.378   3.843  12.631  4.1740  2.3407 -1.9762
 5973SOL    HW229379   3.446   3.718  12.586 -0.5919 -1.0068 -1.0950
 5974SOL     OW29380   1.028   3.515   3.593 -0.0733 -0.2939  0.3794
 5974SOL    HW129381   1.053   3.606   3.577  0.5324 -0.9462 -2.3447
 5974SOL    HW229382   1.076   3.477   3.520 -0.0028 -1.1847  0.8889
 5975SOL     OW29383   1.334   0.204  11.003  0.3195  0.1710  0.1998
 5975SOL    HW129384   1.413   0.257  11.019 -1.1556  2.2789  0.5187
 5975SOL    HW229385   1.348   0.186  10.910  0.9337  0.3812  0.2519
 5976SOL     OW29386   0.605   0.511  13.947 -0.3537  0.9032  0.5188
 5976SOL    HW129387   0.577   0.571  13.877  1.4963  0.3097 -0.7538
 5976SOL    HW229388   0.568   0.439  13.896  1.0056  0.3766  0.2608
 5977SOL     OW29389   2.688   1.985  12.076 -0.7270 -0.6280 -0.1058
 5977SOL    HW129390   2.597   1.956  12.068 -0.4325 -2.1356  2.1034
 5977SOL    HW229391   2.716   2.001  11.986  0.3057  0.5430  0.4330
 5978SOL     OW29392   1.633   0.509   6.672 -0.1092  0.2676  0.4413
 5978SOL    HW129393   1.725   0.502   6.699  0.0208 -2.5250 -0.7065
 5978SOL    HW229394   1.602   0.429   6.715  0.4904  0.1265  0.6126
 5979SOL     OW29395   3.864   1.926  16.190  0.4873 -0.3961 -0.3100
 5979SOL    HW129396   3.942   1.961  16.147  0.7443 -1.2130 -0.5192
 5979SOL    HW229397   3.858   1.841  16.145 -1.4612 -0.6849  0.4822
 5980SOL     OW29398   2.409   0.943  13.115 -0.3015 -0.3895 -0.5882
 5980SOL    HW129399   2.472   0.993  13.167 -1.1511  1.7055 -1.5698
 5980SOL    HW229400   2.464   0.873  13.081  0.7348  0.4577 -0.6523
 5981SOL     OW29401   2.815   1.607   0.945 -0.0013 -0.4522 -0.5010
 5981SOL    HW129402   2.761   1.575   1.018 -1.6843 -1.0215 -1.9891
 5981SOL    HW229403   2.747   1.655   0.898 -0.7927 -2.0801 -1.0054
 5982SOL     OW29404   4.091   0.258   4.172  0.2311  0.2054 -0.1907
 5982SOL    HW129405   4.187   0.258   4.169  0.2850  1.6600  1.3323
 5982SOL    HW229406   4.077   0.321   4.243  2.2998 -1.0779  1.3591
 5983SOL     OW29407   2.385   1.979   6.157 -0.4847  0.2116  0.2441
 5983SOL    HW129408   2.452   1.922   6.193 -1.5158 -1.9695 -1.2805
 5983SOL    HW229409   2.309   1.929   6.188  0.2167 -1.3011 -0.4620
 5984SOL     OW29410   4.276   4.556   7.408 -0.0290 -0.3752  0.6196
 5984SOL    HW129411   4.192   4.578   7.368  0.4679 -0.6888 -0.6025
 5984SOL    HW229412   4.313   4.496   7.344 -1.6555  1.2025 -1.8050
 5985SOL     OW29413   0.339   3.968   3.462 -0.1633  0.7292 -0.4003
 5985SOL    HW129414   0.387   3.999   3.385  1.7009  2.1288  1.3497
 5985SOL    HW229415   0.327   4.050   3.511 -3.3041  1.0362 -1.6832
 5986SOL     OW29416   1.609   3.828   3.848 -0.2396  0.0329 -0.1451
 5986SOL    HW129417   1.549   3.898   3.825  1.3380  2.1020  2.0146
 5986SOL    HW229418   1.626   3.850   3.940 -0.9293  1.0568 -0.2769
 5987SOL     OW29419   2.211   4.444   1.359 -0.1756  0.6269 -0.8577
 5987SOL    HW129420   2.231   4.381   1.428  2.1878  0.9163 -1.2717
 5987SOL    HW229421   2.290   4.462   1.308  1.3454  0.1831  1.3304
 5988SOL     OW29422   4.004   4.283   0.677  1.0052 -0.3548  0.1773
 5988SOL    HW129423   3.976   4.214   0.617  1.9406 -0.8416  0.3055
 5988SOL    HW229424   4.033   4.355   0.621  0.7575  0.0087  0.5174
 5989SOL     OW29425   2.892   0.240   1.809 -0.6334 -0.4565 -0.3293
 5989SOL    HW129426   2.927   0.212   1.724 -2.2015 -1.5337 -0.6279
 5989SOL    HW229427   2.864   0.158   1.850 -1.7356  0.7510  1.3116
 5990SOL     OW29428   3.717   4.178   7.674  0.0079 -0.4424 -0.4367
 5990SOL    HW129429   3.664   4.254   7.650  1.8931  1.3962  1.2224
 5990SOL    HW229430   3.804   4.205   7.645 -0.2261  0.5292 -0.2528
 5991SOL     OW29431   3.401   0.934  13.026  0.5621 -0.0875 -0.8289
 5991SOL    HW129432   3.494   0.930  13.047  0.4681  0.5995 -0.2615
 5991SOL    HW229433   3.411   0.894  12.940  2.1638 -2.6172  0.5643
 5992SOL     OW29434   1.240   3.625  12.911  0.5323 -0.1788 -0.0434
 5992SOL    HW129435   1.277   3.708  12.943 -0.2705  1.1545 -2.6114
 5992SOL    HW229436   1.300   3.609  12.838 -1.0257 -0.9359 -1.1394
 5993SOL     OW29437   3.795   3.709   0.371 -0.7250  0.1448  0.1856
 5993SOL    HW129438   3.828   3.675   0.455  1.9020 -0.1629 -0.9744
 5993SOL    HW229439   3.791   3.633   0.314 -0.7142  1.6688 -1.8378
 5994SOL     OW29440   2.192   1.874   1.715 -0.8491  0.6306 -0.7065
 5994SOL    HW129441   2.138   1.939   1.669  0.0561  2.0013  0.1671
 5994SOL    HW229442   2.270   1.861   1.662  0.8907  1.7164  1.5992
 5995SOL     OW29443   2.859   2.617  14.117  0.2982 -0.2488  0.4573
 5995SOL    HW129444   2.799   2.545  14.098  0.5276 -1.1440  3.1714
 5995SOL    HW229445   2.875   2.667  14.037  0.7759  3.6220  2.9856
 5996SOL     OW29446   2.195   2.318  16.505  0.6262  0.2249 -0.4216
 5996SOL    HW129447   2.152   2.393  16.545  1.0559  0.5323 -0.5304
 5996SOL    HW229448   2.139   2.241  16.519  0.8840  0.4172  1.6115
 5997SOL     OW29449   2.372   0.893  10.341  0.3932  0.0141  0.0897
 5997SOL    HW129450   2.336   0.841  10.268 -0.5922  1.0523 -0.1699
 5997SOL    HW229451   2.419   0.950  10.280 -2.1041 -0.1622 -2.0404
 5998SOL     OW29452   3.604   1.072   5.170 -0.0826 -0.1707  0.8585
 5998SOL    HW129453   3.613   1.165   5.188 -1.4844  0.2862 -0.7240
 5998SOL    HW229454   3.693   1.055   5.140  0.2564  2.3667  0.4958
 5999SOL     OW29455   0.149   1.842   3.196 -0.1427  0.2121 -0.4937
 5999SOL    HW129456   0.081   1.846   3.129 -0.5103 -0.7414 -0.1742
 5999SOL    HW229457   0.141   1.929   3.233  0.0320  0.2306 -0.4952
 6000SOL     OW29458   0.046   3.082   7.525  0.2525  0.0775 -0.1875
 6000SOL    HW129459   4.681   3.118   7.504  0.3280 -1.2053 -2.7455
 6000SOL    HW229460   0.045   3.044   7.612  0.2912  0.0154 -0.2135
 6001SOL     OW29461   3.351   1.245   3.507 -0.2156 -0.0030  0.4193
 6001SOL    HW129462   3.295   1.203   3.573 -0.9801  0.0544 -0.1895
 6001SOL    HW229463   3.339   1.168   3.450 -0.2413  1.6561 -1.8251
 6002SOL     OW29464   1.990   1.024   0.539 -0.1397  0.2281  0.2624
 6002SOL    HW129465   1.931   0.949   0.537 -1.2421  1.0939  0.9908
 6002SOL    HW229466   2.076   0.982   0.533  0.3447  1.3490 -0.7200
 6003SOL     OW29467   1.920   4.182   6.379 -0.3876 -0.0442 -0.1974
 6003SOL    HW129468   1.844   4.212   6.329  0.7906  3.2802  0.0403
 6003SOL    HW229469   1.899   4.089   6.389  0.5851 -0.2526 -0.1231
 6004SOL     OW29470   3.068   1.922   8.601 -0.1718  0.2858  0.4572
 6004SOL    HW129471   3.072   1.989   8.532 -0.7217 -2.0214 -1.8451
 6004SOL    HW229472   3.155   1.926   8.641 -0.9506 -1.2699  2.2398
 6005SOL     OW29473   4.163   2.746   3.321 -0.2955  0.3029  0.3404
 6005SOL    HW129474   4.211   2.744   3.237  0.3795  1.5889  0.6966
 6005SOL    HW229475   4.195   2.676   3.378 -0.7684 -0.8902 -0.8267
 6006SOL     OW29476   2.733   3.490   8.356 -0.2494  0.2646  0.4617
 6006SOL    HW129477   2.822   3.480   8.390 -0.9954  1.5711  2.7936
 6006SOL    HW229478   2.706   3.399   8.360  0.9427 -0.0744  0.7304
 6007SOL     OW29479   2.504   4.360  10.244 -0.4890 -0.0711 -0.1684
 6007SOL    HW129480   2.458   4.434  10.283  1.3829  1.1380 -0.2533
 6007SOL    HW229481   2.563   4.402  10.181  1.1338 -0.5136  1.0622
 6008SOL     OW29482   2.297   0.507   7.414  0.4533 -0.0527  0.6606
 6008SOL    HW129483   2.364   0.491   7.347  0.0726 -1.8566  0.7192
 6008SOL    HW229484   2.346   0.486   7.493  1.5134 -0.2760 -0.0510
 6009SOL     OW29485   3.009   0.787  12.181  0.3994  0.2409  0.3762
 6009SOL    HW129486   2.920   0.770  12.149  0.7982 -0.1916 -0.5129
 6009SOL    HW229487   3.037   0.866  12.135 -1.3549 -0.0460 -1.1860
 6010SOL     OW29488   3.458   4.681   7.611 -0.7367 -0.1083  0.3848
 6010SOL    HW129489   3.511   0.038   7.625  1.0449 -0.8935 -1.9298
 6010SOL    HW229490   3.521   4.629   7.561  0.1272  2.6101 -1.3501
 6011SOL     OW29491   4.266   0.145  16.601 -0.4607 -0.5119  0.1427
 6011SOL    HW129492   4.223   0.078  16.547 -2.0443  0.0524  0.6960
 6011SOL    HW229493   4.195   0.200  16.635  3.0635  3.4801  1.0433
 6012SOL     OW29494   2.328   3.736   0.577 -0.3315  0.1212  0.4919
 6012SOL    HW129495   2.272   3.813   0.564 -3.2291 -1.8392  1.5011
 6012SOL    HW229496   2.263   3.666   0.581  1.1285 -1.1922  1.5167
 6013SOL     OW29497   1.475   0.928   3.916 -0.4257 -1.0161  0.4701
 6013SOL    HW129498   1.541   0.865   3.945 -1.5053 -0.8731  3.2557
 6013SOL    HW229499   1.490   1.002   3.975 -0.7483 -0.3805 -0.2449
 6014SOL     OW29500   2.335   1.761   3.031  0.4815 -0.1402 -0.2971
 6014SOL    HW129501   2.254   1.811   3.022 -0.0045 -0.9742 -0.6548
 6014SOL    HW229502   2.304   1.672   3.010 -3.3782  1.2771 -0.6092
 6015SOL     OW29503   3.650   2.910   7.708 -0.2653 -0.5187 -0.1702
 6015SOL    HW129504   3.713   2.875   7.770 -2.4967 -1.3761  1.6049
 6015SOL    HW229505   3.637   2.996   7.749  1.3830 -0.6269  0.5815
 6016SOL     OW29506   2.522   0.272   0.920  0.0597  0.2626  0.0565
 6016SOL    HW129507   2.599   0.304   0.968  0.7927 -0.0185 -0.9234
 6016SOL    HW229508   2.543   0.308   0.834  1.7113 -0.8250 -0.0020
 6017SOL     OW29509   2.388   3.861   1.230 -0.5201  0.2829  0.1784
 6017SOL    HW129510   2.407   3.788   1.290  1.0287  0.2355 -0.3582
 6017SOL    HW229511   2.469   3.876   1.181 -1.4210 -0.4896 -1.5788
 6018SOL     OW29512   0.735   2.852   7.916  0.6516  0.0224  0.6329
 6018SOL    HW129513   0.671   2.849   7.987  0.0146 -0.1571  0.0467
 6018SOL    HW229514   0.745   2.758   7.902  2.1536  0.2592  0.1421
 6019SOL     OW29515   1.638   0.091   1.999  0.3080  0.2617 -0.0123
 6019SOL    HW129516   1.558   0.038   2.005  0.4255  0.0913  0.0716
 6019SOL    HW229517   1.653   0.131   2.084  2.3848 -1.6521  0.5241
 6020SOL     OW29518   2.871   2.945  15.786 -0.0254 -0.5708  0.0841
 6020SOL    HW129519   2.832   2.986  15.709  2.0835 -1.1138 -1.2789
 6020SOL    HW229520   2.823   2.986  15.858  1.2638 -1.0519  1.2207
 6021SOL     OW29521   1.776   4.510   5.999  0.1024 -0.2029 -0.0138
 6021SOL    HW129522   1.811   4.572   6.062  1.3962  1.6793 -2.5843
 6021SOL    HW229523   1.691   4.550   5.981  0.9242  1.6584  0.2280
 6022SOL     OW29524   1.571   0.897   6.330  0.4670  0.1764  0.4775
 6022SOL    HW129525   1.624   0.845   6.391 -1.0895  1.1465  2.6730
 6022SOL    HW229526   1.483   0.872   6.359  0.7830 -1.4473  0.0400
 6023SOL     OW29527   0.856   3.051   5.079 -0.1795  0.5457 -0.1276
 6023SOL    HW129528   0.901   3.073   4.997  1.3414  0.3289  0.6443
 6023SOL    HW229529   0.887   3.127   5.128  0.5691 -0.1589  0.4978
 6024SOL     OW29530   0.946   3.857   5.568 -0.2581  0.6480  0.2921
 6024SOL    HW129531   0.858   3.885   5.543 -0.5999  0.8176  1.6404
 6024SOL    HW229532   0.985   3.817   5.491 -0.5879  0.0921  0.4117
 6025SOL     OW29533   0.801   2.281   4.435 -0.4081 -0.2713  0.2079
 6025SOL    HW129534   0.780   2.350   4.372  1.4648 -0.5231 -0.6719
 6025SOL    HW229535   0.815   2.341   4.508  3.0394 -1.1384  0.2523
 6026SOL     OW29536   3.464   4.112   2.097 -0.7691  0.4435 -0.2678
 6026SOL    HW129537   3.522   4.112   2.021 -0.0334  1.7467  0.2914
 6026SOL    HW229538   3.512   4.157   2.166 -0.6265 -0.8786  0.4853
 6027SOL     OW29539   0.744   4.206   5.283 -0.0425 -0.0864 -0.1254
 6027SOL    HW129540   0.749   4.228   5.376  0.8561 -0.4814 -0.0803
 6027SOL    HW229541   0.698   4.286   5.258  1.3714  0.8887  0.3816
 6028SOL     OW29542   2.522   4.269  14.036 -0.2668  0.1566  0.2825
 6028SOL    HW129543   2.560   4.254  13.949 -0.1991  2.0163  0.0046
 6028SOL    HW229544   2.465   4.342  14.012 -3.0187 -1.6599  1.3052
 6029SOL     OW29545   0.895   4.385   9.905  0.0839  0.4107  0.1869
 6029SOL    HW129546   0.903   4.473   9.869 -0.8278  0.1777 -0.5836
 6029SOL    HW229547   0.871   4.336   9.826 -1.9929  0.9334  0.5056
 6030SOL     OW29548   3.208   3.239   8.739  0.0768  0.5762  0.2923
 6030SOL    HW129549   3.280   3.176   8.739  0.1589  0.6868  1.8065
 6030SOL    HW229550   3.180   3.231   8.648  1.4759  0.0592 -0.0988
 6031SOL     OW29551   2.545   3.763   5.940 -0.7384 -0.3633  0.2527
 6031SOL    HW129552   2.452   3.762   5.918 -0.7518 -0.7293  0.3262
 6031SOL    HW229553   2.589   3.698   5.886 -0.5164 -0.5707  0.6809
 6032SOL     OW29554   1.935   3.663   6.111  0.0346 -0.2424 -0.2933
 6032SOL    HW129555   2.028   3.648   6.091  0.3400  2.0049 -0.6181
 6032SOL    HW229556   1.886   3.588   6.078 -0.7297  1.0467 -2.1193
 6033SOL     OW29557   2.391   3.565   8.187 -0.1091  0.0043 -0.2482
 6033SOL    HW129558   2.374   3.475   8.215 -0.9755  0.1104 -0.4366
 6033SOL    HW229559   2.329   3.569   8.114  0.9865  2.0325 -1.0696
 6034SOL     OW29560   2.543   2.564  10.837 -0.0531 -0.4027 -0.0155
 6034SOL    HW129561   2.582   2.477  10.835  1.4056  0.2453  0.3952
 6034SOL    HW229562   2.478   2.542  10.904  0.1060  1.3019  0.7052
 6035SOL     OW29563   3.003   0.870  15.415  0.3833 -0.2276 -0.2597
 6035SOL    HW129564   3.003   0.794  15.473 -0.4339  0.1980  0.3008
 6035SOL    HW229565   3.030   0.935  15.481 -0.7964 -1.3429  1.3188
 6036SOL     OW29566   0.050   2.917   2.522  0.2819 -0.2549 -0.3923
 6036SOL    HW129567   4.702   2.922   2.588  2.5442  1.2864  1.8834
 6036SOL    HW229568   0.011   2.848   2.468 -0.0682  1.3086 -2.1353
 6037SOL     OW29569   4.481   1.795   1.893  0.0110 -1.0220  0.1562
 6037SOL    HW129570   4.473   1.866   1.957 -1.0151 -1.5536  0.6295
 6037SOL    HW229571   4.393   1.798   1.855  0.1855  2.5922  0.0355
 6038SOL     OW29572   1.635   0.585  17.397  0.4503  0.0148  0.1748
 6038SOL    HW129573   1.677   0.500  17.411  0.0888 -0.7151 -3.1890
 6038SOL    HW229574   1.686   0.640  17.456 -0.0337  0.4401  0.2006
 6039SOL     OW29575   2.579   4.303  15.087 -0.0546  0.0155 -0.4337
 6039SOL    HW129576   2.628   4.375  15.047 -0.7793  1.1143  0.6288
 6039SOL    HW229577   2.620   4.232  15.039 -0.3174  0.4213 -1.2676
 6040SOL     OW29578   1.065   1.945   8.107 -0.2104 -0.2187  0.1995
 6040SOL    HW129579   1.024   1.903   8.183 -1.3169  1.5765  0.5870
 6040SOL    HW229580   0.995   1.992   8.062  1.8878  0.6072 -2.2396
 6041SOL     OW29581   3.902   2.218   4.688  0.1482 -0.0889  0.4736
 6041SOL    HW129582   3.933   2.290   4.743 -1.6274  2.0895 -1.4011
 6041SOL    HW229583   3.977   2.159   4.694  0.5881  0.5761  1.4663
 6042SOL     OW29584   2.255   0.978  10.681  0.0685 -0.4776 -0.0480
 6042SOL    HW129585   2.329   0.937  10.727 -1.6582 -3.5620  0.0322
 6042SOL    HW229586   2.213   0.907  10.631 -1.3250 -0.4076  1.0547
 6043SOL     OW29587   3.899   3.889   1.338  0.8576  0.1434  0.0142
 6043SOL    HW129588   3.868   3.857   1.253 -0.6877 -1.7548  1.3079
 6043SOL    HW229589   3.841   3.965   1.340  1.2775  0.4598  0.1259
 6044SOL     OW29590   3.543   4.527   2.336  0.4341  0.6157  0.2593
 6044SOL    HW129591   3.587   4.573   2.265  3.2701 -0.7171  1.1331
 6044SOL    HW229592   3.580   4.570   2.413 -0.6627  4.2459 -1.2681
 6045SOL     OW29593   4.636   0.320   6.388  0.6825 -0.1472 -0.1339
 6045SOL    HW129594   4.603   0.307   6.477 -0.6402  0.7542 -0.4985
 6045SOL    HW229595   4.555   0.336   6.341 -0.3623 -0.8015  1.4531
 6046SOL     OW29596   4.003   2.332   6.027  0.2004  0.2182 -0.4422
 6046SOL    HW129597   4.065   2.260   6.018  2.2960  2.2389 -2.2756
 6046SOL    HW229598   4.058   2.405   5.999  0.2329  1.2586  2.3922
 6047SOL     OW29599   3.394   1.025   6.173  0.3907  0.1553  0.0378
 6047SOL    HW129600   3.450   1.064   6.240 -4.2525  0.3737  3.7968
 6047SOL    HW229601   3.318   1.083   6.176  1.2413  1.3041 -0.7051
 6048SOL     OW29602   3.865   1.505   2.890 -0.1064  0.3523  0.3722
 6048SOL    HW129603   3.771   1.511   2.906 -0.0234  1.5456  0.3947
 6048SOL    HW229604   3.863   1.436   2.824 -0.4632  0.0324  0.7169
 6049SOL     OW29605   2.363   3.336   5.618  0.1027  0.0437 -0.7196
 6049SOL    HW129606   2.408   3.344   5.534  0.5714  1.4557 -0.3344
 6049SOL    HW229607   2.361   3.242   5.638  1.5251 -0.1854 -1.6529
 6050SOL     OW29608   1.661   3.523   4.044  0.2033  0.0276 -0.0472
 6050SOL    HW129609   1.596   3.524   3.973 -1.5681 -0.4317  1.5942
 6050SOL    HW229610   1.673   3.615   4.066 -1.9218  0.6253 -1.3874
 6051SOL     OW29611   0.485   1.991  17.017 -0.6876  0.0595  0.2353
 6051SOL    HW129612   0.540   1.988  16.938 -2.7868  0.3826 -1.2440
 6051SOL    HW229613   0.453   1.901  17.014 -0.3467  0.0147 -2.0272
 6052SOL     OW29614   0.198   2.078   7.404 -0.1268  0.3748  0.3542
 6052SOL    HW129615   0.293   2.071   7.414  0.0762 -1.4934 -2.8133
 6052SOL    HW229616   0.199   2.096   7.310 -0.1834  0.3394  0.3462
 6053SOL     OW29617   0.302   3.184   9.815 -0.5057 -0.7644  0.0558
 6053SOL    HW129618   0.267   3.117   9.873  0.9646  0.6551  2.5860
 6053SOL    HW229619   0.391   3.158   9.790 -1.0994 -0.6190 -2.1510
 6054SOL     OW29620   3.674   2.121   4.330  0.0584 -0.2879  0.0195
 6054SOL    HW129621   3.690   2.180   4.404 -1.7811 -2.4560  2.1101
 6054SOL    HW229622   3.687   2.033   4.364  0.0840 -0.0873  0.5333
 6055SOL     OW29623   1.222   0.220  11.245  0.0723 -0.8502 -0.1365
 6055SOL    HW129624   1.162   0.294  11.237  0.7520 -0.3405 -0.5449
 6055SOL    HW229625   1.260   0.200  11.159 -0.5060 -1.2485 -0.2999
 6056SOL     OW29626   3.143   3.136  15.823 -0.5749  0.3409 -0.4519
 6056SOL    HW129627   3.086   3.168  15.892  0.7896 -2.3181  1.8881
 6056SOL    HW229628   3.200   3.212  15.807  1.1748 -0.6551  1.0535
 6057SOL     OW29629   0.462   2.949  15.798 -0.1864  0.7420  0.2485
 6057SOL    HW129630   0.451   3.007  15.874 -0.5072 -0.5200  1.1597
 6057SOL    HW229631   0.543   2.977  15.755  1.1443 -0.1723  2.1567
 6058SOL     OW29632   0.005   3.215   3.849 -0.7441  0.2436 -0.1162
 6058SOL    HW129633   4.652   3.177   3.896 -0.3930  2.1216  1.9121
 6058SOL    HW229634   4.720   3.307   3.874 -0.3680  0.6515 -1.5118
 6059SOL     OW29635   3.750   1.757   0.256 -0.0647  0.3292  0.3836
 6059SOL    HW129636   3.744   1.793   0.167  1.3890  2.2098  1.0386
 6059SOL    HW229637   3.660   1.776   0.283 -1.3245  0.0540 -3.6432
 6060SOL     OW29638   3.413   0.806  14.660  0.4327 -0.0116 -0.8084
 6060SOL    HW129639   3.450   0.791  14.747 -1.8314 -2.4693 -0.2699
 6060SOL    HW229640   3.399   0.721  14.619  3.0650  0.0075 -1.7433
 6061SOL     OW29641   4.211   4.009   3.627  0.5220 -0.2791  0.5703
 6061SOL    HW129642   4.226   4.078   3.562 -1.9962 -1.4360 -1.2963
 6061SOL    HW229643   4.232   3.930   3.577 -0.5658  1.4653 -2.6623
 6062SOL     OW29644   2.486   2.979   6.995  0.2437 -0.2141  0.1473
 6062SOL    HW129645   2.434   3.058   7.013  0.7515  0.6005 -1.9648
 6062SOL    HW229646   2.570   3.021   6.976  0.1463 -0.4838 -0.8977
 6063SOL     OW29647   1.050   4.568   4.855 -0.0173 -0.0196 -0.9686
 6063SOL    HW129648   0.982   4.626   4.888 -0.4740 -0.4839 -1.1041
 6063SOL    HW229649   1.000   4.539   4.779  0.4094 -0.9971 -0.8784
 6064SOL     OW29650   1.945   3.501   2.669 -0.5150  0.4278  0.2350
 6064SOL    HW129651   2.016   3.538   2.617 -0.6268  0.1246 -0.1286
 6064SOL    HW229652   1.869   3.538   2.624 -0.1132 -0.4677 -1.1558
 6065SOL     OW29653   3.164   4.434  12.556 -0.2106  0.7639 -0.0403
 6065SOL    HW129654   3.185   4.346  12.588 -0.7128  0.2563 -1.0947
 6065SOL    HW229655   3.199   4.493  12.623 -3.1613  1.2204  1.1071
 6066SOL     OW29656   3.292   0.498   6.809 -0.1592  0.7516  0.3269
 6066SOL    HW129657   3.367   0.535   6.762  0.0524 -0.5430 -0.3627
 6066SOL    HW229658   3.247   0.582   6.812 -3.7209 -1.1235 -0.9627
 6067SOL     OW29659   0.505   3.999   0.948 -0.0167 -0.0430 -0.3553
 6067SOL    HW129660   0.540   3.934   0.886 -0.1388 -0.9041  0.4805
 6067SOL    HW229661   0.585   4.029   0.993  0.2309  1.8072 -2.0093
 6068SOL     OW29662   2.814   4.298   2.745  0.0016  0.3411 -0.2704
 6068SOL    HW129663   2.841   4.341   2.826  0.2408 -0.3159 -0.0044
 6068SOL    HW229664   2.776   4.374   2.700  2.4941  1.9149  0.2766
 6069SOL     OW29665   1.663   0.460   9.253 -0.3545  0.3337  0.1112
 6069SOL    HW129666   1.588   0.413   9.217 -1.5982 -0.4047  3.6973
 6069SOL    HW229667   1.693   0.398   9.320  1.7600  2.0196  0.7512
 6070SOL     OW29668   3.092   1.985   4.060  0.1550  0.5741 -0.0480
 6070SOL    HW129669   3.100   2.014   3.969 -1.8091 -1.0781 -0.7704
 6070SOL    HW229670   3.156   2.037   4.108  0.7252 -0.9286  0.8430
 6071SOL     OW29671   1.420   1.331  10.221  0.1266 -0.0652 -0.6448
 6071SOL    HW129672   1.410   1.377  10.304  0.3808  3.7397 -2.6747
 6071SOL    HW229673   1.350   1.267  10.225 -1.0436  1.2278 -0.2490
 6072SOL     OW29674   3.689   1.110   7.518  0.1676  0.2438 -0.7040
 6072SOL    HW129675   3.677   1.166   7.441 -0.7959  0.4223 -0.4189
 6072SOL    HW229676   3.680   1.180   7.582  2.6097 -0.6973  0.6724
 6073SOL     OW29677   1.439   1.504   7.756 -0.4668  0.0502 -0.1008
 6073SOL    HW129678   1.373   1.445   7.792 -1.6547  1.5299  0.1778
 6073SOL    HW229679   1.440   1.579   7.816 -3.0113 -0.6939  0.8609
 6074SOL     OW29680   4.678   4.076   7.693  0.1288 -0.5506 -0.5373
 6074SOL    HW129681   4.623   4.017   7.745 -2.5723  1.2514 -1.3446
 6074SOL    HW229682   0.035   4.022   7.697  0.0755 -0.6871 -1.4201
 6075SOL     OW29683   2.416   0.991   9.845 -0.0221 -0.1075  0.1490
 6075SOL    HW129684   2.453   1.018   9.761  1.0770 -0.8445  0.3896
 6075SOL    HW229685   2.332   0.948   9.830  1.3301 -1.6152 -3.0442
 6076SOL     OW29686   0.063   3.579   5.575  0.3959  0.5756 -0.0823
 6076SOL    HW129687   4.720   3.650   5.575 -0.0122  0.2071 -0.3591
 6076SOL    HW229688   0.136   3.623   5.620  0.0695  1.3882 -0.3594
 6077SOL     OW29689   4.332   2.501  13.009 -0.1571 -0.0488 -0.6534
 6077SOL    HW129690   4.260   2.552  13.045  1.0611  1.0650  0.2191
 6077SOL    HW229691   4.289   2.416  13.001 -1.6496  0.7049 -0.7489
 6078SOL     OW29692   4.427   3.086   2.910 -0.3156  0.2998 -0.4552
 6078SOL    HW129693   4.432   3.140   2.989  2.6802 -2.0712  0.9771
 6078SOL    HW229694   4.392   3.006   2.948  1.5916 -0.4317 -0.2483
 6079SOL     OW29695   4.565   1.423   7.346  0.0130 -0.8953  0.5073
 6079SOL    HW129696   4.571   1.424   7.251 -0.9858 -1.6529  0.4375
 6079SOL    HW229697   4.656   1.447   7.364 -0.5784  0.9765  1.0394
 6080SOL     OW29698   0.580   4.178   6.104 -0.2631 -0.2485  0.5853
 6080SOL    HW129699   0.574   4.199   6.010  1.1753 -1.6954  0.1795
 6080SOL    HW229700   0.516   4.234   6.149  0.7759  2.3930 -1.1775
 6081SOL     OW29701   4.123   0.984   6.693  0.3238 -0.0612 -0.1775
 6081SOL    HW129702   4.135   1.078   6.699  0.1794  0.0838 -2.0838
 6081SOL    HW229703   4.078   0.981   6.609 -0.1710  1.4183  0.0405
 6082SOL     OW29704   1.193   1.121   2.694  0.0739  0.4632 -0.0361
 6082SOL    HW129705   1.148   1.203   2.671  0.3530  0.3371 -1.0103
 6082SOL    HW229706   1.123   1.084   2.748  2.0727 -0.1555  2.1220
 6083SOL     OW29707   1.561   1.122   7.945  0.2896  0.0810  0.0597
 6083SOL    HW129708   1.487   1.178   7.963 -0.1101 -0.6657  0.7796
 6083SOL    HW229709   1.523   1.034   7.947 -2.2854  1.2126 -0.1817
 6084SOL     OW29710   1.162   0.306   2.703 -0.0997  0.1641  0.0630
 6084SOL    HW129711   1.235   0.366   2.689 -0.4038  0.0359 -2.1225
 6084SOL    HW229712   1.197   0.228   2.745 -0.7756 -0.9530 -1.4645
 6085SOL     OW29713   1.507   1.892  15.431  0.3939  0.0731  0.0014
 6085SOL    HW129714   1.434   1.907  15.370 -0.0091 -0.5591  0.3181
 6085SOL    HW229715   1.496   1.799  15.450 -0.8543  0.4042  0.9050
 6086SOL     OW29716   4.016   2.707  15.217 -0.2749 -0.2820 -0.0869
 6086SOL    HW129717   4.089   2.741  15.164 -0.2226 -0.7397 -0.3041
 6086SOL    HW229718   4.031   2.613  15.208  0.8130 -0.1610  0.4020
 6087SOL     OW29719   1.914   0.203  10.426 -0.0958  0.0808 -0.1801
 6087SOL    HW129720   1.899   0.298  10.418  1.2197  0.3423  0.5496
 6087SOL    HW229721   1.858   0.177  10.499  0.2940 -0.7219 -0.1717
 6088SOL     OW29722   2.108   3.960  12.411  0.3114  0.0677  0.1180
 6088SOL    HW129723   2.101   3.934  12.319 -0.9723  2.5194 -0.4591
 6088SOL    HW229724   2.192   4.006  12.413 -1.5280  3.4951 -1.3990
 6089SOL     OW29725   3.771   3.723   2.635 -0.4564 -0.0430  0.4560
 6089SOL    HW129726   3.798   3.739   2.725  1.5793  1.0991 -0.3740
 6089SOL    HW229727   3.843   3.664   2.614 -0.1042  0.7765 -0.5898
 6090SOL     OW29728   3.985   1.876   5.584  0.7586 -0.4769 -0.4718
 6090SOL    HW129729   3.984   1.899   5.491 -0.3114 -2.3396 -0.9245
 6090SOL    HW229730   4.020   1.959   5.616  2.2300 -1.1765 -0.2728
 6091SOL     OW29731   4.623   3.201   9.513 -0.3383  0.0827  0.0013
 6091SOL    HW129732   4.625   3.197   9.417  0.8651 -0.3844  0.0474
 6091SOL    HW229733   4.715   3.197   9.540 -0.9618 -0.5509  2.0396
 6092SOL     OW29734   3.156   0.336   1.245 -0.6659  0.0728  0.5039
 6092SOL    HW129735   3.104   0.387   1.307  1.1557  1.4140  0.9378
 6092SOL    HW229736   3.237   0.387   1.240 -1.0178  0.4869 -0.8467
 6093SOL     OW29737   2.121   3.239   4.646 -0.2145 -0.5301 -0.2895
 6093SOL    HW129738   2.078   3.198   4.571 -2.7468  0.3391  0.6720
 6093SOL    HW229739   2.200   3.186   4.647  0.3691  0.3720  1.5552
 6094SOL     OW29740   1.870   0.583   7.017  0.3415 -0.1802  0.5946
 6094SOL    HW129741   1.950   0.532   7.029  0.2313 -0.3263  0.6965
 6094SOL    HW229742   1.846   0.544   6.933 -2.7267 -2.0781  2.3759
 6095SOL     OW29743   2.332   2.091   4.514 -0.2302  0.0916  0.2977
 6095SOL    HW129744   2.284   2.113   4.594 -1.8626  0.2476 -0.7105
 6095SOL    HW229745   2.351   2.000   4.536 -0.1741 -0.1726 -0.8179
 6096SOL     OW29746   2.420   2.948   1.824 -0.5825 -0.0741  0.3742
 6096SOL    HW129747   2.339   2.946   1.774 -0.3127  0.3979 -0.0743
 6096SOL    HW229748   2.472   3.012   1.777 -3.6850  1.0416 -1.5517
 6097SOL     OW29749   3.918   1.533  12.444 -0.1502  0.1086  0.8003
 6097SOL    HW129750   4.008   1.532  12.477  0.5857 -2.0590 -1.3329
 6097SOL    HW229751   3.873   1.474  12.505  0.6354 -0.1601  1.1200
 6098SOL     OW29752   1.402   0.205  17.083 -0.3441 -0.7141 -0.4552
 6098SOL    HW129753   1.405   0.300  17.095 -0.9213 -0.8962  1.0055
 6098SOL    HW229754   1.491   0.193  17.116  0.1682 -0.0983 -1.6022
 6099SOL     OW29755   0.520   3.264   3.233 -0.1315  0.2640  0.2434
 6099SOL    HW129756   0.564   3.230   3.311 -0.3971 -1.0788 -0.1797
 6099SOL    HW229757   0.589   3.249   3.168 -1.5563 -0.0707 -1.2018
 6100SOL     OW29758   3.807   2.336   1.440  0.1452 -0.3805  0.2593
 6100SOL    HW129759   3.862   2.409   1.409 -2.2124  1.1981 -0.2165
 6100SOL    HW229760   3.839   2.275   1.374 -2.3293 -3.0918  1.5904
 6101SOL     OW29761   3.465   3.933   8.649 -0.5243 -0.6072 -0.0086
 6101SOL    HW129762   3.549   3.888   8.641 -0.5720 -0.4917 -1.2306
 6101SOL    HW229763   3.497   4.023   8.644 -1.1163 -0.4491 -1.0038
 6102SOL     OW29764   0.021   3.016  14.667 -0.3419  0.1768  0.3052
 6102SOL    HW129765   4.683   3.083  14.701 -0.4541 -0.7194  1.8187
 6102SOL    HW229766   0.107   3.053  14.685 -0.6364  2.3433 -2.6626
 6103SOL     OW29767   1.005   0.012   9.214 -0.4814 -0.4149 -0.4810
 6103SOL    HW129768   1.076   0.041   9.157  1.0348  1.7022  2.4757
 6103SOL    HW229769   0.967   4.654   9.177  1.6723 -2.3155  1.3093
 6104SOL     OW29770   4.564   1.947   9.348  0.2831  0.4434 -0.0874
 6104SOL    HW129771   4.541   2.009   9.417 -1.1456  1.6725 -1.6571
 6104SOL    HW229772   4.482   1.944   9.299  0.6742  0.2932 -0.7403
 6105SOL     OW29773   2.361   4.011  10.996 -0.2392  0.5543  0.2131
 6105SOL    HW129774   2.345   3.928  10.951 -1.6762 -0.2382  2.1619
 6105SOL    HW229775   2.271   4.043  11.003 -1.0743 -2.1316  1.6985
 6106SOL     OW29776   2.203   2.847   4.823  0.1712 -0.6305 -0.0050
 6106SOL    HW129777   2.152   2.774   4.859  0.9595 -0.8851  0.5991
 6106SOL    HW229778   2.148   2.880   4.752 -0.8690 -1.9902  0.1627
 6107SOL     OW29779   1.024   1.803   2.181 -0.0808 -0.4007  0.2453
 6107SOL    HW129780   0.950   1.858   2.205 -0.0236  0.0321 -0.5842
 6107SOL    HW229781   0.978   1.723   2.154 -0.9675  0.6306 -1.3131
 6108SOL     OW29782   0.354   1.037  11.976  0.1944  0.0440 -0.2385
 6108SOL    HW129783   0.309   1.119  11.958 -0.1064  0.2468  1.3606
 6108SOL    HW229784   0.369   1.037  12.071 -0.1213 -0.4216 -0.1903
 6109SOL     OW29785   4.506   3.571   3.938 -0.5594 -0.0719  0.4734
 6109SOL    HW129786   4.540   3.609   3.858  3.0223  0.0193  2.0412
 6109SOL    HW229787   4.418   3.536   3.922  0.1842 -3.7805  4.3249
 6110SOL     OW29788   2.446   2.117  12.214  0.5918 -0.2362 -0.2660
 6110SOL    HW129789   2.452   2.199  12.166 -2.9094  0.1255 -0.0850
 6110SOL    HW229790   2.496   2.131  12.294  1.7631 -1.6433 -0.7469
 6111SOL     OW29791   1.989   1.568   8.641 -0.2098  0.3975 -0.4385
 6111SOL    HW129792   1.960   1.532   8.557  0.2732 -1.1643  0.0536
 6111SOL    HW229793   2.073   1.521   8.646 -1.5000 -1.7872  0.2713
 6112SOL     OW29794   2.006   4.576   1.508  0.4421 -0.2757  0.2688
 6112SOL    HW129795   2.037   4.495   1.468  1.7765  0.0051  0.7508
 6112SOL    HW229796   2.001   4.642   1.439  0.6481 -0.8158 -0.2680
 6113SOL     OW29797   2.531   3.851   7.833 -0.2206  0.0065  0.0976
 6113SOL    HW129798   2.544   3.784   7.766  2.0446  0.1643  0.4011
 6113SOL    HW229799   2.536   3.799   7.913  1.4373 -1.1165 -0.7460
 6114SOL     OW29800   1.770   0.165   5.715 -0.1402  0.4025  0.3705
 6114SOL    HW129801   1.687   0.139   5.676  0.5746 -1.5854  0.1834
 6114SOL    HW229802   1.756   0.260   5.722  1.9715  0.8167 -0.9875
 6115SOL     OW29803   0.960   1.964   9.527  0.0545 -0.3354 -0.0411
 6115SOL    HW129804   1.025   1.895   9.546 -2.6209 -2.8403  0.0817
 6115SOL    HW229805   0.890   1.939   9.587 -0.5602 -1.3028 -1.1606
 6116SOL     OW29806   2.852   4.094   3.308 -0.0009 -0.3098  0.1968
 6116SOL    HW129807   2.924   4.077   3.248 -0.2370  0.0204 -0.1814
 6116SOL    HW229808   2.801   4.016   3.286  2.4278 -2.0654  0.7972
 6117SOL     OW29809   0.330   4.283   2.238  0.2771 -0.2565 -0.2361
 6117SOL    HW129810   0.375   4.361   2.204 -2.0035  1.5635  0.9096
 6117SOL    HW229811   0.391   4.211   2.222  0.2088 -0.2423 -0.5662
 6118SOL     OW29812   1.607   3.937  10.917  0.6368  0.1495  0.3747
 6118SOL    HW129813   1.577   3.985  10.995 -2.2353  1.4678 -1.5590
 6118SOL    HW229814   1.635   4.004  10.855 -1.9906 -0.0884 -1.0695
 6119SOL     OW29815   1.939   4.129   2.283 -0.7007 -0.6149  0.0518
 6119SOL    HW129816   1.984   4.200   2.328  0.3825 -0.3885 -1.3928
 6119SOL    HW229817   1.989   4.124   2.201 -1.0894  0.0029 -0.2222
 6120SOL     OW29818   1.266   4.221   8.854 -0.1869 -0.1042  0.2759
 6120SOL    HW129819   1.360   4.237   8.845 -0.2145 -1.4230 -2.5157
 6120SOL    HW229820   1.240   4.309   8.828  0.6013  0.4318  1.3411
 6121SOL     OW29821   4.332   1.313   2.999  0.3205 -0.4918  0.3530
 6121SOL    HW129822   4.367   1.363   3.073 -2.1923  0.8458  0.6462
 6121SOL    HW229823   4.319   1.227   3.038 -1.3790 -2.1638 -3.9727
 6122SOL     OW29824   2.964   3.467   8.508 -0.6479  0.2277  0.3211
 6122SOL    HW129825   3.046   3.515   8.494 -1.5374  1.9839  1.1078
 6122SOL    HW229826   2.915   3.521   8.570 -0.1943 -0.3534  1.1831
 6123SOL     OW29827   1.441   3.230   7.861  0.4548 -0.5723  0.5388
 6123SOL    HW129828   1.384   3.218   7.785 -0.2470  2.4573  0.5934
 6123SOL    HW229829   1.528   3.197   7.837  0.0455 -0.7711 -0.6752
 6124SOL     OW29830   2.677   4.709   0.647  0.2890 -0.2489 -0.1331
 6124SOL    HW129831   2.619   0.036   0.589 -0.2187 -0.0528  0.5307
 6124SOL    HW229832   2.615   4.700   0.719  0.2084  2.6629  0.1354
 6125SOL     OW29833   4.664   0.699   7.641 -0.2558  0.0377 -0.7249
 6125SOL    HW129834   4.661   0.651   7.558 -1.3244 -2.8779  1.0021
 6125SOL    HW229835   4.569   0.712   7.636 -0.2929 -0.2786 -0.8131
 6126SOL     OW29836   1.231   3.097   1.674  0.2773 -0.2279  0.1292
 6126SOL    HW129837   1.186   3.180   1.689 -0.6681 -0.5535 -0.8947
 6126SOL    HW229838   1.157   3.040   1.697  0.8209 -1.2892 -0.7815
 6127SOL     OW29839   0.034   2.842   5.227 -0.0162  0.3824  0.0409
 6127SOL    HW129840   0.079   2.769   5.271  2.4756  3.0479  1.9565
 6127SOL    HW229841   4.663   2.819   5.238  0.8002 -1.4150  3.3134
 6128SOL     OW29842   3.025   1.829   5.111 -0.4016  0.0281  0.3903
 6128SOL    HW129843   2.977   1.841   5.193 -1.0834  0.0721 -0.0176
 6128SOL    HW229844   2.983   1.750   5.078  0.3162 -0.2816  0.2164
 6129SOL     OW29845   2.066   3.363  15.099 -1.0735 -0.2194  0.4611
 6129SOL    HW129846   2.097   3.448  15.066  0.3084 -0.1491  1.9450
 6129SOL    HW229847   1.971   3.374  15.093 -1.0216 -0.4955 -0.8246
 6130SOL     OW29848   3.576   2.986   4.073 -0.5439  0.0478 -0.3937
 6130SOL    HW129849   3.649   3.022   4.124 -0.9101  1.5934 -0.9474
 6130SOL    HW229850   3.621   2.972   3.989  5.0860  1.0013  2.4364
 6131SOL     OW29851   2.735   0.398  11.818  0.5098  0.0245 -0.3907
 6131SOL    HW129852   2.734   0.313  11.862  0.5266  0.5441  0.6224
 6131SOL    HW229853   2.723   0.451  11.897  0.2665  0.4846 -0.7363
 6132SOL     OW29854   3.164   4.205   6.576 -0.0256  0.2370  0.1055
 6132SOL    HW129855   3.243   4.174   6.622  1.0867  1.0374 -1.2732
 6132SOL    HW229856   3.178   4.296   6.550 -2.4607  0.3359 -0.8148
 6133SOL     OW29857   2.676   1.373   8.290 -0.2985 -0.1115  0.2627
 6133SOL    HW129858   2.688   1.279   8.278  0.2439 -0.1436  1.0454
 6133SOL    HW229859   2.766   1.383   8.321  0.0433 -2.3128 -0.0574
 6134SOL     OW29860   2.329   0.461   3.847 -0.3078 -0.5471  0.4901
 6134SOL    HW129861   2.424   0.470   3.839 -0.2984  0.0878  1.4129
 6134SOL    HW229862   2.307   0.488   3.758  0.4092 -0.1623  0.4281
 6135SOL     OW29863   4.390   1.203  11.250 -0.1614  0.6808  0.0679
 6135SOL    HW129864   4.396   1.158  11.165 -0.9480 -0.2873  0.5240
 6135SOL    HW229865   4.422   1.285  11.213 -0.4069  1.1865  0.9739
 6136SOL     OW29866   2.550   0.764  11.109  0.7452 -0.1769 -0.0341
 6136SOL    HW129867   2.515   0.676  11.122 -1.2960  0.7751  0.9152
 6136SOL    HW229868   2.636   0.751  11.148  0.9847 -1.2877 -0.9319
 6137SOL     OW29869   3.729   4.490   8.091 -0.0895  0.1935 -0.4656
 6137SOL    HW129870   3.807   4.491   8.147 -1.3092 -0.5841  1.2629
 6137SOL    HW229871   3.678   4.569   8.110  0.0968  0.4833 -1.1765
 6138SOL     OW29872   1.908   0.699  11.841  0.6056  0.1400  0.3400
 6138SOL    HW129873   1.882   0.702  11.749 -1.2332  0.7470  0.8836
 6138SOL    HW229874   1.856   0.625  11.873 -0.1703  0.8730  0.7889
 6139SOL     OW29875   0.361   3.885   4.205 -0.1321 -0.4383 -0.2369
 6139SOL    HW129876   0.437   3.924   4.162  0.6862  1.4725  3.0015
 6139SOL    HW229877   0.398   3.809   4.249  0.8842  1.4292  2.0939
 6140SOL     OW29878   3.222   1.088   3.147 -0.6216  0.8884 -0.0636
 6140SOL    HW129879   3.180   1.035   3.079  1.0687 -0.8648  0.2733
 6140SOL    HW229880   3.312   1.055   3.143 -1.2629 -0.7515 -0.5930
 6141SOL     OW29881   0.859   0.830   8.397  0.0445  0.0512  1.2368
 6141SOL    HW129882   0.880   0.742   8.428 -1.8259 -1.3562 -1.4489
 6141SOL    HW229883   0.841   0.812   8.304  1.7602 -0.0349  0.9095
 6142SOL     OW29884   2.264   3.633   8.975  0.4774 -0.3727  0.2109
 6142SOL    HW129885   2.314   3.662   8.899  0.2902  0.2643  0.3320
 6142SOL    HW229886   2.199   3.571   8.941 -1.3809  0.7745  1.6400
 6143SOL     OW29887   3.214   2.491   8.349  0.3783 -0.2657 -0.4838
 6143SOL    HW129888   3.224   2.554   8.277 -1.2842 -0.5207 -0.9493
 6143SOL    HW229889   3.262   2.420   8.307  1.3323  0.2367 -0.2472
 6144SOL     OW29890   3.563   2.082   8.498 -0.2088  0.0396  0.3338
 6144SOL    HW129891   3.571   2.160   8.443 -0.3051  0.2338  0.5983
 6144SOL    HW229892   3.655   2.076   8.523 -0.0944  0.0737 -0.0673
 6145SOL     OW29893   1.623   0.252   2.849  0.0436 -0.1575  0.0626
 6145SOL    HW129894   1.713   0.244   2.878  1.2534  1.2720 -3.3363
 6145SOL    HW229895   1.594   0.340   2.873  1.8229  0.8084 -1.4071
 6146SOL     OW29896   0.444   2.415   3.511 -0.3991 -0.2373  0.2255
 6146SOL    HW129897   0.458   2.481   3.443 -2.3490 -0.1937 -0.1208
 6146SOL    HW229898   0.516   2.354   3.492 -1.5637 -1.6069  0.1660
 6147SOL     OW29899   4.612   0.599  15.106 -0.2966  0.1700  0.3515
 6147SOL    HW129900   4.681   0.596  15.040  1.8765 -1.9835  2.7010
 6147SOL    HW229901   4.608   0.694  15.111 -1.3022  0.1993 -0.9875
 6148SOL     OW29902   3.098   1.537   1.650  0.3892  0.1631 -0.5074
 6148SOL    HW129903   3.093   1.448   1.615 -0.5923 -0.5150  1.3261
 6148SOL    HW229904   3.121   1.593   1.576 -0.3831 -2.6556 -2.8579
 6149SOL     OW29905   3.396   2.830   6.187 -0.7836  0.5727 -0.2718
 6149SOL    HW129906   3.396   2.896   6.256 -3.1094 -0.5948  0.8641
 6149SOL    HW229907   3.435   2.760   6.239 -0.0295  1.1943 -0.0128
 6150SOL     OW29908   3.712   2.886  11.626 -0.6896  0.0599  0.5823
 6150SOL    HW129909   3.692   2.860  11.536 -1.5111  0.6373  0.5986
 6150SOL    HW229910   3.683   2.812  11.678 -1.0472 -0.4295 -0.3167
 6151SOL     OW29911   1.989   2.531   4.192 -0.0638  0.4125 -0.0683
 6151SOL    HW129912   1.988   2.614   4.144 -0.5475  0.4223 -0.0451
 6151SOL    HW229913   1.896   2.510   4.193 -0.2734  1.5148  2.4189
 6152SOL     OW29914   3.440   2.270   4.518 -0.3315  0.4714  0.6444
 6152SOL    HW129915   3.510   2.334   4.533 -1.7312  1.2177  4.0705
 6152SOL    HW229916   3.461   2.235   4.432  0.7077 -1.3548  1.6567
 6153SOL     OW29917   1.345   0.137   4.138  0.2465 -0.3069  0.1622
 6153SOL    HW129918   1.317   0.229   4.141  2.2726  0.2482  2.0467
 6153SOL    HW229919   1.359   0.120   4.231  3.1043  0.7777 -0.0892
 6154SOL     OW29920   1.438   0.193   8.241  0.2735  0.5116 -0.0688
 6154SOL    HW129921   1.413   0.214   8.151 -0.5181  1.6264  0.4111
 6154SOL    HW229922   1.483   0.273   8.269 -0.6722  2.2606 -3.5344
 6155SOL     OW29923   2.384   2.062   2.352  0.1030 -0.1708 -0.0590
 6155SOL    HW129924   2.302   2.078   2.306  1.6291 -0.1833 -2.7880
 6155SOL    HW229925   2.374   2.128   2.421 -1.3813 -1.7499  1.2459
 6156SOL     OW29926   0.768   1.325   4.665 -0.0595  0.0102 -0.3475
 6156SOL    HW129927   0.749   1.261   4.734 -0.5144  0.9116  0.3593
 6156SOL    HW229928   0.728   1.295   4.584 -1.2805 -0.1599  0.3262
 6157SOL     OW29929   2.064   0.439   7.107 -0.1470  0.7136 -0.3497
 6157SOL    HW129930   2.111   0.522   7.120  0.5412  0.2967 -0.1848
 6157SOL    HW229931   2.124   0.365   7.120 -0.8195  0.1029 -0.7463
 6158SOL     OW29932   2.303   1.861   5.900  0.1732  0.4338 -0.1978
 6158SOL    HW129933   2.309   1.922   5.973 -0.6409 -1.7514  1.6905
 6158SOL    HW229934   2.212   1.855   5.870  0.5891 -0.1921 -1.3447
 6159SOL     OW29935   0.268   0.100   2.964 -0.3195  0.5908 -0.1798
 6159SOL    HW129936   0.302   0.167   2.905 -0.5896 -0.2788 -1.3255
 6159SOL    HW229937   0.204   0.061   2.905  1.7500  0.0963 -2.0794
 6160SOL     OW29938   4.105   3.763   9.210  0.3196 -0.3838 -0.8763
 6160SOL    HW129939   4.088   3.779   9.303  2.8413  0.4367 -0.5370
 6160SOL    HW229940   4.016   3.755   9.177 -0.2483 -1.9744  1.0733
 6161SOL     OW29941   2.955   4.347   1.219  0.4922 -0.5048  0.2328
 6161SOL    HW129942   3.044   4.366   1.191  0.6199 -0.8836  0.3960
 6161SOL    HW229943   2.937   4.288   1.145  1.3228 -0.3046 -0.1317
 6162SOL     OW29944   3.630   0.537  12.063  0.0567 -0.0347  0.0534
 6162SOL    HW129945   3.677   0.454  12.056 -1.5501 -1.0796  1.4517
 6162SOL    HW229946   3.540   0.504  12.060 -0.9659  2.7534  0.6069
 6163SOL     OW29947   0.759   0.012   1.166  0.7801 -0.1382 -0.3636
 6163SOL    HW129948   0.819   0.086   1.173  0.7169 -0.2298  1.1064
 6163SOL    HW229949   0.810   4.668   1.213  1.0467  2.8722  3.4779
 6164SOL     OW29950   3.699   0.698  16.656 -0.1431 -0.1505 -0.1782
 6164SOL    HW129951   3.703   0.791  16.679 -1.2718 -0.2330  0.3195
 6164SOL    HW229952   3.615   0.666  16.687  0.2449  1.1770  2.2574
 6165SOL     OW29953   4.440   3.413   4.895  0.2353 -0.0309  0.6874
 6165SOL    HW129954   4.510   3.409   4.830 -1.5432 -1.0485 -1.1588
 6165SOL    HW229955   4.359   3.435   4.848  1.7846  0.5338 -1.7130
 6166SOL     OW29956   1.737   2.616   5.865  0.1028  0.1034  0.3097
 6166SOL    HW129957   1.723   2.557   5.939  0.3764 -1.0061 -0.5113
 6166SOL    HW229958   1.826   2.591   5.841 -0.3820 -0.7824 -0.5891
 6167SOL     OW29959   0.599   2.786   8.747 -0.4132  0.1085 -0.3943
 6167SOL    HW129960   0.519   2.782   8.694 -2.0553  0.0317  2.0871
 6167SOL    HW229961   0.627   2.695   8.758 -1.9188 -0.2327  0.6484
 6168SOL     OW29962   1.784   1.651   7.439 -0.4658  0.7319  0.3967
 6168SOL    HW129963   1.712   1.596   7.471  1.7251 -2.4156 -0.1591
 6168SOL    HW229964   1.846   1.663   7.511 -1.3116 -3.4445  1.8030
 6169SOL     OW29965   0.803   1.309  17.612  0.0066  0.0499 -1.3575
 6169SOL    HW129966   0.783   1.232  17.665  1.0770  0.6946 -0.0074
 6169SOL    HW229967   0.767   1.283  17.528  2.1200 -1.9077 -1.6470
 6170SOL     OW29968   2.583   3.161  10.964  0.0989 -0.2728 -0.0890
 6170SOL    HW129969   2.552   3.114  10.887  0.6152 -0.2361 -0.3127
 6170SOL    HW229970   2.624   3.089  11.012  1.9115  1.2448  0.6329
 6171SOL     OW29971   0.762   3.678   0.073  0.0609  0.1353 -0.6480
 6171SOL    HW129972   0.757   3.593   0.031  0.4583 -0.8519  1.2830
 6171SOL    HW229973   0.763   3.736  17.685 -1.8007  2.8079  1.3548
 6172SOL     OW29974   2.751   0.787   5.675 -0.1627  0.5406  0.1794
 6172SOL    HW129975   2.802   0.717   5.636 -3.2223 -0.2275 -2.4277
 6172SOL    HW229976   2.741   0.750   5.763 -1.9830 -0.4637 -0.4331
 6173SOL     OW29977   2.220   0.280   5.499  0.1674 -0.0007  0.2499
 6173SOL    HW129978   2.298   0.235   5.466  0.8390  0.8594  0.6840
 6173SOL    HW229979   2.175   0.210   5.548  0.8571 -0.9205 -0.4218
 6174SOL     OW29980   4.172   3.166  15.337  0.1712  0.4522  0.4520
 6174SOL    HW129981   4.160   3.074  15.359 -0.7145  0.0106 -1.8629
 6174SOL    HW229982   4.242   3.177  15.402 -0.0508  0.7657  0.6369
 6175SOL     OW29983   3.378   4.655   4.081  0.1680  0.8642 -0.3513
 6175SOL    HW129984   3.465   4.680   4.049  1.3197 -0.4481  1.7426
 6175SOL    HW229985   3.327   0.014   4.068  0.4090  1.2027  0.7910
 6176SOL     OW29986   2.226   1.994   3.665 -0.4353 -0.1279  0.1076
 6176SOL    HW129987   2.213   2.081   3.628 -0.0233 -0.2068 -0.2210
 6176SOL    HW229988   2.160   1.943   3.618  0.9917 -1.9001  0.0582
 6177SOL     OW29989   0.146   0.058  17.121 -0.0920 -0.6727  0.5798
 6177SOL    HW129990   0.064   0.013  17.144 -0.0685 -0.7234  0.5664
 6177SOL    HW229991   0.111   0.084  17.036  1.1414  1.0671  0.6108
 6178SOL     OW29992   2.644   2.505  12.300  0.1617 -0.0719 -0.0360
 6178SOL    HW129993   2.577   2.473  12.239 -1.2502  1.4141  0.7614
 6178SOL    HW229994   2.599   2.513  12.384  1.9307  1.0314  0.7854
 6179SOL     OW29995   1.922   1.797  10.073 -0.0047 -0.4600  0.5587
 6179SOL    HW129996   1.915   1.868  10.137  0.2694  0.3132 -0.2684
 6179SOL    HW229997   1.879   1.831   9.994 -0.4896 -0.8006  0.6773
 6180SOL     OW29998   3.011   3.187   3.296  0.0439  0.4264  0.1751
 6180SOL    HW129999   2.944   3.202   3.230 -1.4540 -0.0725  1.5788
 6180SOL    HW230000   3.073   3.258   3.277 -0.1196 -0.4253 -3.4519
 6181SOL     OW30001   3.434   3.812   8.904  0.2641 -0.2918 -0.1660
 6181SOL    HW130002   3.351   3.836   8.947  1.0007  2.2279 -0.1442
 6181SOL    HW230003   3.422   3.850   8.817 -1.1433 -0.8483 -0.2195
 6182SOL     OW30004   2.680   2.776   6.452 -0.2311 -0.1859  0.3935
 6182SOL    HW130005   2.734   2.768   6.531 -1.4410  1.0740  1.3545
 6182SOL    HW230006   2.749   2.759   6.389 -1.0267 -1.2080 -0.2073
 6183SOL     OW30007   0.095   4.343   4.094  0.3627  0.3540 -0.5565
 6183SOL    HW130008   0.090   4.401   4.170 -1.4442 -1.1575  0.4772
 6183SOL    HW230009   0.099   4.255   4.131 -0.0779  0.9204  0.8347
 6184SOL     OW30010   1.030   2.336  13.851  0.4561  0.1846 -0.7153
 6184SOL    HW130011   1.088   2.396  13.897  1.1348  0.4394 -1.9221
 6184SOL    HW230012   1.080   2.255  13.839 -1.8613 -2.2381  5.9723
 6185SOL     OW30013   4.112   4.105   0.424  0.0525 -0.0573 -0.2028
 6185SOL    HW130014   4.150   4.020   0.447  1.3544 -0.2482 -3.0687
 6185SOL    HW230015   4.181   4.170   0.441  0.7883 -0.8625 -0.0825
 6186SOL     OW30016   3.257   0.566  12.925  0.0456  0.0301  0.4246
 6186SOL    HW130017   3.234   0.610  12.843 -1.0677  0.0717  0.7639
 6186SOL    HW230018   3.293   0.642  12.969  1.4606  0.4478 -1.4783
 6187SOL     OW30019   1.821   3.333   3.913  0.6953  0.4427  0.1251
 6187SOL    HW130020   1.849   3.321   4.004 -1.8338  2.0513  1.1426
 6187SOL    HW230021   1.771   3.415   3.915 -0.7118 -0.4297  0.9272
 6188SOL     OW30022   4.694   0.617   3.658  0.0532  0.1954 -0.0041
 6188SOL    HW130023   4.639   0.688   3.690  2.0790  0.5298  2.6838
 6188SOL    HW230024   0.053   0.655   3.624  0.5670 -1.0529 -0.2091
 6189SOL     OW30025   4.392   3.531   9.785 -0.7275  0.0726  0.0330
 6189SOL    HW130026   4.333   3.605   9.774 -1.2280 -0.2472  0.5836
 6189SOL    HW230027   4.462   3.548   9.721 -0.3573  0.0926  0.4383
 6190SOL     OW30028   4.151   3.922  10.747 -0.0353 -0.0515 -0.1400
 6190SOL    HW130029   4.105   3.901  10.666 -0.9162 -0.3484  0.4426
 6190SOL    HW230030   4.145   3.835  10.787 -0.9576  0.4318  0.7706
 6191SOL     OW30031   3.083   3.217   8.486 -0.3768  0.2171 -0.4204
 6191SOL    HW130032   3.051   3.307   8.477 -0.4214  0.4002  1.5241
 6191SOL    HW230033   3.030   3.181   8.558  0.4838 -0.6726 -0.2332
 6192SOL     OW30034   2.423   0.268   4.018 -0.0234 -0.0676 -0.0847
 6192SOL    HW130035   2.453   0.242   3.931  0.3694  1.1997 -0.3395
 6192SOL    HW230036   2.361   0.337   3.995  1.3237  1.2733  0.3118
 6193SOL     OW30037   3.290   1.928   5.124 -0.1189 -0.1471 -0.5362
 6193SOL    HW130038   3.210   1.885   5.095 -0.0578  0.2446 -1.2831
 6193SOL    HW230039   3.240   1.997   5.169  1.8313  0.6464  0.4424
 6194SOL     OW30040   1.904   0.739   1.812  0.1613 -0.4835  0.2164
 6194SOL    HW130041   1.930   0.651   1.837  0.5006 -0.4265  0.0574
 6194SOL    HW230042   1.814   0.719   1.784  0.3372 -1.0999  0.0953
 6195SOL     OW30043   2.394   4.598  14.910 -0.3088  0.1575  0.6363
 6195SOL    HW130044   2.392   4.570  15.002 -0.5644 -0.2727  0.4979
 6195SOL    HW230045   2.440   4.679  14.932  1.2913 -1.1184  2.0217
 6196SOL     OW30046   2.168   2.242   2.579 -0.2487 -0.0523  0.4780
 6196SOL    HW130047   2.111   2.291   2.519  0.4754 -1.6859 -1.5268
 6196SOL    HW230048   2.160   2.300   2.655 -0.3436  0.5574  0.0076
 6197SOL     OW30049   0.788   0.300   0.499  0.1793 -0.1857  0.1328
 6197SOL    HW130050   0.882   0.315   0.512  0.1734  1.0924 -1.1705
 6197SOL    HW230051   0.766   0.245   0.573  0.4762 -0.2253  0.1916
 6198SOL     OW30052   2.654   1.368   6.220  0.0543  0.2420 -0.3398
 6198SOL    HW130053   2.595   1.405   6.286  0.2633  1.3081 -0.7471
 6198SOL    HW230054   2.733   1.421   6.229  0.6155 -1.1711  2.9618
 6199SOL     OW30055   1.222   2.112   9.006  0.0289 -0.4269 -0.0361
 6199SOL    HW130056   1.213   2.162   9.087  0.0514 -1.0415  0.3469
 6199SOL    HW230057   1.317   2.101   8.999  0.1815 -0.2448  1.7451
 6200SOL     OW30058   3.308   2.373  11.637  0.3463 -0.2722 -0.3392
 6200SOL    HW130059   3.248   2.300  11.619  0.7593 -0.3012 -1.6216
 6200SOL    HW230060   3.369   2.372  11.563 -0.2013 -1.1176 -0.7757
 6201SOL     OW30061   0.999   0.020  16.483 -0.2244 -0.7569  0.3183
 6201SOL    HW130062   1.007   4.709  16.573  0.0847  0.7815  0.8443
 6201SOL    HW230063   1.040   4.672  16.431  3.2547  1.8194 -0.2945
 6202SOL     OW30064   1.790   1.611   5.799  0.1821 -0.1698  0.3101
 6202SOL    HW130065   1.867   1.589   5.747  1.5668 -2.2635  3.2390
 6202SOL    HW230066   1.777   1.524   5.838  0.0151  0.8163  2.5005
 6203SOL     OW30067   4.299   4.365  13.148 -0.7904  0.4720  0.1036
 6203SOL    HW130068   4.392   4.357  13.169 -0.8494  0.9457  0.5424
 6203SOL    HW230069   4.267   4.404  13.230 -0.1011  1.0586  0.0982
 6204SOL     OW30070   3.083   2.233   3.406  0.0776  0.5667 -0.7997
 6204SOL    HW130071   3.004   2.183   3.424 -0.4019  1.6180  0.0288
 6204SOL    HW230072   3.136   2.209   3.482 -3.1747  1.4791  1.7866
 6205SOL     OW30073   1.950   1.555   3.057 -0.3797  0.3538  0.3397
 6205SOL    HW130074   1.974   1.467   3.085  0.7114  0.3638 -0.5592
 6205SOL    HW230075   2.014   1.572   2.987  0.0908 -0.5358  0.5552
 6206SOL     OW30076   3.098   4.342   2.221 -0.3422 -0.1738 -0.3036
 6206SOL    HW130077   3.146   4.420   2.250 -0.0866 -0.3192 -0.3303
 6206SOL    HW230078   3.132   4.324   2.133 -1.2820  0.5754 -0.8189
 6207SOL     OW30079   1.997   0.329   5.308  0.5290  0.0850 -0.2043
 6207SOL    HW130080   1.903   0.320   5.293  0.3542  1.3682  0.0696
 6207SOL    HW230081   2.011   0.263   5.375 -0.9386  1.3301  1.3079
 6208SOL     OW30082   1.994   4.294   3.459  0.2540 -0.0965 -0.0221
 6208SOL    HW130083   1.970   4.366   3.400  1.1992 -1.5335 -2.1375
 6208SOL    HW230084   1.908   4.290   3.502  0.7242  1.4608  1.0781
 6209SOL     OW30085   4.300   3.601   1.131 -0.6993 -0.6558  0.4353
 6209SOL    HW130086   4.332   3.689   1.149  1.0608 -0.9490 -1.3741
 6209SOL    HW230087   4.377   3.552   1.161  1.6087  0.7185 -3.2403
 6210SOL     OW30088   1.973   3.792   0.723 -0.3912  0.2284 -0.3800
 6210SOL    HW130089   2.033   3.866   0.736  1.8338 -1.2116 -2.4270
 6210SOL    HW230090   2.014   3.745   0.650  0.1835 -0.7572  0.5890
 6211SOL     OW30091   1.420   1.189   0.814  0.2076  0.3855 -0.3199
 6211SOL    HW130092   1.432   1.157   0.903 -0.8248 -1.1853 -0.7598
 6211SOL    HW230093   1.488   1.133   0.777 -1.0990 -1.5339  0.2001
 6212SOL     OW30094   1.300   2.904   7.533 -0.3546 -0.3823  0.5908
 6212SOL    HW130095   1.309   2.844   7.459 -1.3580  0.2440 -0.0344
 6212SOL    HW230096   1.329   2.988   7.496  2.1436 -0.6733  1.8533
 6213SOL     OW30097   1.388   1.384   6.746  0.4393 -0.1123 -0.1863
 6213SOL    HW130098   1.457   1.319   6.728  0.8060  0.1842  0.1565
 6213SOL    HW230099   1.439   1.465   6.753  2.1030 -1.0460 -1.3932
 6214SOL     OW30100   3.624   4.265   2.251  0.0572 -0.4951 -0.2187
 6214SOL    HW130101   3.614   4.359   2.235 -0.8206 -0.5948 -0.2239
 6214SOL    HW230102   3.683   4.263   2.327  0.4589  0.7656 -0.4996
 6215SOL     OW30103   1.529   1.991   4.011 -0.3457 -0.3385  0.4306
 6215SOL    HW130104   1.595   2.039   3.961 -1.8323  0.1934 -1.0232
 6215SOL    HW230105   1.504   2.054   4.079 -2.1079 -0.1217 -0.4173
 6216SOL     OW30106   4.297   4.396  14.816  0.1802  0.2924  0.3967
 6216SOL    HW130107   4.261   4.366  14.732 -1.4899 -0.5827  1.4137
 6216SOL    HW230108   4.239   4.342  14.871  0.6725 -2.1400 -1.4539
 6217SOL     OW30109   0.298   1.374   4.004 -0.7374  0.0744  0.2802
 6217SOL    HW130110   0.329   1.464   4.004  1.9743 -0.8266  0.6167
 6217SOL    HW230111   0.228   1.369   4.070 -1.6443 -2.6719 -0.8757
 6218SOL     OW30112   1.224   0.558  14.693 -0.0924 -0.4974 -0.5651
 6218SOL    HW130113   1.279   0.546  14.770 -0.7240 -0.0201 -0.0448
 6218SOL    HW230114   1.226   0.653  14.685  0.2879 -0.2471  2.5381
 6219SOL     OW30115   2.854   4.062  11.542 -0.2034 -0.0101 -0.6133
 6219SOL    HW130116   2.906   3.983  11.559  0.8874  0.7770 -0.2421
 6219SOL    HW230117   2.920   4.130  11.525  0.1602  0.4342  2.4541
 6220SOL     OW30118   1.479   3.905  15.558  0.0092  0.0369  0.1506
 6220SOL    HW130119   1.481   3.853  15.477 -0.5812  2.0826 -1.2049
 6220SOL    HW230120   1.487   3.995  15.525 -1.0845  0.1280  0.1203
 6221SOL     OW30121   2.751   1.438   2.470  0.1338 -0.0714  0.5098
 6221SOL    HW130122   2.756   1.353   2.426 -1.1994  0.0440  0.1353
 6221SOL    HW230123   2.759   1.405   2.560 -1.1610 -1.0698  0.2604
 6222SOL     OW30124   2.605   4.057   7.429 -0.3393 -0.3086 -0.3604
 6222SOL    HW130125   2.660   4.035   7.504  0.5881  1.7474 -0.4158
 6222SOL    HW230126   2.664   4.041   7.355 -0.5512  2.4871 -1.1316
 6223SOL     OW30127   1.479   0.619   3.305 -0.0518  0.1554 -0.0652
 6223SOL    HW130128   1.424   0.691   3.337  0.2221  0.2439  0.2011
 6223SOL    HW230129   1.475   0.549   3.370 -1.4325  0.4229  0.1413
 6224SOL     OW30130   2.797   2.368   3.243  0.4819 -0.1089  0.0778
 6224SOL    HW130131   2.870   2.316   3.211  0.3244 -0.9831  1.1463
 6224SOL    HW230132   2.811   2.449   3.194  1.6346  0.1665  0.8581
 6225SOL     OW30133   3.692   0.566   1.560  0.3637 -0.3377 -0.1839
 6225SOL    HW130134   3.696   0.543   1.653  1.1215  0.4164 -0.0257
 6225SOL    HW230135   3.740   0.491   1.525  0.9217 -0.1846  0.2493
 6226SOL     OW30136   3.330   1.801   2.342 -0.4456 -0.1069  0.5103
 6226SOL    HW130137   3.401   1.863   2.328 -2.3385  2.0769  0.5794
 6226SOL    HW230138   3.320   1.770   2.252 -0.9196  0.8882  0.2258
 6227SOL     OW30139   3.262   4.587   2.278 -0.1276  0.1906 -0.3096
 6227SOL    HW130140   3.299   4.653   2.220 -2.6531  0.6384 -1.3954
 6227SOL    HW230141   3.330   4.565   2.342 -0.9046 -2.6859 -0.4518
 6228SOL     OW30142   4.070   1.266  12.779  0.1961  0.0011  0.1803
 6228SOL    HW130143   4.004   1.236  12.717 -0.7440  0.3082  1.0326
 6228SOL    HW230144   4.036   1.275  12.868  0.2931 -1.3059  0.3565
 6229SOL     OW30145   1.377   0.226   3.317 -0.4445 -0.1941 -0.0329
 6229SOL    HW130146   1.306   0.163   3.326  0.0704 -0.7019  0.4991
 6229SOL    HW230147   1.382   0.224   3.222  2.7496 -2.5171  0.1749
 6230SOL     OW30148   1.769   1.817   3.964  0.5574 -0.3921  0.0732
 6230SOL    HW130149   1.855   1.827   3.922 -0.1458  2.0806 -0.7888
 6230SOL    HW230150   1.697   1.841   3.907  1.8532  0.9567 -1.0073
 6231SOL     OW30151   2.840   4.214   6.345  0.2098  0.2877 -0.8393
 6231SOL    HW130152   2.841   4.310   6.342 -1.9111  0.3471  0.4416
 6231SOL    HW230153   2.757   4.201   6.391  1.9324  1.0268  2.4207
 6232SOL     OW30154   4.674   2.547   5.801  0.1451  0.1263 -0.3668
 6232SOL    HW130155   4.681   2.482   5.872  1.7996 -0.2658 -0.8808
 6232SOL    HW230156   4.592   2.523   5.758 -0.1077  1.4547 -0.6250
 6233SOL     OW30157   1.163   4.148   3.290 -0.0151  0.3480  0.1497
 6233SOL    HW130158   1.181   4.231   3.333  0.0182 -0.4174  1.6158
 6233SOL    HW230159   1.104   4.175   3.220 -0.3741  0.2791  0.4252
 6234SOL     OW30160   2.843   1.246   1.902  0.3266 -0.6290 -0.5641
 6234SOL    HW130161   2.880   1.180   1.960  1.2845  1.2955  1.0033
 6234SOL    HW230162   2.883   1.326   1.935  0.9004 -1.3062  0.3979
 6235SOL     OW30163   4.149   4.268   8.742 -0.1006 -0.1517  0.5014
 6235SOL    HW130164   4.195   4.263   8.826 -0.2918 -0.7741  0.5646
 6235SOL    HW230165   4.134   4.362   8.732  1.8085  0.2749  1.6719
 6236SOL     OW30166   3.179   1.731   1.393 -0.4006  0.3701  0.2590
 6236SOL    HW130167   3.136   1.711   1.310 -0.2144  0.7710  0.0646
 6236SOL    HW230168   3.257   1.771   1.353  0.1351  0.4270  1.3528
 6237SOL     OW30169   3.855   1.607  11.215  0.4296 -0.0052 -0.0217
 6237SOL    HW130170   3.849   1.532  11.157  1.3223  0.9740 -1.3665
 6237SOL    HW230171   3.874   1.678  11.154 -0.2463  1.0599  1.0118
 6238SOL     OW30172   2.887   2.409   5.927 -0.4155 -0.1297 -1.1300
 6238SOL    HW130173   2.916   2.499   5.939  0.8752 -0.6097 -0.6741
 6238SOL    HW230174   2.966   2.359   5.950 -1.0671 -0.2347  0.9094
 6239SOL     OW30175   1.024   3.192  16.763  0.1866 -0.2209 -0.7144
 6239SOL    HW130176   0.950   3.166  16.709 -0.0831 -0.8871 -0.0160
 6239SOL    HW230177   1.013   3.287  16.763 -0.9930 -0.3547 -0.2561
 6240SOL     OW30178   0.424   0.021   4.068 -0.3184  0.2388  0.1312
 6240SOL    HW130179   0.424   0.087   4.137  1.6035  0.3901 -0.0077
 6240SOL    HW230180   0.340   0.044   4.029 -2.2279 -1.9890  2.9036
 6241SOL     OW30181   3.381   3.159   3.820 -0.0785 -0.1891 -0.1048
 6241SOL    HW130182   3.341   3.235   3.779  0.2220  0.0432  0.0375
 6241SOL    HW230183   3.418   3.111   3.746 -1.7480 -0.7186 -0.6021
 6242SOL     OW30184   3.192   0.764  16.997 -0.6135  0.4363 -0.4908
 6242SOL    HW130185   3.159   0.674  16.985 -0.2594  0.5466 -2.2729
 6242SOL    HW230186   3.180   0.790  16.905  2.3638 -0.8303 -1.2301
 6243SOL     OW30187   2.762   0.473   4.205 -0.0137 -0.0997  0.3391
 6243SOL    HW130188   2.848   0.509   4.181 -0.4149  0.6852  0.0814
 6243SOL    HW230189   2.708   0.536   4.158  0.0215  0.5459  1.1448
 6244SOL     OW30190   3.857   4.538   5.326 -0.4415 -0.4928  0.7870
 6244SOL    HW130191   3.858   4.509   5.235  1.0399 -1.1250  1.0002
 6244SOL    HW230192   3.823   4.625   5.305  1.3256  0.0067 -0.0530
 6245SOL     OW30193   0.599   2.252   6.300  0.8022 -0.2810  0.1124
 6245SOL    HW130194   0.510   2.288   6.305  0.4785 -0.8722 -1.1645
 6245SOL    HW230195   0.625   2.225   6.388 -1.6576  3.1911  1.9133
 6246SOL     OW30196   4.022   0.031  14.798  0.5749  0.6631 -0.3119
 6246SOL    HW130197   3.985   4.690  14.861 -1.1669  0.7990 -1.2115
 6246SOL    HW230198   4.023   4.695  14.721  0.3422 -1.6571  1.3969
 6247SOL     OW30199   3.977   3.878  15.918 -0.2817 -0.4290  0.5069
 6247SOL    HW130200   3.923   3.948  15.955 -0.1023  0.0288 -0.0925
 6247SOL    HW230201   3.934   3.799  15.950 -0.1802 -1.0651 -0.9212
 6248SOL     OW30202   3.379   4.384   0.946 -0.2385  0.1883  0.2886
 6248SOL    HW130203   3.433   4.317   0.905  1.1966  1.1916  0.5458
 6248SOL    HW230204   3.406   4.463   0.899 -1.3895  0.5402  0.2159
 6249SOL     OW30205   1.905   1.358  10.906 -0.4121 -0.1545 -0.5185
 6249SOL    HW130206   1.880   1.322  10.822 -2.0665  0.0376 -0.1081
 6249SOL    HW230207   1.952   1.438  10.879  1.1415 -1.0458 -0.4686
 6250SOL     OW30208   1.691   1.236  12.075 -0.0955  0.1229 -0.1185
 6250SOL    HW130209   1.659   1.163  12.129 -0.8589 -0.2089 -1.0229
 6250SOL    HW230210   1.612   1.266  12.031 -0.6816  0.6859  1.2949
 6251SOL     OW30211   4.280   1.893   8.771  0.1036 -0.9487 -0.3481
 6251SOL    HW130212   4.294   1.803   8.801  0.1376 -0.6237  0.5951
 6251SOL    HW230213   4.185   1.898   8.760  0.6967  0.6350 -4.5145
 6252SOL     OW30214   3.309   1.719   7.677  0.2770 -0.0706  0.0557
 6252SOL    HW130215   3.308   1.653   7.608  1.5580 -0.8075  0.7461
 6252SOL    HW230216   3.391   1.706   7.725 -0.0919  2.0000  1.2586
 6253SOL     OW30217   3.353   4.031  10.502  0.5163 -0.4987 -0.4114
 6253SOL    HW130218   3.374   4.123  10.516 -0.7279 -0.2346 -0.2703
 6253SOL    HW230219   3.438   3.987  10.496  1.1239  0.8458 -1.6618
 6254SOL     OW30220   1.687   0.362   3.449  0.1343  0.5619 -0.0230
 6254SOL    HW130221   1.672   0.273   3.479  0.5054  0.7179  0.6177
 6254SOL    HW230222   1.623   0.417   3.495  1.1035  1.3214  0.4133
 6255SOL     OW30223   3.786   0.008  16.784 -0.3039  0.1223 -0.5986
 6255SOL    HW130224   3.808   4.696  16.697  0.0427  0.9374 -0.8192
 6255SOL    HW230225   3.700   4.688  16.793 -0.3027  0.9088  2.9815
 6256SOL     OW30226   2.499   2.492   3.835  0.0630 -0.0102 -0.1517
 6256SOL    HW130227   2.432   2.548   3.875 -0.7446 -1.1284  0.0386
 6256SOL    HW230228   2.544   2.572   3.806 -0.3367 -0.5074 -2.2031
 6257SOL     OW30229   1.470   2.711   4.307 -0.0078  0.3059 -0.1906
 6257SOL    HW130230   1.516   2.793   4.292  1.0320 -0.2115  0.2250
 6257SOL    HW230231   1.534   2.655   4.262 -0.0775  0.3558 -0.3538
 6258SOL     OW30232   1.732   2.661   5.355 -0.1249 -0.2362  0.0259
 6258SOL    HW130233   1.658   2.722   5.347  0.4374 -0.2039 -5.1550
 6258SOL    HW230234   1.769   2.678   5.268 -2.0560  0.1518 -0.7254
 6259SOL     OW30235   3.961   2.705  12.591  0.1807 -0.1756 -0.3279
 6259SOL    HW130236   4.024   2.673  12.655  1.6180  2.7017 -0.2665
 6259SOL    HW230237   3.881   2.655  12.604 -0.9141  1.8012  0.4858
 6260SOL     OW30238   4.570   2.709  10.371 -0.5877 -0.2126  0.2474
 6260SOL    HW130239   4.564   2.756  10.454 -3.1273  1.5795 -0.9674
 6260SOL    HW230240   4.552   2.618  10.394  0.3837 -0.1130  1.3809
 6261SOL     OW30241   3.598   1.021   1.151 -0.1516 -0.1813 -0.6759
 6261SOL    HW130242   3.649   0.973   1.216  3.3651 -0.5784 -3.7424
 6261SOL    HW230243   3.509   1.025   1.186 -0.5540 -0.6367 -1.6501
 6262SOL     OW30244   0.983   0.814  12.696 -0.3564 -0.1221  0.0012
 6262SOL    HW130245   0.985   0.760  12.776  0.2137  0.3619  0.3138
 6262SOL    HW230246   0.943   0.756  12.632 -1.9139  0.2670  0.6230
 6263SOL     OW30247   0.527   3.082  15.281 -0.0840 -0.0705  0.5695
 6263SOL    HW130248   0.504   3.043  15.365  0.0389  1.0110  1.1143
 6263SOL    HW230249   0.615   3.044  15.274 -0.7760 -1.8016  1.3570
 6264SOL     OW30250   1.219   0.016  13.878 -0.4504 -0.7630 -0.6846
 6264SOL    HW130251   1.162   4.665  13.905  0.0074 -0.3682  1.2798
 6264SOL    HW230252   1.193   0.085  13.939 -1.3015 -1.4375 -0.2757
 6265SOL     OW30253   3.294   4.296   7.738  0.0519  0.0159  0.2074
 6265SOL    HW130254   3.248   4.343   7.807 -1.9540  0.1491 -1.1955
 6265SOL    HW230255   3.374   4.269   7.782 -0.8119  0.0600  1.7902
 6266SOL     OW30256   3.878   3.674   1.545 -0.0657  0.2939  0.5744
 6266SOL    HW130257   3.844   3.742   1.603  1.7103 -1.0726  3.2122
 6266SOL    HW230258   3.897   3.717   1.462 -1.8044 -0.6095 -0.2912
 6267SOL     OW30259   3.369   4.408  13.592 -0.1209  0.5792 -0.4130
 6267SOL    HW130260   3.374   4.499  13.621  0.2204  1.0571 -1.9479
 6267SOL    HW230261   3.411   4.359  13.663 -0.6070  2.1191  0.9328
 6268SOL     OW30262   4.520   3.180   7.473 -0.3103  0.1513 -0.6450
 6268SOL    HW130263   4.529   3.215   7.385  0.2712  1.1043 -0.1960
 6268SOL    HW230264   4.489   3.261   7.512 -1.7921  0.0071 -1.5241
 6269SOL     OW30265   0.703   1.578  16.124 -0.2027  0.6706 -0.1588
 6269SOL    HW130266   0.685   1.485  16.135  0.6830  0.5083 -0.1154
 6269SOL    HW230267   0.798   1.573  16.136 -0.0576  0.4586 -1.3975
 6270SOL     OW30268   3.330   4.033  13.616 -0.3321  0.3350 -0.2229
 6270SOL    HW130269   3.322   4.021  13.710 -0.2124 -1.6987 -0.4857
 6270SOL    HW230270   3.340   3.946  13.578  1.1005  0.6543 -0.5932
 6271SOL     OW30271   2.234   4.226   8.172  0.2480 -0.3005 -0.0950
 6271SOL    HW130272   2.165   4.175   8.215  0.0930 -0.7052 -0.8345
 6271SOL    HW230273   2.289   4.163   8.127  3.0641  1.0069  1.5017
 6272SOL     OW30274   1.647   2.796  14.229 -0.5309 -0.3346  0.1580
 6272SOL    HW130275   1.594   2.825  14.304 -0.9423  1.3534 -0.7635
 6272SOL    HW230276   1.694   2.877  14.211 -3.0442  1.3267  0.9926
 6273SOL     OW30277   1.083   3.512   8.489  0.4973 -0.5741 -0.3642
 6273SOL    HW130278   1.148   3.570   8.449 -2.0236  1.6116 -1.3024
 6273SOL    HW230279   1.133   3.466   8.557  1.7824  1.9309  0.3986
 6274SOL     OW30280   0.709   3.870   3.958 -0.6669 -0.1241 -0.1143
 6274SOL    HW130281   0.679   3.844   3.870  0.2104 -0.6875 -0.2422
 6274SOL    HW230282   0.755   3.788   3.977  0.8743  0.6054 -0.6455
 6275SOL     OW30283   1.794   0.080  10.629  0.1426 -0.3685 -0.4409
 6275SOL    HW130284   1.876   0.074  10.679 -0.1298 -1.5474 -0.1438
 6275SOL    HW230285   1.788   4.711  10.599 -2.3837 -0.5310  0.5768
 6276SOL     OW30286   0.435   1.461   2.070 -0.4850  0.3329  0.1128
 6276SOL    HW130287   0.453   1.489   1.980  1.5444  2.2357  1.1129
 6276SOL    HW230288   0.350   1.420   2.058  0.1125 -1.9177  3.5979
 6277SOL     OW30289   4.587   3.567   1.159 -0.2016 -0.1618 -0.4746
 6277SOL    HW130290   4.600   3.651   1.115 -2.2330  0.8403  0.8041
 6277SOL    HW230291   4.669   3.519   1.164 -0.2676 -0.1779  0.5476
 6278SOL     OW30292   3.350   2.353   4.955 -0.2905 -0.4426 -0.3972
 6278SOL    HW130293   3.408   2.282   4.927  0.4247 -0.2149  0.4989
 6278SOL    HW230294   3.283   2.307   5.004 -1.7006  0.2773 -1.6502
 6279SOL     OW30295   3.830   4.592   4.194 -0.1521 -0.1537  0.3299
 6279SOL    HW130296   3.888   4.567   4.265 -0.3340  0.0314  0.5438
 6279SOL    HW230297   3.815   4.685   4.214  1.1697 -0.2116  1.5413
 6280SOL     OW30298   4.600   2.216  17.288 -0.4047  0.3640  0.4261
 6280SOL    HW130299   4.632   2.141  17.339 -2.1542 -0.2408  0.6495
 6280SOL    HW230300   4.641   2.192  17.205  0.0780  0.0830  0.7443
 6281SOL     OW30301   2.789   3.724   4.458  0.4831 -0.9090 -0.0679
 6281SOL    HW130302   2.747   3.694   4.538 -1.8280 -0.3189 -1.0550
 6281SOL    HW230303   2.874   3.682   4.471 -1.2769 -4.1510  0.9441
 6282SOL     OW30304   0.467   3.963  16.144  0.4432  0.4441 -0.3572
 6282SOL    HW130305   0.440   3.938  16.055 -0.1471  1.9687 -0.6030
 6282SOL    HW230306   0.543   3.907  16.159  1.5066  2.6301  2.3200
 6283SOL     OW30307   1.453   0.096   1.223 -0.0578 -0.0710  0.0530
 6283SOL    HW130308   1.365   0.129   1.242 -0.8030 -2.5951  1.0419
 6283SOL    HW230309   1.504   0.177   1.228 -1.2536  0.8033 -1.7315
 6284SOL     OW30310   2.183   3.529   6.990  0.1019  0.5691  0.7966
 6284SOL    HW130311   2.161   3.614   7.028  2.1478  0.8414  1.3592
 6284SOL    HW230312   2.119   3.531   6.919  1.3958 -2.5566 -0.4780
 6285SOL     OW30313   4.474   3.980  17.454 -0.2655  0.2979 -0.1636
 6285SOL    HW130314   4.392   4.008  17.413 -0.1892  1.7347  0.6991
 6285SOL    HW230315   4.451   3.887  17.453 -2.3291  0.8089 -0.3500
 6286SOL     OW30316   3.846   2.161   6.927 -0.3520 -0.3405 -0.2415
 6286SOL    HW130317   3.916   2.217   6.961 -0.3752 -1.1313  1.0867
 6286SOL    HW230318   3.777   2.227   6.918 -0.1506 -0.1154 -0.1417
 6287SOL     OW30319   0.816   4.260  10.500 -0.2545  0.0891  0.1049
 6287SOL    HW130320   0.832   4.183  10.446 -0.0317  0.0756  0.1933
 6287SOL    HW230321   0.770   4.313  10.435 -0.2684  0.3060  0.2881
 6288SOL     OW30322   1.845   4.260   3.880  0.6036 -0.2224  0.2899
 6288SOL    HW130323   1.801   4.330   3.831 -1.4101 -0.3359  1.9352
 6288SOL    HW230324   1.889   4.308   3.951 -0.7026  0.7419  0.4498
 6289SOL     OW30325   2.333   1.863   6.546 -0.3115  0.0360 -0.1993
 6289SOL    HW130326   2.408   1.812   6.515 -0.4671  1.0163 -2.1775
 6289SOL    HW230327   2.253   1.833   6.504  0.6928  0.6642 -2.5180
 6290SOL     OW30328   0.989   3.893  12.451 -0.5143 -0.2204 -0.0576
 6290SOL    HW130329   1.001   3.823  12.386 -2.2334 -0.6899  0.1252
 6290SOL    HW230330   1.038   3.861  12.526  0.5231 -2.3617 -1.6251
 6291SOL     OW30331   0.334   2.814  15.995  0.2396  0.4408 -0.2358
 6291SOL    HW130332   0.384   2.861  15.929 -4.0029  2.7557 -1.8356
 6291SOL    HW230333   0.383   2.815  16.077  2.2669  0.8460 -1.4619
 6292SOL     OW30334   2.931   0.203  15.138  0.1066 -0.7516 -0.0454
 6292SOL    HW130335   2.870   0.134  15.111 -0.5464 -0.7516  1.4402
 6292SOL    HW230336   2.873   0.254  15.195 -1.0591 -0.3665 -1.5616
 6293SOL     OW30337   4.620   2.431  13.683  0.0328 -0.0069  0.4092
 6293SOL    HW130338   4.648   2.467  13.767 -2.6224  1.5690  0.6216
 6293SOL    HW230339   4.584   2.512  13.647 -3.1519 -0.3921  2.8102
 6294SOL     OW30340   2.035   2.569   6.942  0.2332  0.1890  0.3116
 6294SOL    HW130341   2.088   2.565   6.862  0.6096 -3.0224  0.7017
 6294SOL    HW230342   2.038   2.663   6.959  2.9507  0.9121 -4.0739
 6295SOL     OW30343   3.335   3.488   6.402  0.5271 -0.6857  0.2905
 6295SOL    HW130344   3.246   3.519   6.384  0.2020 -1.1279  1.1367
 6295SOL    HW230345   3.373   3.574   6.385 -0.9328 -0.1238 -0.2007
 6296SOL     OW30346   4.198   4.680   5.289 -0.0884 -0.4589 -0.1477
 6296SOL    HW130347   4.129   0.014   5.254 -0.6864 -0.7711  0.5542
 6296SOL    HW230348   4.278   0.009   5.269 -0.1845  0.1375  0.9735
 6297SOL     OW30349   4.401   0.739   8.288  0.1424  0.0318 -0.1071
 6297SOL    HW130350   4.448   0.820   8.307  0.9877 -0.0101 -2.0065
 6297SOL    HW230351   4.316   0.782   8.281 -0.3599 -0.9642 -0.0684
 6298SOL     OW30352   2.837   1.286   9.489 -0.0855  0.0750 -0.2470
 6298SOL    HW130353   2.883   1.367   9.508  0.7768 -0.7468  1.1636
 6298SOL    HW230354   2.747   1.312   9.510 -0.2417 -1.1281  0.5965
 6299SOL     OW30355   0.704   3.646   7.674  0.2921  0.2715 -0.3054
 6299SOL    HW130356   0.725   3.678   7.586  2.1571 -0.6907 -0.2102
 6299SOL    HW230357   0.735   3.717   7.730  2.2657 -0.8891  0.0745
 6300SOL     OW30358   0.455   1.062  14.353 -0.0496  0.2271  0.1111
 6300SOL    HW130359   0.476   0.995  14.418  1.2297  1.4393  0.9541
 6300SOL    HW230360   0.526   1.126  14.358  1.5311 -1.6362  1.9495
 6301SOL     OW30361   3.577   3.539   2.789 -0.0630 -0.2601  0.0566
 6301SOL    HW130362   3.632   3.463   2.769  0.2529  0.4225 -1.7055
 6301SOL    HW230363   3.639   3.611   2.795  1.1501 -1.3094  0.2161
 6302SOL     OW30364   0.308   2.626   4.803  0.0662 -0.2799 -0.0002
 6302SOL    HW130365   0.342   2.653   4.888 -0.9733 -0.1365  0.3672
 6302SOL    HW230366   0.263   2.708   4.785  0.9832  0.4300  0.9832
 6303SOL     OW30367   3.286   0.545   2.228 -0.0032 -0.4031 -0.4010
 6303SOL    HW130368   3.214   0.602   2.201 -0.8736 -0.7348  1.2299
 6303SOL    HW230369   3.290   0.490   2.150  0.3671 -1.1480  0.1438
 6304SOL     OW30370   3.890   3.036   6.290 -0.5369  0.1651 -0.3602
 6304SOL    HW130371   3.795   3.046   6.299 -0.7625 -0.1403 -2.4454
 6304SOL    HW230372   3.920   3.103   6.351  0.8112 -0.4845 -0.3120
 6305SOL     OW30373   3.817   0.032   1.539 -0.4161 -0.0232  0.1400
 6305SOL    HW130374   3.794   4.689   1.607  0.9814 -2.1044 -1.3784
 6305SOL    HW230375   3.813   0.115   1.587  0.3679 -0.4535  0.9418
 6306SOL     OW30376   1.995   4.352   2.417  0.4955 -0.0487 -0.6990
 6306SOL    HW130377   1.952   4.414   2.477  1.0922 -0.4650  0.1698
 6306SOL    HW230378   2.085   4.384   2.430  0.3534  0.1495 -0.1705
 6307SOL     OW30379   2.450   1.442  11.209  0.3970  0.0398  0.2812
 6307SOL    HW130380   2.520   1.386  11.177  0.0537  0.1405 -0.6609
 6307SOL    HW230381   2.439   1.491  11.127  0.8400 -0.5419 -0.1225
 6308SOL     OW30382   1.746   2.572   3.590 -0.3422  0.2435 -0.1905
 6308SOL    HW130383   1.829   2.569   3.541  0.3413  0.4987  0.9507
 6308SOL    HW230384   1.687   2.529   3.529  0.0154 -0.8246  0.2142
 6309SOL     OW30385   2.235   1.057   2.367 -0.1127 -0.1067  0.0750
 6309SOL    HW130386   2.178   1.012   2.430  1.0222 -0.6645  0.7092
 6309SOL    HW230387   2.270   1.133   2.414  2.1023 -0.6966 -0.6191
 6310SOL     OW30388   2.795   3.967   4.919 -0.4782 -0.2953 -0.0886
 6310SOL    HW130389   2.886   3.994   4.915 -1.2412  2.6653  2.1384
 6310SOL    HW230390   2.756   4.033   4.862 -1.3021  1.2986  2.3174
 6311SOL     OW30391   2.304   0.913   4.573 -0.0451  0.2884 -0.1435
 6311SOL    HW130392   2.388   0.895   4.614 -1.2039 -1.5428  1.4385
 6311SOL    HW230393   2.324   0.992   4.523  1.0377  0.1368  0.0576
 6312SOL     OW30394   3.138   2.816  14.975  0.1347 -0.0411  0.2503
 6312SOL    HW130395   3.105   2.742  14.924 -0.3091  0.2191  0.1564
 6312SOL    HW230396   3.080   2.889  14.953 -0.1330  0.1005  1.4087
 6313SOL     OW30397   1.409   3.944   1.782  0.4985 -0.0943  0.4573
 6313SOL    HW130398   1.480   3.987   1.735 -0.2803  1.4405  0.6534
 6313SOL    HW230399   1.446   3.858   1.801  1.4533  0.6695  2.0260
 6314SOL     OW30400   2.412   4.581   7.866 -0.3547  0.7197 -0.2604
 6314SOL    HW130401   2.459   4.611   7.788  2.6447 -2.7022  0.2103
 6314SOL    HW230402   2.318   4.592   7.854 -0.5506 -0.2239  0.3948
 6315SOL     OW30403   0.664   4.332   1.762 -0.0097  0.1340 -0.1938
 6315SOL    HW130404   0.569   4.347   1.768  0.4217  2.0444  1.8325
 6315SOL    HW230405   0.665   4.250   1.713 -0.2432 -1.0911  1.8453
 6316SOL     OW30406   4.717   2.360   4.390 -0.1628  0.9064 -0.1470
 6316SOL    HW130407   0.007   2.275   4.431 -4.7838  0.2990 -0.1000
 6316SOL    HW230408   0.026   2.419   4.460  0.4672 -1.3758  1.4791
 6317SOL     OW30409   0.827   3.781  13.261  0.2715 -0.4188 -0.3555
 6317SOL    HW130410   0.830   3.875  13.247 -0.0539 -0.2122  0.9051
 6317SOL    HW230411   0.889   3.758  13.192  1.8259  1.9034  0.2778
 6318SOL     OW30412   3.297   3.967  15.249 -0.4589 -0.5819  0.0154
 6318SOL    HW130413   3.311   3.996  15.339 -0.1959 -1.1040  0.1427
 6318SOL    HW230414   3.266   3.877  15.260 -0.1072 -0.9696 -2.1385
 6319SOL     OW30415   0.028   1.267   5.261  0.3785  0.3805  0.2619
 6319SOL    HW130416   0.096   1.331   5.282 -0.2838  1.5641 -1.1464
 6319SOL    HW230417   4.690   1.318   5.206  0.9431 -1.0958 -1.7306
 6320SOL     OW30418   3.246   3.215   6.087 -0.0942 -0.2600  0.1895
 6320SOL    HW130419   3.159   3.249   6.107 -0.9555 -1.9199 -0.7442
 6320SOL    HW230420   3.268   3.140   6.142  0.1438 -0.4387 -0.1455
 6321SOL     OW30421   1.204   3.300   5.442 -0.1546  0.3316  0.3986
 6321SOL    HW130422   1.120   3.318   5.485  0.3484  0.8898  1.1523
 6321SOL    HW230423   1.249   3.384   5.452  1.6570 -0.2382 -3.3746
 6322SOL     OW30424   3.976   0.476   0.742 -0.0908 -0.5164 -0.3201
 6322SOL    HW130425   4.010   0.465   0.831 -0.5813  3.1776  0.3356
 6322SOL    HW230426   4.023   0.558   0.724  2.1369 -2.1224 -1.8645
 6323SOL     OW30427   3.794   3.379   6.554 -0.0711  0.5127 -0.4023
 6323SOL    HW130428   3.698   3.379   6.548 -0.0177  0.1133 -1.2865
 6323SOL    HW230429   3.816   3.468   6.525 -0.9906  0.2479 -1.9249
 6324SOL     OW30430   3.516   3.348   6.553 -0.1672 -0.0592  0.0881
 6324SOL    HW130431   3.459   3.300   6.613 -1.5549  0.1479 -1.0702
 6324SOL    HW230432   3.459   3.405   6.502  0.1170 -0.7141 -0.9679
 6325SOL     OW30433   2.521   0.928   1.992  0.4019 -0.2968  0.1477
 6325SOL    HW130434   2.578   0.937   2.069 -1.2351 -1.4598  1.4825
 6325SOL    HW230435   2.505   1.019   1.968 -1.4661 -0.6418  0.1037
 6326SOL     OW30436   3.959   3.929   6.981 -0.8391 -0.1180 -0.2515
 6326SOL    HW130437   4.031   3.910   7.042 -2.6325 -2.0429  1.2800
 6326SOL    HW230438   3.885   3.878   7.013 -0.5405 -0.1926  0.3224
 6327SOL     OW30439   0.865   2.520   3.887 -0.2104 -0.1503  0.2988
 6327SOL    HW130440   0.790   2.501   3.830 -0.7618  1.6004  0.4171
 6327SOL    HW230441   0.835   2.603   3.924 -0.7702 -0.3308  0.2454
 6328SOL     OW30442   3.312   0.143   6.211 -0.1176  0.0340  0.2494
 6328SOL    HW130443   3.395   0.147   6.165  0.1370  1.0373  0.7907
 6328SOL    HW230444   3.300   0.238   6.214  0.4934  0.1104  0.1508
 6329SOL     OW30445   1.253   3.982   4.936 -0.2134  0.2989 -0.1506
 6329SOL    HW130446   1.310   4.002   4.862 -0.0207 -1.5131 -0.5134
 6329SOL    HW230447   1.256   4.057   4.994  1.4090  1.3593 -1.5952
 6330SOL     OW30448   0.625   3.117   3.842 -0.1049  0.5952 -0.1489
 6330SOL    HW130449   0.643   3.126   3.935  1.1359 -0.7713 -0.2563
 6330SOL    HW230450   0.659   3.201   3.811  3.3686 -1.3864 -1.7713
 6331SOL     OW30451   0.046   3.712  17.222  0.0995 -0.7755 -0.3758
 6331SOL    HW130452   4.686   3.661  17.223 -0.2474 -0.2307 -0.2257
 6331SOL    HW230453   0.028   3.793  17.174 -1.3499  0.6695  2.6052
 6332SOL     OW30454   4.383   1.102   7.601  0.1524  0.0017 -0.7505
 6332SOL    HW130455   4.351   1.171   7.659  0.5791 -0.5059  0.0973
 6332SOL    HW230456   4.348   1.129   7.517  0.7583  1.4526 -0.5351
 6333SOL     OW30457   4.621   1.607  11.628 -0.6524  0.9274  0.0345
 6333SOL    HW130458   4.601   1.627  11.536 -1.5422 -0.2757 -0.0201
 6333SOL    HW230459   4.605   1.695  11.662 -0.0830  1.1765 -0.3507
 6334SOL     OW30460   2.701   3.221   6.005 -0.3176  0.1456 -0.3311
 6334SOL    HW130461   2.716   3.242   5.913 -2.0691  0.7509 -0.4842
 6334SOL    HW230462   2.608   3.200   6.000 -0.0270 -1.6940  2.2987
 6335SOL     OW30463   4.604   1.455   3.838  0.2894 -0.6327 -0.1387
 6335SOL    HW130464   4.670   1.391   3.811  0.7323 -0.1664 -0.1710
 6335SOL    HW230465   4.554   1.416   3.909 -0.4919  2.3851  0.9658
 6336SOL     OW30466   3.529   3.676   4.020 -0.2161  0.0543  0.2669
 6336SOL    HW130467   3.469   3.719   3.959 -0.2404 -0.0713  0.2022
 6336SOL    HW230468   3.542   3.604   3.959  1.1169 -0.9027  1.6674
 6337SOL     OW30469   2.887   4.691  15.571 -0.2668  0.1296 -0.4870
 6337SOL    HW130470   2.918   4.626  15.635 -0.2636 -0.0294 -0.6497
 6337SOL    HW230471   2.967   0.017  15.547 -0.7050  0.7735 -0.6731
 6338SOL     OW30472   4.228   3.381   2.452  0.5654  0.2476  0.0800
 6338SOL    HW130473   4.275   3.415   2.528 -0.5339  0.5404  0.6347
 6338SOL    HW230474   4.275   3.425   2.381  2.8338  0.2567  1.6029
 6339SOL     OW30475   2.837   0.478  12.462 -0.8041  0.3761 -0.7729
 6339SOL    HW130476   2.768   0.412  12.478  0.4640 -0.0333  3.1142
 6339SOL    HW230477   2.917   0.437  12.495 -0.0882  1.5271 -1.1068
 6340SOL     OW30478   3.672   0.350  17.519  0.3809 -0.4761  0.1002
 6340SOL    HW130479   3.726   0.286  17.565  4.2544  2.2161 -0.6579
 6340SOL    HW230480   3.721   0.350  17.437 -1.6822 -0.4027 -1.1282
 6341SOL     OW30481   2.505   3.675  12.927 -0.4431 -0.0946  0.1785
 6341SOL    HW130482   2.493   3.586  12.958  1.0761 -0.8523 -1.3596
 6341SOL    HW230483   2.484   3.660  12.835 -1.0444  1.0153  0.1239
 6342SOL     OW30484   0.073   3.531  13.556 -0.0610  0.0463  0.5261
 6342SOL    HW130485   0.015   3.548  13.631 -0.3887 -0.8736  0.4858
 6342SOL    HW230486   0.093   3.441  13.584  1.7958  0.7035  1.3154
 6343SOL     OW30487   2.880   0.781  17.335  0.6438 -0.0960 -0.0850
 6343SOL    HW130488   2.964   0.808  17.297 -0.5101 -2.2407 -4.1095
 6343SOL    HW230489   2.854   0.867  17.369  0.3119 -0.2838  0.1297
 6344SOL     OW30490   2.877   4.053   5.930 -0.3597  0.2491 -0.0036
 6344SOL    HW130491   2.929   4.106   5.991  0.6927  0.2076 -0.8749
 6344SOL    HW230492   2.917   4.076   5.846  1.3094  1.0235  1.0055
 6345SOL     OW30493   2.168   0.981  13.243 -0.1862  0.5313 -0.1064
 6345SOL    HW130494   2.157   1.072  13.215  1.1480  0.4639 -0.8740
 6345SOL    HW230495   2.253   0.970  13.201 -0.4128  0.1811 -0.4699
 6346SOL     OW30496   2.584   0.141   3.234  0.0713 -0.2562  0.1590
 6346SOL    HW130497   2.602   0.052   3.265  0.7408 -0.2427 -0.1950
 6346SOL    HW230498   2.613   0.195   3.307  1.0699 -0.5401 -0.0239
 6347SOL     OW30499   3.326   3.285   2.475  0.0968  0.6835  0.2752
 6347SOL    HW130500   3.329   3.380   2.464 -0.1430  0.8399  1.5234
 6347SOL    HW230501   3.317   3.277   2.570 -0.7224 -1.7798 -0.0132
 6348SOL     OW30502   4.007   3.779   6.716  0.0270  0.2771  0.1114
 6348SOL    HW130503   3.997   3.719   6.790 -0.3762  0.2693  0.0517
 6348SOL    HW230504   4.010   3.863   6.760 -0.0860 -0.7645  2.1016
 6349SOL     OW30505   2.536   0.345   4.525 -0.0079  0.7689  0.1338
 6349SOL    HW130506   2.609   0.381   4.474 -1.1652 -0.2390 -2.2098
 6349SOL    HW230507   2.495   0.293   4.457 -0.3489 -0.8293  1.5677
 6350SOL     OW30508   2.124   0.798   0.770 -0.1498 -0.4699  0.5829
 6350SOL    HW130509   2.188   0.870   0.767 -1.6518  0.7649 -1.9206
 6350SOL    HW230510   2.067   0.830   0.700 -0.8281 -0.6926  1.0402
 6351SOL     OW30511   1.163   4.174   7.074  0.0294  0.0078 -0.1366
 6351SOL    HW130512   1.162   4.198   7.167 -0.7035  3.4979 -1.0294
 6351SOL    HW230513   1.233   4.109   7.066  0.2904  0.2051  0.4635
 6352SOL     OW30514   4.244   3.225   6.973 -0.0607 -0.6788 -0.9359
 6352SOL    HW130515   4.156   3.228   7.011  1.0847  2.9104  1.3857
 6352SOL    HW230516   4.277   3.310   7.000 -1.1287 -0.4685 -0.2945
 6353SOL     OW30517   1.741   4.560  13.285  0.0817  0.0500 -0.2862
 6353SOL    HW130518   1.746   4.518  13.199 -2.3543 -0.9887  0.0648
 6353SOL    HW230519   1.826   4.605  13.284 -0.9265  1.9674 -0.4362
 6354SOL     OW30520   4.065   3.143   9.642 -0.3116 -0.7151  0.5165
 6354SOL    HW130521   4.085   3.166   9.551 -0.0513 -1.6293  0.3364
 6354SOL    HW230522   4.125   3.200   9.691  0.1745  0.8938 -1.9638
 6355SOL     OW30523   0.464   3.623   2.485 -0.0146  0.1263  0.4780
 6355SOL    HW130524   0.439   3.641   2.395  3.3665  2.2303 -0.0246
 6355SOL    HW230525   0.558   3.642   2.485 -0.0039  0.0742  0.4565
 6356SOL     OW30526   0.557   0.085   3.260  0.6337 -0.2853  0.2113
 6356SOL    HW130527   0.495   0.027   3.305 -1.6082  1.6082 -0.4254
 6356SOL    HW230528   0.603   0.124   3.334 -0.7831 -1.1481  1.5657
 6357SOL     OW30529   3.809   0.100   6.682 -0.5288  0.0976  0.3175
 6357SOL    HW130530   3.740   0.104   6.748 -1.2656  1.2708 -0.5204
 6357SOL    HW230531   3.816   0.006   6.668  1.7886  0.2475  0.5219
 6358SOL     OW30532   0.500   3.086  14.719 -0.3114  0.4960  0.0828
 6358SOL    HW130533   0.562   3.119  14.784 -2.2244  1.5558  1.3983
 6358SOL    HW230534   0.530   2.995  14.714 -1.6294  0.0856 -0.5402
 6359SOL     OW30535   0.184   1.260   7.958 -0.3223  0.2417  0.2267
 6359SOL    HW130536   0.180   1.343   7.910  1.8175 -0.9114 -1.9492
 6359SOL    HW230537   0.093   1.242   7.978 -0.5021 -0.6259 -1.4397
 6360SOL     OW30538   2.108   3.577   0.150 -0.0144 -0.4680 -0.3155
 6360SOL    HW130539   2.061   3.594   0.068 -0.7556  0.5259  0.3191
 6360SOL    HW230540   2.085   3.489   0.177 -1.4655 -0.2162 -0.7286
 6361SOL     OW30541   0.633   2.996  17.622  0.2817 -0.8811  0.0396
 6361SOL    HW130542   0.553   2.970  17.576 -0.2221 -0.1469  0.5036
 6361SOL    HW230543   0.658   3.071  17.568  1.1488 -1.7985 -0.8455
 6362SOL     OW30544   0.219   0.914   6.718  0.2116 -0.0722  0.2114
 6362SOL    HW130545   0.263   0.950   6.794 -0.2289  2.3084 -0.6751
 6362SOL    HW230546   0.189   0.828   6.749 -0.9016 -0.4090 -1.7830
 6363SOL     OW30547   3.209   1.343   0.342 -0.0404  0.0513  0.3286
 6363SOL    HW130548   3.241   1.423   0.300 -3.4488 -0.0450 -2.5184
 6363SOL    HW230549   3.180   1.370   0.429  0.8249 -0.9083  0.9159
 6364SOL     OW30550   4.446   3.208  14.551  0.2865  0.0755 -0.4408
 6364SOL    HW130551   4.468   3.270  14.482 -0.8766 -1.0124 -1.8020
 6364SOL    HW230552   4.493   3.129  14.523 -0.2554 -0.4721  0.1826
 6365SOL     OW30553   3.070   0.378  12.164  0.4248  1.2839  0.3043
 6365SOL    HW130554   3.063   0.361  12.258  0.0762 -0.7086 -0.0902
 6365SOL    HW230555   3.122   0.312  12.119  1.3150  0.9233  1.8379
 6366SOL     OW30556   0.307   0.134   3.794  0.6425  0.2096 -0.1321
 6366SOL    HW130557   0.401   0.142   3.811  0.5321  0.3673  0.4111
 6366SOL    HW230558   0.271   0.178   3.871 -0.4787 -1.0555  0.0540
 6367SOL     OW30559   2.451   2.950   5.200  0.2665 -0.0600 -1.2027
 6367SOL    HW130560   2.356   2.959   5.199  0.1747 -0.9890 -1.1777
 6367SOL    HW230561   2.456   2.863   5.160 -1.1763 -0.7740  0.1872
 6368SOL     OW30562   0.773   1.601   3.500  0.2636 -0.0856  0.5283
 6368SOL    HW130563   0.794   1.516   3.539  0.2679 -1.0240 -1.4601
 6368SOL    HW230564   0.859   1.628   3.467 -0.2007 -0.7995 -1.2934
 6369SOL     OW30565   3.705   4.506   7.808 -0.1484  0.4585 -0.0087
 6369SOL    HW130566   3.719   4.499   7.903 -3.7137  0.3767  0.5058
 6369SOL    HW230567   3.620   4.463   7.801  0.3383 -0.1253 -2.2422
 6370SOL     OW30568   4.681   2.516  16.435  0.0805  0.2642  0.5151
 6370SOL    HW130569   4.613   2.452  16.417  1.7559 -1.6452  0.9375
 6370SOL    HW230570   4.675   2.578  16.363 -0.8098 -0.2850  0.1260
 6371SOL     OW30571   0.302   3.501   8.338 -0.0632 -0.0159 -0.3241
 6371SOL    HW130572   0.322   3.587   8.303  1.0691  0.2095  0.8739
 6371SOL    HW230573   0.384   3.454   8.351 -0.0932 -0.2311 -0.9096
 6372SOL     OW30574   2.114   4.096  11.044  0.2495 -0.0514 -0.9731
 6372SOL    HW130575   2.063   4.050  10.978 -1.7685 -0.9813  1.2664
 6372SOL    HW230576   2.057   4.106  11.120  1.1369  1.0823 -0.4464
 6373SOL     OW30577   0.701   1.144  17.410  0.5911  0.1044  0.4872
 6373SOL    HW130578   0.667   1.100  17.488  1.9197 -2.3578 -0.3573
 6373SOL    HW230579   0.625   1.131  17.353  1.2443 -0.4724 -0.2415
 6374SOL     OW30580   4.700   0.398  14.078 -0.2467  0.6089 -0.0469
 6374SOL    HW130581   4.655   0.413  14.161 -0.3310  0.1674 -0.0129
 6374SOL    HW230582   4.702   0.303  14.070 -1.0914  0.6565 -0.8568
 6375SOL     OW30583   2.615   1.276   0.762 -0.7433  0.1581 -0.1658
 6375SOL    HW130584   2.548   1.322   0.813  0.0080  0.3553  0.6419
 6375SOL    HW230585   2.611   1.184   0.790  0.7749 -0.0644 -0.6955
 6376SOL     OW30586   2.320   1.733   3.392 -0.0100 -0.5018  0.1440
 6376SOL    HW130587   2.368   1.814   3.406  1.5427 -1.4893  0.4619
 6376SOL    HW230588   2.343   1.676   3.465  0.0125  0.3082  0.7736
 6377SOL     OW30589   4.052   2.449   3.393  0.2670 -0.2974  0.5775
 6377SOL    HW130590   4.137   2.476   3.428  1.1002  1.7354 -3.1110
 6377SOL    HW230591   3.994   2.483   3.462  0.1909 -0.5059  0.6154
 6378SOL     OW30592   4.126   2.891  15.388 -0.1666 -0.3817 -0.0521
 6378SOL    HW130593   4.113   2.822  15.453  0.8992  0.6665  1.2756
 6378SOL    HW230594   4.077   2.854  15.315 -1.2914  0.3940  0.3010
 6379SOL     OW30595   2.192   4.194   2.925  0.1127  0.0270  0.5734
 6379SOL    HW130596   2.274   4.159   2.892  0.4665  2.0720 -0.6806
 6379SOL    HW230597   2.211   4.182   3.019  0.6700  0.8297  0.5667
 6380SOL     OW30598   2.865   2.595   3.118 -0.5808 -0.1915 -0.3775
 6380SOL    HW130599   2.941   2.645   3.149  0.7493 -1.5166 -1.5018
 6380SOL    HW230600   2.801   2.664   3.101 -1.6958 -1.7336 -2.3854
 6381SOL     OW30601   2.057   3.339   3.731  0.0082  0.2451  0.1255
 6381SOL    HW130602   1.983   3.336   3.792 -0.3752  0.9392 -0.3065
 6381SOL    HW230603   2.074   3.429   3.704 -1.9198  0.7699  0.6328
 6382SOL     OW30604   2.713   3.380  17.066 -0.2055  0.2976  0.5247
 6382SOL    HW130605   2.645   3.346  17.007 -0.0731 -0.8855  1.0375
 6382SOL    HW230606   2.664   3.378  17.149  3.1175 -0.9485  2.4559
 6383SOL     OW30607   4.170   0.757  15.070  0.3853  0.0981  0.2355
 6383SOL    HW130608   4.213   0.820  15.013 -2.1125  2.7346  1.2698
 6383SOL    HW230609   4.149   0.698  14.998  3.2825 -0.3120 -0.2986
 6384SOL     OW30610   1.909   1.947   1.885 -0.4952  0.1509 -0.0923
 6384SOL    HW130611   1.924   2.022   1.943  0.0776  0.7754 -1.0341
 6384SOL    HW230612   1.862   1.884   1.939  1.2570  0.0268  1.2808
 6385SOL     OW30613   0.981   0.139   3.671  0.3305 -0.0717 -0.6203
 6385SOL    HW130614   0.928   0.096   3.604  0.1533  0.3656 -0.7678
 6385SOL    HW230615   0.945   0.109   3.754  2.7292 -0.1067  0.4189
 6386SOL     OW30616   1.255   3.147   0.114  0.1086 -0.2208  0.4099
 6386SOL    HW130617   1.261   3.239   0.142  0.5022 -0.3537  0.7650
 6386SOL    HW230618   1.189   3.124   0.179 -0.0700  0.3672  0.4381
 6387SOL     OW30619   2.849   3.225  16.317 -0.2865  0.0247  0.1776
 6387SOL    HW130620   2.871   3.134  16.332 -3.4394 -0.9901 -1.3751
 6387SOL    HW230621   2.911   3.264  16.380 -0.9376  1.7362 -0.2325
 6388SOL     OW30622   3.250   2.523  17.622  0.6071  0.5360  0.5869
 6388SOL    HW130623   3.341   2.554  17.616  0.7487 -0.0767 -0.5151
 6388SOL    HW230624   3.219   2.519  17.531  2.0242  2.5142  0.0000
 6389SOL     OW30625   0.207   4.009   2.701 -0.2562  0.1524  0.4242
 6389SOL    HW130626   0.210   4.000   2.797 -1.6983 -1.1473  0.3395
 6389SOL    HW230627   0.161   4.093   2.692 -0.4629  0.0065  0.1558
 6390SOL     OW30628   2.681   2.901  13.466 -0.2139  0.6539 -0.0284
 6390SOL    HW130629   2.604   2.897  13.409  0.2986  0.4369 -0.7055
 6390SOL    HW230630   2.745   2.946  13.411 -0.1656 -0.3481 -0.7955
 6391SOL     OW30631   4.253   4.642   0.409 -0.7204  0.3717  0.3027
 6391SOL    HW130632   4.337   4.665   0.371 -0.6675  0.0014  0.1994
 6391SOL    HW230633   4.294   4.590   0.478 -1.9528 -2.0946 -0.8071
 6392SOL     OW30634   2.716   3.121   6.899 -0.6121  0.2418  0.1870
 6392SOL    HW130635   2.705   3.204   6.944 -1.2063  0.2167  0.0822
 6392SOL    HW230636   2.684   3.133   6.810 -2.6590 -0.4500  0.8293
 6393SOL     OW30637   4.560   3.345   4.362  0.7849  0.1528 -0.1164
 6393SOL    HW130638   4.556   3.249   4.361 -1.8343  0.2822 -1.7270
 6393SOL    HW230639   4.502   3.371   4.290  0.6745  1.8725  0.6090
 6394SOL     OW30640   1.442   3.983  12.357  0.3262  0.1460  0.6171
 6394SOL    HW130641   1.410   4.046  12.293 -2.3163 -0.8349  1.0014
 6394SOL    HW230642   1.526   3.957  12.318  0.5437  0.9068  0.5743
 6395SOL     OW30643   1.306   3.790   7.155 -0.1028  0.3130  0.0595
 6395SOL    HW130644   1.312   3.749   7.068  1.1186  0.0536  0.2738
 6395SOL    HW230645   1.336   3.721   7.214  2.3969 -0.5378 -2.2150
 6396SOL     OW30646   3.345   4.326   3.329 -0.0753  0.7661 -0.7802
 6396SOL    HW130647   3.407   4.273   3.378  0.4081  1.1991 -0.9309
 6396SOL    HW230648   3.364   4.303   3.238 -0.4231 -1.0977 -0.3818
 6397SOL     OW30649   2.593   2.248   8.375  0.1040  0.8907  0.3066
 6397SOL    HW130650   2.596   2.336   8.412 -0.1501  0.7613  0.6379
 6397SOL    HW230651   2.684   2.222   8.385 -0.8026 -0.5858  4.4404
 6398SOL     OW30652   2.608   0.559   3.818 -0.0495  0.1878  0.0359
 6398SOL    HW130653   2.652   0.474   3.808 -0.6718  0.0383 -1.4900
 6398SOL    HW230654   2.667   0.621   3.776 -0.0617  1.2366  1.5753
 6399SOL     OW30655   1.958   0.924   5.934 -0.1442 -0.0303  0.3171
 6399SOL    HW130656   1.864   0.936   5.925  0.1178  0.7844 -1.3404
 6399SOL    HW230657   1.968   0.925   6.030 -1.3979  0.3335  0.4462
 6400SOL     OW30658   4.051   1.902  10.856  0.2653  0.1540 -0.2355
 6400SOL    HW130659   4.000   1.921  10.777 -3.6382  2.7036  2.8972
 6400SOL    HW230660   4.098   1.821  10.834  1.1542  0.7894 -0.6769
 6401SOL     OW30661   4.140   0.863  12.487 -0.4794 -0.5417 -0.6947
 6401SOL    HW130662   4.177   0.832  12.405  0.6573 -1.5452  0.1891
 6401SOL    HW230663   4.183   0.948  12.496  0.8375 -1.4348  1.3931
 6402SOL     OW30664   0.207   0.034   6.543  0.3639  0.1491  0.6289
 6402SOL    HW130665   0.244   4.668   6.531  0.3388  0.1139  0.8131
 6402SOL    HW230666   0.244   0.081   6.468 -2.0756 -1.2660 -1.4589
 6403SOL     OW30667   1.765   4.312   1.864  0.4793 -0.3630  0.0500
 6403SOL    HW130668   1.671   4.330   1.862  0.0842 -2.3778  0.6432
 6403SOL    HW230669   1.787   4.382   1.925  0.7414 -0.8454  0.5044
 6404SOL     OW30670   0.873   1.197   8.348  0.0322  1.0098 -0.4787
 6404SOL    HW130671   0.948   1.173   8.403  0.0535 -4.6151 -3.0315
 6404SOL    HW230672   0.812   1.234   8.411 -0.4119  0.4745 -0.6001
 6405SOL     OW30673   2.068   2.787   5.950 -0.3310  0.4488 -0.1245
 6405SOL    HW130674   2.010   2.843   6.002  0.3962  1.4248 -0.3617
 6405SOL    HW230675   2.155   2.817   5.974 -0.7684  0.4276  1.4967
 6406SOL     OW30676   0.221   2.245   8.128 -0.5265  0.3473 -0.1879
 6406SOL    HW130677   0.172   2.313   8.174  1.0392  2.0494 -1.0491
 6406SOL    HW230678   0.192   2.268   8.040 -0.2413  0.3730 -0.2744
 6407SOL     OW30679   2.779   1.303   9.157  0.4594  0.2122  0.0827
 6407SOL    HW130680   2.793   1.321   9.064 -1.5497  2.3872  0.2104
 6407SOL    HW230681   2.751   1.386   9.195  1.1033 -0.9891  3.1572
 6408SOL     OW30682   3.017   2.653   6.004 -0.3674 -0.1392  0.0460
 6408SOL    HW130683   3.000   2.713   5.932 -2.2765 -0.1424  0.4882
 6408SOL    HW230684   3.112   2.645   6.001 -0.5694 -2.0109 -2.1962
 6409SOL     OW30685   1.983   1.712   9.049  0.9275  0.4761 -0.2870
 6409SOL    HW130686   2.000   1.644   9.114  4.5833 -0.7017 -2.5028
 6409SOL    HW230687   2.072   1.727   9.017  0.5058  0.3484 -1.5294
 6410SOL     OW30688   3.459   0.675  16.776  0.2896 -0.6947  0.0123
 6410SOL    HW130689   3.451   0.595  16.828 -2.3864 -0.7042 -0.3749
 6410SOL    HW230690   3.368   0.704  16.770  0.7086 -0.5622 -5.1213
 6411SOL     OW30691   0.338   3.135   8.002 -0.7538 -0.7955  0.3429
 6411SOL    HW130692   0.289   3.210   7.970  0.4452 -0.3189 -0.3924
 6411SOL    HW230693   0.412   3.174   8.049 -1.6197  1.3270 -0.0674
 6412SOL     OW30694   4.343   1.291   4.330  0.2964  0.0804  0.0932
 6412SOL    HW130695   4.255   1.330   4.339  0.4022 -0.1599  2.1349
 6412SOL    HW230696   4.398   1.366   4.353 -1.3041  1.9577 -2.0560
 6413SOL     OW30697   1.419   3.987   6.767 -0.2593 -0.2230 -0.0039
 6413SOL    HW130698   1.389   4.061   6.713 -0.2736 -0.1617  0.0889
 6413SOL    HW230699   1.399   4.014   6.857 -1.5578  0.8505 -0.6056
 6414SOL     OW30700   0.527   2.246   7.027 -0.5363  0.1528  0.3332
 6414SOL    HW130701   0.614   2.284   7.021  0.1525 -1.6858 -1.2214
 6414SOL    HW230702   0.539   2.176   7.091  1.7407  1.1028  0.9325
 6415SOL     OW30703   3.156   2.088   3.755 -0.5111  0.4295 -0.8215
 6415SOL    HW130704   3.218   2.139   3.703 -0.8103  0.3276 -1.2803
 6415SOL    HW230705   3.133   2.011   3.704 -0.5019 -0.0128 -0.1493
 6416SOL     OW30706   2.632   3.121   6.646 -0.6307  0.1314  0.8732
 6416SOL    HW130707   2.604   3.080   6.565  0.4777 -2.3191  1.7289
 6416SOL    HW230708   2.717   3.153   6.614 -2.2265  1.3639 -2.0934
 6417SOL     OW30709   2.104   4.207  10.754  0.0412 -0.3010  0.1832
 6417SOL    HW130710   2.075   4.199  10.845  0.4328  4.3068  0.7485
 6417SOL    HW230711   2.023   4.177  10.714 -0.0201 -0.0535  0.1160
 6418SOL     OW30712   0.784   0.163  13.802 -0.3079 -0.0594 -0.0797
 6418SOL    HW130713   0.812   0.212  13.724  1.0305 -0.3704  0.2155
 6418SOL    HW230714   0.804   0.230  13.867  0.9567 -0.0904 -0.4237
 6419SOL     OW30715   0.392   2.826   1.662  0.4498  0.7013 -0.2289
 6419SOL    HW130716   0.301   2.856   1.664  0.1782  0.0105 -2.4499
 6419SOL    HW230717   0.394   2.748   1.606  0.4614 -1.2423  2.5331
 6420SOL     OW30718   4.435   4.313   4.936  0.0067  0.1365  0.0494
 6420SOL    HW130719   4.518   4.266   4.933 -0.1577  0.0151 -2.7717
 6420SOL    HW230720   4.466   4.381   4.996 -0.0994  0.9700 -0.8438
 6421SOL     OW30721   1.621   1.025   3.700  0.2410 -0.1288  0.1854
 6421SOL    HW130722   1.553   0.999   3.638 -0.0767  0.8098  0.1540
 6421SOL    HW230723   1.568   1.016   3.779  0.7367  1.1383  0.6546
 6422SOL     OW30724   3.885   0.370   2.280  0.1004 -0.1689  0.2349
 6422SOL    HW130725   3.828   0.380   2.204 -0.1581  0.0762  0.4576
 6422SOL    HW230726   3.946   0.308   2.241  0.7595  0.5064  0.1864
 6423SOL     OW30727   4.536   2.769   7.830  0.0554  0.1157 -0.0482
 6423SOL    HW130728   4.468   2.764   7.898 -0.6392 -0.9236 -0.8153
 6423SOL    HW230729   4.547   2.678   7.801  0.9924  0.6290 -1.2829
 6424SOL     OW30730   1.323   2.643   2.790  0.4908  0.7299  0.7572
 6424SOL    HW130731   1.388   2.572   2.788  0.3393  0.6192 -0.0487
 6424SOL    HW230732   1.251   2.601   2.837 -0.2558  1.6659  0.4360
 6425SOL     OW30733   3.969   1.320   2.709 -0.0284 -0.2390  0.5707
 6425SOL    HW130734   4.009   1.247   2.755  0.6476  0.8694  1.7417
 6425SOL    HW230735   4.047   1.366   2.679  0.2953 -0.4945  1.0341
 6426SOL     OW30736   2.760   4.093  16.016 -0.0188  0.1842  0.7948
 6426SOL    HW130737   2.809   4.150  16.074  2.3798  0.1545 -1.2152
 6426SOL    HW230738   2.695   4.160  15.993  1.1973  0.3534 -2.0700
 6427SOL     OW30739   0.455   4.423   2.614 -0.2534 -0.4830  0.4042
 6427SOL    HW130740   0.546   4.394   2.612  0.0733  0.6665 -2.8322
 6427SOL    HW230741   0.470   4.516   2.596  0.6235 -0.4868  1.1234
 6428SOL     OW30742   2.294   2.655  11.294 -0.4907  0.2957  0.2597
 6428SOL    HW130743   2.214   2.602  11.286 -2.0503  2.6167  0.5096
 6428SOL    HW230744   2.331   2.615  11.373 -0.1312 -0.8408 -0.4938
 6429SOL     OW30745   3.982   4.526   1.875 -0.3629 -0.1110 -0.5668
 6429SOL    HW130746   3.972   4.591   1.806  1.1387 -0.2363 -0.8957
 6429SOL    HW230747   3.889   4.511   1.893 -0.1330  0.1595  0.8709
 6430SOL     OW30748   2.191   2.865   2.379  0.0018  0.2009  0.2572
 6430SOL    HW130749   2.143   2.922   2.438  0.3740  0.4232  0.3411
 6430SOL    HW230750   2.242   2.926   2.327  2.0669 -0.2090  1.8202
 6431SOL     OW30751   4.703   2.490  10.912  0.2526  0.1225 -0.4258
 6431SOL    HW130752   0.024   2.576  10.912  0.2155  0.1408 -0.3641
 6431SOL    HW230753   4.645   2.495  10.988  0.0771  2.6007 -0.7171
 6432SOL     OW30754   0.048   3.910  16.824 -0.1597 -0.0364  0.5592
 6432SOL    HW130755   0.018   4.000  16.810  2.7226  1.1002  1.6485
 6432SOL    HW230756   0.059   3.912  16.919 -0.0479  0.1375  0.5436
 6433SOL     OW30757   4.160   1.166   2.479  0.4337  0.2981 -0.1685
 6433SOL    HW130758   4.094   1.100   2.458  0.3252 -0.0725  1.4064
 6433SOL    HW230759   4.226   1.128   2.536  1.4283  0.8264 -0.9787
 6434SOL     OW30760   2.503   0.067  16.175 -0.5105  0.3380 -0.2712
 6434SOL    HW130761   2.419   0.111  16.162 -0.9895 -0.3166  0.5896
 6434SOL    HW230762   2.552   0.144  16.202 -1.9958  0.2698  2.5818
 6435SOL     OW30763   1.363   0.382   9.728  0.0758  0.1170  0.0881
 6435SOL    HW130764   1.437   0.372   9.787  0.2633 -1.2112 -0.3773
 6435SOL    HW230765   1.418   0.358   9.653 -1.1125 -1.2847 -0.3371
 6436SOL     OW30766   4.092   0.300  16.122  0.2607 -0.0682 -0.1077
 6436SOL    HW130767   4.044   0.232  16.074 -0.7667 -0.3199  1.2840
 6436SOL    HW230768   4.157   0.333  16.060 -0.3528 -3.7363 -2.6854
 6437SOL     OW30769   0.533   1.648   6.721  0.0555 -0.6909  0.1872
 6437SOL    HW130770   0.455   1.676   6.768 -0.3127 -1.8067  0.2173
 6437SOL    HW230771   0.574   1.598   6.791 -1.5450 -0.8160  1.0404
 6438SOL     OW30772   0.508   3.024   2.873  0.1727 -0.1411 -0.2952
 6438SOL    HW130773   0.427   3.048   2.918 -0.1190 -0.8157 -0.4653
 6438SOL    HW230774   0.464   2.983   2.798  1.6948 -1.0022 -0.7115
 6439SOL     OW30775   0.116   1.045   2.111  0.3558  0.3362 -0.0578
 6439SOL    HW130776   0.191   1.083   2.066 -0.2428  1.7968  0.1813
 6439SOL    HW230777   0.095   1.122   2.164  0.2070 -0.0712  0.4785
 6440SOL     OW30778   1.309   3.932  16.550 -0.2659  0.3402  0.2410
 6440SOL    HW130779   1.354   3.897  16.474 -0.6592  1.0449 -0.3159
 6440SOL    HW230780   1.386   3.967  16.595 -0.8355  2.5434 -0.4963
 6441SOL     OW30781   4.102   3.679  10.876 -0.0331 -0.2211  0.4744
 6441SOL    HW130782   4.153   3.599  10.876  0.4092  0.0614  0.6905
 6441SOL    HW230783   4.075   3.686  10.967 -1.2554 -2.2470  0.2667
 6442SOL     OW30784   3.277   3.995   1.026 -0.6661  0.0708 -0.1262
 6442SOL    HW130785   3.184   3.985   1.006 -0.6171  1.1606 -0.9203
 6442SOL    HW230786   3.304   3.906   1.045 -0.8795  0.0967  0.3045
 6443SOL     OW30787   0.447   1.816  14.669  0.1114  0.0774 -0.0284
 6443SOL    HW130788   0.399   1.734  14.659 -1.0395  0.8915 -1.1680
 6443SOL    HW230789   0.462   1.847  14.580 -0.2559 -2.7492 -1.0872
 6444SOL     OW30790   2.473   1.478   8.144  0.4330 -0.0608 -0.4860
 6444SOL    HW130791   2.492   1.415   8.074 -2.1806 -1.3021 -0.0848
 6444SOL    HW230792   2.539   1.449   8.207  1.3506 -1.5874 -2.1412
 6445SOL     OW30793   3.737   4.350   8.464 -0.0908  0.4466  0.2029
 6445SOL    HW130794   3.802   4.304   8.516  1.4160  3.7193  1.2050
 6445SOL    HW230795   3.681   4.375   8.537 -1.9159  3.1879 -2.1161
 6446SOL     OW30796   2.451   3.385   5.101  0.2863 -0.5697  0.1824
 6446SOL    HW130797   2.423   3.473   5.126  1.6304 -0.3012  0.7965
 6446SOL    HW230798   2.472   3.394   5.008  0.9704 -0.0889  0.3784
 6447SOL     OW30799   2.331   2.132  10.641  0.1016 -0.3923  0.0303
 6447SOL    HW130800   2.326   2.123  10.736 -0.7114  2.7091  0.2885
 6447SOL    HW230801   2.348   2.226  10.630  0.8301 -0.6752 -1.2890
 6448SOL     OW30802   0.080   2.371  12.553 -0.3610  0.6332 -0.1582
 6448SOL    HW130803   0.023   2.409  12.487 -0.5090 -0.3577 -0.6067
 6448SOL    HW230804   0.086   2.446  12.611  0.6546 -1.0583  1.9230
 6449SOL     OW30805   4.326   2.729   6.182 -0.5215  0.0863 -0.2237
 6449SOL    HW130806   4.265   2.794   6.218  1.1277  0.1147  2.5388
 6449SOL    HW230807   4.273   2.650   6.170 -1.5874  0.9790 -1.3867
 6450SOL     OW30808   3.053   0.334   6.784  0.0126  0.3681 -0.2303
 6450SOL    HW130809   3.139   0.346   6.825 -0.6438  1.5100  0.8032
 6450SOL    HW230810   3.008   0.280   6.850 -2.3288  0.9842 -1.3345
 6451SOL     OW30811   1.480   1.853   4.732 -0.1722 -0.0081 -0.2621
 6451SOL    HW130812   1.435   1.920   4.680  0.4120 -0.0003 -0.7574
 6451SOL    HW230813   1.574   1.864   4.717 -0.3656 -0.6525 -1.9693
 6452SOL     OW30814   0.852   2.055   2.382  0.1840  0.2312 -0.0006
 6452SOL    HW130815   0.799   1.984   2.346 -1.4886  1.4296  0.0539
 6452SOL    HW230816   0.916   2.008   2.434  0.8920 -0.1467 -1.2274
 6453SOL     OW30817   4.177   0.619   7.488  0.2437 -0.5601 -0.2699
 6453SOL    HW130818   4.127   0.566   7.549 -0.2039 -0.2094 -0.3304
 6453SOL    HW230819   4.112   0.683   7.460  1.0249 -0.5932 -2.1598
 6454SOL     OW30820   1.225   4.187   2.167 -0.0812 -0.3034  0.0538
 6454SOL    HW130821   1.160   4.200   2.098 -0.2749  1.0434  0.4957
 6454SOL    HW230822   1.188   4.134   2.238  1.0379 -0.0621  0.8280
 6455SOL     OW30823   1.657   2.705  12.026 -0.2985  0.0654  0.2776
 6455SOL    HW130824   1.666   2.610  12.034  2.5936  0.5577  2.9763
 6455SOL    HW230825   1.620   2.714  11.938 -0.3301 -1.8055  0.0851
 6456SOL     OW30826   0.593   4.116   8.593  0.3807  0.0862  0.2756
 6456SOL    HW130827   0.583   4.098   8.686 -0.2243 -1.8343 -0.1613
 6456SOL    HW230828   0.514   4.079   8.553  1.0426 -0.8744 -0.1461
 6457SOL     OW30829   3.428   3.908   2.318 -0.2578  0.6668 -0.1128
 6457SOL    HW130830   3.425   3.965   2.241  2.4312 -1.7201 -2.0330
 6457SOL    HW230831   3.346   3.860   2.319 -0.2770  0.6737 -0.8513
 6458SOL     OW30832   2.843   0.672   2.221  0.0436 -0.5881  0.4297
 6458SOL    HW130833   2.924   0.689   2.173  0.5552  2.3550  2.3498
 6458SOL    HW230834   2.838   0.578   2.202 -0.9912 -0.9108  2.2994
 6459SOL     OW30835   0.048   4.592  13.961 -0.7977 -0.0295  0.1404
 6459SOL    HW130836   0.026   4.572  14.052  2.0891  0.9250  1.0634
 6459SOL    HW230837   0.111   4.521  13.952 -1.2112 -0.1862 -1.6176
 6460SOL     OW30838   0.725   1.531   5.046  0.1176  0.1883 -0.4159
 6460SOL    HW130839   0.687   1.458   4.997 -2.0274  0.3943  0.9148
 6460SOL    HW230840   0.752   1.589   4.974  0.3523  2.0624  1.1695
 6461SOL     OW30841   2.242   3.469   0.658  0.4012  0.2339  0.0400
 6461SOL    HW130842   2.226   3.438   0.569 -0.4604  0.6428  0.0462
 6461SOL    HW230843   2.337   3.472   0.657  0.3303  2.1594 -0.8831
 6462SOL     OW30844   3.461   2.354   4.142  0.3828  0.0040  0.5454
 6462SOL    HW130845   3.525   2.285   4.127  0.4579  0.1887  0.0080
 6462SOL    HW230846   3.381   2.305   4.125  1.6503 -1.4312 -1.2025
 6463SOL     OW30847   1.245   1.115  11.119 -0.3792 -0.1360  0.4870
 6463SOL    HW130848   1.337   1.091  11.125  0.2094  1.6251 -1.4268
 6463SOL    HW230849   1.247   1.210  11.103  0.5924 -0.3959 -0.9406
 6464SOL     OW30850   1.512   1.147   1.352 -0.3536 -0.0549 -0.4339
 6464SOL    HW130851   1.513   1.075   1.415  1.6200  2.3413  2.2665
 6464SOL    HW230852   1.598   1.186   1.365 -1.0834  2.1271 -2.3284
 6465SOL     OW30853   1.751   2.375  16.684 -0.1855 -0.3381  0.0559
 6465SOL    HW130854   1.690   2.434  16.730  1.2444  1.6676 -0.6531
 6465SOL    HW230855   1.827   2.392  16.740 -0.5374  0.1791  0.3789
 6466SOL     OW30856   1.444   3.631  11.656  0.3429 -0.4110  0.1635
 6466SOL    HW130857   1.419   3.669  11.572 -0.4034 -1.3703 -0.0531
 6466SOL    HW230858   1.378   3.680  11.706 -0.7138 -1.1858 -0.4487
 6467SOL     OW30859   1.285   1.583   9.838 -0.3132  0.0045  0.1437
 6467SOL    HW130860   1.288   1.489   9.821  0.1336  0.2047 -0.8954
 6467SOL    HW230861   1.346   1.605   9.768  0.5167 -3.1033 -0.0970
 6468SOL     OW30862   2.551   2.431   3.520  0.3499 -0.1379  0.8751
 6468SOL    HW130863   2.509   2.412   3.604 -1.4183 -0.0077  0.0223
 6468SOL    HW230864   2.564   2.526   3.515 -2.3185  0.1745  0.0342
 6469SOL     OW30865   0.254   3.191   2.452  0.1047  0.2743 -0.1903
 6469SOL    HW130866   0.201   3.270   2.438  0.2816 -0.0030 -2.4817
 6469SOL    HW230867   0.333   3.236   2.483 -1.0682  1.4594  1.0574
 6470SOL     OW30868   3.771   3.206   1.775  0.0712 -0.3505  0.2408
 6470SOL    HW130869   3.805   3.258   1.702 -1.8155  0.0922 -0.3289
 6470SOL    HW230870   3.687   3.253   1.783 -0.7932 -1.9060  0.2268
 6471SOL     OW30871   2.949   0.470   5.850 -0.3799  0.1180  0.0463
 6471SOL    HW130872   2.911   0.516   5.925  1.2414  0.5743  0.5785
 6471SOL    HW230873   2.952   0.380   5.884  1.1628  0.2859  0.3613
 6472SOL     OW30874   1.982   1.480   3.508  0.4088 -0.4746 -0.0431
 6472SOL    HW130875   2.043   1.406   3.512  0.5794 -0.3308  0.0074
 6472SOL    HW230876   2.018   1.520   3.428  1.4262  2.0995  1.7283
 6473SOL     OW30877   1.544   2.570   8.793 -0.4750  0.4362 -0.7816
 6473SOL    HW130878   1.497   2.622   8.728  1.2586 -0.1237 -2.4769
 6473SOL    HW230879   1.479   2.559   8.862 -2.0809 -2.9265 -2.8513
 6474SOL     OW30880   3.613   3.516   1.196  0.3557 -0.5005  0.1005
 6474SOL    HW130881   3.632   3.437   1.146  0.9463  0.6889 -1.5446
 6474SOL    HW230882   3.608   3.476   1.283 -0.0793 -0.1008  0.2618
 6475SOL     OW30883   0.146   1.403   6.155 -0.3534  0.3047 -0.2727
 6475SOL    HW130884   0.232   1.438   6.180 -0.2785  1.7930 -2.6148
 6475SOL    HW230885   0.163   1.359   6.072 -1.1036 -0.5812  0.0533
 6476SOL     OW30886   0.279   4.509   8.432 -0.4146  0.9719 -0.6169
 6476SOL    HW130887   0.287   4.502   8.527 -1.8450  2.2000 -0.4043
 6476SOL    HW230888   0.215   4.439   8.419  1.2154 -0.6995  0.2857
 6477SOL     OW30889   1.153   4.132  12.564  0.6911 -0.2765  0.1275
 6477SOL    HW130890   1.219   4.071  12.597 -0.0975 -0.6480  1.0306
 6477SOL    HW230891   1.102   4.084  12.499 -0.0238  1.6697 -0.7384
 6478SOL     OW30892   2.291   1.142   5.070  0.2696 -0.0254  0.5227
 6478SOL    HW130893   2.349   1.169   5.141  0.1857 -1.1118  1.0089
 6478SOL    HW230894   2.215   1.109   5.119 -0.9839  1.1738 -0.5961
 6479SOL     OW30895   1.058   2.589  11.171 -0.3353 -0.7026 -0.8548
 6479SOL    HW130896   1.123   2.659  11.162 -3.4885  2.3189  0.0396
 6479SOL    HW230897   0.981   2.645  11.181  1.1790  1.0357  0.9437
 6480SOL     OW30898   4.703   0.997  12.817 -0.3782 -0.0535  0.4638
 6480SOL    HW130899   4.672   0.959  12.899 -2.3402 -0.7748 -0.6047
 6480SOL    HW230900   0.076   1.006  12.831 -0.7488  2.5681  1.3048
 6481SOL     OW30901   0.880   0.561   1.231  0.1767 -0.1731 -0.2445
 6481SOL    HW130902   0.958   0.513   1.257  0.8097  1.3412  0.6947
 6481SOL    HW230903   0.853   0.526   1.146  0.9072  0.1965 -0.6276
 6482SOL     OW30904   0.920   1.403   5.526  0.5480  0.3646  0.2763
 6482SOL    HW130905   0.834   1.422   5.565  0.2743 -1.4955  0.5946
 6482SOL    HW230906   0.926   1.469   5.457  1.2016  0.2622  0.2356
 6483SOL     OW30907   0.091   1.278   6.528 -0.6935  0.1153 -0.0619
 6483SOL    HW130908   0.112   1.203   6.473 -1.1292  0.5722 -0.8360
 6483SOL    HW230909   0.179   1.306   6.554 -1.7286  2.3851  1.0394
 6484SOL     OW30910   2.056   1.544  12.066  0.2124  0.4070  0.5146
 6484SOL    HW130911   1.995   1.593  12.122 -0.8017  0.9119 -1.0426
 6484SOL    HW230912   2.133   1.601  12.067  1.0212 -0.7071  1.2293
 6485SOL     OW30913   0.443   3.575   4.602 -0.5883 -0.2283 -0.3835
 6485SOL    HW130914   0.396   3.515   4.660  0.0892  0.1075  0.5071
 6485SOL    HW230915   0.526   3.587   4.648 -0.7792  1.2319 -0.4145
 6486SOL     OW30916   0.574   0.869  11.527  0.2914 -0.3421 -0.6147
 6486SOL    HW130917   0.490   0.885  11.484  0.4088 -0.0004 -0.7241
 6486SOL    HW230918   0.618   0.954  11.531  0.4658 -0.4764  0.3582
 6487SOL     OW30919   1.631   4.327   7.348 -0.0131  0.1970  0.1606
 6487SOL    HW130920   1.548   4.279   7.351  0.9307 -1.3674  0.8773
 6487SOL    HW230921   1.632   4.374   7.264  1.0528 -1.1342 -0.5734
 6488SOL     OW30922   1.371   3.812   5.669 -0.2361  0.5746 -0.0895
 6488SOL    HW130923   1.300   3.874   5.654 -1.3341 -0.3142  1.3404
 6488SOL    HW230924   1.422   3.856   5.602 -0.0790  0.3831 -0.0961
 6489SOL     OW30925   4.665   1.039   4.865  0.8748  0.1347 -0.0016
 6489SOL    HW130926   4.711   1.057   4.947  0.5734 -2.0667  0.6358
 6489SOL    HW230927   4.685   0.949   4.841 -1.4861  0.0786 -1.7957
 6490SOL     OW30928   0.860   0.435   5.966 -0.2068 -0.3043 -0.0871
 6490SOL    HW130929   0.880   0.383   6.044 -1.8740  0.5626  0.9229
 6490SOL    HW230930   0.809   0.508   6.002 -0.3907 -1.1785  1.4185
 6491SOL     OW30931   3.423   0.460   4.149  0.8404  0.5071  0.1220
 6491SOL    HW130932   3.407   0.505   4.232  2.6725  0.9027  0.2615
 6491SOL    HW230933   3.435   0.535   4.090 -0.7541  0.6738  0.0047
 6492SOL     OW30934   4.485   0.287  11.388  0.4734  0.1333 -0.3487
 6492SOL    HW130935   4.457   0.316  11.474 -1.5448 -0.7975 -0.6989
 6492SOL    HW230936   4.430   0.209  11.379  0.3269  0.2534 -0.4706
 6493SOL     OW30937   0.619   0.465   4.139 -0.2010  0.1663  0.3518
 6493SOL    HW130938   0.526   0.486   4.132 -0.2093  0.0282  0.0597
 6493SOL    HW230939   0.634   0.438   4.230 -2.5255  0.0021  0.6714
 6494SOL     OW30940   3.818   1.627   5.137  0.4976 -0.4447 -0.4061
 6494SOL    HW130941   3.845   1.715   5.111  4.3751 -0.4145  3.7094
 6494SOL    HW230942   3.737   1.626   5.085  0.9773 -1.0255 -1.1363
 6495SOL     OW30943   0.768   2.507   9.278  0.8205 -0.1106 -0.2237
 6495SOL    HW130944   0.775   2.492   9.372  0.8419 -0.6506 -0.3105
 6495SOL    HW230945   0.740   2.421   9.246 -2.4401  1.0336 -0.3962
 6496SOL     OW30946   3.335   0.570  13.247 -0.6881 -0.3109 -0.1018
 6496SOL    HW130947   3.297   0.498  13.297 -1.5125  0.2835  0.1385
 6496SOL    HW230948   3.430   0.555  13.246 -0.5404  0.6491 -0.6692
 6497SOL     OW30949   0.751   3.629   9.525 -0.6977 -0.2045 -0.4312
 6497SOL    HW130950   0.783   3.697   9.466 -3.7539  1.1156 -0.5382
 6497SOL    HW230951   0.683   3.672   9.577 -0.8845 -1.3471  0.2614
 6498SOL     OW30952   0.681   2.912   1.564 -0.3379 -0.1684 -0.2852
 6498SOL    HW130953   0.694   2.914   1.470  0.9399 -0.3071 -0.1111
 6498SOL    HW230954   0.593   2.874   1.565  0.0309 -1.0169 -0.1224
 6499SOL     OW30955   1.562   4.509  10.539  0.1031  0.4132 -0.3272
 6499SOL    HW130956   1.535   4.550  10.620 -0.6839  2.4521 -1.6147
 6499SOL    HW230957   1.656   4.497  10.552  0.2159  0.1769 -1.3241
 6500SOL     OW30958   2.671   3.802  14.193 -0.1491 -0.0305 -0.1363
 6500SOL    HW130959   2.641   3.713  14.211  0.7403 -0.3191 -0.1074
 6500SOL    HW230960   2.589   3.850  14.181 -0.2193 -0.4152 -1.2111
 6501SOL     OW30961   3.091   4.483   7.980  0.3050  0.2484  0.5284
 6501SOL    HW130962   3.074   4.412   8.042  0.8058  0.2116  0.6200
 6501SOL    HW230963   3.156   4.535   8.028  1.8767 -1.5530  0.3300
 6502SOL     OW30964   1.072   2.791   4.065  0.5844  0.1155  0.1293
 6502SOL    HW130965   1.090   2.709   4.110 -0.0877 -0.5168 -0.7615
 6502SOL    HW230966   1.104   2.771   3.977  1.9024 -3.4981  1.4659
 6503SOL     OW30967   4.164   2.184   0.439 -0.1810  0.2308  0.5346
 6503SOL    HW130968   4.098   2.127   0.399 -0.2491  0.5566  0.1851
 6503SOL    HW230969   4.238   2.125   0.451 -0.2167  0.0026 -0.3818
 6504SOL     OW30970   0.150   4.089   4.479 -0.1597 -0.0612 -0.0676
 6504SOL    HW130971   0.164   4.001   4.444 -1.1933 -0.4468  0.4832
 6504SOL    HW230972   0.054   4.093   4.476 -0.1515  0.4744  0.3219
 6505SOL     OW30973   4.629   3.337  15.894 -0.3179 -0.1861  0.6258
 6505SOL    HW130974   4.598   3.323  15.805  1.6339 -0.8944  0.0759
 6505SOL    HW230975   4.571   3.284  15.949 -0.5083 -1.8610 -1.1912
 6506SOL     OW30976   4.359   1.875   7.502 -0.2966 -0.5331 -0.1934
 6506SOL    HW130977   4.424   1.808   7.522  0.0616 -0.2472 -0.4009
 6506SOL    HW230978   4.400   1.945   7.553  0.9796 -1.4283 -0.0097
 6507SOL     OW30979   0.749   3.680   5.889  0.1515 -0.1609 -0.4898
 6507SOL    HW130980   0.797   3.642   5.962 -0.4796 -4.1559 -2.1717
 6507SOL    HW230981   0.795   3.685   5.805 -0.2474 -0.2253 -0.7157
 6508SOL     OW30982   0.914   0.797  11.291 -0.0070 -0.2719  0.1373
 6508SOL    HW130983   0.850   0.727  11.276 -1.3367  1.4230 -1.9973
 6508SOL    HW230984   0.897   0.821  11.383 -0.2744 -0.2992  0.0944
 6509SOL     OW30985   3.379   1.727   1.131 -0.4422  0.4679  0.2517
 6509SOL    HW130986   3.328   1.735   1.050  0.0259  2.4940  0.1475
 6509SOL    HW230987   3.450   1.672   1.098  1.0121  1.2106  2.1866
 6510SOL     OW30988   3.353   1.109   7.257  0.0265  0.6472 -0.5165
 6510SOL    HW130989   3.323   1.071   7.175 -1.9483 -1.6712  1.2910
 6510SOL    HW230990   3.271   1.133   7.301  0.3547  0.0501  0.4215
 6511SOL     OW30991   1.741   4.586   1.422  0.1576  0.0505 -0.1659
 6511SOL    HW130992   1.823   4.570   1.467  1.0884  1.1190 -1.4683
 6511SOL    HW230993   1.767   4.553   1.336  0.2864  0.7794 -0.4061
 6512SOL     OW30994   0.836   4.682  17.589 -0.4200  0.4088 -0.6687
 6512SOL    HW130995   0.863   4.666  17.680 -1.3926  2.2179 -0.0676
 6512SOL    HW230996   0.876   4.602  17.554  1.2499  1.3515 -0.8915
 6513SOL     OW30997   2.745   1.116   5.823 -0.6875 -0.4434 -0.2084
 6513SOL    HW130998   2.691   1.129   5.901  1.0133 -1.2164  1.0828
 6513SOL    HW230999   2.671   1.086   5.771  0.3313 -0.5562 -1.5987
 6514SOL     OW31000   1.461   0.331   9.088 -0.0090 -0.2036 -0.5391
 6514SOL    HW131001   1.436   0.299   9.001 -0.3878 -1.8492  0.1722
 6514SOL    HW231002   1.373   0.364   9.109  0.7429  0.3024  1.7878
 6515SOL     OW31003   0.329   1.664   2.955 -0.0348  0.4582  0.0246
 6515SOL    HW131004   0.288   1.598   2.899 -1.0131 -0.2846  1.6013
 6515SOL    HW231005   0.323   1.607   3.033 -0.7739 -1.6694 -1.5935
 6516SOL     OW31006   0.522   2.255   3.980 -0.6827 -0.2166  0.7073
 6516SOL    HW131007   0.544   2.333   4.031  0.0005  0.5096 -0.7145
 6516SOL    HW231008   0.607   2.212   3.974  1.1721  3.4283  0.8422
 6517SOL     OW31009   2.254   0.167   1.381  0.5094 -0.0999 -0.4294
 6517SOL    HW131010   2.278   0.260   1.381  1.4276 -0.3419 -1.4469
 6517SOL    HW231011   2.334   0.132   1.341  0.5488 -0.5990  0.0863
 6518SOL     OW31012   3.686   2.215   0.402 -0.7316 -0.6230 -0.2540
 6518SOL    HW131013   3.767   2.210   0.452 -0.7481 -0.7930 -0.2442
 6518SOL    HW231014   3.714   2.197   0.312 -2.1982 -0.8013 -0.6776
 6519SOL     OW31015   0.126   2.476  10.521 -1.1347 -0.1024  0.5520
 6519SOL    HW131016   0.125   2.417  10.446 -0.1759  0.9823 -0.3116
 6519SOL    HW231017   0.221   2.486  10.519 -1.1899  0.5513  1.2899
 6520SOL     OW31018   4.024   4.650  16.968 -0.2398 -0.0604  0.2839
 6520SOL    HW131019   3.957   4.651  16.900  0.2936  3.0303 -0.2236
 6520SOL    HW231020   4.054   0.020  16.967  2.2159 -0.8539  0.8554
 6521SOL     OW31021   2.517   1.942  16.032 -0.2206  0.0759 -0.5307
 6521SOL    HW131022   2.445   1.885  16.005 -1.5649  1.3084  0.4071
 6521SOL    HW231023   2.464   2.022  16.027 -0.4286 -0.1161 -1.4574
 6522SOL     OW31024   0.664   1.194  16.332  0.1348 -0.0392 -0.8979
 6522SOL    HW131025   0.651   1.136  16.257  1.5730 -3.3685  1.4495
 6522SOL    HW231026   0.592   1.257  16.331 -1.9364 -2.3949 -1.7375
 6523SOL     OW31027   3.445   1.913  14.149 -0.5285 -0.4668  0.6083
 6523SOL    HW131028   3.499   1.980  14.107 -1.0336 -0.5758 -0.2157
 6523SOL    HW231029   3.411   1.871  14.069  0.6819 -1.2162  0.4805
 6524SOL     OW31030   0.569   0.478  14.210 -0.5935 -0.4544 -0.1668
 6524SOL    HW131031   0.579   0.478  14.115  0.2938  1.7576 -0.0672
 6524SOL    HW231032   0.541   0.389  14.233 -0.9922 -0.2744  0.0457
 6525SOL     OW31033   2.492   3.407   8.635  0.3536 -0.4103  0.0594
 6525SOL    HW131034   2.470   3.320   8.668 -0.3111  0.2776  1.4619
 6525SOL    HW231035   2.587   3.413   8.640  0.4131  0.9581 -2.6211
 6526SOL     OW31036   2.510   1.219   6.583 -0.3114 -0.4008 -0.3146
 6526SOL    HW131037   2.601   1.226   6.609 -0.3967  2.8135 -0.9207
 6526SOL    HW231038   2.470   1.254   6.663 -1.5973 -0.0669 -1.1061
 6527SOL     OW31039   4.050   0.423   5.658 -0.0859 -0.0636 -0.6215
 6527SOL    HW131040   3.975   0.415   5.717  1.0027 -1.2122  0.6205
 6527SOL    HW231041   4.068   0.329   5.665  0.7556  0.2125  1.1240
 6528SOL     OW31042   2.356   4.203   4.681  0.1274  0.7196 -0.4423
 6528SOL    HW131043   2.351   4.180   4.588 -4.1774  1.2533 -0.3370
 6528SOL    HW231044   2.314   4.290   4.687  0.0610  0.7269 -1.0199
 6529SOL     OW31045   2.902   4.396   6.752 -0.1895 -0.7260 -0.1733
 6529SOL    HW131046   2.928   4.371   6.841 -1.8717 -0.2713  0.4463
 6529SOL    HW231047   2.889   4.309   6.714 -1.3057  0.1995 -1.8814
 6530SOL     OW31048   2.680   3.132   7.242  0.3977 -0.1230 -0.2325
 6530SOL    HW131049   2.602   3.113   7.294  0.8653 -0.8309  0.2065
 6530SOL    HW231050   2.728   3.050   7.243 -2.5063 -1.8413 -2.7128
 6531SOL     OW31051   3.083   1.781   7.816  0.0476 -0.3960 -0.0575
 6531SOL    HW131052   3.029   1.755   7.742  0.9296  0.2935 -0.9413
 6531SOL    HW231053   3.170   1.766   7.781 -0.2190 -0.4630 -0.6868
 6532SOL     OW31054   3.704   0.498   2.077 -0.3574  0.3150  0.1955
 6532SOL    HW131055   3.638   0.470   2.014  1.1197  0.5903 -1.4747
 6532SOL    HW231056   3.648   0.496   2.155  1.2896 -1.0421  1.3311
 6533SOL     OW31057   1.638   1.665   5.375 -0.1032  0.8752 -0.0620
 6533SOL    HW131058   1.651   1.575   5.403  2.3994  1.4759  0.7611
 6533SOL    HW231059   1.696   1.676   5.299  2.7293 -2.9900  1.5165
 6534SOL     OW31060   1.596   3.636  12.419 -0.4014  0.7612 -0.1412
 6534SOL    HW131061   1.635   3.697  12.482 -1.5559  1.0534  0.2809
 6534SOL    HW231062   1.668   3.614  12.359 -0.5427  0.8214 -0.3344
 6535SOL     OW31063   2.920   4.081   4.484 -0.6318  0.2907  0.2881
 6535SOL    HW131064   2.951   3.990   4.489  0.2057  0.4998 -1.0010
 6535SOL    HW231065   2.980   4.114   4.551 -1.7586  0.2781  1.3033
 6536SOL     OW31066   3.416   1.871  13.333  0.4531  0.1477 -0.2722
 6536SOL    HW131067   3.454   1.959  13.326 -0.5609  0.6970  1.0560
 6536SOL    HW231068   3.390   1.873  13.425 -2.8901  1.1722 -1.2395
 6537SOL     OW31069   1.877   1.584   4.194  0.1360  0.1039 -0.1992
 6537SOL    HW131070   1.830   1.667   4.184 -2.4201 -1.5451 -1.9974
 6537SOL    HW231071   1.812   1.514   4.184  0.0566 -0.0232  1.1801
 6538SOL     OW31072   3.642   3.151   6.369 -0.7546  0.2960 -0.7030
 6538SOL    HW131073   3.592   3.221   6.412 -0.8389 -1.2173  1.6367
 6538SOL    HW231074   3.601   3.153   6.283 -1.3615  3.7633 -0.3516
 6539SOL     OW31075   0.459   2.016  10.471 -0.0784 -0.2776 -0.4300
 6539SOL    HW131076   0.386   2.050  10.523 -0.8893  1.9232 -3.0050
 6539SOL    HW231077   0.474   1.935  10.520  3.4228  0.1504 -0.8283
 6540SOL     OW31078   4.330   2.664   2.141  0.3723  0.3854  0.1790
 6540SOL    HW131079   4.387   2.605   2.091 -0.4604 -0.2381 -0.0470
 6540SOL    HW231080   4.308   2.730   2.076  2.8052  0.2482 -0.8064
 6541SOL     OW31081   3.323   2.246   8.154  0.2256 -0.5155 -0.0216
 6541SOL    HW131082   3.397   2.233   8.213  0.1511 -0.4123  0.0955
 6541SOL    HW231083   3.315   2.154   8.130 -0.7334 -0.6704  0.8857
 6542SOL     OW31084   3.690   0.556   3.603  0.0488  0.2664 -0.3400
 6542SOL    HW131085   3.667   0.495   3.533 -0.9618  1.4255 -1.0119
 6542SOL    HW231086   3.715   0.632   3.552  1.6466  0.9690  1.4829
 6543SOL     OW31087   3.061   0.482   0.092  0.0923 -0.2477 -0.5732
 6543SOL    HW131088   2.995   0.484   0.161  0.2885  1.0149 -0.4166
 6543SOL    HW231089   3.103   0.568   0.085  1.0885 -0.8048 -1.4312
 6544SOL     OW31090   0.716   1.321  15.757 -0.2050  0.5697 -0.1281
 6544SOL    HW131091   0.689   1.411  15.771 -0.6496  0.3991  0.0964
 6544SOL    HW231092   0.712   1.290  15.847 -0.3842 -0.8117 -0.6122
 6545SOL     OW31093   1.710   1.611  16.568  0.0989  0.0867  0.0230
 6545SOL    HW131094   1.770   1.549  16.610  0.1197 -1.4319 -2.3217
 6545SOL    HW231095   1.685   1.575  16.484 -0.5456  3.0390 -1.0518
 6546SOL     OW31096   2.549   1.680   3.180  0.1252 -0.4312 -0.3247
 6546SOL    HW131097   2.494   1.726   3.117 -0.7128 -1.6473 -0.4681
 6546SOL    HW231098   2.479   1.622   3.207  2.7680 -2.8439  1.4001
 6547SOL     OW31099   3.367   0.574   3.302 -0.0702 -0.1391 -0.6371
 6547SOL    HW131100   3.294   0.611   3.253 -0.9504  0.4527  1.1305
 6547SOL    HW231101   3.370   0.625   3.383  1.7389 -1.5198  0.1737
 6548SOL     OW31102   1.208   1.129   2.081 -0.0043  0.0812 -0.3691
 6548SOL    HW131103   1.124   1.106   2.040  0.2790  1.1394 -1.5490
 6548SOL    HW231104   1.261   1.057   2.046  2.9309  0.8446  2.5386
 6549SOL     OW31105   0.257   0.139   2.475  0.1509  0.0403 -0.1557
 6549SOL    HW131106   0.253   0.046   2.456  0.6599  0.0672 -0.3775
 6549SOL    HW231107   0.167   0.149   2.506  1.0067  0.6473  2.1085
 6550SOL     OW31108   3.072   1.814   5.958 -0.3829 -0.5653 -0.3164
 6550SOL    HW131109   2.991   1.799   5.909 -1.3680  0.2184  1.0615
 6550SOL    HW231110   3.037   1.847   6.041 -1.8467 -0.9178 -0.7878
 6551SOL     OW31111   4.718   1.463  17.350 -0.4243 -0.1185 -0.0589
 6551SOL    HW131112   4.714   1.436  17.442 -0.4814 -2.3403 -0.7278
 6551SOL    HW231113   4.629   1.447  17.317 -1.4877  1.5266  1.9725
 6552SOL     OW31114   3.139   3.355   9.534 -0.1702  0.0587  0.2127
 6552SOL    HW131115   3.153   3.315   9.620 -0.2533 -2.6969 -1.0541
 6552SOL    HW231116   3.230   3.365   9.507 -0.2986 -1.4706 -0.7704
 6553SOL     OW31117   1.076   1.184   5.939 -0.2878 -0.0071  1.0047
 6553SOL    HW131118   1.069   1.277   5.963 -0.3170  0.1831  0.2815
 6553SOL    HW231119   1.117   1.143   6.015 -0.5322 -1.8622  0.1165
 6554SOL     OW31120   3.128   1.339   5.787 -0.1399 -0.5269 -0.0364
 6554SOL    HW131121   3.141   1.364   5.879  1.0210 -2.0332  0.2038
 6554SOL    HW231122   3.107   1.246   5.787 -1.0830 -0.3190  2.3253
 6555SOL     OW31123   2.790   3.233   1.379 -0.2122  0.0567  0.2551
 6555SOL    HW131124   2.728   3.161   1.388  0.7240 -0.9015 -0.9848
 6555SOL    HW231125   2.812   3.231   1.286 -0.2757 -2.1072  0.2967
 6556SOL     OW31126   4.096   1.105  13.122 -0.3344  0.1034  0.1970
 6556SOL    HW131127   4.080   1.086  13.214  1.8759 -1.3865  0.2606
 6556SOL    HW231128   4.031   1.173  13.101 -1.7148 -1.3072 -0.0911
 6557SOL     OW31129   3.880   2.551   6.790 -0.2721 -0.0620  0.4353
 6557SOL    HW131130   3.828   2.497   6.849  0.3437  1.8725  2.8063
 6557SOL    HW231131   3.962   2.574   6.834  0.3605 -0.7044 -0.4174
 6558SOL     OW31132   0.477   1.169   5.360 -0.3505  0.0220 -0.2838
 6558SOL    HW131133   0.571   1.172   5.380  0.1065 -0.6317 -2.3648
 6558SOL    HW231134   0.453   1.259   5.379 -0.2307 -0.2813  1.3491
 6559SOL     OW31135   0.608   1.907   5.308 -0.2836  0.0870 -0.2162
 6559SOL    HW131136   0.540   1.917   5.241 -1.1669 -0.9240  0.5377
 6559SOL    HW231137   0.644   1.820   5.288  0.7714  0.8745 -1.7357
 6560SOL     OW31138   3.861   0.929   3.805 -0.3004  0.4507  0.5222
 6560SOL    HW131139   3.785   0.954   3.858  0.3492  1.6427  0.8763
 6560SOL    HW231140   3.871   1.009   3.754 -1.3504 -0.1868 -0.6717
 6561SOL     OW31141   1.822   3.404   6.106  0.1879 -0.1524 -0.7601
 6561SOL    HW131142   1.862   3.340   6.048 -0.5620 -0.1503 -1.2672
 6561SOL    HW231143   1.863   3.396   6.192 -2.2434 -2.1797  0.1890
 6562SOL     OW31144   1.991   4.289   5.153  0.4358 -0.2252  0.0877
 6562SOL    HW131145   2.026   4.245   5.230  1.2432 -1.1478 -0.7964
 6562SOL    HW231146   2.070   4.301   5.101  1.1640 -0.3266  1.1705
 6563SOL     OW31147   3.080   1.212   0.090 -0.7147 -0.4435  0.4191
 6563SOL    HW131148   3.055   1.122   0.113 -0.1505 -0.4606  0.9692
 6563SOL    HW231149   3.090   1.256   0.174  1.1568 -1.0916  0.5454
 6564SOL     OW31150   1.170   2.772   2.595 -0.2910 -0.3458  0.0262
 6564SOL    HW131151   1.205   2.861   2.608  0.8042 -0.6517 -0.7884
 6564SOL    HW231152   1.241   2.727   2.641 -0.3238 -1.4775 -1.0513
 6565SOL     OW31153   3.750   3.060  15.811 -0.0030  0.1689  0.2517
 6565SOL    HW131154   3.818   3.029  15.751 -2.7194 -0.9591 -2.2446
 6565SOL    HW231155   3.811   3.097  15.875 -1.6489  1.0652  1.3109
 6566SOL     OW31156   4.408   1.784  13.384  0.3610  0.4042 -0.0418
 6566SOL    HW131157   4.481   1.725  13.402 -1.0654 -1.0341  0.9690
 6566SOL    HW231158   4.347   1.757  13.452 -2.3398  1.0227 -2.1996
 6567SOL     OW31159   1.581   1.819  16.682  0.0384  0.2087  0.6424
 6567SOL    HW131160   1.593   1.900  16.633 -1.5821  1.4276  2.2398
 6567SOL    HW231161   1.625   1.755  16.626  0.8828  2.1153 -0.8608
 6568SOL     OW31162   1.240   3.465   8.751  0.6764  0.0497 -0.0977
 6568SOL    HW131163   1.275   3.554   8.745 -1.0942  0.8827  1.6601
 6568SOL    HW231164   1.286   3.419   8.821 -0.7483 -0.8955  0.2255
 6569SOL     OW31165   1.248   2.780  13.994  0.7246  0.3911  0.0855
 6569SOL    HW131166   1.300   2.840  14.047 -1.6575  0.1831  2.7029
 6569SOL    HW231167   1.262   2.812  13.905  1.4911 -2.3821 -0.7775
 6570SOL     OW31168   4.691   2.976  15.878  0.4797 -0.0582  0.1813
 6570SOL    HW131169   4.697   2.995  15.972 -0.0948  0.0650  0.1965
 6570SOL    HW231170   0.017   3.048  15.837  2.4324  0.2681  2.9837
 6571SOL     OW31171   2.463   4.717   2.853  0.0888 -0.1016  0.2206
 6571SOL    HW131172   2.429   4.627   2.852  0.9443 -0.4458  1.2732
 6571SOL    HW231173   2.441   0.004   2.760  2.1097  0.5748 -0.1871
 6572SOL     OW31174   3.432   2.880  15.754  0.1309 -0.2145 -0.0108
 6572SOL    HW131175   3.474   2.854  15.671  1.8475 -1.3919  1.2298
 6572SOL    HW231176   3.337   2.883  15.740  0.2533 -0.8053 -0.9764
 6573SOL     OW31177   2.558   0.129  12.267 -0.1796  0.0620  0.5257
 6573SOL    HW131178   2.546   0.195  12.335 -0.9550  0.9390 -0.4555
 6573SOL    HW231179   2.500   0.062  12.302  0.3704 -2.1820 -2.7959
 6574SOL     OW31180   0.159   1.867  10.577 -0.4091  1.2332 -0.5264
 6574SOL    HW131181   0.243   1.855  10.533 -0.2026 -1.5067  0.6522
 6574SOL    HW231182   0.170   1.921  10.655 -1.2585  0.0819  0.3873
 6575SOL     OW31183   0.152   1.817  15.496 -0.1396 -0.4647 -0.0491
 6575SOL    HW131184   0.225   1.867  15.460  0.8801 -0.1864  2.3688
 6575SOL    HW231185   0.173   1.825  15.589  0.6786 -2.0486 -0.1004
 6576SOL     OW31186   2.764   2.062   6.146 -0.4559 -0.0154  0.5448
 6576SOL    HW131187   2.736   2.110   6.068  0.3805  0.9286  0.8362
 6576SOL    HW231188   2.737   2.126   6.212 -0.4595 -1.0976  1.5980
 6577SOL     OW31189   4.000   3.247   3.367 -0.1640  0.2229 -0.3516
 6577SOL    HW131190   3.986   3.199   3.449 -0.0583  0.2317 -0.3289
 6577SOL    HW231191   3.935   3.210   3.307 -0.6014 -0.8761  0.8067
 6578SOL     OW31192   4.458   2.764   9.060  0.2480 -0.3107 -0.2165
 6578SOL    HW131193   4.489   2.847   9.096 -0.4302 -1.2430  2.5006
 6578SOL    HW231194   4.400   2.740   9.133  1.2944 -2.1850 -0.0201
 6579SOL     OW31195   2.148   0.594   2.866 -0.9013  0.1934  0.3331
 6579SOL    HW131196   2.098   0.675   2.862  1.9279  1.8098 -2.6111
 6579SOL    HW231197   2.183   0.606   2.778  0.2060 -1.4839  0.5367
 6580SOL     OW31198   2.247   1.594  16.340 -0.2671 -0.2607  0.2479
 6580SOL    HW131199   2.281   1.599  16.429 -2.2844 -1.1815  1.0695
 6580SOL    HW231200   2.191   1.516  16.342  0.2309 -0.6524 -0.8351
 6581SOL     OW31201   4.333   0.933   3.755 -0.1069 -0.2499  0.3351
 6581SOL    HW131202   4.308   1.022   3.780 -0.0155  0.0986 -0.8033
 6581SOL    HW231203   4.261   0.908   3.696  0.5001  2.2268 -1.4613
 6582SOL     OW31204   2.158   3.512  13.092  0.2709 -1.0601 -0.9697
 6582SOL    HW131205   2.243   3.468  13.091  1.3361  1.0100 -1.2615
 6582SOL    HW231206   2.191   3.597  13.122 -1.3328 -0.5152 -0.7486
 6583SOL     OW31207   2.874   4.637   7.050 -0.2909 -0.4331  0.6038
 6583SOL    HW131208   2.828   4.577   6.991  2.9416  0.2936 -2.6900
 6583SOL    HW231209   2.935   4.579   7.096  0.7675  0.3169  0.1462
 6584SOL     OW31210   4.207   0.546   4.237 -0.3956 -0.1418  0.0837
 6584SOL    HW131211   4.239   0.617   4.293 -0.4222  0.0488 -0.1460
 6584SOL    HW231212   4.277   0.482   4.221 -1.6725 -0.8494 -2.6799
 6585SOL     OW31213   1.282   3.704   1.234 -0.1650  0.5884  0.1361
 6585SOL    HW131214   1.208   3.653   1.204 -0.1917  0.8966 -0.3195
 6585SOL    HW231215   1.355   3.646   1.214 -1.6133 -1.3774  0.6071
 6586SOL     OW31216   0.366   4.530   0.699 -0.6886 -0.3688 -0.3590
 6586SOL    HW131217   0.361   4.504   0.791  0.7839 -2.7820 -0.9406
 6586SOL    HW231218   0.278   4.554   0.671 -0.0225  2.9003  0.3711
 6587SOL     OW31219   4.710   4.153   3.073  0.2930 -0.0585 -0.0779
 6587SOL    HW131220   0.021   4.070   3.038 -2.0069 -0.3858 -1.4635
 6587SOL    HW231221   0.057   4.180   3.135 -0.5315 -1.6154  1.4846
 6588SOL     OW31222   4.521   2.801  15.771  0.1179 -0.5753  0.0849
 6588SOL    HW131223   4.583   2.867  15.802 -1.7737  0.4313  1.6886
 6588SOL    HW231224   4.454   2.853  15.727  0.0163 -1.9291 -1.3541
 6589SOL     OW31225   2.791   1.205   8.521  0.7564 -0.1034  0.5477
 6589SOL    HW131226   2.873   1.208   8.571  1.3799 -0.6723 -0.4231
 6589SOL    HW231227   2.758   1.288   8.554  1.4893  1.2195 -1.9985
 6590SOL     OW31228   0.089   4.113   5.907  0.3840  0.2899 -0.7794
 6590SOL    HW131229   0.086   4.136   6.000  2.2766  1.3334 -0.9933
 6590SOL    HW231230   0.002   4.148   5.886  1.2926  1.9784 -1.7744
 6591SOL     OW31231   1.130   2.356   3.230  0.2901  0.3384  0.7453
 6591SOL    HW131232   1.082   2.358   3.147  0.0177  2.3319  0.9573
 6591SOL    HW231233   1.095   2.272   3.262  0.5049  0.1020  0.3493
 6592SOL     OW31234   1.100   4.273  10.650 -0.1390  0.1955  0.1266
 6592SOL    HW131235   1.189   4.306  10.655  0.1895 -0.1839 -2.9742
 6592SOL    HW231236   1.103   4.209  10.578  1.0627  0.4068 -0.0113
 6593SOL     OW31237   3.800   1.593   0.969  0.4832 -0.0432 -0.2076
 6593SOL    HW131238   3.733   1.565   1.031  0.4090 -2.7700 -1.5069
 6593SOL    HW231239   3.870   1.533   0.994  1.1577  1.0795  0.5985
 6594SOL     OW31240   4.443   2.683   6.657  0.6926  0.1830  0.2795
 6594SOL    HW131241   4.365   2.735   6.637  0.5760 -0.0693  0.0848
 6594SOL    HW231242   4.414   2.616   6.719 -2.1653 -0.9650 -2.3157
 6595SOL     OW31243   2.468   4.160  10.808  0.7179  0.7850 -0.2680
 6595SOL    HW131244   2.424   4.113  10.879  2.2322 -0.7096 -0.3401
 6595SOL    HW231245   2.497   4.241  10.850 -2.6970  0.7018  2.3413
 6596SOL     OW31246   4.371   4.307  10.386  0.0564  0.1856  0.4779
 6596SOL    HW131247   4.463   4.283  10.379  0.0092  0.0705  0.2477
 6596SOL    HW231248   4.344   4.249  10.456 -1.2690 -1.8422 -1.6952
 6597SOL     OW31249   0.900   1.820   5.015 -0.3047  0.1094  0.0951
 6597SOL    HW131250   0.833   1.886   4.999 -0.9266 -0.7310 -0.7460
 6597SOL    HW231251   0.906   1.775   4.931  2.0226  2.9925 -1.2821
 6598SOL     OW31252   4.008   0.699  13.252  0.1611  0.6024  0.1168
 6598SOL    HW131253   3.962   0.617  13.266 -0.5906  1.2446  1.4071
 6598SOL    HW231254   3.955   0.757  13.306  1.8117  0.0987  2.2416
 6599SOL     OW31255   0.094   4.525   1.864  0.5427  1.0849 -0.2988
 6599SOL    HW131256   0.123   4.577   1.940  2.4307 -1.8503  0.9908
 6599SOL    HW231257   0.010   4.490   1.894 -0.3390  1.3014 -2.5490
 6600SOL     OW31258   2.491   1.973   3.109  0.5966  0.5146 -0.0540
 6600SOL    HW131259   2.422   1.909   3.093  1.1137 -0.1965  0.5639
 6600SOL    HW231260   2.541   1.959   3.029  2.3191  0.7044  0.9972
 6601SOL     OW31261   2.894   0.418  10.376 -0.5488 -0.3598 -0.1016
 6601SOL    HW131262   2.919   0.438  10.466  0.5085 -0.5000 -0.3686
 6601SOL    HW231263   2.910   0.323  10.375 -1.0422 -0.4551  1.4980
 6602SOL     OW31264   3.162   3.051  17.493  0.1446 -1.0825 -0.4191
 6602SOL    HW131265   3.233   3.016  17.438  0.3381  0.4479 -1.1391
 6602SOL    HW231266   3.118   2.966  17.498 -1.6613  0.0316  2.3341
 6603SOL     OW31267   2.947   0.756  12.499  0.4879  0.4109  0.1475
 6603SOL    HW131268   2.917   0.665  12.501  1.8711 -0.0563  0.1744
 6603SOL    HW231269   2.961   0.760  12.405 -0.4874  2.1410  0.0912
 6604SOL     OW31270   1.978   2.150   4.968 -0.6568 -0.2768 -0.2261
 6604SOL    HW131271   2.013   2.226   5.016 -1.3822  2.1397 -3.5187
 6604SOL    HW231272   1.906   2.191   4.920 -1.6115 -1.2690  0.3870
 6605SOL     OW31273   0.306   0.728   4.167 -0.0616  0.3896 -0.9790
 6605SOL    HW131274   0.321   0.819   4.194  0.0754 -0.2524  1.1200
 6605SOL    HW231275   0.221   0.743   4.124 -0.5647  1.4987  0.3745
 6606SOL     OW31276   0.920   2.784  17.001 -0.0694  0.4560  0.4077
 6606SOL    HW131277   0.827   2.809  16.997 -0.6640 -1.8145 -0.2438
 6606SOL    HW231278   0.955   2.852  17.058 -2.3789  1.5211  0.5529
 6607SOL     OW31279   1.201   3.458   5.904  0.3380  0.1084 -0.2161
 6607SOL    HW131280   1.264   3.389   5.884  0.4728 -0.0778  0.8684
 6607SOL    HW231281   1.140   3.452   5.830  0.3605 -1.1140 -0.1255
 6608SOL     OW31282   0.616   1.036  13.287  0.0187  0.1373 -0.0735
 6608SOL    HW131283   0.612   1.112  13.230  1.8527  1.5021  1.6313
 6608SOL    HW231284   0.602   1.086  13.368 -1.3861 -0.0640 -0.1844
 6609SOL     OW31285   1.850   4.017   4.020  0.3355 -0.3147  0.0364
 6609SOL    HW131286   1.850   4.104   3.981  0.8133 -0.1860  0.3231
 6609SOL    HW231287   1.900   3.964   3.958 -1.2068 -1.7344  0.0158
 6610SOL     OW31288   4.199   1.640   0.548 -0.4431 -1.0502 -0.4534
 6610SOL    HW131289   4.116   1.651   0.502  0.7503  1.9297 -1.9477
 6610SOL    HW231290   4.167   1.613   0.634  0.0019  1.0300  0.3636
 6611SOL     OW31291   3.947   3.186   9.059  0.4417 -0.1677 -0.4501
 6611SOL    HW131292   3.929   3.096   9.087 -0.9378  0.5772  1.0493
 6611SOL    HW231293   4.041   3.194   9.076  0.2633  0.7676  0.0637
 6612SOL     OW31294   0.307   1.597   7.432  0.8073 -0.3850  0.0844
 6612SOL    HW131295   0.344   1.674   7.388  0.5068 -0.9331 -1.1135
 6612SOL    HW231296   0.386   1.544   7.426  1.7084  1.3120 -2.7536
 6613SOL     OW31297   0.759   0.984   7.197 -0.0761  0.2503  0.3466
 6613SOL    HW131298   0.718   1.039   7.263 -0.0506  2.3555 -1.3859
 6613SOL    HW231299   0.675   0.947   7.168  2.0482 -3.6957 -0.8726
 6614SOL     OW31300   3.406   0.336   5.816 -0.1797  0.0148  0.1628
 6614SOL    HW131301   3.354   0.257   5.830 -0.1141  0.3171  2.1540
 6614SOL    HW231302   3.400   0.383   5.899 -1.8034 -0.8043  0.5044
 6615SOL     OW31303   1.412   4.115   3.447  0.1458  0.0648 -0.3100
 6615SOL    HW131304   1.461   4.037   3.419 -1.6024  0.1854 -3.7986
 6615SOL    HW231305   1.362   4.138   3.368 -0.5604 -1.5482 -0.3324
 6616SOL     OW31306   1.976   2.270   2.369  0.1481 -0.0693 -0.2157
 6616SOL    HW131307   1.934   2.304   2.290 -0.2096 -1.7213 -0.7208
 6616SOL    HW231308   2.045   2.216   2.332  1.1365 -1.1503  3.1725
 6617SOL     OW31309   0.247   1.283  11.959  0.3363 -0.5819 -0.4068
 6617SOL    HW131310   0.263   1.340  12.034  0.5398  0.2347 -1.0634
 6617SOL    HW231311   0.159   1.312  11.936  0.4884 -0.1481 -0.4426
 6618SOL     OW31312   1.148   0.835   0.170 -0.2733  1.1504  0.3872
 6618SOL    HW131313   1.205   0.885   0.228  0.5634  0.3468  0.2670
 6618SOL    HW231314   1.100   0.913   0.142  0.5037  0.8898 -1.6869
 6619SOL     OW31315   0.504   0.350   2.474 -0.5884  0.1458  0.3821
 6619SOL    HW131316   0.558   0.279   2.508  2.0754  1.2530 -1.5482
 6619SOL    HW231317   0.418   0.311   2.457  0.1483 -0.5855 -1.6564
 6620SOL     OW31318   0.375   2.192   3.781 -0.0026  0.2023 -0.4645
 6620SOL    HW131319   0.428   2.216   3.857  2.3732 -0.6933 -1.8361
 6620SOL    HW231320   0.403   2.101   3.767  0.4867  0.3241 -0.2684
 6621SOL     OW31321   1.447   3.198  12.354 -0.6857 -0.2605 -0.1418
 6621SOL    HW131322   1.390   3.262  12.397 -1.6413 -2.3965  1.8102
 6621SOL    HW231323   1.480   3.252  12.282 -1.2681 -0.7287 -0.7630
 6622SOL     OW31324   1.857   2.914  13.651  0.6582 -0.2134  0.2860
 6622SOL    HW131325   1.897   2.863  13.580 -0.0789  1.2560 -1.1872
 6622SOL    HW231326   1.895   2.999  13.631 -0.0462 -0.0087 -0.1720
 6623SOL     OW31327   0.138   1.508   5.747 -0.1002  1.0628  0.5117
 6623SOL    HW131328   0.164   1.426   5.787 -0.0791  1.0101  0.3911
 6623SOL    HW231329   0.115   1.491   5.656 -0.3087 -0.6883  0.9001
 6624SOL     OW31330   0.945   2.516   8.422 -0.0594 -0.6122 -0.4985
 6624SOL    HW131331   1.023   2.511   8.477 -0.8586 -1.2416  0.5766
 6624SOL    HW231332   0.912   2.604   8.440  0.3290 -0.5681  0.0138
 6625SOL     OW31333   4.698   4.378   0.594  0.6051 -0.1470 -0.3587
 6625SOL    HW131334   4.613   4.421   0.602  1.0810  0.7608 -0.2139
 6625SOL    HW231335   0.027   4.459   0.588 -0.7475  0.7639  0.7452
 6626SOL     OW31336   4.561   4.405   6.122  0.0943  0.0817 -0.0607
 6626SOL    HW131337   4.655   4.405   6.141  0.2602  0.3203 -0.8814
 6626SOL    HW231338   4.555   4.500   6.130  1.1452  0.2326 -1.1419
 6627SOL     OW31339   3.553   1.992   5.080  0.0260 -0.6144 -0.0252
 6627SOL    HW131340   3.462   1.969   5.098  0.4644 -0.3997  2.4640
 6627SOL    HW231341   3.536   2.053   5.009 -0.8967 -0.5379  0.2678
 6628SOL     OW31342   3.136   1.999   3.040  0.0087 -0.4878 -0.1586
 6628SOL    HW131343   3.151   1.915   3.083 -0.8857 -1.0465 -0.9462
 6628SOL    HW231344   3.149   1.964   2.952  2.3025 -1.6471  0.6485
 6629SOL     OW31345   0.835   4.460   2.866 -0.3452  0.3843 -0.2884
 6629SOL    HW131346   0.822   4.522   2.938  0.3834  1.6403 -1.2395
 6629SOL    HW231347   0.784   4.392   2.909 -1.0753  1.3012  0.2937
 6630SOL     OW31348   3.965   1.216   5.569 -0.3455  0.7540  0.4044
 6630SOL    HW131349   3.891   1.162   5.595  1.4711 -0.7079  2.5410
 6630SOL    HW231350   3.971   1.192   5.477 -0.7899  0.3537  0.4829
 6631SOL     OW31351   2.632   4.545  14.748 -0.0365  0.3575 -0.1315
 6631SOL    HW131352   2.582   4.465  14.731  1.0128  0.2907 -2.8939
 6631SOL    HW231353   2.566   4.606  14.781  0.4968  1.2846 -0.8107
 6632SOL     OW31354   2.118   3.956  14.387  0.4564  0.0655  0.3840
 6632SOL    HW131355   2.194   3.923  14.434  0.5205 -2.7691 -1.7310
 6632SOL    HW231356   2.122   3.900  14.310  0.0537  0.3650  0.1420
 6633SOL     OW31357   0.556   2.035   6.823 -0.4485 -0.0485 -0.7118
 6633SOL    HW131358   0.647   2.044   6.794  0.2212 -2.7107  0.5967
 6633SOL    HW231359   0.535   2.117   6.867  1.6679 -0.7685  1.6183
 6634SOL     OW31360   3.096   2.494   1.476  0.1341  0.0188  0.1204
 6634SOL    HW131361   3.189   2.469   1.474  0.0525 -0.2144 -0.5760
 6634SOL    HW231362   3.054   2.429   1.420  0.8584  0.0621 -0.4769
 6635SOL     OW31363   0.268   3.593   5.793 -0.6724 -0.0656 -0.2023
 6635SOL    HW131364   0.346   3.576   5.845 -1.8985  2.1439  2.3489
 6635SOL    HW231365   0.229   3.670   5.834 -0.3573  0.1314 -0.2805
 6636SOL     OW31366   0.031   0.339   0.438  0.7156 -0.2483 -0.0867
 6636SOL    HW131367   0.042   0.249   0.467  3.3434  0.5409  1.3365
 6636SOL    HW231368   0.056   0.335   0.345 -1.2593 -1.9034 -0.5404
 6637SOL     OW31369   3.343   4.238   4.006  0.1861 -0.9205 -0.1734
 6637SOL    HW131370   3.330   4.146   4.031  0.3524 -0.2223  2.4796
 6637SOL    HW231371   3.268   4.279   4.049  0.1501 -0.3074 -0.8323
 6638SOL     OW31372   1.967   3.631   8.088  0.6755 -0.3114 -0.3173
 6638SOL    HW131373   2.050   3.612   8.043  0.9428 -1.5994  0.7272
 6638SOL    HW231374   1.926   3.545   8.082 -1.6220  0.8965 -1.9158
 6639SOL     OW31375   4.524   0.402   3.610  0.3393 -0.1670  0.6682
 6639SOL    HW131376   4.435   0.438   3.613 -1.0035 -3.4270 -0.1623
 6639SOL    HW231377   4.582   0.477   3.600  0.7678 -0.5954 -0.0374
 6640SOL     OW31378   2.777   4.120   5.548 -0.1329 -0.1149 -0.4520
 6640SOL    HW131379   2.869   4.140   5.562  0.1648 -1.3321 -0.6668
 6640SOL    HW231380   2.758   4.128   5.454 -0.6816  0.2184 -0.3199
 6641SOL     OW31381   1.893   0.036   4.379  0.0172  0.8688 -0.2059
 6641SOL    HW131382   1.840   0.002   4.451  1.4196  3.5512  2.1193
 6641SOL    HW231383   1.830   0.103   4.352  0.9647  1.8026 -0.1466
 6642SOL     OW31384   2.284   4.397   1.808  0.2650 -0.0962 -0.5879
 6642SOL    HW131385   2.359   4.347   1.777  0.8488  0.6218 -0.3441
 6642SOL    HW231386   2.228   4.327   1.840 -1.5995 -0.7049 -5.2236
 6643SOL     OW31387   4.693   3.276   9.836 -0.0630  0.2355  0.8268
 6643SOL    HW131388   4.611   3.248   9.877 -1.7535  1.6490 -1.5835
 6643SOL    HW231389   4.659   3.269   9.747  1.0958 -2.7299  0.6458
 6644SOL     OW31390   3.945   1.188   2.069  0.1286 -0.6904  0.4913
 6644SOL    HW131391   3.878   1.196   2.137  1.6824 -0.2955  1.9852
 6644SOL    HW231392   3.974   1.279   2.081 -1.2091  0.0121 -1.5027
 6645SOL     OW31393   1.693   2.421   6.766  0.0241 -0.8518  0.3252
 6645SOL    HW131394   1.732   2.394   6.682  0.1314  2.7158 -0.7817
 6645SOL    HW231395   1.677   2.513   6.745 -1.3501 -1.3101 -0.6152
 6646SOL     OW31396   2.917   4.698   5.214 -0.2491 -0.3346 -0.2791
 6646SOL    HW131397   2.985   0.044   5.207 -2.4303  1.8627 -0.0650
 6646SOL    HW231398   2.838   4.717   5.164  0.2495 -0.9507 -1.2953
 6647SOL     OW31399   4.623   4.341   7.664 -0.2444  0.0233 -0.0058
 6647SOL    HW131400   4.572   4.339   7.583 -0.5757  1.3842  0.1706
 6647SOL    HW231401   4.627   4.246   7.667  1.4472  0.1812  2.7028
 6648SOL     OW31402   2.524   1.000   4.229  0.1692 -0.2076 -0.1369
 6648SOL    HW131403   2.507   1.027   4.139  1.2013 -0.0953 -0.2950
 6648SOL    HW231404   2.441   1.024   4.271  0.0190 -0.3533 -0.3495
 6649SOL     OW31405   2.093   4.461  12.936  0.1857 -0.3690  0.4332
 6649SOL    HW131406   2.024   4.402  12.904 -0.6898 -0.3783  2.3064
 6649SOL    HW231407   2.169   4.409  12.912  0.3853 -0.1464  0.5872
 6650SOL     OW31408   4.437   3.207  16.070 -0.2099  0.3046  0.0731
 6650SOL    HW131409   4.418   3.117  16.045  0.8003  0.1254 -0.0592
 6650SOL    HW231410   4.408   3.218  16.161  3.0131  3.7778  0.6998
 6651SOL     OW31411   3.918   1.152   1.788  0.0026 -0.3924  0.0021
 6651SOL    HW131412   3.884   1.062   1.786 -0.5470 -0.2022  1.0813
 6651SOL    HW231413   3.940   1.169   1.879  1.6655 -0.0242 -0.4660
 6652SOL     OW31414   1.408   0.964   5.272 -0.2615  0.1271 -0.3392
 6652SOL    HW131415   1.363   1.048   5.274  0.6470  0.6562 -1.5395
 6652SOL    HW231416   1.498   0.996   5.285 -0.3994 -0.0850  1.1628
 6653SOL     OW31417   4.392   0.327  10.575  0.2322  0.6660 -0.6342
 6653SOL    HW131418   4.355   0.415  10.569  0.4848  0.5844 -3.1799
 6653SOL    HW231419   4.361   0.299  10.661  0.2468 -0.6161 -1.0408
 6654SOL     OW31420   0.531   1.955   8.321  0.3813 -0.0706  0.0053
 6654SOL    HW131421   0.530   2.009   8.399 -1.4232 -1.8594  1.2299
 6654SOL    HW231422   0.585   2.009   8.264 -1.2448  1.4635 -0.1017
 6655SOL     OW31423   0.927   0.079   7.695  0.1227 -0.3914 -0.4429
 6655SOL    HW131424   1.005   0.025   7.692  0.1030 -0.5153  1.0513
 6655SOL    HW231425   0.980   0.146   7.738  1.1880 -1.3790 -0.2340
 6656SOL     OW31426   0.064   3.910   8.027  0.0614  0.1681 -0.2686
 6656SOL    HW131427   0.107   3.984   8.070 -0.7979  0.6825 -0.3127
 6656SOL    HW231428   4.713   3.942   7.974  1.1713 -0.6710 -2.3047
 6657SOL     OW31429   2.676   4.517   1.763  0.3805 -0.0660 -0.4548
 6657SOL    HW131430   2.669   4.497   1.856  0.3479  1.8471 -0.0542
 6657SOL    HW231431   2.615   4.588   1.746  1.2664  0.9674  0.6598
 6658SOL     OW31432   1.564   1.659   4.891  0.0340  0.2467 -0.5750
 6658SOL    HW131433   1.595   1.595   4.827 -1.2067 -0.0235 -0.9018
 6658SOL    HW231434   1.507   1.718   4.841 -0.1388  0.3158 -0.2985
 6659SOL     OW31435   4.309   3.387   8.332 -0.0346  0.6677 -0.0292
 6659SOL    HW131436   4.245   3.435   8.385 -1.1344 -1.1887  0.3216
 6659SOL    HW231437   4.248   3.341   8.275  2.4843 -0.3989 -1.8704
 6660SOL     OW31438   4.662   3.947   3.350  0.0779 -0.2911 -0.4158
 6660SOL    HW131439   0.018   3.922   3.299 -0.4841 -1.5056 -0.6593
 6660SOL    HW231440   4.703   3.981   3.430  0.9188  0.4398 -1.1547
 6661SOL     OW31441   1.699   3.930  12.203  0.1677  1.0365 -0.0458
 6661SOL    HW131442   1.758   3.992  12.246 -1.1366  1.1810  1.5408
 6661SOL    HW231443   1.742   3.844  12.200 -0.8675  0.4933  0.6459
 6662SOL     OW31444   4.116   0.767  15.585  0.2943  0.0298 -0.2036
 6662SOL    HW131445   4.038   0.822  15.572 -0.1026 -0.2291  1.0714
 6662SOL    HW231446   4.059   0.690  15.594 -0.7595  0.5653 -2.1756
 6663SOL     OW31447   2.699   0.055   4.572 -0.2920  0.5327 -0.2330
 6663SOL    HW131448   2.747   0.006   4.506 -0.2631  0.7168 -0.3504
 6663SOL    HW231449   2.688   0.133   4.517  2.3636  0.2963 -1.0764
 6664SOL     OW31450   3.117   4.446   8.924  0.1966 -0.2873 -0.2623
 6664SOL    HW131451   3.196   4.400   8.952 -0.3026 -0.1532  1.3816
 6664SOL    HW231452   3.161   4.506   8.863 -0.0480  2.1244  1.9073
 6665SOL     OW31453   1.566   4.515   1.829 -0.2155  0.0559 -0.4442
 6665SOL    HW131454   1.517   4.568   1.892 -2.2071 -1.0357 -1.0711
 6665SOL    HW231455   1.497   4.475   1.776 -0.8843  1.7960 -0.8866
 6666SOL     OW31456   3.387   1.568   4.179  0.3361  0.3827 -0.5744
 6666SOL    HW131457   3.411   1.514   4.103  0.4795 -0.1967 -0.1202
 6666SOL    HW231458   3.343   1.499   4.229  2.1217 -1.1201 -1.0601
 6667SOL     OW31459   3.497   0.540   6.547 -0.1744 -0.3762 -0.7550
 6667SOL    HW131460   3.536   0.618   6.508  0.8675 -0.1808  0.7084
 6667SOL    HW231461   3.521   0.555   6.638  0.1994 -0.3046 -0.8640
 6668SOL     OW31462   3.955   1.018  16.914  0.7853  0.4993  0.0806
 6668SOL    HW131463   3.996   0.974  16.988 -0.1957  1.9927  1.4998
 6668SOL    HW231464   4.034   1.062  16.883  0.4464 -0.9118 -2.7650
 6669SOL     OW31465   3.286   4.600  14.577 -0.5765  0.2553  0.3733
 6669SOL    HW131466   3.288   4.565  14.489  1.7654  1.0883  0.0976
 6669SOL    HW231467   3.347   4.674  14.580  1.4722 -1.3455 -1.5416
 6670SOL     OW31468   2.602   3.691   8.043  0.0792  0.4270 -0.3742
 6670SOL    HW131469   2.522   3.641   8.060  0.5588 -0.2450 -0.1073
 6670SOL    HW231470   2.663   3.650   8.104  1.2354  0.9973 -1.1650
 6671SOL     OW31471   1.452   2.907   6.986 -0.3752  0.1706 -0.3808
 6671SOL    HW131472   1.537   2.867   6.970 -0.1423  0.6477 -0.3344
 6671SOL    HW231473   1.433   2.938   6.897 -1.4528  0.4622 -0.0438
 6672SOL     OW31474   2.666   2.618   8.808 -0.6270  0.4219  0.0543
 6672SOL    HW131475   2.618   2.618   8.891 -3.0391  0.5549 -1.3368
 6672SOL    HW231476   2.654   2.525   8.788 -0.7142  0.0942  1.5743
 6673SOL     OW31477   3.685   3.869   2.165  0.3651  0.0204  0.1596
 6673SOL    HW131478   3.742   3.893   2.238 -0.3897  0.9791  0.4240
 6673SOL    HW231479   3.602   3.866   2.212 -0.1933  1.3063 -0.7664
 6674SOL     OW31480   1.766   3.980  14.964 -0.6833 -0.3663 -0.9937
 6674SOL    HW131481   1.828   3.997  15.035 -0.9298 -0.6363 -0.7141
 6674SOL    HW231482   1.680   4.001  15.000  0.4979  2.6644  0.1051
 6675SOL     OW31483   4.713   2.288   2.678 -0.1224 -0.2858  0.0043
 6675SOL    HW131484   4.672   2.374   2.666  1.5767  1.0207  3.6498
 6675SOL    HW231485   0.010   2.296   2.772 -0.6227  0.8309  0.0040
 6676SOL     OW31486   4.466   4.713   7.508  0.0191  0.0171 -0.0454
 6676SOL    HW131487   4.390   4.660   7.483  0.2679 -0.4797  0.2653
 6676SOL    HW231488   4.416   0.053   7.562  1.4139 -0.5962  1.9319
 6677SOL     OW31489   4.213   0.393   7.724 -0.2764  0.3169  0.1715
 6677SOL    HW131490   4.131   0.391   7.774 -0.1913  0.0707  0.3023
 6677SOL    HW231491   4.254   0.463   7.775  1.5337 -2.9803  3.2462
 6678SOL     OW31492   2.333   0.556   7.046 -0.0089 -0.4230  0.2027
 6678SOL    HW131493   2.380   0.509   7.115 -0.7539 -0.6812  0.5369
 6678SOL    HW231494   2.343   0.645   7.081  0.7274  0.3344 -1.9543
 6679SOL     OW31495   0.308   4.117  16.948 -0.0273  0.4593  0.2589
 6679SOL    HW131496   0.381   4.116  16.886 -0.8070  1.7506 -0.6930
 6679SOL    HW231497   0.297   4.025  16.969 -0.0551  1.0670  2.8324
 6680SOL     OW31498   1.384   4.624  14.640 -0.4155  0.2912 -0.3544
 6680SOL    HW131499   1.457   4.565  14.618 -1.3726  0.0213 -2.8387
 6680SOL    HW231500   1.339   4.629  14.556 -1.4620  1.7900  0.3006
 6681SOL     OW31501   2.184   2.605   7.708  0.5014 -0.4421  0.2531
 6681SOL    HW131502   2.105   2.560   7.739 -0.2971  0.7595 -0.0583
 6681SOL    HW231503   2.170   2.692   7.745 -0.0167 -0.9501  1.2663
 6682SOL     OW31504   3.167   3.805   6.620  0.2809 -0.2294  0.1568
 6682SOL    HW131505   3.249   3.790   6.668  0.6456 -0.1882 -0.4481
 6682SOL    HW231506   3.125   3.846   6.696  0.4758 -0.1256  0.2104
 6683SOL     OW31507   0.807   0.835   0.448 -0.3530  0.4083 -0.2483
 6683SOL    HW131508   0.827   0.749   0.411  0.2988  0.7011 -0.5912
 6683SOL    HW231509   0.719   0.836   0.410 -0.7533 -3.2263  0.6264
 6684SOL     OW31510   4.465   4.680   5.542 -0.1307 -0.2902 -0.8637
 6684SOL    HW131511   4.537   4.703   5.601 -0.9003  0.8112 -0.3417
 6684SOL    HW231512   4.486   4.600   5.494  0.3083 -0.9693  0.4440
 6685SOL     OW31513   2.192   2.042   6.697 -0.4474 -0.5519 -0.2403
 6685SOL    HW131514   2.236   1.967   6.657  1.1014  0.1355  0.1805
 6685SOL    HW231515   2.147   1.993   6.766  1.5627 -1.5957  0.3295
 6686SOL     OW31516   2.322   2.716  13.505 -0.8228  0.1834 -0.4624
 6686SOL    HW131517   2.391   2.733  13.440  2.2810  0.2117  2.8252
 6686SOL    HW231518   2.293   2.629  13.480  0.0688  0.0742 -1.1031
 6687SOL     OW31519   2.624   1.657   2.334  0.4012  0.6490  0.3306
 6687SOL    HW131520   2.659   1.638   2.247 -1.9977  0.2841 -0.5794
 6687SOL    HW231521   2.673   1.591   2.383 -2.5467 -1.9516 -0.1593
 6688SOL     OW31522   3.906   2.384   0.260  0.1642  0.3685  0.5648
 6688SOL    HW131523   3.964   2.460   0.267 -1.6017  1.6847  0.9659
 6688SOL    HW231524   3.962   2.318   0.218 -0.8556  0.3873 -0.8118
 6689SOL     OW31525   1.084   1.101   6.233 -0.1512  0.7607 -0.5821
 6689SOL    HW131526   1.006   1.053   6.259  0.7493 -0.7463 -0.6947
 6689SOL    HW231527   1.151   1.034   6.244  0.7178  1.4069 -1.8420
 6690SOL     OW31528   3.946   0.725   7.908 -0.7688 -0.3662  0.3892
 6690SOL    HW131529   3.973   0.635   7.892 -0.9019  0.0791 -2.3681
 6690SOL    HW231530   3.967   0.740   8.000 -2.1594 -0.4203  0.7197
 6691SOL     OW31531   1.366   2.552   6.010 -0.1957 -0.5530 -0.4764
 6691SOL    HW131532   1.415   2.487   5.960  0.1185 -0.2290 -0.5946
 6691SOL    HW231533   1.404   2.636   5.984 -1.3326 -0.5092 -2.0421
 6692SOL     OW31534   1.719   2.539   4.800 -0.0604  0.2281  0.6247
 6692SOL    HW131535   1.720   2.617   4.745 -1.8529  0.0868  0.3933
 6692SOL    HW231536   1.664   2.568   4.873  0.5475  0.4650  0.9871
 6693SOL     OW31537   4.650   2.825   8.723  0.1572  0.9185 -0.4696
 6693SOL    HW131538   4.608   2.873   8.794 -1.4832  1.0234 -1.5125
 6693SOL    HW231539   4.600   2.870   8.655 -2.8752 -0.3199  0.9104
 6694SOL     OW31540   4.153   1.780   3.150 -0.0629  0.7527 -0.1594
 6694SOL    HW131541   4.223   1.810   3.093 -0.1278 -0.2735 -0.7717
 6694SOL    HW231542   4.145   1.689   3.121  1.5290  0.4239  0.4363
 6695SOL     OW31543   1.691   4.089   5.055 -0.3417 -0.4047  0.2574
 6695SOL    HW131544   1.725   4.171   5.020 -0.4671  0.4393  2.1149
 6695SOL    HW231545   1.601   4.110   5.079 -0.6738 -1.6668  0.1086
 6696SOL     OW31546   1.157   3.313   9.560 -0.4046  0.2631 -0.0943
 6696SOL    HW131547   1.234   3.316   9.616 -0.8162  0.2720  0.4813
 6696SOL    HW231548   1.099   3.378   9.600 -0.1647 -0.1609  0.9258
 6697SOL     OW31549   3.272   3.567   5.516  0.0775  0.2134  0.1642
 6697SOL    HW131550   3.304   3.604   5.434 -1.4748  0.6676 -0.2458
 6697SOL    HW231551   3.344   3.577   5.578  0.2300 -1.4025  0.2321
 6698SOL     OW31552   1.545   2.293   5.611  0.0525  0.4876 -0.8007
 6698SOL    HW131553   1.467   2.238   5.620 -1.2934  2.7890  1.5214
 6698SOL    HW231554   1.522   2.321   5.522 -0.7664 -0.1317 -0.7819
 6699SOL     OW31555   1.367   1.623   3.718  0.3095  0.5201  0.0414
 6699SOL    HW131556   1.366   1.714   3.748 -1.2543  0.9836 -1.4288
 6699SOL    HW231557   1.445   1.596   3.766  0.0657 -1.4069 -0.6593
 6700SOL     OW31558   0.882   2.355  17.271 -0.0145 -0.0014 -0.7768
 6700SOL    HW131559   0.816   2.355  17.202 -2.0882 -0.9763  1.1876
 6700SOL    HW231560   0.870   2.445  17.303 -0.8448 -0.3049 -0.2394
 6701SOL     OW31561   1.906   3.712   9.447  0.0347 -0.0928 -0.5781
 6701SOL    HW131562   1.868   3.759   9.372 -1.3218  1.6069  1.1577
 6701SOL    HW231563   1.847   3.637   9.457 -2.1073  1.8833  1.4898
 6702SOL     OW31564   3.783   4.646   8.644  0.2980 -0.4276  0.0416
 6702SOL    HW131565   3.804   0.018   8.650 -1.2355 -0.0578 -0.2855
 6702SOL    HW231566   3.874   4.621   8.660  0.5704  0.1500 -0.5820
 6703SOL     OW31567   3.694   0.922  13.104 -0.6779 -0.6554 -0.7831
 6703SOL    HW131568   3.661   0.861  13.038  0.6831 -1.5428 -0.6463
 6703SOL    HW231569   3.787   0.936  13.086 -0.7882  1.4093  0.2774
 6704SOL     OW31570   2.360   0.571   4.554 -0.6155 -0.3149  0.2922
 6704SOL    HW131571   2.400   0.489   4.526  0.2463 -0.4203  1.8792
 6704SOL    HW231572   2.428   0.604   4.613  1.3754 -0.4439 -1.9382
 6705SOL     OW31573   4.683   3.697  15.552  0.1319  0.1106 -0.1553
 6705SOL    HW131574   4.664   3.728  15.463  0.4429  0.1541 -0.2074
 6705SOL    HW231575   4.609   3.641  15.573  0.8653 -0.7669  0.1043
 6706SOL     OW31576   1.237   1.034   5.745  0.6559  0.9336  0.2323
 6706SOL    HW131577   1.181   1.066   5.816 -2.5857 -1.9652 -1.0516
 6706SOL    HW231578   1.222   1.104   5.681  0.2977  0.3424 -0.3290
 6707SOL     OW31579   2.132   2.766  16.487 -0.1792 -0.5528  0.3761
 6707SOL    HW131580   2.084   2.689  16.517 -0.4555  0.4848  2.6412
 6707SOL    HW231581   2.222   2.736  16.503 -0.1248 -1.0607 -0.9765
 6708SOL     OW31582   2.250   4.711   5.289 -0.1511  0.1449 -0.0926
 6708SOL    HW131583   2.219   4.649   5.355 -0.1475 -1.4220 -1.5408
 6708SOL    HW231584   2.169   0.004   5.239 -1.1651  0.9616  1.8029
 6709SOL     OW31585   0.212   2.093   7.134 -0.5334  0.5789  0.1325
 6709SOL    HW131586   0.278   2.024   7.128 -0.7961  0.5983 -3.0129
 6709SOL    HW231587   0.204   2.116   7.041  0.5665  1.0791  0.1663
 6710SOL     OW31588   4.117   1.796   5.981 -0.7081  0.1691 -0.4828
 6710SOL    HW131589   4.200   1.833   5.951 -0.6581 -1.0864 -1.8716
 6710SOL    HW231590   4.094   1.741   5.906  0.2449 -0.0702 -0.6044
 6711SOL     OW31591   0.378   0.717   9.787  0.4823  0.0967  0.2094
 6711SOL    HW131592   0.410   0.646   9.843 -1.1357 -0.8098 -0.0340
 6711SOL    HW231593   0.425   0.793   9.820 -0.9512  0.9366  0.3203
 6712SOL     OW31594   1.420   0.144  14.747  0.1929 -0.2797 -0.3060
 6712SOL    HW131595   1.410   0.173  14.656  1.5658  1.6828  0.1613
 6712SOL    HW231596   1.418   0.051  14.726  0.4015 -0.6288  1.2644
 6713SOL     OW31597   3.988   3.200   2.005  0.0649  0.9000 -0.2292
 6713SOL    HW131598   3.917   3.180   1.943  0.1761  0.1613 -0.1190
 6713SOL    HW231599   3.966   3.289   2.034 -1.7163  0.2447  0.4096
 6714SOL     OW31600   0.639   2.164   3.493  0.3657 -0.3247 -0.1149
 6714SOL    HW131601   0.669   2.073   3.499 -1.4727 -0.8475  1.2149
 6714SOL    HW231602   0.648   2.187   3.585  0.6987 -0.1650 -0.1897
 6715SOL     OW31603   0.450   0.373   0.087  0.0023  0.7959 -0.2516
 6715SOL    HW131604   0.512   0.435   0.125 -1.0067  2.0361 -0.5926
 6715SOL    HW231605   0.504   0.296   0.104 -1.4466 -0.2526 -0.4029
 6716SOL     OW31606   3.651   4.041   7.029  0.5966 -0.4183  0.3639
 6716SOL    HW131607   3.643   4.076   7.118 -0.9425  0.2750 -0.0494
 6716SOL    HW231608   3.644   4.124   6.983 -0.0946 -0.1084  1.0185
 6717SOL     OW31609   0.279   3.168   6.225 -0.4504  0.2154  0.0093
 6717SOL    HW131610   0.243   3.112   6.294 -1.0959  0.1027 -0.4192
 6717SOL    HW231611   0.272   3.247   6.279 -0.7912  2.5209 -3.3931
 6718SOL     OW31612   0.289   2.186   4.347 -0.1177  0.4691  0.3038
 6718SOL    HW131613   0.213   2.153   4.394 -0.2603 -0.8214 -0.8346
 6718SOL    HW231614   0.241   2.226   4.275  1.1546  2.5032  0.5729
 6719SOL     OW31615   4.252   0.052  15.249 -0.1868 -0.3868  0.1448
 6719SOL    HW131616   4.329   0.100  15.280 -0.7195  1.2587 -1.1193
 6719SOL    HW231617   4.212   0.041  15.335 -1.7301 -0.5623 -0.6039
 6720SOL     OW31618   3.140   2.798  13.726  0.5745 -0.2309 -0.2959
 6720SOL    HW131619   3.205   2.856  13.764  0.7447 -1.7438  1.7585
 6720SOL    HW231620   3.178   2.713  13.748  0.8985 -0.3008 -1.1603
 6721SOL     OW31621   1.783   2.998   8.080  0.6128 -0.3181 -0.6425
 6721SOL    HW131622   1.734   3.069   8.038 -0.4403 -1.3390 -1.1277
 6721SOL    HW231623   1.861   3.014   8.026 -0.1623  1.1828 -1.3289
 6722SOL     OW31624   2.381   3.522  16.112  0.1676  0.3369  0.3454
 6722SOL    HW131625   2.338   3.565  16.037  0.0152  0.4124  0.4756
 6722SOL    HW231626   2.472   3.543  16.092 -0.3690  1.8873 -0.4934
 6723SOL     OW31627   3.772   2.734   2.944  0.4624 -0.2691  0.5286
 6723SOL    HW131628   3.713   2.795   2.988  0.5422  1.3509 -1.6176
 6723SOL    HW231629   3.704   2.673   2.918  0.4618 -0.4222  0.9058
 6724SOL     OW31630   2.011   2.262   8.967  0.2016  0.3003 -0.2490
 6724SOL    HW131631   1.999   2.178   9.011 -1.1117  0.3634 -0.4804
 6724SOL    HW231632   1.942   2.259   8.901 -0.7906  1.0963  0.7490
 6725SOL     OW31633   1.140   0.756   4.388 -0.1929  0.6727 -0.5658
 6725SOL    HW131634   1.205   0.824   4.370  1.5071 -0.6827  0.4912
 6725SOL    HW231635   1.058   0.802   4.406 -0.5281 -1.0000  2.1814
 6726SOL     OW31636   3.693   2.295   7.150 -0.0293  0.2566  0.2874
 6726SOL    HW131637   3.735   2.220   7.108 -0.2130  1.4600 -2.0284
 6726SOL    HW231638   3.732   2.281   7.237  1.1136  0.3797 -0.2054
 6727SOL     OW31639   0.668   4.324   8.824  0.1116 -0.1536 -0.0414
 6727SOL    HW131640   0.660   4.398   8.763  0.3940 -0.8869 -0.9696
 6727SOL    HW231641   0.578   4.319   8.854 -0.3377 -0.8927 -1.5113
 6728SOL     OW31642   3.047   1.458   2.857 -0.1707  0.4111 -0.4467
 6728SOL    HW131643   3.020   1.542   2.820 -1.2252 -0.2694 -1.2264
 6728SOL    HW231644   2.971   1.405   2.831  0.0418 -0.6490  1.0834
 6729SOL     OW31645   1.421   2.889   3.646  0.2503 -0.0346  0.0645
 6729SOL    HW131646   1.440   2.873   3.554 -1.8703  0.5052 -0.4821
 6729SOL    HW231647   1.384   2.803   3.666  0.4543 -0.6180 -2.1037
 6730SOL     OW31648   4.262   0.708  17.343  0.1977 -0.0992  0.2804
 6730SOL    HW131649   4.339   0.659  17.370  0.5492  1.1357  1.5495
 6730SOL    HW231650   4.286   0.796  17.372 -0.8560 -0.0430  1.0002
 6731SOL     OW31651   0.044   0.150   2.090  0.0233  0.8669 -0.2236
 6731SOL    HW131652   0.017   0.238   2.115 -0.9055  0.4418  0.2645
 6731SOL    HW231653   0.003   0.137   2.004  1.1706  1.2726 -0.8285
 6732SOL     OW31654   3.046   1.144   8.003 -0.0088  0.3439 -0.7215
 6732SOL    HW131655   3.114   1.082   7.977  0.3572 -0.0468  1.1148
 6732SOL    HW231656   3.084   1.208   8.063  0.3146 -0.6971  0.1916
 6733SOL     OW31657   1.181   0.154   8.801  0.1629 -0.6870  0.0048
 6733SOL    HW131658   1.181   0.249   8.793  0.1137 -0.4788  2.7635
 6733SOL    HW231659   1.146   0.120   8.718  0.7591 -0.2608 -0.4248
 6734SOL     OW31660   1.703   2.177   8.511 -0.3930 -0.2087 -0.1726
 6734SOL    HW131661   1.712   2.271   8.494  0.8027 -0.7420 -2.5123
 6734SOL    HW231662   1.692   2.139   8.424 -1.6691  0.5337 -0.3479
 6735SOL     OW31663   4.634   4.212  15.670  0.2279  0.2565 -0.3566
 6735SOL    HW131664   4.642   4.117  15.666 -0.0902  0.2150 -0.0302
 6735SOL    HW231665   0.003   4.228  15.643  0.5741 -3.4724 -1.4161
 6736SOL     OW31666   3.192   2.697  17.219  0.1115 -0.2153 -0.4475
 6736SOL    HW131667   3.115   2.738  17.258 -0.1960 -0.8633 -0.3777
 6736SOL    HW231668   3.208   2.620  17.274  0.4460  0.6808  0.7287
 6737SOL     OW31669   0.059   2.127   4.510 -0.7361 -0.1377 -0.4468
 6737SOL    HW131670   0.098   2.053   4.556 -0.1013 -0.4721 -1.5211
 6737SOL    HW231671   4.715   2.080   4.457  0.2737 -1.9904 -0.0523
 6738SOL     OW31672   4.537   4.714  15.144  0.6644  0.0892 -0.3489
 6738SOL    HW131673   4.595   0.065  15.120  0.0421  0.5010 -0.6294
 6738SOL    HW231674   4.466   0.007  15.081  1.5434  1.8987 -0.9224
 6739SOL     OW31675   2.452   0.993   2.934  0.4001  0.4139  0.2007
 6739SOL    HW131676   2.478   0.927   2.998  1.8518  1.5014  0.7473
 6739SOL    HW231677   2.416   0.941   2.862 -2.0194  0.1179  1.6260
 6740SOL     OW31678   3.076   0.271  10.932 -0.0737  0.2500 -0.5865
 6740SOL    HW131679   3.086   0.324  11.011  0.0634 -1.0736  0.2709
 6740SOL    HW231680   3.130   0.197  10.959  1.3697  1.6395  0.3667
 6741SOL     OW31681   0.477   1.716   7.204 -0.2467  0.3776 -0.2584
 6741SOL    HW131682   0.432   1.633   7.189  1.3296 -0.4869 -0.2465
 6741SOL    HW231683   0.444   1.788   7.151  1.0268  0.4649 -0.9308
 6742SOL     OW31684   1.110   4.382   2.881  0.4083 -0.1441  0.5921
 6742SOL    HW131685   1.170   4.412   2.813 -1.0233 -1.9450 -1.4658
 6742SOL    HW231686   1.025   4.418   2.859  0.7437  1.1680  1.4348
 6743SOL     OW31687   4.637   0.654   8.057 -0.3455 -0.0455 -0.1332
 6743SOL    HW131688   4.641   0.569   8.013  2.4501  0.7169 -1.2689
 6743SOL    HW231689   4.574   0.639   8.128  0.9662 -0.5443  0.9214
 6744SOL     OW31690   3.976   0.768   8.171  0.1011 -0.1796 -0.0313
 6744SOL    HW131691   4.036   0.835   8.205  0.7030 -1.0477  0.6474
 6744SOL    HW231692   3.891   0.809   8.185 -0.4626 -1.9880  1.8450
 6745SOL     OW31693   1.899   0.846   3.219  0.8051 -0.8435 -0.2494
 6745SOL    HW131694   1.877   0.886   3.303 -1.2109 -0.2978 -1.0531
 6745SOL    HW231695   1.825   0.786   3.214  0.6495 -0.5438 -1.3834
 6746SOL     OW31696   4.228   0.488  15.628 -0.3472 -0.2649  0.4465
 6746SOL    HW131697   4.277   0.555  15.580 -0.6505 -2.3788 -2.7806
 6746SOL    HW231698   4.298   0.450  15.682 -0.6760  0.6901  1.5515
 6747SOL     OW31699   3.947   1.334   6.393  0.0018 -0.3292 -0.4036
 6747SOL    HW131700   3.964   1.421   6.357  2.2924 -0.3808  0.5425
 6747SOL    HW231701   3.880   1.349   6.460 -0.5749 -1.4949 -0.7075
 6748SOL     OW31702   0.175   1.888   9.087 -0.7436 -0.1328 -0.5097
 6748SOL    HW131703   0.170   1.846   9.001  0.3554 -0.6301 -0.3389
 6748SOL    HW231704   0.256   1.937   9.075 -1.6301  1.6948  0.9422
 6749SOL     OW31705   4.006   1.639   0.150  0.2031 -0.1316  0.1777
 6749SOL    HW131706   4.070   1.701   0.184 -0.0431  0.8635 -1.1703
 6749SOL    HW231707   3.928   1.680   0.187  0.6164  0.9417 -0.1297
 6750SOL     OW31708   0.431   3.172  13.044 -0.9266  0.1799 -0.4417
 6750SOL    HW131709   0.477   3.242  12.998 -0.6096  0.7817  0.8031
 6750SOL    HW231710   0.385   3.219  13.113  0.2112  0.1062  0.3517
 6751SOL     OW31711   2.303   3.695   7.510  0.2473  0.0633  0.3181
 6751SOL    HW131712   2.322   3.789   7.518 -1.6313  0.5208 -0.4767
 6751SOL    HW231713   2.381   3.668   7.463  0.7020 -1.2947  1.8717
 6752SOL     OW31714   2.607   0.365   2.756  0.0978  0.0791 -0.3044
 6752SOL    HW131715   2.515   0.344   2.739  0.6983 -1.0766 -2.2020
 6752SOL    HW231716   2.640   0.288   2.709 -0.3947  0.7388 -1.7308
 6753SOL     OW31717   3.219   4.475   6.456  0.1415 -0.1657  0.1744
 6753SOL    HW131718   3.184   4.474   6.367  0.3657  0.4383  0.0808
 6753SOL    HW231719   3.300   4.522   6.434 -1.1035  1.4052 -1.0221
 6754SOL     OW31720   1.755   0.136   1.324  0.0677  0.0720  0.7117
 6754SOL    HW131721   1.848   0.116   1.338  0.2194 -0.6456 -1.3135
 6754SOL    HW231722   1.713   0.069   1.378  1.0810 -1.1315  0.0092
 6755SOL     OW31723   4.353   4.620   1.873 -0.1175  0.0442 -0.2728
 6755SOL    HW131724   4.421   4.557   1.896 -0.8738 -0.8953 -0.5941
 6755SOL    HW231725   4.271   4.572   1.861  0.0204 -0.3314  0.2741
 6756SOL     OW31726   4.275   1.088  12.460 -0.0637  0.5057 -0.0014
 6756SOL    HW131727   4.262   1.149  12.533  0.6914  0.4227  0.1939
 6756SOL    HW231728   4.259   1.143  12.383 -2.4598 -2.2156 -1.4633
 6757SOL     OW31729   1.529   2.348   5.881  0.1716  0.0483 -0.1722
 6757SOL    HW131730   1.555   2.324   5.792 -0.2855 -1.5526  0.1207
 6757SOL    HW231731   1.612   2.332   5.925  1.3725 -0.0425 -2.4809
 6758SOL     OW31732   3.780   3.251   8.058  0.0278 -0.0926 -0.9009
 6758SOL    HW131733   3.874   3.267   8.045  0.7364 -3.1893  0.4555
 6758SOL    HW231734   3.758   3.307   8.132  1.0006 -1.3702  0.3664
 6759SOL     OW31735   4.201   2.293   5.230  0.1400  0.2793 -0.2382
 6759SOL    HW131736   4.270   2.227   5.220 -1.6596 -1.6246 -0.1467
 6759SOL    HW231737   4.161   2.271   5.146  1.7143  0.2178 -0.9730
 6760SOL     OW31738   3.124   1.518  14.685 -0.4319 -0.1132  0.0529
 6760SOL    HW131739   3.179   1.557  14.617  0.1406  0.0935  0.6347
 6760SOL    HW231740   3.075   1.453  14.635 -0.6780 -1.1161  1.6134
 6761SOL     OW31741   1.508   4.345   9.389 -0.4067 -0.1118 -0.9160
 6761SOL    HW131742   1.495   4.265   9.439  1.6831 -1.6099 -2.7724
 6761SOL    HW231743   1.589   4.327   9.342 -0.2583 -0.5667 -0.4811
 6762SOL     OW31744   1.435   3.793  12.096 -0.7389 -0.0089  0.0815
 6762SOL    HW131745   1.495   3.857  12.134  0.8231 -1.5434  0.1995
 6762SOL    HW231746   1.353   3.843  12.100  1.5454  3.8124 -1.0645
 6763SOL     OW31747   0.832   0.672   3.904  0.3936 -0.2030  0.4982
 6763SOL    HW131748   0.786   0.735   3.849 -1.1520 -0.9185  0.9725
 6763SOL    HW231749   0.765   0.604   3.906  0.0691  0.1540  1.8608
 6764SOL     OW31750   1.806   1.209  11.615  0.3347 -0.1948  0.0110
 6764SOL    HW131751   1.779   1.269  11.685 -0.5395 -0.3688 -0.1775
 6764SOL    HW231752   1.834   1.267  11.545  2.7502  2.2478  3.0139
 6765SOL     OW31753   1.893   3.431   9.624  0.2869  0.0218  0.6803
 6765SOL    HW131754   1.846   3.400   9.546  0.6710  0.5260  0.2425
 6765SOL    HW231755   1.971   3.376   9.625 -1.3937 -2.3862  0.1083
 6766SOL     OW31756   3.072   3.575   6.282 -0.0613  0.4560  0.2384
 6766SOL    HW131757   3.034   3.569   6.195  0.9414 -0.9589 -0.1020
 6766SOL    HW231758   3.070   3.669   6.304 -0.1081  1.2773 -3.2567
 6767SOL     OW31759   3.230   0.180  12.052  0.2876  0.2573  0.2595
 6767SOL    HW131760   3.219   0.086  12.066  0.7953  0.4511  1.9237
 6767SOL    HW231761   3.214   0.180  11.958 -2.5669 -0.7107  0.7334
 6768SOL     OW31762   3.168   1.708   4.321  0.2590 -0.1885 -0.5113
 6768SOL    HW131763   3.241   1.674   4.374  0.1999 -0.9244 -0.9053
 6768SOL    HW231764   3.153   1.791   4.367  1.0939 -0.5263  0.3889
 6769SOL     OW31765   0.348   1.743   7.851  0.0597  0.6824 -0.3984
 6769SOL    HW131766   0.306   1.687   7.917 -0.6840  2.7449  0.8622
 6769SOL    HW231767   0.373   1.679   7.785  1.7542  1.5743 -0.6176
 6770SOL     OW31768   1.673   2.788   6.909  0.2248  0.1831 -0.7520
 6770SOL    HW131769   1.754   2.776   6.860  2.0653  1.3480  2.0101
 6770SOL    HW231770   1.669   2.698   6.941 -0.6455  0.6722  0.5191
 6771SOL     OW31771   4.570   1.105  17.476  0.4573  0.0805 -0.0154
 6771SOL    HW131772   4.492   1.049  17.468  0.7923 -0.0992 -2.0104
 6771SOL    HW231773   4.561   1.168  17.404  1.7526  0.5672  0.2592
 6772SOL     OW31774   2.032   2.118   0.507 -0.0963  0.9483 -0.5384
 6772SOL    HW131775   2.124   2.145   0.505  0.5090 -0.7583  3.6212
 6772SOL    HW231776   2.007   2.137   0.598  0.9456 -0.7410  0.0946
 6773SOL     OW31777   2.015   1.311   5.021 -0.4371 -0.4125 -0.5096
 6773SOL    HW131778   1.996   1.292   4.930 -0.3506 -2.7204 -0.0357
 6773SOL    HW231779   2.028   1.406   5.012 -0.7567 -0.4950 -1.7545
 6774SOL     OW31780   1.447   3.252   3.897  0.0142 -0.9544 -0.1010
 6774SOL    HW131781   1.383   3.223   3.962  0.5730 -2.0624 -0.0335
 6774SOL    HW231782   1.494   3.170   3.880 -0.3025 -0.6845 -2.2872
 6775SOL     OW31783   0.982   4.233   7.773  0.2500 -0.2421 -0.3424
 6775SOL    HW131784   1.060   4.273   7.736  0.3218 -0.0189  0.0503
 6775SOL    HW231785   1.006   4.226   7.866 -0.0207  0.1493 -0.2389
 6776SOL     OW31786   1.939   4.553  17.312  0.0786 -0.1121  0.2301
 6776SOL    HW131787   1.934   4.467  17.353 -2.2301 -0.2670 -0.3639
 6776SOL    HW231788   2.029   4.554  17.278 -0.0148 -0.0479 -0.0118
 6777SOL     OW31789   0.621   2.497  10.299 -0.0178  0.5259 -0.3158
 6777SOL    HW131790   0.609   2.555  10.375  0.0351  1.0525 -0.7077
 6777SOL    HW231791   0.601   2.409  10.331 -0.0883 -0.0258 -1.8708
 6778SOL     OW31792   0.303   2.477   3.757 -0.1329  0.3897 -1.4733
 6778SOL    HW131793   0.348   2.453   3.676 -1.1733 -3.3714 -0.9058
 6778SOL    HW231794   0.299   2.397   3.809 -0.5415  0.2794 -1.6762
 6779SOL     OW31795   2.526   4.288   3.487  0.6984  0.0687 -0.0554
 6779SOL    HW131796   2.578   4.323   3.559 -0.7134  1.2205  0.4094
 6779SOL    HW231797   2.436   4.299   3.516  1.0206  1.8173  0.2808
 6780SOL     OW31798   3.293   0.154   5.016  0.2206  0.1177  0.6103
 6780SOL    HW131799   3.339   0.205   4.949  1.4646  0.8773  2.0409
 6780SOL    HW231800   3.370   0.136   5.071  1.3726 -2.9403 -1.9939
 6781SOL     OW31801   4.669   4.176  15.193  0.4630 -0.0020  0.4021
 6781SOL    HW131802   4.714   4.259  15.204 -0.2306  0.2853  1.0719
 6781SOL    HW231803   4.669   4.150  15.285  0.4472  0.0574  0.4187
 6782SOL     OW31804   2.663   0.093  15.536  0.3326  0.1369 -0.5753
 6782SOL    HW131805   2.687   0.148  15.461  0.7875  0.5472 -0.1335
 6782SOL    HW231806   2.731   0.027  15.545 -0.1838 -0.3931 -0.5391
 6783SOL     OW31807   1.005   4.545   8.883  0.1852  0.4317 -0.0145
 6783SOL    HW131808   0.930   4.603   8.871 -0.8824 -1.2878 -1.4777
 6783SOL    HW231809   1.002   4.543   8.979  0.7284 -2.9793 -0.0832
 6784SOL     OW31810   0.093   0.328   4.479 -0.3746 -0.0861 -0.4648
 6784SOL    HW131811   0.103   0.241   4.518  0.1929  0.4938  0.6814
 6784SOL    HW231812   0.179   0.332   4.437  0.7944 -2.1458  1.6955
 6785SOL     OW31813   4.313   4.271   5.210  0.2938  0.5665  0.0298
 6785SOL    HW131814   4.230   4.302   5.175 -0.5400 -1.4202  0.2169
 6785SOL    HW231815   4.342   4.215   5.137 -0.0385 -0.0178  0.3497
 6786SOL     OW31816   4.616   2.653   6.108  0.1547  0.5104  0.4548
 6786SOL    HW131817   4.523   2.664   6.130 -0.4610 -0.0326 -1.8616
 6786SOL    HW231818   4.644   2.744   6.093 -1.0309  1.2924  2.9288
 6787SOL     OW31819   0.484   2.497   8.118  0.0592  0.0724  0.5066
 6787SOL    HW131820   0.543   2.424   8.096  1.8628  1.9437 -0.8359
 6787SOL    HW231821   0.542   2.541   8.181 -0.3621  1.6046 -0.1875
 6788SOL     OW31822   4.173   1.846  10.247  0.9491 -0.4139 -0.1061
 6788SOL    HW131823   4.114   1.917  10.222  1.0384  0.1958  1.3972
 6788SOL    HW231824   4.230   1.891  10.310  3.7335 -0.5906 -2.5156
 6789SOL     OW31825   1.484   1.207  13.645 -0.4303 -0.5749  0.6054
 6789SOL    HW131826   1.487   1.302  13.636  0.8761 -0.5390  1.4485
 6789SOL    HW231827   1.577   1.188  13.656 -1.0838 -2.7644  2.3705
 6790SOL     OW31828   0.558   3.671   0.560 -0.4138  0.1078  0.3439
 6790SOL    HW131829   0.569   3.668   0.465 -1.7573 -0.2185  0.1983
 6790SOL    HW231830   0.538   3.765   0.563  0.5866  0.3702 -1.2203
 6791SOL     OW31831   1.332   2.371   7.006 -0.1828  0.5529 -0.1481
 6791SOL    HW131832   1.358   2.460   6.984 -1.0049  0.7142 -0.4553
 6791SOL    HW231833   1.344   2.323   6.924 -0.0014 -0.5141  0.4943
 6792SOL     OW31834   1.255   0.253  10.445  0.3839  0.3649  1.0323
 6792SOL    HW131835   1.178   0.309  10.432  0.0793  0.2232  2.2369
 6792SOL    HW231836   1.299   0.293  10.519  1.0191  3.1440 -0.8292
 6793SOL     OW31837   4.211   1.329   2.252 -0.2674  0.1167 -0.1097
 6793SOL    HW131838   4.301   1.295   2.252  0.0810  1.0104  2.0147
 6793SOL    HW231839   4.165   1.268   2.309 -0.0981 -1.4357 -1.6587
 6794SOL     OW31840   0.653   3.329   4.609  0.1437  0.0262  0.1848
 6794SOL    HW131841   0.564   3.297   4.595  0.2895  1.5898 -4.3497
 6794SOL    HW231842   0.693   3.254   4.653 -1.5019 -1.7086 -1.2541
 6795SOL     OW31843   1.366   1.282   8.027  0.9002 -0.4307  0.1897
 6795SOL    HW131844   1.365   1.325   8.113  0.4263  2.1387 -1.0996
 6795SOL    HW231845   1.273   1.279   8.007  1.1622 -1.7996 -0.8068
 6796SOL     OW31846   0.695   2.952  10.381 -0.4004 -0.1919 -0.1245
 6796SOL    HW131847   0.770   3.009  10.369 -0.0515 -0.9406 -1.5816
 6796SOL    HW231848   0.660   2.963  10.292 -2.3393 -1.4320  0.4673
 6797SOL     OW31849   3.796   4.292   8.890  0.2986 -0.1736  0.4221
 6797SOL    HW131850   3.811   4.359   8.957  2.9829 -0.7242  0.3596
 6797SOL    HW231851   3.703   4.279   8.904  0.1550  0.5291  0.1553
 6798SOL     OW31852   2.357   1.114   3.306  0.1810  0.1043  0.0967
 6798SOL    HW131853   2.300   1.047   3.269  1.4500  0.4272 -2.4130
 6798SOL    HW231854   2.417   1.058   3.356 -1.5861 -1.4633  0.4586
 6799SOL     OW31855   3.526   1.497  12.005  0.2717 -0.3840  0.4629
 6799SOL    HW131856   3.462   1.507  12.076 -0.3883 -1.3852  0.0172
 6799SOL    HW231857   3.559   1.584  11.985 -0.2958 -0.3681 -0.4065
 6800SOL     OW31858   1.621   0.390  14.931  0.3406 -0.3540 -0.5773
 6800SOL    HW131859   1.676   0.397  14.853  1.1410 -1.6643 -0.1222
 6800SOL    HW231860   1.699   0.414  14.982 -1.2866  1.7433  0.9207
 6801SOL     OW31861   4.106   3.040  10.799  0.3317  0.1209 -0.1424
 6801SOL    HW131862   4.192   3.053  10.757  0.9049 -0.6803  0.7681
 6801SOL    HW231863   4.126   3.107  10.864 -2.0146  0.8915 -0.2413
 6802SOL     OW31864   2.953   0.796  11.341  0.0433 -0.1140 -0.3903
 6802SOL    HW131865   2.881   0.819  11.282  0.1967 -0.1663 -0.5952
 6802SOL    HW231866   2.907   0.795  11.425 -1.7088 -0.4647 -1.3597
 6803SOL     OW31867   1.075   2.839   1.208  0.8569 -0.0625 -0.1617
 6803SOL    HW131868   1.167   2.846   1.180  1.0908 -2.8836 -0.0467
 6803SOL    HW231869   1.040   2.754   1.185  1.2561 -0.4641  0.6975
 6804SOL     OW31870   3.437   0.659  17.538  0.9228 -0.1066  0.0911
 6804SOL    HW131871   3.364   0.649  17.476 -0.6155 -0.1519  1.8955
 6804SOL    HW231872   3.439   0.573  17.580 -2.9628 -0.1884  0.1580
 6805SOL     OW31873   2.072   0.851  10.892 -0.5415 -0.5091  0.6337
 6805SOL    HW131874   2.038   0.877  10.978 -0.9116  0.5678  0.1629
 6805SOL    HW231875   2.151   0.902  10.871 -0.0345 -2.3969 -1.9467
 6806SOL     OW31876   2.669   2.248   6.965 -0.1187 -0.5655 -0.2043
 6806SOL    HW131877   2.712   2.162   6.958  1.6885  0.4891 -2.0357
 6806SOL    HW231878   2.602   2.240   6.897 -0.6218 -0.3265  0.2653
 6807SOL     OW31879   0.554   1.256   4.256  0.0686 -0.2193 -0.6604
 6807SOL    HW131880   0.498   1.304   4.318  1.8566  0.9471  0.0665
 6807SOL    HW231881   0.601   1.183   4.297  0.1943  0.7868  1.0125
 6808SOL     OW31882   1.646   0.761   0.803  0.1326  0.0190 -0.0805
 6808SOL    HW131883   1.600   0.677   0.800  0.6425 -0.2014 -1.6608
 6808SOL    HW231884   1.686   0.746   0.889  0.1557 -1.6021 -0.3660
 6809SOL     OW31885   2.425   2.590   2.327 -1.0479 -0.1568 -0.1235
 6809SOL    HW131886   2.475   2.512   2.301 -1.4833  0.2128 -2.0608
 6809SOL    HW231887   2.476   2.665   2.299  1.7955 -2.9967 -2.4342
 6810SOL     OW31888   1.744   4.477   3.771  0.1049  0.1281  0.2389
 6810SOL    HW131889   1.751   4.557   3.719  2.2086 -0.4617 -0.3826
 6810SOL    HW231890   1.658   4.477   3.814 -0.2352 -3.2789 -0.4181
 6811SOL     OW31891   1.694   3.284   2.368 -0.8140  0.2945  0.3361
 6811SOL    HW131892   1.642   3.331   2.433  1.0638  0.3054  1.8453
 6811SOL    HW231893   1.640   3.206   2.355  0.5926 -0.5147 -0.5683
 6812SOL     OW31894   2.358   4.523   3.041 -0.8753  0.0420  0.3891
 6812SOL    HW131895   2.272   4.562   3.024 -0.4715  1.5968  1.9585
 6812SOL    HW231896   2.339   4.458   3.108 -1.3229  0.0321  0.2491
 6813SOL     OW31897   3.547   2.444   5.484 -0.1548 -0.0528 -0.0883
 6813SOL    HW131898   3.564   2.420   5.575 -2.2663  0.9971  0.5956
 6813SOL    HW231899   3.463   2.401   5.471  0.7268 -2.1199  1.2319
 6814SOL     OW31900   0.064   1.409   8.777  0.1986 -0.2349  0.4096
 6814SOL    HW131901   4.707   1.409   8.832  0.9485 -0.6829  1.4599
 6814SOL    HW231902   0.053   1.485   8.719  1.9017  1.1961  1.9838
 6815SOL     OW31903   4.142   0.997   2.074 -0.2485 -0.4229  0.7733
 6815SOL    HW131904   4.085   1.072   2.061  2.0782  1.2835  0.5632
 6815SOL    HW231905   4.102   0.939   2.009  2.2056  0.7604 -1.7894
 6816SOL     OW31906   0.596   4.501   5.868 -0.4298 -0.1321 -0.6738
 6816SOL    HW131907   0.595   4.425   5.810 -0.1372 -0.7738  0.1732
 6816SOL    HW231908   0.689   4.493   5.886 -1.3802 -1.7875  3.4730
 6817SOL     OW31909   4.610   0.788  14.173  0.1090  0.1600  0.4175
 6817SOL    HW131910   4.704   0.789  14.192  0.1484  0.0455  0.2406
 6817SOL    HW231911   4.592   0.879  14.195  1.4101  0.4269  0.3888
 6818SOL     OW31912   0.569   0.134   0.188  0.4677  0.7401 -0.1772
 6818SOL    HW131913   0.504   0.146   0.257  0.0243 -0.4180 -0.3849
 6818SOL    HW231914   0.572   0.038   0.187  0.9830  0.7522  0.5902
 6819SOL     OW31915   2.818   3.134   4.696  0.3442 -0.1099 -0.1843
 6819SOL    HW131916   2.811   3.065   4.631  0.2175  2.0097 -2.4135
 6819SOL    HW231917   2.750   3.196   4.669 -0.4348  0.0411  2.1124
 6820SOL     OW31918   3.728   1.130   0.596 -0.3164  0.0611 -0.0436
 6820SOL    HW131919   3.678   1.120   0.515  0.9420 -0.2528 -0.7731
 6820SOL    HW231920   3.715   1.047   0.642  0.3490 -0.3914 -0.6717
 6821SOL     OW31921   3.924   3.633   6.500  0.4037 -0.5410 -0.0543
 6821SOL    HW131922   4.011   3.594   6.505  0.8660  0.6369  1.0186
 6821SOL    HW231923   3.930   3.679   6.583  0.6244  1.5662 -1.2251
 6822SOL     OW31924   2.544   0.772   3.074  0.1176 -0.2171 -0.2675
 6822SOL    HW131925   2.581   0.729   2.996  2.0582  0.9034  0.0153
 6822SOL    HW231926   2.589   0.722   3.142  1.1079  0.2077 -0.5964
 6823SOL     OW31927   0.797   2.768  11.070 -0.1832  0.2555 -0.3097
 6823SOL    HW131928   0.739   2.750  11.144  1.4943 -1.0057  0.6646
 6823SOL    HW231929   0.789   2.864  11.077  1.3521  0.2032  1.9749
 6824SOL     OW31930   0.714   1.898   3.497 -0.2312  0.8869 -0.5018
 6824SOL    HW131931   0.777   1.880   3.427  0.1856 -1.4364  0.4669
 6824SOL    HW231932   0.678   1.810   3.505 -1.1902  1.4146  0.9274
 6825SOL     OW31933   0.794   0.728   2.836  0.6597  0.4508  0.0761
 6825SOL    HW131934   0.748   0.666   2.893 -0.2151  0.4700 -0.6107
 6825SOL    HW231935   0.752   0.702   2.754 -1.1846 -0.0772  1.1844
 6826SOL     OW31936   4.620   1.713  17.029  0.4195  0.3496 -0.0165
 6826SOL    HW131937   4.593   1.789  16.978  1.2793  1.3133  0.9831
 6826SOL    HW231938   4.698   1.744  17.073 -0.7246  0.9949  1.5350
 6827SOL     OW31939   2.706   1.855  16.381  0.4850  0.7895  0.1094
 6827SOL    HW131940   2.612   1.873  16.375  0.1754 -0.5826  1.0582
 6827SOL    HW231941   2.714   1.771  16.426  0.5226  0.8196  0.1588
 6828SOL     OW31942   2.367   0.590  15.525 -0.4980 -0.1466  0.0016
 6828SOL    HW131943   2.356   0.684  15.515 -0.3490  0.1231  2.3017
 6828SOL    HW231944   2.300   0.549  15.471  0.9230 -0.4169 -1.5502
 6829SOL     OW31945   1.199   2.945  13.225 -0.5743  0.5874  0.1552
 6829SOL    HW131946   1.262   3.017  13.235 -0.5667  0.5463  0.4017
 6829SOL    HW231947   1.202   2.937  13.129 -0.0094 -0.0523  0.2268
 6830SOL     OW31948   2.213   0.394   6.344  0.2464  0.2756 -0.3605
 6830SOL    HW131949   2.268   0.456   6.295  0.5068 -1.9054 -2.8388
 6830SOL    HW231950   2.275   0.321   6.352 -0.8300 -0.6932 -0.9092
 6831SOL     OW31951   0.002   1.336   9.341  0.0667 -0.2113 -0.2508
 6831SOL    HW131952   0.016   1.242   9.354 -1.5291 -0.1506  1.8298
 6831SOL    HW231953   4.650   1.343   9.402  1.1444  0.3461  0.9824
 6832SOL     OW31954   2.355   1.716   7.600  0.5298 -0.1560  0.1781
 6832SOL    HW131955   2.419   1.721   7.529 -1.6902  0.1359 -1.8093
 6832SOL    HW231956   2.311   1.631   7.590  0.7888 -0.3953  1.0333
 6833SOL     OW31957   4.545   2.681  13.561  0.0159  1.2937 -0.2943
 6833SOL    HW131958   4.636   2.707  13.578 -0.4123  1.8647  1.1844
 6833SOL    HW231959   4.499   2.738  13.623  1.2200  1.5815  0.3366
 6834SOL     OW31960   3.248   4.137   1.605  0.1720 -0.1176 -0.2856
 6834SOL    HW131961   3.184   4.086   1.654 -2.3413  3.1640 -0.1175
 6834SOL    HW231962   3.302   4.068   1.567  0.9716  0.0653  0.5196
 6835SOL     OW31963   2.097   3.812   4.896 -0.2569 -0.3802  0.0652
 6835SOL    HW131964   2.031   3.824   4.828 -3.3499 -1.2632  2.9278
 6835SOL    HW231965   2.145   3.895   4.893 -0.1618 -0.4289  0.2320
 6836SOL     OW31966   1.850   1.359   5.410 -0.0352 -0.7939 -0.2810
 6836SOL    HW131967   1.763   1.375   5.447 -0.6499  0.2893 -2.2055
 6836SOL    HW231968   1.905   1.428   5.448 -2.0548 -0.1233  1.4201
 6837SOL     OW31969   2.092   3.260   6.107 -0.8910 -0.0321 -0.1399
 6837SOL    HW131970   2.121   3.215   6.028  0.2605  1.1624 -0.4015
 6837SOL    HW231971   2.095   3.188   6.169 -0.8374  1.1068  1.1786
 6838SOL     OW31972   1.297   0.206   6.325  0.4650  0.2200 -0.6666
 6838SOL    HW131973   1.230   0.201   6.392  0.8456  1.2917 -0.2062
 6838SOL    HW231974   1.374   0.178   6.375  0.2322  1.5523  0.3977
 6839SOL     OW31975   2.578   0.649   2.591  0.1644  0.2806 -0.4015
 6839SOL    HW131976   2.529   0.710   2.536  0.2141  0.8243  0.1608
 6839SOL    HW231977   2.569   0.576   2.529 -0.1365 -0.0784  0.0623
 6840SOL     OW31978   1.457   1.912   6.323  0.2948 -0.2487 -0.5783
 6840SOL    HW131979   1.538   1.925   6.372  0.1365  1.5993 -0.7888
 6840SOL    HW231980   1.455   1.984   6.259 -2.6889 -0.2658 -0.5052
 6841SOL     OW31981   4.514   1.430   2.453  0.1462 -0.3662  0.0503
 6841SOL    HW131982   4.605   1.453   2.432  0.5308 -2.4356 -0.4733
 6841SOL    HW231983   4.525   1.345   2.495 -2.5111 -0.3701  0.7719
 6842SOL     OW31984   4.531   3.910   7.209 -0.1971 -0.7244  0.6009
 6842SOL    HW131985   4.531   3.824   7.251  0.7824 -2.2322 -2.5225
 6842SOL    HW231986   4.592   3.958   7.264 -0.8074 -0.1342  0.7657
 6843SOL     OW31987   0.879   1.682   5.436 -0.4738 -0.2848 -0.3391
 6843SOL    HW131988   0.955   1.695   5.381 -0.1907 -2.0028 -0.3614
 6843SOL    HW231989   0.871   1.760   5.491 -2.3994  0.4180 -1.6210
 6844SOL     OW31990   1.995   2.973   7.906 -0.2951 -0.5426 -0.3599
 6844SOL    HW131991   1.969   2.914   7.835  0.2094 -0.4996 -0.5792
 6844SOL    HW231992   2.021   3.044   7.847 -1.3264 -0.8943 -1.2528
 6845SOL     OW31993   4.629   1.231   8.026  0.5887  0.3474  0.2289
 6845SOL    HW131994   4.608   1.156   7.970  2.4652 -1.3673  1.8127
 6845SOL    HW231995   4.542   1.241   8.065  0.8556 -2.1838  1.4894
 6846SOL     OW31996   2.842   1.525   6.667  0.0521 -0.2501 -0.0923
 6846SOL    HW131997   2.860   1.605   6.717 -1.5972  1.0616 -1.6178
 6846SOL    HW231998   2.914   1.545   6.607  0.6321 -1.1499  0.3045
 6847SOL     OW31999   4.290   1.906   6.518  0.4361 -0.2043 -0.2329
 6847SOL    HW132000   4.339   1.916   6.436 -3.3595 -0.1276 -2.4537
 6847SOL    HW232001   4.335   1.832   6.559 -1.0286 -0.0725  1.6245
 6848SOL     OW32002   3.308   0.678  14.269  0.1263 -0.1470  1.1652
 6848SOL    HW132003   3.313   0.586  14.296 -0.7049 -0.5353 -0.0149
 6848SOL    HW232004   3.269   0.662  14.183 -0.2114 -0.9766  1.4680
 6849SOL     OW32005   1.957   3.153   6.793 -0.0377  0.7790  0.3585
 6849SOL    HW132006   1.913   3.233   6.823  0.9984  1.3613  0.3410
 6849SOL    HW232007   1.877   3.111   6.762 -0.2421  1.9084 -0.6839
 6850SOL     OW32008   0.888   4.112   1.570 -0.0428 -0.3109 -0.6744
 6850SOL    HW132009   0.794   4.125   1.568 -0.2362 -1.8702 -2.1516
 6850SOL    HW232010   0.874   4.070   1.655  1.3378  0.3048 -0.1465
 6851SOL     OW32011   3.266   3.729   4.262 -0.1547 -0.2107 -0.1790
 6851SOL    HW132012   3.251   3.724   4.167  0.4951 -0.5317 -0.2673
 6851SOL    HW232013   3.245   3.640   4.289 -0.3516 -0.7161 -1.9761
 6852SOL     OW32014   0.644   1.954   4.949  0.4665  0.0282  0.0311
 6852SOL    HW132015   0.593   1.873   4.941 -1.5123  1.0119  2.6061
 6852SOL    HW232016   0.588   2.023   4.912 -0.9947 -0.7018  0.8529
 6853SOL     OW32017   3.723   4.515   3.167  0.1483  0.0047 -0.5201
 6853SOL    HW132018   3.660   4.566   3.219  0.2734  1.3476 -1.7055
 6853SOL    HW232019   3.668   4.442   3.139  0.0917 -0.5063  0.9073
 6854SOL     OW32020   2.816   4.475   6.269 -0.4856  0.3643 -0.4845
 6854SOL    HW132021   2.847   4.557   6.306 -0.1861 -0.4453  1.0532
 6854SOL    HW232022   2.889   4.456   6.210  0.8848 -0.2549  1.4337
 6855SOL     OW32023   2.343   1.849   7.132  0.1276  0.3492 -0.3442
 6855SOL    HW132024   2.264   1.898   7.156 -1.1360 -1.6580 -0.3395
 6855SOL    HW232025   2.405   1.906   7.176 -0.5527 -1.1802  2.6506
 6856SOL     OW32026   1.466   4.495   3.505  0.1583  0.1190 -0.5157
 6856SOL    HW132027   1.412   4.468   3.430 -2.5851 -0.0389  1.4909
 6856SOL    HW232028   1.401   4.504   3.575 -1.2822 -0.1402 -1.8096
 6857SOL     OW32029   3.812   3.754   1.121  0.5440 -0.4292 -0.0822
 6857SOL    HW132030   3.881   3.689   1.109 -0.1731 -0.9960 -1.1626
 6857SOL    HW232031   3.740   3.698   1.149 -0.5125  0.9363 -0.0247
 6858SOL     OW32032   3.252   2.850   5.073 -0.0431 -0.0906  0.2919
 6858SOL    HW132033   3.232   2.900   5.153  0.6539  0.3215  0.2063
 6858SOL    HW232034   3.207   2.768   5.094 -1.3426  0.8863  1.2988
 6859SOL     OW32035   3.796   3.918   2.437  1.2597  0.2063  0.2038
 6859SOL    HW132036   3.713   3.965   2.448  1.0883  0.0002 -0.2185
 6859SOL    HW232037   3.786   3.854   2.508 -0.9008 -0.9428 -1.1213
 6860SOL     OW32038   2.734   1.962   4.695 -0.5524 -0.1338 -0.2094
 6860SOL    HW132039   2.689   2.046   4.696  0.5537  0.4500  0.9227
 6860SOL    HW232040   2.675   1.895   4.662 -0.7884 -0.6683  1.2910
 6861SOL     OW32041   3.164   4.632   7.604 -0.2356  0.1290  0.0797
 6861SOL    HW132042   3.255   4.662   7.604 -0.3727  0.5812 -3.7282
 6861SOL    HW232043   3.132   4.698   7.665 -1.6597  0.6902 -1.2813
 6862SOL     OW32044   2.647   3.409   2.226 -0.1888  0.1167  0.6522
 6862SOL    HW132045   2.738   3.437   2.232 -0.6813  1.6159  1.0571
 6862SOL    HW232046   2.648   3.321   2.188 -0.0106  0.3039  0.2158
 6863SOL     OW32047   0.525   0.975   4.872  0.0286 -0.4305  0.3368
 6863SOL    HW132048   0.554   0.999   4.960 -0.3503  0.0923  0.3199
 6863SOL    HW232049   0.429   0.979   4.881 -0.1610  0.1032 -1.9685
 6864SOL     OW32050   3.618   0.746   5.409  0.1441  0.2740  0.2764
 6864SOL    HW132051   3.699   0.701   5.384  0.5351  1.1538 -0.0197
 6864SOL    HW232052   3.647   0.772   5.496  0.5393  0.6526  0.0270
 6865SOL     OW32053   3.796   1.618   7.451 -0.0504 -0.5527  0.1377
 6865SOL    HW132054   3.712   1.657   7.425  0.4331  1.6063  1.8956
 6865SOL    HW232055   3.831   1.690   7.503 -0.9751  0.2940 -0.4022
 6866SOL     OW32056   1.157   3.665   6.622  0.5346  0.1838 -0.5574
 6866SOL    HW132057   1.154   3.584   6.571  0.6095 -1.0760  1.4434
 6866SOL    HW232058   1.244   3.658   6.663 -0.5409 -1.0457  1.4644
 6867SOL     OW32059   3.555   3.201  15.460 -0.3039 -0.4386  0.2750
 6867SOL    HW132060   3.565   3.150  15.379 -3.4316  1.4747 -1.3182
 6867SOL    HW232061   3.535   3.138  15.530  0.0477 -1.3078 -0.3987
 6868SOL     OW32062   0.982   2.115   2.951 -0.2128 -0.5719 -0.6096
 6868SOL    HW132063   0.892   2.144   2.967 -0.0125 -1.3186  2.0076
 6868SOL    HW232064   1.028   2.110   3.035  0.4805 -2.1031 -1.0667
 6869SOL     OW32065   4.517   3.873   8.335 -0.3913  0.1004 -0.6310
 6869SOL    HW132066   4.448   3.862   8.270  0.9132 -0.8034 -1.8619
 6869SOL    HW232067   4.554   3.785   8.331 -2.4999 -0.7939 -0.4948
 6870SOL     OW32068   3.869   1.592   9.922 -0.0803 -0.0572 -0.5521
 6870SOL    HW132069   3.869   1.646  10.001  2.0228 -1.2273  0.2804
 6870SOL    HW232070   3.779   1.563   9.913  0.7178 -2.7499 -0.0217
 6871SOL     OW32071   2.155   0.070   4.810 -0.0972 -0.1431  0.4192
 6871SOL    HW132072   2.183   0.090   4.721 -0.4849  1.0864  0.5774
 6871SOL    HW232073   2.154   0.155   4.854 -0.1343  0.2622 -0.3622
 6872SOL     OW32074   0.974   4.602  13.923  0.4179 -0.2922 -0.3361
 6872SOL    HW132075   0.998   4.576  13.834  0.7862  1.7590 -0.8285
 6872SOL    HW232076   0.899   4.545  13.939  1.0294 -0.1396  3.1275
 6873SOL     OW32077   2.273   2.066   8.016 -0.4240 -0.0385 -0.1467
 6873SOL    HW132078   2.307   2.025   7.936 -2.8896 -0.3770 -1.0247
 6873SOL    HW232079   2.191   2.095   7.976 -0.5971 -0.7504 -0.3018
 6874SOL     OW32080   1.766   1.109   2.803  0.3714  0.0454  0.3995
 6874SOL    HW132081   1.688   1.093   2.749 -0.3639 -0.3750  1.5783
 6874SOL    HW232082   1.833   1.124   2.737  0.1341 -2.2356 -0.3559
 6875SOL     OW32083   2.918   0.970   5.190 -0.6600 -0.5985 -0.0956
 6875SOL    HW132084   2.964   0.915   5.254 -1.3279  0.7790  1.5631
 6875SOL    HW232085   2.853   0.909   5.154 -1.3926  0.2191 -0.1423
 6876SOL     OW32086   3.797   0.564   5.724 -0.1064 -0.1438 -0.3627
 6876SOL    HW132087   3.763   0.495   5.781  0.4963  0.1527  0.3539
 6876SOL    HW232088   3.760   0.643   5.764 -0.9443 -1.0532  0.6502
 6877SOL     OW32089   3.855   4.015   3.800 -0.4005  0.1717  0.4027
 6877SOL    HW132090   3.761   3.997   3.794  0.0913 -2.3846  0.3815
 6877SOL    HW232091   3.877   3.964   3.878 -1.7885 -1.4377 -0.2435
 6878SOL     OW32092   2.076   1.277   0.254 -0.2883 -0.5061  0.3131
 6878SOL    HW132093   2.089   1.258   0.347 -0.9638  0.2991  0.5658
 6878SOL    HW232094   1.983   1.257   0.258 -0.2742 -0.5238  0.5405
 6879SOL     OW32095   3.660   3.033  17.459 -0.4976  0.2757 -0.4863
 6879SOL    HW132096   3.632   2.958  17.512  0.2592  1.3455  1.4217
 6879SOL    HW232097   3.751   3.007  17.444 -0.6875 -0.9091  0.4203
 6880SOL     OW32098   1.207   3.826   6.307  0.3055  0.1898 -0.2248
 6880SOL    HW132099   1.299   3.845   6.327  0.5154  0.6749 -1.6179
 6880SOL    HW232100   1.169   3.850   6.391  0.0990 -0.3108 -0.1718
 6881SOL     OW32101   3.014   3.657   1.357 -0.1484  0.2389 -0.1042
 6881SOL    HW132102   3.010   3.677   1.450  4.4096  1.9744 -0.3147
 6881SOL    HW232103   2.980   3.738   1.319 -1.0047 -0.2944 -0.4828
 6882SOL     OW32104   0.682   0.385   4.397 -0.1004  0.0148 -0.2310
 6882SOL    HW132105   0.775   0.400   4.413  0.1365 -1.1433 -0.5169
 6882SOL    HW232106   0.649   0.431   4.474  1.5712  0.0777  0.4455
 6883SOL     OW32107   2.104   2.034   6.074 -0.5439  0.2382  0.6272
 6883SOL    HW132108   2.055   1.984   6.008 -1.7815  1.1229  0.8727
 6883SOL    HW232109   2.115   1.978   6.151  0.5494 -0.4154 -0.0085
 6884SOL     OW32110   4.299   0.917   6.238 -0.5219  0.2007  0.0362
 6884SOL    HW132111   4.341   0.879   6.160  0.8828  3.6504 -0.8892
 6884SOL    HW232112   4.211   0.927   6.203 -0.1895  2.0208 -0.2619
 6885SOL     OW32113   4.065   2.336  13.062  1.1403 -0.3702  0.8849
 6885SOL    HW132114   4.009   2.360  12.987  1.8769  0.5245  0.6281
 6885SOL    HW232115   4.080   2.423  13.099  2.2624 -0.1077 -0.1750
 6886SOL     OW32116   1.545   1.625   2.859  0.7683 -0.2617 -0.3757
 6886SOL    HW132117   1.608   1.571   2.906  0.0387  1.0461  2.0600
 6886SOL    HW232118   1.471   1.563   2.852  0.8536 -0.3875 -0.1491
 6887SOL     OW32119   3.538   2.327   9.858  0.2545  0.2952 -0.2713
 6887SOL    HW132120   3.561   2.267   9.929  1.6927  1.7735  0.5175
 6887SOL    HW232121   3.591   2.291   9.786  1.0091 -0.4337  0.6484
 6888SOL     OW32122   3.150   3.556   0.156  0.0923 -0.2964  0.2513
 6888SOL    HW132123   3.095   3.603   0.219 -0.5265  0.3736 -0.7916
 6888SOL    HW232124   3.216   3.619   0.128 -0.3287 -0.9866 -2.3215
 6889SOL     OW32125   1.117   1.396   2.668 -0.4135 -0.3119 -0.1982
 6889SOL    HW132126   1.029   1.428   2.684 -0.4741  0.2859 -1.6660
 6889SOL    HW232127   1.128   1.400   2.573 -1.3772 -1.4447 -0.3541
 6890SOL     OW32128   3.214   1.715  11.592 -0.3195 -0.0282 -0.5495
 6890SOL    HW132129   3.308   1.704  11.576 -0.2090 -0.0645  0.0995
 6890SOL    HW232130   3.195   1.655  11.665  1.9986 -0.1725 -0.0589
 6891SOL     OW32131   1.841   0.864   2.598 -0.2426  0.4069  0.0423
 6891SOL    HW132132   1.820   0.775   2.625 -0.8994  0.4310 -0.3931
 6891SOL    HW232133   1.755   0.906   2.601 -0.4705 -0.0542 -0.1355
 6892SOL     OW32134   0.746   4.183   8.263  0.3588 -0.1981  0.1836
 6892SOL    HW132135   0.802   4.253   8.297  0.8172 -1.1255  1.3336
 6892SOL    HW232136   0.764   4.123   8.336  1.5198  0.0937  0.1443
 6893SOL     OW32137   2.694   0.927   5.449  0.0962  0.0883 -0.3250
 6893SOL    HW132138   2.675   0.897   5.537 -3.4615 -0.4557 -1.2768
 6893SOL    HW232139   2.740   1.007   5.475 -0.9021  1.0782 -1.5607
 6894SOL     OW32140   2.352   0.949  15.560  0.3547  0.0804  0.0393
 6894SOL    HW132141   2.409   0.972  15.486 -2.0214 -1.4481 -2.2560
 6894SOL    HW232142   2.268   0.939  15.515  0.8764 -1.1192 -0.6700
 6895SOL     OW32143   2.728   2.949   5.736  0.0169  0.1037  0.1366
 6895SOL    HW132144   2.767   3.036   5.743 -2.0048  1.4553 -5.0462
 6895SOL    HW232145   2.704   2.952   5.643  1.5859  0.6111 -0.2553
 6896SOL     OW32146   2.612   3.996  11.145 -0.4769  0.0170 -0.6704
 6896SOL    HW132147   2.621   3.919  11.201 -1.4155  0.0906 -0.4133
 6896SOL    HW232148   2.536   3.967  11.094 -0.8595 -2.2827  1.2397
 6897SOL     OW32149   0.132   3.750   3.522 -0.0780  0.7390 -0.6002
 6897SOL    HW132150   0.106   3.839   3.496  1.7400  1.6389  0.6469
 6897SOL    HW232151   0.221   3.749   3.486 -0.4460  1.8746 -1.5725
 6898SOL     OW32152   3.596   3.285  11.346 -0.0342 -0.2541  0.0089
 6898SOL    HW132153   3.593   3.334  11.264 -1.5255 -1.0169 -0.3875
 6898SOL    HW232154   3.548   3.347  11.401  0.8918 -1.5646  2.2751
 6899SOL     OW32155   3.729   1.030   4.246  0.8503  0.3639 -0.1176
 6899SOL    HW132156   3.746   1.087   4.321 -0.4249  0.8167 -0.1608
 6899SOL    HW232157   3.661   0.979   4.290  0.8300  1.1487  0.7732
 6900SOL     OW32158   4.263   4.210  12.892 -0.0830 -0.3017 -0.2712
 6900SOL    HW132159   4.357   4.212  12.875  0.0343 -0.9354  0.3290
 6900SOL    HW232160   4.253   4.273  12.963 -4.4618 -1.2151 -0.0429
 6901SOL     OW32161   0.838   1.468   7.533 -0.0750  0.0309 -0.2475
 6901SOL    HW132162   0.867   1.388   7.488  1.2549  0.4239 -0.0907
 6901SOL    HW232163   0.774   1.437   7.597 -0.4234 -1.0128 -1.1011
 6902SOL     OW32164   1.964   0.968   4.175  0.0075  0.1453  0.3183
 6902SOL    HW132165   2.007   0.943   4.093  1.1662  0.7202  0.7542
 6902SOL    HW232166   2.018   0.930   4.243 -0.1351  0.9719  0.8993
 6903SOL     OW32167   4.146   2.777   4.637  0.2314  0.7673  0.0765
 6903SOL    HW132168   4.149   2.822   4.721 -0.6001 -0.1252  0.5880
 6903SOL    HW232169   4.226   2.724   4.637 -1.0005 -1.0701  1.5508
 6904SOL     OW32170   3.240   2.160   4.199 -0.2254 -0.5021 -0.5780
 6904SOL    HW132171   3.188   2.241   4.202 -1.1460 -1.0875 -0.8739
 6904SOL    HW232172   3.227   2.128   4.289  1.2064 -1.8445 -0.8603
 6905SOL     OW32173   3.442   4.011   7.469 -0.3911 -0.5371  0.0754
 6905SOL    HW132174   3.485   4.059   7.540 -1.5000  1.0842 -0.3411
 6905SOL    HW232175   3.507   3.943   7.453  2.2283  1.8368  0.7077
 6906SOL     OW32176   0.239   0.388  14.004  0.3275 -0.3343  0.4674
 6906SOL    HW132177   0.148   0.401  14.030  0.1341 -0.7789  0.0215
 6906SOL    HW232178   0.265   0.309  14.051  1.8086  0.7300  1.4374
 6907SOL     OW32179   1.082   4.694  10.633 -0.0274  0.2721 -0.0180
 6907SOL    HW132180   1.076   0.052  10.580 -3.0279 -0.2948 -0.5317
 6907SOL    HW232181   1.072   0.015  10.719  0.2185  0.2658  0.0131
 6908SOL     OW32182   0.650   1.833  10.375 -0.4963  0.2843 -0.2324
 6908SOL    HW132183   0.571   1.782  10.355 -0.1334 -0.2431 -0.3148
 6908SOL    HW232184   0.602   1.912  10.399 -1.1382 -0.2486  0.2452
 6909SOL     OW32185   4.556   2.316  14.066 -0.5405 -0.7165  0.0937
 6909SOL    HW132186   4.499   2.393  14.071  0.6001  0.0560  0.9018
 6909SOL    HW232187   4.552   2.284  13.976  1.7872 -0.8261  0.0499
 6910SOL     OW32188   1.568   3.914   5.505 -0.3394  0.0405 -0.6023
 6910SOL    HW132189   1.593   3.826   5.476  2.8135  0.3211  1.3443
 6910SOL    HW232190   1.622   3.920   5.583  2.6203 -2.5602 -2.4500
 6911SOL     OW32191   0.079   1.323   7.501 -0.0432  0.1463 -0.4994
 6911SOL    HW132192   0.160   1.315   7.552 -1.1144 -0.4568  1.1152
 6911SOL    HW232193   0.024   1.249   7.529  1.0850 -0.0354  1.2532
 6912SOL     OW32194   1.080   1.715   4.724  0.0847  0.2893 -0.2129
 6912SOL    HW132195   1.100   1.661   4.647 -1.1912 -0.7027  0.1642
 6912SOL    HW232196   0.999   1.755   4.693  0.9554  2.3276  0.0989
 6913SOL     OW32197   3.526   0.876   6.685  0.3622 -0.3500 -0.2625
 6913SOL    HW132198   3.584   0.855   6.611  1.5674 -1.0702  0.8808
 6913SOL    HW232199   3.451   0.826   6.652  0.9309  0.1883 -2.3819
 6914SOL     OW32200   2.623   2.447   6.046 -0.0128 -0.0797  0.0248
 6914SOL    HW132201   2.701   2.410   6.006 -1.7515 -0.4448 -3.0610
 6914SOL    HW232202   2.572   2.370   6.073 -1.7944  0.3606 -2.0117
 6915SOL     OW32203   3.843   2.984   2.168  0.6834  0.0218 -0.4357
 6915SOL    HW132204   3.825   2.944   2.083 -1.2212 -0.9705  0.4527
 6915SOL    HW232205   3.874   3.072   2.144  0.0561  0.4622  0.3834
 6916SOL     OW32206   1.267   3.548   9.047  0.3906  0.4591 -0.6663
 6916SOL    HW132207   1.217   3.578   9.123  1.5016 -0.1343  0.2968
 6916SOL    HW232208   1.274   3.457   9.077 -0.1476 -0.1542 -2.4534
 6917SOL     OW32209   1.080   3.977  11.795  0.3249 -0.0231 -0.2656
 6917SOL    HW132210   1.152   4.036  11.772  1.0956 -0.7459  0.2779
 6917SOL    HW232211   1.126   3.892  11.797  0.0581 -0.0997  2.6519
 6918SOL     OW32212   3.118   2.212   4.957  0.1896 -0.1607  0.4524
 6918SOL    HW132213   3.101   2.120   4.936 -0.9602  0.1767 -0.1044
 6918SOL    HW232214   3.072   2.258   4.887  0.6014  1.7135  1.4216
 6919SOL     OW32215   1.376   2.602   9.028 -0.5197 -0.1912  0.0270
 6919SOL    HW132216   1.334   2.554   9.100 -2.6985 -0.3774 -1.3537
 6919SOL    HW232217   1.426   2.667   9.079  2.6572 -1.2573 -1.7879
 6920SOL     OW32218   0.430   3.922  15.453  0.7162 -0.5612  0.1703
 6920SOL    HW132219   0.351   3.880  15.418 -0.5383  1.8082  0.1754
 6920SOL    HW232220   0.397   3.986  15.515  0.7438 -1.6616  1.3297
 6921SOL     OW32221   0.439   0.847   5.721  0.1325  0.7410  0.2637
 6921SOL    HW132222   0.368   0.871   5.780 -1.0927 -2.0182 -0.0935
 6921SOL    HW232223   0.522   0.857   5.767  0.1227  0.7824  0.2724
 6922SOL     OW32224   2.647   4.461   1.112  0.2369  0.0241 -0.2845
 6922SOL    HW132225   2.695   4.473   1.194 -1.2160  0.3105  0.5362
 6922SOL    HW232226   2.683   4.532   1.058  2.8022 -1.1881 -0.1601
 6923SOL     OW32227   3.655   1.079  14.642 -0.3713  0.2991 -0.3113
 6923SOL    HW132228   3.622   1.106  14.728  2.6646 -1.8629  1.5208
 6923SOL    HW232229   3.586   1.016  14.622  1.8611 -3.0004  2.4048
 6924SOL     OW32230   4.714   0.788   5.416  0.3642 -0.5907  0.2974
 6924SOL    HW132231   0.023   0.759   5.502  2.4201 -0.3624 -0.3572
 6924SOL    HW232232   0.079   0.784   5.373  0.5872  0.5159  0.6577
 6925SOL     OW32233   3.951   2.803  10.927  0.5827 -0.1132  0.2061
 6925SOL    HW132234   3.959   2.846  11.012 -3.8857 -0.0612  0.6115
 6925SOL    HW232235   4.010   2.855  10.873 -1.1106  0.3650 -1.1751
 6926SOL     OW32236   4.347   0.821   5.106  0.6801  0.1712 -0.0374
 6926SOL    HW132237   4.281   0.887   5.128 -1.5618 -1.2557 -2.4345
 6926SOL    HW232238   4.381   0.806   5.194  0.5642 -0.9138 -0.1757
 6927SOL     OW32239   0.660   3.629   6.298  0.0888 -0.6041  0.7529
 6927SOL    HW132240   0.719   3.615   6.372 -1.0318 -2.0585  1.3692
 6927SOL    HW232241   0.666   3.537   6.271 -0.0936  0.2650 -2.2512
 6928SOL     OW32242   2.607   0.287  11.097  0.4850  0.1615 -0.0425
 6928SOL    HW132243   2.624   0.334  11.015 -0.9119  0.5403 -0.1206
 6928SOL    HW232244   2.695   0.272  11.130  1.0531  1.6852 -0.8684
 6929SOL     OW32245   2.078   1.508   9.211  0.3004  0.0503 -0.1506
 6929SOL    HW132246   2.079   1.482   9.303  0.3005 -0.7675 -0.3796
 6929SOL    HW232247   2.166   1.474   9.193 -0.7625 -3.3497  0.9770
 6930SOL     OW32248   2.200   4.061  17.131 -0.4962  0.2056 -0.5595
 6930SOL    HW132249   2.293   4.057  17.109 -0.8449 -0.3246 -1.9251
 6930SOL    HW232250   2.182   4.156  17.133  1.1424  0.4854  0.6726
 6931SOL     OW32251   4.176   4.668   4.211  0.0059  0.3044 -0.1312
 6931SOL    HW132252   4.138   0.004   4.278 -2.0122  0.4505 -1.4273
 6931SOL    HW232253   4.143   4.586   4.247  1.6718  0.2669  1.3393
 6932SOL     OW32254   1.495   1.919   2.188  0.0272  0.0486 -0.8515
 6932SOL    HW132255   1.441   1.843   2.166  0.1277  0.2351 -1.7761
 6932SOL    HW232256   1.507   1.966   2.105 -2.8810  1.5978 -0.3862
 6933SOL     OW32257   2.201   4.066  15.242 -0.0687 -0.0970  0.6792
 6933SOL    HW132258   2.255   4.145  15.250  1.7923 -1.4146  1.0660
 6933SOL    HW232259   2.216   4.021  15.325  3.2844 -1.7105 -0.7954
 6934SOL     OW32260   4.355   2.131   1.807 -0.2851 -0.1145  0.1468
 6934SOL    HW132261   4.430   2.139   1.749  0.7661 -1.0178  1.3800
 6934SOL    HW232262   4.398   2.094   1.884 -0.7378 -1.3374 -0.1963
 6935SOL     OW32263   2.889   3.577   5.409 -0.5163  0.1118  0.4099
 6935SOL    HW132264   2.830   3.568   5.335  0.0637  0.3610 -0.0776
 6935SOL    HW232265   2.881   3.672   5.420  0.0019  0.2549 -0.5195
 6936SOL     OW32266   4.028   0.273   8.092 -0.5333  0.2072 -0.3253
 6936SOL    HW132267   3.963   0.207   8.067 -1.7393  1.4819 -0.5746
 6936SOL    HW232268   4.005   0.317   8.174 -1.3360 -2.1146  0.7030
 6937SOL     OW32269   1.919   0.782   1.467  0.4873 -0.2164 -0.0111
 6937SOL    HW132270   1.934   0.843   1.395  1.3822 -0.9775 -0.4706
 6937SOL    HW232271   1.823   0.777   1.466  0.5560 -1.7980  0.7032
 6938SOL     OW32272   4.280   3.990  10.994  0.4262  0.3077 -0.2467
 6938SOL    HW132273   4.358   4.032  10.958  0.0175 -0.3329 -1.8869
 6938SOL    HW232274   4.219   4.001  10.921 -0.6149 -0.2578  0.5365
 6939SOL     OW32275   3.136   0.503   5.199  0.1542 -0.3195 -0.1273
 6939SOL    HW132276   3.180   0.492   5.115 -0.9218  0.0034 -0.7276
 6939SOL    HW232277   3.193   0.576   5.223  0.9092 -1.1268  0.5791
 6940SOL     OW32278   2.186   0.142   7.684  0.1705 -0.2784  0.2622
 6940SOL    HW132279   2.231   0.215   7.726  1.4177 -0.2034 -1.2259
 6940SOL    HW232280   2.095   0.161   7.708  0.0849  1.4957 -1.4489
 6941SOL     OW32281   3.531   3.324   1.793 -0.8832  0.1320 -0.3653
 6941SOL    HW132282   3.505   3.359   1.878  0.1097 -0.1355  0.0467
 6941SOL    HW232283   3.451   3.339   1.742 -0.6975  0.2329 -0.6216
 6942SOL     OW32284   1.652   4.178  14.494  0.4088  0.2777 -0.1204
 6942SOL    HW132285   1.691   4.193  14.407 -0.0526 -0.8895 -0.5166
 6942SOL    HW232286   1.710   4.116  14.538  0.4688  0.1916 -0.3184
 6943SOL     OW32287   1.737   3.784   9.103 -0.6462 -0.0363  0.2295
 6943SOL    HW132288   1.770   3.825   9.024  0.9803  0.1517  1.0195
 6943SOL    HW232289   1.708   3.699   9.069  0.0185 -1.6646  3.7150
 6944SOL     OW32290   1.149   1.427   1.816  0.3424  0.6877  0.2699
 6944SOL    HW132291   1.079   1.493   1.807  0.2943  0.6114  0.0845
 6944SOL    HW232292   1.108   1.348   1.851  0.6923 -0.2272 -1.4002
 6945SOL     OW32293   2.355   3.633   9.287  0.4664 -0.0234 -0.3729
 6945SOL    HW132294   2.405   3.710   9.311  2.4431 -2.1271  2.2153
 6945SOL    HW232295   2.285   3.668   9.231 -0.4961 -1.6971 -0.2125
 6946SOL     OW32296   4.571   1.829   6.903 -0.1072  0.0875  0.1394
 6946SOL    HW132297   4.475   1.820   6.902  0.0310 -1.5146  0.0016
 6946SOL    HW232298   4.573   1.874   6.987 -1.6875  0.4466 -0.0156
 6947SOL     OW32299   1.068   4.048  15.749  0.1022  0.1112  0.4035
 6947SOL    HW132300   1.162   4.048  15.765  0.3791 -2.3790 -1.3301
 6947SOL    HW232301   1.069   4.097  15.667  1.0410 -2.3491 -1.0495
 6948SOL     OW32302   0.685   4.179   4.835 -0.4584 -0.2800  0.5494
 6948SOL    HW132303   0.698   4.250   4.898 -1.5682  0.4805 -0.0898
 6948SOL    HW232304   0.774   4.148   4.819 -0.1825  0.0490  1.4384
 6949SOL     OW32305   4.354   2.953  12.445 -0.2252 -0.3447 -0.1876
 6949SOL    HW132306   4.279   3.002  12.411  0.2618  0.6621  0.2035
 6949SOL    HW232307   4.299   2.884  12.483 -1.3820  0.2737 -0.7351
 6950SOL     OW32308   1.465   1.536   4.364 -0.1917  0.5096 -0.3192
 6950SOL    HW132309   1.473   1.603   4.296  1.5402  0.6402 -0.0018
 6950SOL    HW232310   1.548   1.538   4.413 -0.8660  0.3272  0.8231
 6951SOL     OW32311   0.182   1.405   1.990 -0.1848 -0.6167 -0.1276
 6951SOL    HW132312   0.153   1.481   1.940 -1.4215 -1.0957 -0.1409
 6951SOL    HW232313   0.114   1.412   2.057 -1.2330 -1.8805 -1.0632
 6952SOL     OW32314   2.090   0.738  11.197  0.5194  0.3545 -0.1848
 6952SOL    HW132315   2.041   0.685  11.260  1.0528 -0.8236 -0.7569
 6952SOL    HW232316   2.154   0.672  11.170 -1.1820 -0.8149 -1.3348
 6953SOL     OW32317   2.494   0.773   7.112 -0.3003  0.5852  0.1365
 6953SOL    HW132318   2.503   0.776   7.208  1.7501 -0.5873 -0.0029
 6953SOL    HW232319   2.568   0.831   7.096 -0.8506  0.9177 -1.1152
 6954SOL     OW32320   2.023   2.731  14.426  0.7110 -0.8601  0.0260
 6954SOL    HW132321   2.053   2.718  14.336  4.1439 -0.1771  1.0719
 6954SOL    HW232322   1.927   2.732  14.420  0.6167  0.6175  1.8305
 6955SOL     OW32323   2.434   0.946   7.690 -0.0973  0.5368 -0.5501
 6955SOL    HW132324   2.434   0.878   7.757 -0.4969  1.3573  0.2803
 6955SOL    HW232325   2.340   0.957   7.675 -0.2415  3.6971  2.8260
 6956SOL     OW32326   3.473   4.661   1.886 -0.1448 -0.4501 -0.7004
 6956SOL    HW132327   3.399   4.707   1.845 -0.3988  1.1097  1.5355
 6956SOL    HW232328   3.433   4.576   1.868  0.1084 -0.5857 -0.6161
 6957SOL     OW32329   3.006   0.450   7.074 -0.3188 -0.5514  0.1804
 6957SOL    HW132330   3.014   0.530   7.022  0.4824 -1.2101 -0.7204
 6957SOL    HW232331   2.970   0.390   7.008  0.8281 -1.4697  0.3755
 6958SOL     OW32332   3.185   3.088  12.866 -0.4614 -0.1263  0.6329
 6958SOL    HW132333   3.267   3.133  12.845 -0.8360  0.3237  0.1273
 6958SOL    HW232334   3.136   3.069  12.786  0.7935  0.7929 -0.3491
 6959SOL     OW32335   2.813   2.154   7.827 -0.5039 -0.1308 -0.0694
 6959SOL    HW132336   2.758   2.169   7.904 -2.9958  0.7214 -2.0239
 6959SOL    HW232337   2.751   2.144   7.755  0.2045 -0.4242 -0.6410
 6960SOL     OW32338   3.083   0.400   1.920  0.3171 -0.2788  0.5012
 6960SOL    HW132339   3.079   0.434   1.831  1.7832 -0.1881  0.4667
 6960SOL    HW232340   3.013   0.336   1.909  1.6123 -1.6446  0.2283
 6961SOL     OW32341   3.082   2.874   4.267 -0.6942 -0.0809 -0.5013
 6961SOL    HW132342   3.149   2.908   4.207 -0.2812  1.5938  0.9045
 6961SOL    HW232343   3.016   2.845   4.204 -0.6474 -0.4943 -0.3597
 6962SOL     OW32344   2.732   4.563  15.863 -0.1321 -0.1310 -0.2619
 6962SOL    HW132345   2.818   4.560  15.822  0.9832 -2.2453  2.2404
 6962SOL    HW232346   2.735   4.638  15.923 -0.6784 -0.6273  0.3836
 6963SOL     OW32347   4.516   0.848   4.081  0.8072 -0.2329  0.0986
 6963SOL    HW132348   4.427   0.885   4.081  1.7490  2.0262  2.1064
 6963SOL    HW232349   4.505   0.753   4.077 -1.9651  0.0469  1.0011
 6964SOL     OW32350   1.636   2.775   6.436  0.1470  0.7129  0.0973
 6964SOL    HW132351   1.578   2.721   6.489 -0.0909  0.7338 -0.1403
 6964SOL    HW232352   1.580   2.827   6.378 -3.1350 -0.9419  1.8219
 6965SOL     OW32353   1.428   0.206  15.903  0.2661 -0.2508  0.6664
 6965SOL    HW132354   1.416   0.126  15.954  1.3745  0.0015  1.3151
 6965SOL    HW232355   1.434   0.266  15.977  0.9167  0.5950 -0.0707
 6966SOL     OW32356   2.587   4.657  12.470  0.1992 -0.1513  0.1748
 6966SOL    HW132357   2.518   4.694  12.525 -1.5428 -0.3261 -1.8837
 6966SOL    HW232358   2.663   4.664  12.528  1.2005 -0.6207 -1.0780
 6967SOL     OW32359   2.493   0.084   1.812  0.4959  0.8866  0.1150
 6967SOL    HW132360   2.504   0.177   1.832 -0.6912  1.2634 -0.9273
 6967SOL    HW232361   2.556   0.078   1.740  0.9823 -2.0501  0.8226
 6968SOL     OW32362   4.040   3.618   2.813  0.1646  0.0785  0.4296
 6968SOL    HW132363   4.120   3.574   2.783  0.0401  0.3805 -0.3528
 6968SOL    HW232364   3.989   3.559   2.869 -1.1840  1.3927  0.5926
 6969SOL     OW32365   2.415   4.096   5.667  0.4236  0.2498  0.4784
 6969SOL    HW132366   2.332   4.115   5.712  0.7117 -0.7285  1.4215
 6969SOL    HW232367   2.387   4.014   5.626 -1.5390  0.7940  0.7082
 6970SOL     OW32368   0.565   4.288  15.202 -0.2420  0.1052  0.0724
 6970SOL    HW132369   0.481   4.273  15.159 -0.1388 -2.4276  0.7453
 6970SOL    HW232370   0.611   4.206  15.180 -1.5294 -0.6698  0.2941
 6971SOL     OW32371   3.197   1.087  14.238  0.0614 -0.1637 -0.0683
 6971SOL    HW132372   3.149   1.155  14.286  0.4469 -0.4290  0.6785
 6971SOL    HW232373   3.211   1.012  14.295 -0.4402 -0.0573  0.1993
 6972SOL     OW32374   0.491   4.483   4.091 -0.3752  0.1973 -0.0240
 6972SOL    HW132375   0.487   4.480   4.186 -1.2394 -0.5814 -0.0870
 6972SOL    HW232376   0.455   4.568   4.069  0.2972  0.7708  1.1138
 6973SOL     OW32377   4.583   3.109  13.489  0.4876  0.0321  0.8910
 6973SOL    HW132378   4.533   3.167  13.545  0.8980  0.2062  1.0759
 6973SOL    HW232379   4.634   3.065  13.557 -0.1320  2.4427  2.9064
 6974SOL     OW32380   0.156   4.277  14.926 -0.4842  0.2084 -0.0609
 6974SOL    HW132381   0.207   4.279  15.007 -1.0279 -0.6016  0.3085
 6974SOL    HW232382   0.115   4.192  14.944 -1.2076  0.7506  0.8945
 6975SOL     OW32383   4.065   2.898  13.462  0.3623  0.0501  0.0275
 6975SOL    HW132384   4.058   2.808  13.431 -0.1083  0.7193 -1.7980
 6975SOL    HW232385   4.088   2.937  13.378  0.7272 -1.1364 -0.4270
 6976SOL     OW32386   1.251   0.562  10.435 -0.0281 -0.1238 -0.3868
 6976SOL    HW132387   1.262   0.573  10.341 -1.5897  0.0279 -0.5513
 6976SOL    HW232388   1.163   0.526  10.443 -0.2972  0.4391 -0.7796
 6977SOL     OW32389   2.971   4.163  17.441 -0.0342 -0.1253  0.0939
 6977SOL    HW132390   3.021   4.102  17.388 -0.4826  0.0202 -0.4885
 6977SOL    HW232391   2.964   4.106  17.518 -1.5290 -1.1190 -0.7924
 6978SOL     OW32392   0.842   3.130   9.708 -0.0791 -0.4504 -0.0664
 6978SOL    HW132393   0.901   3.084   9.649  1.0336  0.8368  0.0530
 6978SOL    HW232394   0.882   3.098   9.789  1.8570  0.6386 -0.6052
 6979SOL     OW32395   0.318   2.326   5.303  0.0936  1.0518  0.2465
 6979SOL    HW132396   0.284   2.314   5.392  0.9773  0.3109  0.4880
 6979SOL    HW232397   0.351   2.239   5.279 -1.9570 -0.0650  1.4160
 6980SOL     OW32398   3.111   0.095  15.558 -0.4304 -0.0755  0.0778
 6980SOL    HW132399   3.190   0.044  15.541 -0.7502 -0.1590 -1.1505
 6980SOL    HW232400   3.144   0.185  15.563  1.7976 -0.9200  0.4693
 6981SOL     OW32401   4.020   3.559   1.058 -0.0686  0.1675 -0.1261
 6981SOL    HW132402   4.041   3.567   1.151  0.7650  3.4502 -0.5844
 6981SOL    HW232403   4.092   3.509   1.021  0.6500  1.6377 -0.6989
 6982SOL     OW32404   1.283   4.492   8.765 -0.0494  0.0631 -0.1007
 6982SOL    HW132405   1.194   4.518   8.788 -0.4831 -0.1207 -1.5621
 6982SOL    HW232406   1.285   4.506   8.671 -2.5320  0.6867 -0.0627
 6983SOL     OW32407   3.590   0.358   3.404 -0.1207 -0.1793 -0.0122
 6983SOL    HW132408   3.543   0.334   3.484 -2.2124 -0.6837 -1.3881
 6983SOL    HW232409   3.617   0.271   3.375  0.4175 -0.6715  2.0041
 6984SOL     OW32410   3.787   2.512  13.411 -0.0244  0.5971 -0.7480
 6984SOL    HW132411   3.785   2.519  13.506  0.0197  1.5129 -0.8184
 6984SOL    HW232412   3.761   2.601  13.387 -1.8532  0.3738  0.3804
 6985SOL     OW32413   3.788   0.676   0.888  0.3703  0.3147  0.4526
 6985SOL    HW132414   3.717   0.688   0.825 -1.0553 -0.7453  1.8897
 6985SOL    HW232415   3.858   0.686   0.823  0.4767 -1.0463  0.3700
 6986SOL     OW32416   0.535   0.379   0.391  0.0272  1.0146 -0.0144
 6986SOL    HW132417   0.488   0.418   0.465  0.9934 -0.1346  1.2080
 6986SOL    HW232418   0.613   0.339   0.429  1.2545  1.3068 -2.2476
 6987SOL     OW32419   3.586   1.462   7.014  0.1607  0.2478  0.7630
 6987SOL    HW132420   3.653   1.477   7.081 -2.0268 -1.6217  3.3528
 6987SOL    HW232421   3.580   1.368   6.997  1.0189  0.5869 -1.4823
 6988SOL     OW32422   4.520   0.320   3.160 -0.1918 -0.1655 -0.2972
 6988SOL    HW132423   4.537   0.400   3.110 -1.4281  1.8178  2.3884
 6988SOL    HW232424   4.556   0.254   3.101  2.4162  0.2004  0.8829
 6989SOL     OW32425   0.932   4.540   7.931 -0.0219 -0.7527  0.6454
 6989SOL    HW132426   0.913   4.549   7.838 -0.5405 -2.0561  0.6309
 6989SOL    HW232427   0.843   4.534   7.967  0.1628  2.6614  1.6851
 6990SOL     OW32428   0.601   4.139   3.808 -0.3648  0.3971  0.0005
 6990SOL    HW132429   0.636   4.062   3.763 -0.4479 -0.0600  0.7163
 6990SOL    HW232430   0.507   4.123   3.807 -0.2184 -0.3995 -1.2152
 6991SOL     OW32431   0.901   1.912   3.697  0.1504  0.4148 -0.7758
 6991SOL    HW132432   0.857   1.908   3.613 -1.5343 -2.5023  0.2554
 6991SOL    HW232433   0.959   1.835   3.693 -0.5274 -0.1855  0.8769
 6992SOL     OW32434   0.271   2.536   7.449 -0.1077 -1.0770 -0.2040
 6992SOL    HW132435   0.322   2.515   7.527  0.6881 -2.7916 -1.2046
 6992SOL    HW232436   0.178   2.528   7.472  0.0196 -0.3520  0.5941
 6993SOL     OW32437   2.532   2.418  14.098 -0.3680 -0.5115  0.7494
 6993SOL    HW132438   2.491   2.345  14.051  1.9899 -0.6079 -1.1519
 6993SOL    HW232439   2.591   2.451  14.030  1.5753  0.1112  2.7396
 6994SOL     OW32440   3.802   2.322  16.893  0.3157 -0.3697 -0.3385
 6994SOL    HW132441   3.735   2.263  16.861 -0.5005 -0.8844  2.3033
 6994SOL    HW232442   3.750   2.402  16.900  0.3736 -0.5327  1.9447
 6995SOL     OW32443   0.535   2.305   5.503 -1.0558 -0.5188 -0.2130
 6995SOL    HW132444   0.613   2.266   5.464 -0.2184  1.2808 -0.3635
 6995SOL    HW232445   0.547   2.262   5.587  1.6511 -0.5038 -0.5989
 6996SOL     OW32446   1.012   0.724   5.493  0.5812  0.1767  0.4014
 6996SOL    HW132447   1.106   0.740   5.493  0.7180 -0.6779 -2.4564
 6996SOL    HW232448   0.961   0.793   5.537 -2.4003 -2.6493  1.3865
 6997SOL     OW32449   1.118   4.653   5.916  0.0618  0.3221  0.4099
 6997SOL    HW132450   1.092   0.007   5.969 -0.9347  0.5762 -0.4324
 6997SOL    HW232451   1.173   4.703   5.856 -0.2410  1.2414  0.8971
 6998SOL     OW32452   0.050   4.493   6.902  0.1288 -0.3436  0.4026
 6998SOL    HW132453   0.117   4.475   6.836  1.2600 -0.8169  1.6623
 6998SOL    HW232454   0.030   4.404   6.931 -2.1590  0.0273 -0.0459
 6999SOL     OW32455   4.264   4.643   3.108 -0.7024  0.0196 -0.1128
 6999SOL    HW132456   4.237   4.682   3.192 -0.0840  1.9119 -0.7999
 6999SOL    HW232457   4.338   4.596   3.146  0.0732  1.0158 -0.3801
 7000SOL     OW32458   3.697   1.548   5.669 -0.0484  0.6968 -0.5809
 7000SOL    HW132459   3.723   1.462   5.638 -1.9452 -0.4287  0.9742
 7000SOL    HW232460   3.669   1.595   5.590 -0.5321 -0.5441 -1.1377
 7001SOL     OW32461   4.385   0.425   5.387  1.0879  0.0806  0.3224
 7001SOL    HW132462   4.404   0.465   5.472  2.3540  0.4945 -0.1680
 7001SOL    HW232463   4.466   0.375   5.377  0.6808 -0.5171 -0.0186
 7002SOL     OW32464   1.414   1.562  15.178 -0.0985  0.3576  0.1814
 7002SOL    HW132465   1.360   1.605  15.111 -1.4318  1.3084  1.8639
 7002SOL    HW232466   1.474   1.515  15.121 -1.2475 -0.8874  0.0102
 7003SOL     OW32467   4.237   2.361   1.969  0.7645 -0.3946 -0.0105
 7003SOL    HW132468   4.325   2.377   2.003  0.5557  2.1458 -0.6214
 7003SOL    HW232469   4.274   2.295   1.910  0.7499  0.2883 -0.7886
 7004SOL     OW32470   2.757   3.891   6.604 -0.0879 -0.2342 -0.0104
 7004SOL    HW132471   2.764   3.803   6.641 -1.5526 -0.2903  0.1524
 7004SOL    HW232472   2.683   3.878   6.545  1.7247 -0.9291 -2.1518
 7005SOL     OW32473   2.066   0.124   0.747 -0.7395  0.3140 -0.1199
 7005SOL    HW132474   1.972   0.108   0.753 -0.7293  0.8347  1.4461
 7005SOL    HW232475   2.106   0.037   0.742  0.5456  0.8253  1.0865
 7006SOL     OW32476   2.320   3.953   7.191  0.0415  0.1791  0.0525
 7006SOL    HW132477   2.253   4.020   7.201  0.9219  1.2407 -1.1238
 7006SOL    HW232478   2.393   4.015   7.195 -0.0112  0.2301  0.2227
 7007SOL     OW32479   4.507   3.941   7.902 -0.6759  0.2917  0.6403
 7007SOL    HW132480   4.445   4.001   7.944 -0.3104  1.0355  0.1337
 7007SOL    HW232481   4.490   3.860   7.949  2.6324 -0.6557  0.2080
 7008SOL     OW32482   4.207   1.041   4.624  0.0590 -0.0750 -0.0813
 7008SOL    HW132483   4.250   1.126   4.629 -0.9501  0.4244 -0.0060
 7008SOL    HW232484   4.215   1.034   4.529  0.1731 -0.0387 -0.0737
 7009SOL     OW32485   0.280   0.621   5.264  0.8584 -0.1003  0.1160
 7009SOL    HW132486   0.238   0.552   5.316  1.9794 -1.2049 -0.4400
 7009SOL    HW232487   0.369   0.586   5.272  0.9654  0.2596  0.5126
 7010SOL     OW32488   3.912   3.492  14.179  0.9739  0.8089  0.4268
 7010SOL    HW132489   3.831   3.539  14.199 -0.2748 -1.0618 -0.2100
 7010SOL    HW232490   3.889   3.456  14.093  0.8199  1.0854  0.3506
 7011SOL     OW32491   2.274   4.572   7.038 -0.4545 -0.1070  0.2574
 7011SOL    HW132492   2.299   4.541   7.125 -0.0602  0.9711  0.5270
 7011SOL    HW232493   2.329   4.515   6.983 -1.1389 -0.6256  0.1134
 7012SOL     OW32494   4.521   1.505   7.769  0.1133 -0.4008  0.0311
 7012SOL    HW132495   4.576   1.449   7.823  2.4511  1.7545 -0.1315
 7012SOL    HW232496   4.484   1.569   7.830  1.3675  0.2305  0.1376
 7013SOL     OW32497   4.545   1.247   5.437  0.3927  0.4102  0.5527
 7013SOL    HW132498   4.621   1.253   5.379  0.4703  1.2858  0.7455
 7013SOL    HW232499   4.487   1.312   5.398 -1.6149 -1.9156 -0.3480
 7014SOL     OW32500   0.792   3.153   0.756 -0.6720  0.8481 -0.6370
 7014SOL    HW132501   0.809   3.106   0.675  0.1331  0.7643 -0.4186
 7014SOL    HW232502   0.741   3.228   0.726 -2.0507  1.3826  3.0310
 7015SOL     OW32503   2.038   1.757   2.834 -0.1152  0.1885 -0.0663
 7015SOL    HW132504   1.959   1.788   2.878  0.3035 -1.6871  1.9740
 7015SOL    HW232505   2.056   1.831   2.776  1.8478  0.8022  1.3572
 7016SOL     OW32506   1.768   1.917   9.266  0.5388  0.5132  0.0771
 7016SOL    HW132507   1.766   1.912   9.170 -0.3186 -1.1607  0.1996
 7016SOL    HW232508   1.828   1.992   9.267 -0.0226  0.9645 -0.0022
 7017SOL     OW32509   0.935   4.016   7.573 -0.0133 -0.6907 -0.4254
 7017SOL    HW132510   0.916   4.101   7.613 -0.5059 -0.3750 -1.3341
 7017SOL    HW232511   1.019   3.999   7.614  0.1731 -0.1150 -0.5709
 7018SOL     OW32512   0.311   1.498   7.099 -0.5939  0.5338  0.3891
 7018SOL    HW132513   0.344   1.443   7.027  1.6151  1.6737  0.5237
 7018SOL    HW232514   0.268   1.435   7.157  0.3076  0.5251  1.0472
 7019SOL     OW32515   1.930   0.189   3.289 -0.1839 -0.0315 -0.5829
 7019SOL    HW132516   1.995   0.128   3.254 -0.5579  0.3559 -1.9705
 7019SOL    HW232517   1.929   0.177   3.383  0.4950 -0.3581 -0.6192
 7020SOL     OW32518   2.549   4.387   4.429  0.5239 -0.3877  0.1346
 7020SOL    HW132519   2.565   4.418   4.518 -1.8550  0.1318  0.3921
 7020SOL    HW232520   2.463   4.430   4.417  1.6644  1.7773 -0.3475
 7021SOL     OW32521   0.578   4.598  13.238 -0.2338 -0.1516  0.2960
 7021SOL    HW132522   0.672   4.611  13.252 -0.2909  3.8362 -3.1149
 7021SOL    HW232523   0.584   4.502  13.247 -1.4423 -0.1591  1.0481
 7022SOL     OW32524   0.622   1.948   9.158  0.4196 -0.4101  0.2960
 7022SOL    HW132525   0.651   1.979   9.244  0.0459  0.4699  0.1158
 7022SOL    HW232526   0.597   1.858   9.178  3.5513 -1.7758 -2.0919
 7023SOL     OW32527   0.874   1.917   5.570  0.0194 -0.4567 -0.1443
 7023SOL    HW132528   0.950   1.964   5.537  0.5684 -0.6052  0.9264
 7023SOL    HW232529   0.816   1.989   5.596 -0.9916 -2.1485  2.2103
 7024SOL     OW32530   1.602   4.683   8.872  0.8874  0.4032  0.0361
 7024SOL    HW132531   1.585   4.619   8.803 -2.1724  0.3617  0.8236
 7024SOL    HW232532   1.592   4.623   8.946  1.3024  0.0409 -0.1974
 7025SOL     OW32533   3.927   1.562   3.290  0.5876 -0.0854  0.3687
 7025SOL    HW132534   3.833   1.573   3.279  0.5206 -1.3466 -0.2877
 7025SOL    HW232535   3.960   1.595   3.206 -0.2366 -0.6913 -0.1830
 7026SOL     OW32536   3.584   4.060   2.525  0.2674  0.0176  0.4165
 7026SOL    HW132537   3.509   4.016   2.485  0.0211  0.3966  0.4670
 7026SOL    HW232538   3.555   4.150   2.513  1.6055  0.5106  0.9112
 7027SOL     OW32539   4.683   1.274  10.880 -0.2816  0.0723 -0.8015
 7027SOL    HW132540   4.622   1.339  10.913 -1.6085 -1.1945 -0.7476
 7027SOL    HW232541   0.040   1.305  10.926 -1.6859 -1.1780  2.4311
 7028SOL     OW32542   4.570   2.770  14.708  0.3758  0.5466  0.5240
 7028SOL    HW132543   4.510   2.840  14.682 -0.1275  0.3482  1.1372
 7028SOL    HW232544   4.640   2.824  14.746  0.5243 -0.9058  2.2979
 7029SOL     OW32545   1.918   2.308  16.417 -0.4259  0.0755  0.4001
 7029SOL    HW132546   1.844   2.303  16.477 -2.2898  0.6326 -1.8228
 7029SOL    HW232547   1.941   2.398  16.439 -0.9566  0.6909 -1.5207
 7030SOL     OW32548   2.495   4.308   1.321  0.1435  0.5308  0.4448
 7030SOL    HW132549   2.436   4.233   1.324 -0.6061  1.0937  0.0730
 7030SOL    HW232550   2.553   4.277   1.252  1.7031  0.8513  1.6163
 7031SOL     OW32551   4.364   4.415   9.563 -0.1968  0.3887 -0.1070
 7031SOL    HW132552   4.388   4.493   9.513  0.5528 -0.2001 -0.6715
 7031SOL    HW232553   4.425   4.415   9.637  1.0640  0.0645 -1.1607
 7032SOL     OW32554   4.530   4.052   2.420  0.3575  0.4607  0.0837
 7032SOL    HW132555   4.617   4.020   2.396  1.3003  1.3658  2.2135
 7032SOL    HW232556   4.478   3.985   2.376 -1.7996  0.0400  3.2862
 7033SOL     OW32557   2.451   3.066   6.154  0.5659 -0.1293  0.0134
 7033SOL    HW132558   2.466   3.025   6.239 -1.3760  0.6611  0.7354
 7033SOL    HW232559   2.465   3.159   6.174  2.8923 -0.2058 -1.2182
 7034SOL     OW32560   4.064   0.704   6.063 -0.5883 -0.8638 -0.0839
 7034SOL    HW132561   4.131   0.747   6.010 -1.5058  1.3038  0.5168
 7034SOL    HW232562   3.995   0.768   6.078 -0.8761 -0.8187 -1.6397
 7035SOL     OW32563   2.339   0.313  11.073  0.1593 -0.2275 -0.2417
 7035SOL    HW132564   2.299   0.239  11.120 -1.0997  0.4470 -0.2478
 7035SOL    HW232565   2.429   0.306  11.103  0.2262  1.5725 -0.0674
 7036SOL     OW32566   0.274   0.792   3.132 -0.3088  0.0091  0.6720
 7036SOL    HW132567   0.278   0.770   3.039  0.2285  1.0727  0.4506
 7036SOL    HW232568   0.352   0.747   3.166  1.1214  1.6242 -0.5281
 7037SOL     OW32569   0.726   1.791   4.047  0.0441  0.2367  0.1059
 7037SOL    HW132570   0.700   1.814   4.136  0.5707 -2.0376  0.8502
 7037SOL    HW232571   0.821   1.793   4.052  0.1169  1.5695 -1.7848
 7038SOL     OW32572   2.563   2.660   5.472  0.0429  0.1808  0.3051
 7038SOL    HW132573   2.551   2.567   5.490 -1.7273 -0.1465 -2.5747
 7038SOL    HW232574   2.657   2.660   5.486 -0.0234 -0.6788  0.7321
 7039SOL     OW32575   0.313   0.961   6.994 -0.7102 -0.0508  0.4059
 7039SOL    HW132576   0.372   0.910   7.050 -2.2710 -1.5145  0.7450
 7039SOL    HW232577   0.262   1.017   7.053  2.3375  1.4490  1.5782
 7040SOL     OW32578   0.496   0.587   8.237 -0.0937  0.1668  0.1032
 7040SOL    HW132579   0.432   0.518   8.218 -0.1720  0.0102  0.9305
 7040SOL    HW232580   0.470   0.646   8.166  0.0155  1.8932  1.4814
 7041SOL     OW32581   1.357   4.479   7.525  0.0780 -0.3392  0.5129
 7041SOL    HW132582   1.310   4.471   7.442 -1.3106 -0.3979  1.3028
 7041SOL    HW232583   1.387   4.569   7.514  0.3459 -0.2904  1.6426
 7042SOL     OW32584   0.223   1.831   3.667 -0.0431 -0.4395 -0.5459
 7042SOL    HW132585   0.152   1.799   3.612  0.1951 -0.8606 -0.6118
 7042SOL    HW232586   0.213   1.925   3.683 -1.5867 -0.2974 -2.4102
 7043SOL     OW32587   2.329   1.559   5.971 -0.1789 -0.0345  0.0758
 7043SOL    HW132588   2.337   1.654   5.971 -1.8638  0.0982  1.5378
 7043SOL    HW232589   2.244   1.543   5.930 -0.8111  1.7077  0.7264
 7044SOL     OW32590   0.178   4.252   7.818 -0.0506  0.0454  0.1882
 7044SOL    HW132591   0.090   4.263   7.781  0.2048  2.1376  0.1921
 7044SOL    HW232592   0.166   4.261   7.912 -0.0680 -2.3251  0.3980
 7045SOL     OW32593   1.441   3.328   4.818 -0.1411  0.4177  0.1256
 7045SOL    HW132594   1.452   3.363   4.906  0.2964 -1.4373  0.8201
 7045SOL    HW232595   1.528   3.342   4.781  0.3824  1.0728  1.6470
 7046SOL     OW32596   0.724   4.272   9.091 -0.0543 -0.2254 -0.1029
 7046SOL    HW132597   0.629   4.271   9.097  0.0273 -2.2449  0.6477
 7046SOL    HW232598   0.732   4.283   8.996  0.3021  1.9257  0.1633
 7047SOL     OW32599   1.555   2.866   3.414 -0.3275 -0.0897  0.5206
 7047SOL    HW132600   1.641   2.863   3.457 -0.2722 -1.1112  0.3510
 7047SOL    HW232601   1.570   2.914   3.333  1.0584 -0.3604  0.6112
 7048SOL     OW32602   2.628   0.502  11.594 -0.3916 -0.1731 -0.0048
 7048SOL    HW132603   2.649   0.464  11.680  0.6509  1.8376  0.6282
 7048SOL    HW232604   2.715   0.534  11.568  0.3963 -0.7493  1.8808
 7049SOL     OW32605   1.976   0.287  11.617  0.6062 -0.6984 -0.3599
 7049SOL    HW132606   1.992   0.227  11.545  1.0597 -0.6077 -0.3353
 7049SOL    HW232607   2.055   0.341  11.610 -0.9737  1.3830 -1.7946
 7050SOL     OW32608   1.405   4.163   7.328 -0.2354 -0.0575 -0.3519
 7050SOL    HW132609   1.315   4.187   7.348 -0.2661 -0.8547  0.4709
 7050SOL    HW232610   1.421   4.085   7.382  1.1320  1.4346  1.4150
 7051SOL     OW32611   0.199   2.827  16.254  0.3468  0.6659  0.6294
 7051SOL    HW132612   0.295   2.823  16.256  0.2890 -0.5607  1.1341
 7051SOL    HW232613   0.184   2.787  16.169 -2.7863  0.1624  1.4391
 7052SOL     OW32614   4.136   3.777   5.594 -0.1277 -0.0632  0.1776
 7052SOL    HW132615   4.135   3.727   5.512 -0.5314 -1.2281  0.8949
 7052SOL    HW232616   4.216   3.827   5.582 -0.1183 -0.3698 -1.0646
 7053SOL     OW32617   3.787   1.865  15.124  0.2285  0.1205  0.0483
 7053SOL    HW132618   3.860   1.861  15.061  1.0741  0.4868  1.0067
 7053SOL    HW232619   3.728   1.904  15.060  1.4189 -0.4466 -1.4094
 7054SOL     OW32620   1.733   3.291   8.775 -0.5450  0.5584 -0.3084
 7054SOL    HW132621   1.800   3.244   8.825 -1.7299  1.6257  2.2794
 7054SOL    HW232622   1.786   3.320   8.701  0.7223 -0.2867  0.2695
 7055SOL     OW32623   1.341   3.597   1.926  0.2185 -0.3896  0.4647
 7055SOL    HW132624   1.374   3.507   1.931  4.4800  0.9789 -2.4603
 7055SOL    HW232625   1.422   3.647   1.917 -1.2354  1.8061 -0.4598
 7056SOL     OW32626   4.079   1.094   7.670  0.0973  0.2385  0.1148
 7056SOL    HW132627   4.160   1.137   7.642 -0.7707  1.3092 -0.7858
 7056SOL    HW232628   4.044   1.052   7.591 -0.0674 -0.4787  0.5706
 7057SOL     OW32629   2.592   4.408   8.616 -0.0625 -0.2389 -0.0819
 7057SOL    HW132630   2.645   4.412   8.695  0.7691 -1.2842 -0.5857
 7057SOL    HW232631   2.611   4.327   8.568 -0.8659  1.1169 -2.6820
 7058SOL     OW32632   3.049   1.772  13.919  0.4760  0.1971 -0.5206
 7058SOL    HW132633   3.046   1.765  13.823 -3.6227  0.3298 -0.3957
 7058SOL    HW232634   2.978   1.718  13.953  1.5340 -1.9924 -1.7714
 7059SOL     OW32635   1.155   3.865  16.104 -0.0293 -0.4885 -0.2521
 7059SOL    HW132636   1.117   3.824  16.182 -0.4139  3.1219  1.4515
 7059SOL    HW232637   1.074   3.876  16.054  0.1365  1.9922 -0.0105
 7060SOL     OW32638   4.113   2.294   3.685 -0.3370 -0.0890 -0.0188
 7060SOL    HW132639   4.129   2.260   3.773  0.0690 -0.1749 -0.1231
 7060SOL    HW232640   4.128   2.387   3.703  2.2596 -0.6409  0.7758
 7061SOL     OW32641   3.649   0.671   2.471  0.1996 -0.1009 -0.1565
 7061SOL    HW132642   3.687   0.600   2.523  0.0373  0.6551  1.0078
 7061SOL    HW232643   3.592   0.714   2.535 -2.0881 -2.1939 -0.8417
 7062SOL     OW32644   1.005   3.228   6.846  0.1039  0.0245  0.6057
 7062SOL    HW132645   1.089   3.208   6.886  0.5800  0.4714 -0.1691
 7062SOL    HW232646   1.002   3.153   6.787 -0.2493 -0.1702  0.8736
 7063SOL     OW32647   1.840   0.653   2.901 -0.1848  0.1718  0.0875
 7063SOL    HW132648   1.812   0.695   2.982  0.9471  1.1050 -0.0068
 7063SOL    HW232649   1.897   0.720   2.863  0.0165  0.1188  0.2924
 7064SOL     OW32650   2.181   2.727   1.312  0.4568  0.3520  0.2554
 7064SOL    HW132651   2.133   2.796   1.359 -2.4095 -0.8493 -0.9212
 7064SOL    HW232652   2.142   2.735   1.225 -0.1149 -3.2320  0.1810
 7065SOL     OW32653   4.541   1.466   2.125  0.3418 -0.1852 -0.4546
 7065SOL    HW132654   4.448   1.443   2.118  0.5114 -0.8435 -0.5318
 7065SOL    HW232655   4.547   1.489   2.218  0.8347  0.3113 -0.6113
 7066SOL     OW32656   3.925   0.223   6.952 -0.3347 -0.2224  0.7960
 7066SOL    HW132657   3.832   0.224   6.930  0.2939 -0.0127 -1.9210
 7066SOL    HW232658   3.931   0.131   6.976 -0.2028 -0.4975 -0.2780
 7067SOL     OW32659   0.613   2.192   6.573 -0.1523 -0.0909  0.1542
 7067SOL    HW132660   0.597   2.281   6.604  0.5082  0.2824 -0.5692
 7067SOL    HW232661   0.707   2.176   6.585 -0.4018 -2.5560 -1.3766
 7068SOL     OW32662   2.419   0.435  15.759 -0.1805 -0.1340 -0.3594
 7068SOL    HW132663   2.403   0.457  15.667 -0.2164 -0.5635 -0.4589
 7068SOL    HW232664   2.394   0.519  15.797  0.2870 -0.3573  0.4396
 7069SOL     OW32665   3.984   3.866   5.799 -0.4672 -0.2730 -0.4567
 7069SOL    HW132666   4.017   3.826   5.719  0.1218 -0.5309 -0.0869
 7069SOL    HW232667   3.988   3.786   5.851  0.3263 -0.4519 -0.7918
 7070SOL     OW32668   2.236   3.732   3.091  0.6636 -0.6338  0.4000
 7070SOL    HW132669   2.179   3.707   3.018  0.8192  1.4650 -0.4343
 7070SOL    HW232670   2.193   3.811   3.123  1.3363 -0.0822 -0.0475
 7071SOL     OW32671   1.767   1.889   9.008  0.1235 -0.0635  1.1799
 7071SOL    HW132672   1.791   1.952   8.939  2.0030 -0.8456  1.1155
 7071SOL    HW232673   1.817   1.813   8.978 -1.5079 -0.8917  0.6050
 7072SOL     OW32674   1.480   4.150   3.931 -0.4727 -0.3478  0.1428
 7072SOL    HW132675   1.440   4.161   3.845  0.8234 -1.8929 -0.6573
 7072SOL    HW232676   1.500   4.242   3.947  0.0266 -0.6388  1.1785
 7073SOL     OW32677   2.224   4.502   8.197  0.3428 -0.1584 -0.0317
 7073SOL    HW132678   2.280   4.484   8.272 -0.3935  0.6761  0.7096
 7073SOL    HW232679   2.234   4.416   8.158  2.0091 -0.1265  0.3144
 7074SOL     OW32680   2.131   1.961   9.958 -0.8452 -0.0696  0.1058
 7074SOL    HW132681   2.221   1.943   9.985 -0.6068 -0.3735 -0.8843
 7074SOL    HW232682   2.145   2.005   9.874 -1.7671 -0.5586 -0.3042
 7075SOL     OW32683   0.550   4.037   5.670 -0.1890  0.3911 -0.3066
 7075SOL    HW132684   0.522   4.010   5.757  0.5337 -0.4364 -0.3287
 7075SOL    HW232685   0.471   4.023   5.618  1.2288  1.4620 -2.7739
 7076SOL     OW32686   2.097   3.606   5.626 -0.6264  0.7172 -0.6268
 7076SOL    HW132687   2.011   3.649   5.629 -1.3798 -0.9430  1.4266
 7076SOL    HW232688   2.083   3.516   5.654  0.3990  0.9378  0.5749
 7077SOL     OW32689   0.517   3.374   5.707  0.3684  0.0804  0.1545
 7077SOL    HW132690   0.591   3.346   5.653  0.9650 -0.6192  1.3317
 7077SOL    HW232691   0.548   3.359   5.796 -1.6137 -0.5844  0.7371
 7078SOL     OW32692   3.067   0.731   6.122 -0.4267  0.5187 -0.3836
 7078SOL    HW132693   2.990   0.711   6.070 -0.0714  1.2858 -1.2040
 7078SOL    HW232694   3.062   0.674   6.199  0.3870  0.7225 -0.1818
 7079SOL     OW32695   4.557   4.062  11.612  0.5204  0.2187 -0.0152
 7079SOL    HW132696   4.630   4.075  11.673 -0.6003 -0.6736  1.5340
 7079SOL    HW232697   4.481   4.073  11.669  0.9763  0.5824  0.5193
 7080SOL     OW32698   3.569   2.507   1.643  0.4183  0.0244 -0.5768
 7080SOL    HW132699   3.587   2.578   1.581  1.0946 -0.1677 -0.5974
 7080SOL    HW232700   3.487   2.537   1.683  0.0176  0.6220 -1.8267
 7081SOL     OW32701   3.778   1.123   4.771  0.0360 -0.0432  0.1900
 7081SOL    HW132702   3.822   1.057   4.826  3.9686  1.4407 -1.1355
 7081SOL    HW232703   3.693   1.088   4.745  0.0145  0.8923 -0.9497
 7082SOL     OW32704   3.480   2.947   0.484  0.4587  0.2931 -0.3493
 7082SOL    HW132705   3.566   2.929   0.522  0.1455  0.2319  0.3509
 7082SOL    HW232706   3.486   2.899   0.402  0.7193 -1.8731  0.9387
 7083SOL     OW32707   4.139   4.372   0.239 -0.5848  0.0347  0.3942
 7083SOL    HW132708   4.166   4.292   0.195  0.7445  1.1266 -0.7632
 7083SOL    HW232709   4.225   4.412   0.250 -1.1884  0.8869  2.1143
 7084SOL     OW32710   4.268   1.766   1.638  0.3567 -0.3801 -0.1429
 7084SOL    HW132711   4.263   1.798   1.548  0.0072 -1.8715 -0.6615
 7084SOL    HW232712   4.218   1.685   1.633 -0.1101 -0.1014  0.0915
 7085SOL     OW32713   3.626   4.337   1.771 -0.4732  0.5797  0.6724
 7085SOL    HW132714   3.637   4.393   1.848 -0.2404 -0.0412  1.0842
 7085SOL    HW232715   3.532   4.338   1.755 -0.3294 -0.2273 -0.2802
 7086SOL     OW32716   1.623   2.084   5.239 -0.5965  0.2946  0.1927
 7086SOL    HW132717   1.614   2.050   5.150  2.0229 -2.7733  1.1040
 7086SOL    HW232718   1.530   2.082   5.259 -0.7274 -2.8244 -0.8055
 7087SOL     OW32719   3.921   1.982   5.925  0.0327 -0.2238 -0.3943
 7087SOL    HW132720   3.880   1.922   5.864 -4.7023  1.9728  0.6253
 7087SOL    HW232721   3.995   1.937   5.966  0.0618 -1.4725 -1.8217
 7088SOL     OW32722   1.943   2.737   4.428  0.3863  0.1196 -0.2045
 7088SOL    HW132723   1.941   2.650   4.467 -0.1242  0.5403  0.7162
 7088SOL    HW232724   1.932   2.717   4.335  1.1504  1.1264 -0.5111
 7089SOL     OW32725   0.933   1.402   5.184 -0.5280 -0.1461 -0.1513
 7089SOL    HW132726   0.869   1.452   5.133  0.5842  2.8737  1.4026
 7089SOL    HW232727   0.912   1.313   5.154 -3.3041  1.5438 -3.2693
 7090SOL     OW32728   3.835   2.196   3.699 -0.3095 -0.2820 -0.2812
 7090SOL    HW132729   3.927   2.214   3.680 -0.8053 -0.5231 -2.9347
 7090SOL    HW232730   3.846   2.179   3.792 -1.1399  0.5810 -0.0293
 7091SOL     OW32731   1.084   1.962   3.914 -0.2644 -0.0251 -0.1722
 7091SOL    HW132732   1.055   1.898   3.978  1.7638  0.2230  0.9957
 7091SOL    HW232733   1.016   1.954   3.847 -0.4977 -0.8905  0.1744
 7092SOL     OW32734   1.724   0.355   7.769 -0.0678 -0.2564  0.0684
 7092SOL    HW132735   1.779   0.354   7.847  1.1509  2.7450 -0.7441
 7092SOL    HW232736   1.658   0.289   7.787 -1.5237  2.4204  4.4937
 7093SOL     OW32737   0.178   4.681   5.219  0.1626 -0.0733  0.3852
 7093SOL    HW132738   0.173   0.045   5.262  0.8314  1.4529 -2.5773
 7093SOL    HW232739   0.169   4.617   5.289 -0.6547  0.0368  0.3792
 7094SOL     OW32740   4.014   1.643   2.516 -0.2180  0.2093  0.0334
 7094SOL    HW132741   4.079   1.578   2.541  1.4209  1.7570 -0.1519
 7094SOL    HW232742   4.072   1.692   2.457  1.4972  0.4054  1.8856
 7095SOL     OW32743   2.427   3.336   6.196  0.0120  0.3771  0.0675
 7095SOL    HW132744   2.482   3.393   6.250 -0.1349 -0.1674  0.7715
 7095SOL    HW232745   2.419   3.398   6.123 -0.8680  2.6034  2.0293
 7096SOL     OW32746   0.690   2.734   3.926  0.0944 -0.1763  0.4515
 7096SOL    HW132747   0.665   2.721   4.018 -0.1634  1.2775  0.5862
 7096SOL    HW232748   0.732   2.820   3.923  1.6744 -0.8940  1.5661
 7097SOL     OW32749   1.467   3.894   6.393 -0.1384  0.5579 -0.0821
 7097SOL    HW132750   1.551   3.883   6.349  0.7223 -2.3510  2.3331
 7097SOL    HW232751   1.469   3.989   6.401 -1.5479  0.7023 -1.3015
 7098SOL     OW32752   0.869   4.331   5.537 -0.7930 -0.0548 -0.5129
 7098SOL    HW132753   0.941   4.394   5.531  0.3769 -1.3872 -0.5167
 7098SOL    HW232754   0.804   4.368   5.598  0.7935  1.3893  0.3054
 7099SOL     OW32755   0.205   3.974   2.140 -0.1151  0.5400 -0.6029
 7099SOL    HW132756   0.251   4.025   2.074  1.7870  0.2829  0.4929
 7099SOL    HW232757   0.237   3.885   2.123  1.3039  0.9785 -0.2825
 7100SOL     OW32758   2.298   4.517   5.702 -0.0835  0.2711  0.1460
 7100SOL    HW132759   2.317   4.453   5.770 -0.6367  2.6213  2.5366
 7100SOL    HW232760   2.381   4.564   5.713 -0.8600  1.1950  2.0403
 7101SOL     OW32761   3.973   4.714  15.382 -0.3780  0.0337  0.0647
 7101SOL    HW132762   3.948   4.653  15.452  0.6113 -1.2141 -0.6711
 7101SOL    HW232763   4.008   4.657  15.314 -0.3147 -1.2869  1.1988
 7102SOL     OW32764   1.883   4.678   5.496 -0.0837 -0.5039  0.3953
 7102SOL    HW132765   1.843   0.017   5.558 -1.0401  0.4061 -1.0915
 7102SOL    HW232766   1.803   4.626   5.484  0.2047 -0.6442 -0.9374
 7103SOL     OW32767   1.341   1.906   4.945  0.0958 -0.0184 -0.1960
 7103SOL    HW132768   1.301   1.993   4.945  1.0097  0.4005 -0.2541
 7103SOL    HW232769   1.379   1.899   4.857 -0.2099 -1.8342 -0.1837
 7104SOL     OW32770   4.522   1.877  13.142  0.4598 -0.3802  0.2106
 7104SOL    HW132771   4.516   1.849  13.233  1.0397 -1.5026 -0.1035
 7104SOL    HW232772   4.432   1.902  13.124  0.6824 -2.4826 -3.8671
 7105SOL     OW32773   3.598   2.228   3.538  0.0035  0.3324 -0.2981
 7105SOL    HW132774   3.637   2.240   3.624 -1.5468  3.8270 -0.0685
 7105SOL    HW232775   3.680   2.216   3.490  0.5599  2.3307  0.1457
 7106SOL     OW32776   2.699   4.202  14.573  0.0382 -0.3351 -0.5533
 7106SOL    HW132777   2.722   4.121  14.528 -1.1610 -0.5005 -0.8466
 7106SOL    HW232778   2.618   4.182  14.618  1.4740 -0.6620  1.8891
 7107SOL     OW32779   2.858   1.176   7.443  0.2085  0.2395  0.2523
 7107SOL    HW132780   2.853   1.082   7.462 -0.8310  0.0117 -1.1792
 7107SOL    HW232781   2.767   1.199   7.460  0.1458 -0.2032  0.5351
 7108SOL     OW32782   0.027   4.084  16.023 -0.4371 -0.2358  0.0150
 7108SOL    HW132783   0.030   3.994  15.989 -0.2149 -0.3475  0.3219
 7108SOL    HW232784   0.115   4.111  15.998 -1.0448  1.4791 -0.2508
 7109SOL     OW32785   2.103   1.157  10.457  0.8147 -0.1772 -0.0771
 7109SOL    HW132786   2.079   1.210  10.380 -1.0180 -1.2115 -0.2060
 7109SOL    HW232787   2.030   1.184  10.512 -0.3240  1.4461 -2.3430
 7110SOL     OW32788   4.412   0.999   2.051 -0.1204  0.9558 -0.0806
 7110SOL    HW132789   4.407   1.036   1.963 -1.2108 -1.2232 -0.9391
 7110SOL    HW232790   4.322   1.023   2.071 -0.2517  0.2025  0.2276
 7111SOL     OW32791   0.152   1.790   0.923 -0.3320  0.2908  0.1491
 7111SOL    HW132792   0.239   1.760   0.896 -1.4372 -0.1172 -2.9806
 7111SOL    HW232793   0.171   1.859   0.986  0.6398  1.5064 -1.4579
 7112SOL     OW32794   4.120   1.564   9.973 -0.2116 -0.1597  0.3922
 7112SOL    HW132795   4.132   1.488   9.916 -2.4436 -2.1744  2.6132
 7112SOL    HW232796   4.026   1.574   9.955  0.1792  0.8949 -1.0314
 7113SOL     OW32797   1.887   2.944   2.619  0.1270  0.5781 -0.2177
 7113SOL    HW132798   1.793   2.956   2.610  0.4408  2.8692 -0.2707
 7113SOL    HW232799   1.906   2.852   2.600 -0.0828  0.3119  0.9107
 7114SOL     OW32800   1.472   0.660  11.819  0.4267  0.5881 -0.1181
 7114SOL    HW132801   1.406   0.697  11.760 -0.5596 -1.6405 -0.4115
 7114SOL    HW232802   1.425   0.590  11.865  1.6284 -1.1931 -1.5636
 7115SOL     OW32803   4.452   4.051   3.060  0.2228  0.1077  0.2488
 7115SOL    HW132804   4.413   4.138   3.057  0.1094  0.0233 -0.5188
 7115SOL    HW232805   4.538   4.077   3.095  0.0724 -0.1025  0.7744
 7116SOL     OW32806   2.132   3.881  12.143 -0.1022  0.4970  0.5837
 7116SOL    HW132807   2.066   3.896  12.075  1.0896  1.6342 -0.3235
 7116SOL    HW232808   2.202   3.831  12.100  0.0247  1.4143 -0.2907
 7117SOL     OW32809   4.095   3.235  16.210 -0.0031 -0.6562  0.6198
 7117SOL    HW132810   4.017   3.244  16.265  0.0656  0.8628  0.4644
 7117SOL    HW232811   4.171   3.240  16.268  0.6999 -0.9725 -0.2678
 7118SOL     OW32812   0.195   1.960  14.670 -0.0563 -0.3336  0.3450
 7118SOL    HW132813   0.222   1.938  14.581  1.3461 -2.6892  1.3619
 7118SOL    HW232814   0.245   1.889  14.712  2.2089 -0.4622 -2.6401
 7119SOL     OW32815   1.248   2.151   2.601  0.2878  0.1698 -1.0023
 7119SOL    HW132816   1.280   2.198   2.525  1.6927 -0.0054 -0.5364
 7119SOL    HW232817   1.319   2.175   2.661 -1.3136  1.0751  0.5480
 7120SOL     OW32818   2.914   2.421   7.840  0.0188  0.1640 -0.4350
 7120SOL    HW132819   2.997   2.380   7.862 -0.2499  0.2157  0.6905
 7120SOL    HW232820   2.873   2.337   7.819  1.0481 -0.5620  0.4679
 7121SOL     OW32821   2.592   2.651  14.893  0.0713  0.0994 -0.0840
 7121SOL    HW132822   2.527   2.681  14.830 -0.3149  0.2316  0.3780
 7121SOL    HW232823   2.539   2.579  14.929  0.8739  0.3979  1.6844
 7122SOL     OW32824   2.894   2.496   5.337 -0.2307  0.1440  0.0078
 7122SOL    HW132825   2.835   2.434   5.295 -0.7566  0.7770 -0.1698
 7122SOL    HW232826   2.851   2.510   5.421 -1.1291 -0.5381 -0.3425
 7123SOL     OW32827   0.246   3.081   2.991  0.1213 -0.1220 -0.2928
 7123SOL    HW132828   0.190   3.024   3.045  1.6604 -2.4967 -1.1877
 7123SOL    HW232829   0.223   3.169   3.018  3.0196  0.8174 -0.9143
 7124SOL     OW32830   4.383   3.199   5.941 -0.2914 -0.0407 -0.3065
 7124SOL    HW132831   4.465   3.205   5.990  0.2275  0.8366 -1.2843
 7124SOL    HW232832   4.423   3.187   5.854  0.3063 -0.3447  0.0078
 7125SOL     OW32833   1.527   1.510  17.140  0.3386 -0.1753  0.0819
 7125SOL    HW132834   1.574   1.543  17.063  0.7339 -1.0119 -0.0366
 7125SOL    HW232835   1.509   1.586  17.194 -1.9226 -0.0935 -0.7874
 7126SOL     OW32836   1.431   1.121   2.891 -0.3473  0.0028  0.1536
 7126SOL    HW132837   1.368   1.153   2.956  0.6192 -2.0022  2.0829
 7126SOL    HW232838   1.380   1.109   2.811 -1.7229 -0.8298  1.1600
 7127SOL     OW32839   3.713   3.106   8.391  0.2475  0.1271  0.5053
 7127SOL    HW132840   3.651   3.149   8.450  1.8945  1.6286  1.1494
 7127SOL    HW232841   3.773   3.080   8.461 -1.9612 -1.9547  1.5968
 7128SOL     OW32842   4.471   4.111   3.965 -0.0527  0.1864  0.9875
 7128SOL    HW132843   4.555   4.089   3.926 -1.3978 -0.1811 -1.6650
 7128SOL    HW232844   4.501   4.171   4.034 -0.2146  2.2346 -0.7288
 7129SOL     OW32845   1.455   3.526   1.093  0.5005 -0.9246 -0.1564
 7129SOL    HW132846   1.491   3.451   1.047  2.2958 -1.1248  1.5558
 7129SOL    HW232847   1.524   3.591   1.086  0.7362 -1.2255 -0.5823
 7130SOL     OW32848   3.567   0.246  14.939 -0.3638 -0.5056 -0.1445
 7130SOL    HW132849   3.596   0.323  14.891  4.7933  0.3060  4.2409
 7130SOL    HW232850   3.485   0.227  14.892 -0.4110  0.4339 -0.4411
 7131SOL     OW32851   0.433   0.201  17.427  0.1830  0.0071 -0.0517
 7131SOL    HW132852   0.431   0.112  17.392  0.2187 -0.8096  2.0025
 7131SOL    HW232853   0.527   0.207  17.414  0.2352  2.4976  1.5580
 7132SOL     OW32854   1.771   3.852   7.790 -0.0638 -0.1468  0.3541
 7132SOL    HW132855   1.760   3.767   7.832 -0.5244 -0.6104 -0.7019
 7132SOL    HW232856   1.801   3.817   7.706  0.6762 -0.4713  0.7541
 7133SOL     OW32857   1.716   3.855   5.189  0.6119  0.3765  0.2234
 7133SOL    HW132858   1.786   3.861   5.254  1.4027 -1.8604 -0.3924
 7133SOL    HW232859   1.715   3.944   5.156  1.7888  0.5917  0.7466
 7134SOL     OW32860   3.096   1.200   5.524  0.8595 -0.7690  0.7181
 7134SOL    HW132861   3.048   1.279   5.500  2.4394 -0.6084 -1.9933
 7134SOL    HW232862   3.049   1.172   5.602  3.0236 -0.0528  2.2684
 7135SOL     OW32863   2.803   4.309  16.977 -0.4356 -0.4931 -0.3665
 7135SOL    HW132864   2.791   4.268  17.063 -0.7289  0.2803 -0.0366
 7135SOL    HW232865   2.831   4.238  16.921  0.1389 -0.3652 -0.2417
 7136SOL     OW32866   3.864   1.343  13.771 -0.3035 -0.2703 -0.4872
 7136SOL    HW132867   3.882   1.330  13.678  2.6093  2.5743 -0.3299
 7136SOL    HW232868   3.828   1.431  13.770  0.7580  0.1762  0.1655
 7137SOL     OW32869   1.827   0.313   7.295 -0.1307  0.3629 -0.6231
 7137SOL    HW132870   1.903   0.323   7.237 -0.3665  2.5641 -0.5603
 7137SOL    HW232871   1.876   0.275   7.368 -1.6880 -1.2008 -0.3881
 7138SOL     OW32872   2.319   3.293   1.759 -0.0569  0.1554  0.4315
 7138SOL    HW132873   2.286   3.358   1.697 -0.5339  1.1177  1.6851
 7138SOL    HW232874   2.373   3.233   1.709  0.2573 -0.9684  2.1196
 7139SOL     OW32875   1.953   1.340  14.938 -0.1644  0.4978 -0.4044
 7139SOL    HW132876   1.865   1.357  14.903  0.1088  2.4296 -0.1809
 7139SOL    HW232877   2.000   1.406  14.887  1.2895  1.0180  1.6232
 7140SOL     OW32878   4.021   3.979  16.283 -0.5063  0.4377  0.6246
 7140SOL    HW132879   3.973   4.012  16.207  0.9933  1.6258  0.1940
 7140SOL    HW232880   4.116   3.982  16.269 -0.8197 -0.7090 -1.7787
 7141SOL     OW32881   1.803   4.608   5.088  0.3492  0.1626  0.2319
 7141SOL    HW132882   1.821   4.586   4.996  1.3893 -3.8154  1.4136
 7141SOL    HW232883   1.777   4.528   5.134  0.2335 -1.2490 -2.2864
 7142SOL     OW32884   2.696   2.295   5.682 -0.0514 -0.0846 -0.6005
 7142SOL    HW132885   2.751   2.371   5.666 -1.7166  1.2896  0.2848
 7142SOL    HW232886   2.631   2.343   5.733  2.2511 -0.3736  2.6034
 7143SOL     OW32887   2.607   1.066  14.547  0.0937  0.5318 -0.3292
 7143SOL    HW132888   2.567   1.114  14.620 -0.8827 -0.5738 -0.1407
 7143SOL    HW232889   2.696   1.099  14.560 -0.0365 -0.2815  2.8510
 7144SOL     OW32890   4.271   0.866  13.715 -0.2523  0.3490 -0.0465
 7144SOL    HW132891   4.281   0.891  13.623 -2.9785 -0.9971 -0.7005
 7144SOL    HW232892   4.296   0.773  13.706  0.4474  0.6621 -1.4013
 7145SOL     OW32893   2.727   3.315   8.794 -0.0016  0.1646  0.1121
 7145SOL    HW132894   2.741   3.342   8.884 -2.2921  2.1038 -0.0927
 7145SOL    HW232895   2.754   3.390   8.740  1.4941 -0.4874 -0.0363
 7146SOL     OW32896   4.440   3.447   5.491 -0.2916 -0.6661 -0.0803
 7146SOL    HW132897   4.460   3.499   5.413 -1.6977  0.3742  0.2647
 7146SOL    HW232898   4.530   3.429   5.520 -0.0367  0.6867 -0.0431
 7147SOL     OW32899   2.486   2.670   1.328  0.4205 -0.4788  0.0718
 7147SOL    HW132900   2.485   2.710   1.414 -1.0273  0.2641 -0.2863
 7147SOL    HW232901   2.395   2.675   1.300  0.0984 -0.1458  1.1888
 7148SOL     OW32902   2.132   3.057   7.007  0.0746  0.2602  0.0985
 7148SOL    HW132903   2.072   3.073   6.934  1.8261 -0.7330 -1.5841
 7148SOL    HW232904   2.176   3.142   7.016 -1.7415  1.0627  1.3879
 7149SOL     OW32905   0.333   0.559   8.910  0.2362  0.0731 -0.3780
 7149SOL    HW132906   0.385   0.535   8.833  0.6411  3.0261 -1.0222
 7149SOL    HW232907   0.364   0.647   8.932 -0.6739  0.2778  0.0842
 7150SOL     OW32908   2.775   1.308  13.490 -0.7217  1.0145 -0.0631
 7150SOL    HW132909   2.855   1.350  13.457  0.1370  0.2442  1.0399
 7150SOL    HW232910   2.811   1.219  13.489  1.0631  1.7876 -3.7848
 7151SOL     OW32911   3.500   4.688  16.909 -0.1652  0.1000  0.1152
 7151SOL    HW132912   3.487   0.016  16.990  1.0893 -2.6244  1.9739
 7151SOL    HW232913   3.464   4.603  16.935 -1.1144  0.8686  1.2630
 7152SOL     OW32914   3.162   2.598   7.315 -0.2882 -0.6132 -0.1914
 7152SOL    HW132915   3.237   2.618   7.259  0.9131  1.6005  2.2214
 7152SOL    HW232916   3.167   2.503   7.310  0.2707 -0.5671 -0.5566
 7153SOL     OW32917   3.217   3.011   8.129 -0.0377  0.0120 -0.5179
 7153SOL    HW132918   3.310   2.995   8.145 -0.8638 -3.4625  0.9211
 7153SOL    HW232919   3.220   3.010   8.033  0.0429 -0.4946 -0.5125
 7154SOL     OW32920   0.331   4.625  13.112  0.1423  0.4489 -0.3563
 7154SOL    HW132921   0.425   4.619  13.126  0.0172  3.2877  1.6894
 7154SOL    HW232922   0.329   4.638  13.017 -1.7936 -0.5654 -0.4650
 7155SOL     OW32923   2.743   1.643   8.172 -0.0427 -0.3219 -0.0520
 7155SOL    HW132924   2.719   1.556   8.201 -2.5009  0.2892 -0.2830
 7155SOL    HW232925   2.808   1.614   8.108  1.2463  1.7266  0.2914
 7156SOL     OW32926   2.753   0.508   3.205  0.2767  0.2194  0.4084
 7156SOL    HW132927   2.810   0.455   3.261 -0.9574  1.8435  3.1699
 7156SOL    HW232928   2.698   0.439   3.167  1.4782  0.4185 -1.7333
 7157SOL     OW32929   1.664   0.470   7.554  0.0604 -0.1262 -0.8680
 7157SOL    HW132930   1.740   0.528   7.547 -1.4890  1.9443 -0.6990
 7157SOL    HW232931   1.700   0.421   7.628  0.1506  3.3003  1.3872
 7158SOL     OW32932   1.600   2.269   9.316  0.2135 -0.6381  0.2562
 7158SOL    HW132933   1.571   2.188   9.358  0.1203 -0.2635  0.9119
 7158SOL    HW232934   1.521   2.291   9.267  1.6314  0.7035 -1.4600
 7159SOL     OW32935   1.060   2.096   6.133 -0.3297  0.3501 -0.3830
 7159SOL    HW132936   1.065   2.191   6.125  1.6467  0.2257 -0.6289
 7159SOL    HW232937   1.104   2.084   6.217 -1.2135  0.9303  0.1578
 7160SOL     OW32938   3.626   4.376   4.476  0.3771 -0.0070 -0.0902
 7160SOL    HW132939   3.594   4.289   4.451 -1.5571 -0.0867  2.6641
 7160SOL    HW232940   3.613   4.414   4.390 -2.2233 -1.2451 -0.2314
 7161SOL     OW32941   2.689   2.788  12.262  0.3494  0.0322  0.0784
 7161SOL    HW132942   2.710   2.696  12.243  0.3581 -0.3195  1.7418
 7161SOL    HW232943   2.776   2.814  12.293  0.5366 -0.4910  0.0105
 7162SOL     OW32944   3.198   0.867   4.577 -0.7897 -0.0429  0.5589
 7162SOL    HW132945   3.249   0.788   4.592  0.0762  0.9396  2.7647
 7162SOL    HW232946   3.134   0.860   4.648 -2.2837 -1.9139 -0.9718
 7163SOL     OW32947   0.224   4.316   2.738  0.1031 -0.3828 -0.3442
 7163SOL    HW132948   0.318   4.336   2.739  0.4229 -1.7726 -2.2626
 7163SOL    HW232949   0.208   4.284   2.649  2.4048  1.2674 -1.3583
 7164SOL     OW32950   3.104   0.664   2.070  0.5693  0.1821 -0.2083
 7164SOL    HW132951   3.172   0.719   2.031  0.1822  0.2712 -0.7571
 7164SOL    HW232952   3.086   0.593   2.009  0.8632 -0.5057  0.5037
 7165SOL     OW32953   2.121   4.271   5.993  0.4439 -0.0035 -0.2705
 7165SOL    HW132954   2.153   4.209   6.059 -0.4202 -1.1432 -0.9103
 7165SOL    HW232955   2.124   4.356   6.036 -0.0725 -0.1793  0.1231
 7166SOL     OW32956   3.583   1.372   1.380  0.1646  0.3888 -0.1183
 7166SOL    HW132957   3.647   1.339   1.443  2.0437  2.8250 -0.7162
 7166SOL    HW232958   3.513   1.377   1.444  0.2018  0.1331 -0.0574
 7167SOL     OW32959   4.688   3.087   4.587  0.7019  1.0364 -0.3953
 7167SOL    HW132960   4.645   3.117   4.506  1.8706 -0.2094 -1.4797
 7167SOL    HW232961   4.698   3.168   4.636 -0.5572  1.0802 -0.2092
 7168SOL     OW32962   2.473   4.452   6.918 -0.2797 -0.2738  0.3041
 7168SOL    HW132963   2.467   4.407   6.834  1.1555 -0.4803  0.3302
 7168SOL    HW232964   2.561   4.488   6.907  0.2297 -1.4476  0.5470
 7169SOL     OW32965   2.622   1.525  17.308 -0.1219  0.4224  0.5037
 7169SOL    HW132966   2.681   1.600  17.299 -2.4206  1.8108 -3.0024
 7169SOL    HW232967   2.608   1.495  17.218  1.2300 -0.9867  0.7709
 7170SOL     OW32968   2.461   1.813   4.977  0.0485 -0.5776 -0.7792
 7170SOL    HW132969   2.477   1.781   4.888  1.6539 -0.3772 -0.5710
 7170SOL    HW232970   2.528   1.789   5.042 -1.4510 -1.7663  0.3142
 7171SOL     OW32971   0.886   3.485  16.471 -0.0231  0.2316  0.6052
 7171SOL    HW132972   0.960   3.539  16.498  1.0965 -0.7162 -0.5009
 7171SOL    HW232973   0.911   3.401  16.509 -1.0785 -0.2080  0.3140
 7172SOL     OW32974   2.032   0.682  17.170  0.5813 -0.2365 -0.1115
 7172SOL    HW132975   2.111   0.698  17.118  1.0772  1.7945  1.2295
 7172SOL    HW232976   1.977   0.623  17.119  0.9957 -1.8562  1.3178
 7173SOL     OW32977   2.447   1.795  10.964 -0.7560  0.5018  0.1556
 7173SOL    HW132978   2.435   1.807  10.870  1.0595  2.1981  0.1350
 7173SOL    HW232979   2.431   1.701  10.969 -3.6403  1.1341  2.6043
 7174SOL     OW32980   4.718   2.453   3.700 -0.0803  0.1970  0.0625
 7174SOL    HW132981   0.072   2.500   3.735 -0.2725  0.8478 -0.4157
 7174SOL    HW232982   4.690   2.402   3.776 -0.8353 -0.8868 -0.9529
 7175SOL     OW32983   2.796   4.089   7.643 -0.3549 -0.6642 -0.2843
 7175SOL    HW132984   2.883   4.053   7.624  0.5604  0.5727  1.5840
 7175SOL    HW232985   2.806   4.108   7.737 -1.1393 -0.9390 -0.1506
 7176SOL     OW32986   3.797   1.927   4.475  0.2865  0.2193  0.4940
 7176SOL    HW132987   3.837   1.851   4.516 -0.5658  0.5853  2.0067
 7176SOL    HW232988   3.851   1.933   4.396 -0.4628 -1.0146 -0.1032
 7177SOL     OW32989   2.568   3.636   7.047  0.8852 -0.6569  0.7188
 7177SOL    HW132990   2.553   3.541   7.044  0.0435 -0.4271 -2.7488
 7177SOL    HW232991   2.601   3.647   7.136  0.2660 -0.7414  0.9593
 7178SOL     OW32992   2.607   2.120  13.882 -0.3060 -0.6925 -0.2469
 7178SOL    HW132993   2.600   2.150  13.792  0.6080 -1.3687 -0.5510
 7178SOL    HW232994   2.517   2.120  13.913 -0.3161 -2.2073 -0.2540
 7179SOL     OW32995   0.399   3.681   3.422  0.5329 -0.8435  0.1013
 7179SOL    HW132996   0.414   3.772   3.396 -0.7794 -1.0621 -1.3884
 7179SOL    HW232997   0.489   3.653   3.408  0.6734 -0.5516  0.4188
 7180SOL     OW32998   3.115   0.800  16.166  0.5067  0.8684  0.0558
 7180SOL    HW132999   3.026   0.829  16.150  1.2935  3.0277 -0.5253
 7180SOL    HW233000   3.149   0.833  16.082 -2.2234  0.5666 -1.1668
 7181SOL     OW33001   3.235   0.481   7.204  0.2431  0.3138  0.6924
 7181SOL    HW133002   3.206   0.434   7.283  1.3313  0.4369  1.1670
 7181SOL    HW233003   3.154   0.473   7.154  1.3786 -1.6502 -0.8146
 7182SOL     OW33004   3.534   0.533  14.856  0.1750 -0.3942  0.3190
 7182SOL    HW133005   3.499   0.617  14.885  0.4230 -0.3510  0.4990
 7182SOL    HW233006   3.581   0.551  14.775 -0.3244 -0.8550 -0.0740
 7183SOL     OW33007   1.352   0.593  10.927 -0.1685  0.1026 -0.2720
 7183SOL    HW133008   1.368   0.656  10.998 -1.2253 -1.9978  1.8144
 7183SOL    HW233009   1.390   0.512  10.961 -2.2457 -0.6876  0.1802
 7184SOL     OW33010   2.312   1.201  11.322 -0.5114  0.2773 -0.6048
 7184SOL    HW133011   2.260   1.148  11.261 -0.4772 -1.1216  0.5736
 7184SOL    HW233012   2.334   1.280  11.272 -4.0477  2.4720  1.3066
 7185SOL     OW33013   1.595   1.921   8.034  0.5742 -0.3422 -0.1265
 7185SOL    HW133014   1.659   1.886   7.972  1.7896 -0.1269  1.0128
 7185SOL    HW233015   1.526   1.947   7.974  1.8693  0.6578 -1.1813
 7186SOL     OW33016   3.903   4.177   1.944  0.4775  0.7836 -0.2568
 7186SOL    HW133017   3.915   4.240   1.874 -0.0964  1.0250 -0.1453
 7186SOL    HW233018   3.925   4.229   2.022 -0.0321  0.4245  0.1325
 7187SOL     OW33019   1.049   4.110  10.029 -0.3869 -0.0345 -0.0439
 7187SOL    HW133020   1.000   4.148  10.102 -1.5543 -2.2950  0.3585
 7187SOL    HW233021   1.102   4.184  10.002  1.1677 -0.1070  2.8321
 7188SOL     OW33022   0.696   4.026  11.114  0.1640  0.0418 -0.3155
 7188SOL    HW133023   0.690   3.993  11.025 -0.0432 -1.9881  0.4575
 7188SOL    HW233024   0.768   4.088  11.105  0.2049  0.1665  0.9112
 7189SOL     OW33025   1.478   1.016   1.091 -0.2253 -0.8521 -0.4428
 7189SOL    HW133026   1.492   1.073   1.167 -2.5615  0.7718 -1.2011
 7189SOL    HW233027   1.538   0.947   1.117 -0.7759 -1.4439 -0.7512
 7190SOL     OW33028   0.985   1.006   2.909  0.0685  0.1602  0.0316
 7190SOL    HW133029   0.933   1.075   2.949  1.8932  1.3674  0.3321
 7190SOL    HW233030   0.923   0.945   2.870 -1.5324  1.7539  0.0801
 7191SOL     OW33031   3.072   0.080   0.803 -0.7074  0.0007 -0.0812
 7191SOL    HW133032   3.029   0.036   0.730  0.8370 -0.4017 -0.7555
 7191SOL    HW233033   3.079   0.009   0.867  2.6317  0.4311  0.0481
 7192SOL     OW33034   0.206   4.171   8.106  0.4066  0.4085 -0.2096
 7192SOL    HW133035   0.301   4.173   8.112  0.3115  0.2398  1.3076
 7192SOL    HW233036   0.171   4.222   8.179 -1.7173  0.4860 -1.2846
 7193SOL     OW33037   4.668   4.487   6.442  0.0234 -0.1772  0.0702
 7193SOL    HW133038   4.627   4.436   6.512  0.6767 -1.4698 -0.4868
 7193SOL    HW233039   4.666   4.575   6.479 -0.3160  0.1660 -0.7804
 7194SOL     OW33040   2.337   1.231   1.459  0.1492 -0.5868 -0.2933
 7194SOL    HW133041   2.247   1.221   1.428 -0.2885  1.1689  0.4654
 7194SOL    HW233042   2.332   1.240   1.554  1.8904 -1.8702 -0.0626
 7195SOL     OW33043   4.610   0.097   8.286 -0.2146  1.0661 -0.7215
 7195SOL    HW133044   4.666   0.166   8.251 -2.1307  2.4322 -1.0936
 7195SOL    HW233045   4.543   0.150   8.329  0.0775  0.3452  0.6456
 7196SOL     OW33046   4.481   2.589   4.603 -0.3125  0.2749 -0.2882
 7196SOL    HW133047   4.423   2.601   4.527 -0.4383 -1.6497 -0.4834
 7196SOL    HW233048   4.547   2.658   4.594 -1.1913  1.0493 -0.8970
 7197SOL     OW33049   2.680   1.903   4.006 -0.6513  0.1068 -0.2161
 7197SOL    HW133050   2.598   1.936   4.042 -0.7868  0.9580 -1.2921
 7197SOL    HW233051   2.740   1.929   4.076 -1.1400 -1.8091  0.9121
 7198SOL     OW33052   0.816   1.195   7.490 -0.6458 -0.2400  0.0994
 7198SOL    HW133053   0.739   1.205   7.546  0.5345  1.3271  1.4597
 7198SOL    HW233054   0.851   1.114   7.527  0.5835  0.6358  0.8796
 7199SOL     OW33055   2.258   1.287   4.835 -0.1299  0.1502  0.7911
 7199SOL    HW133056   2.226   1.232   4.763 -0.4309  0.2098  0.8758
 7199SOL    HW233057   2.253   1.230   4.912  0.0961 -1.3719 -0.3272
 7200SOL     OW33058   3.124   4.336  16.287 -0.4811 -0.6855  0.0020
 7200SOL    HW133059   3.181   4.268  16.250  4.3396  2.2947  1.8377
 7200SOL    HW233060   3.062   4.330  16.214 -1.5831  1.4702  0.7609
 7201SOL     OW33061   0.837   3.995   0.037 -0.5880  0.0165  0.4137
 7201SOL    HW133062   0.798   4.006   0.123 -0.6717 -2.7440  0.7387
 7201SOL    HW233063   0.853   4.088   0.019 -0.9752  0.0424  0.1830
 7202SOL     OW33064   1.352   1.299   8.461 -0.4022 -0.0702  0.3058
 7202SOL    HW133065   1.402   1.363   8.410  0.4166  0.4158  1.7015
 7202SOL    HW233066   1.416   1.230   8.475  0.7168  1.3220  2.0564
 7203SOL     OW33067   1.474   1.755   0.170  0.1226  0.2720 -0.3480
 7203SOL    HW133068   1.461   1.684   0.233  0.9062 -0.4985 -1.0506
 7203SOL    HW233069   1.522   1.819   0.222  1.3988 -1.7049  0.8869
 7204SOL     OW33070   4.114   2.761  12.921  0.1146  0.2303 -0.1033
 7204SOL    HW133071   4.203   2.798  12.918  0.2471 -0.0460  0.3404
 7204SOL    HW233072   4.131   2.669  12.900  0.0729 -0.0682  1.1547
 7205SOL     OW33073   0.389   1.894   7.002  0.1178 -0.2170 -0.1093
 7205SOL    HW133074   0.349   1.816   6.963 -0.8010 -0.3047  1.0082
 7205SOL    HW233075   0.441   1.935   6.933  1.4531 -2.5809 -0.5380
 7206SOL     OW33076   1.762   2.579  10.725 -0.2805 -0.1585  0.3006
 7206SOL    HW133077   1.677   2.547  10.756 -0.3562  0.0328  0.2918
 7206SOL    HW233078   1.746   2.609  10.636 -0.4051  4.8677  2.0303
 7207SOL     OW33079   1.441   2.624   3.321  1.1139  0.3955 -0.1862
 7207SOL    HW133080   1.479   2.548   3.364 -0.5755 -1.8785 -2.6977
 7207SOL    HW233081   1.507   2.691   3.339  1.1716 -0.2190  1.8260
 7208SOL     OW33082   3.415   0.319   3.641 -0.4016 -0.4147  0.0284
 7208SOL    HW133083   3.342   0.294   3.584  1.0564  0.4814 -2.2227
 7208SOL    HW233084   3.378   0.398   3.682  0.4340 -0.2573  0.4896
 7209SOL     OW33085   3.322   1.053   5.664 -0.1108  0.1571  0.1817
 7209SOL    HW133086   3.270   1.003   5.727 -2.0676  2.3856  0.3440
 7209SOL    HW233087   3.260   1.116   5.627  0.8944  0.9791 -0.1140
 7210SOL     OW33088   4.627   2.401  15.454  0.4282 -0.0233  0.2089
 7210SOL    HW133089   4.635   2.496  15.447 -0.6433  0.1669  1.5741
 7210SOL    HW233090   4.621   2.377  15.362 -0.0439  1.0780 -0.0489
 7211SOL     OW33091   0.355   0.792  11.235  0.5672 -0.0856  0.2663
 7211SOL    HW133092   0.390   0.870  11.278  0.0207  0.5828 -0.5024
 7211SOL    HW233093   0.261   0.811  11.227  0.7032 -0.2496 -1.7969
 7212SOL     OW33094   0.606   0.184   3.810  0.5386  0.5949  0.2556
 7212SOL    HW133095   0.630   0.204   3.900  0.6383 -0.1391  0.3954
 7212SOL    HW233096   0.626   0.267   3.766  1.1434  0.8640  1.0413
 7213SOL     OW33097   2.967   3.267   6.061  0.1743 -0.2151  0.5419
 7213SOL    HW133098   2.973   3.351   6.016 -2.9845 -0.6672 -0.7071
 7213SOL    HW233099   2.875   3.242   6.051  0.6741 -1.9515  0.2701
 7214SOL     OW33100   4.547   0.896   9.684  0.3621 -0.2599  0.3369
 7214SOL    HW133101   4.494   0.968   9.719 -0.1305 -0.2180 -0.5040
 7214SOL    HW233102   4.630   0.897   9.731  0.3861  1.4621  0.2479
 7215SOL     OW33103   3.475   4.648   3.175 -0.4684 -0.4931 -0.5546
 7215SOL    HW133104   3.427   4.658   3.257 -0.5468 -0.6982 -0.5774
 7215SOL    HW233105   3.428   4.575   3.135 -0.6398 -1.1101  0.7736
 7216SOL     OW33106   4.611   1.315  16.990  0.1883 -0.6069 -0.0767
 7216SOL    HW133107   4.651   1.237  16.951  1.0387  0.1405 -0.7104
 7216SOL    HW233108   4.690   1.368  17.000 -0.2432  0.0664 -0.2448
 7217SOL     OW33109   4.525   4.271   7.395 -0.1091 -0.4380  0.1939
 7217SOL    HW133110   4.451   4.308   7.346 -0.8530 -1.9952  0.1457
 7217SOL    HW233111   4.600   4.317   7.359 -0.6632  1.9202  2.0952
 7218SOL     OW33112   0.284   1.403  14.327  0.2278  0.0914  0.4019
 7218SOL    HW133113   0.252   1.452  14.252 -1.0721  0.8403  1.4447
 7218SOL    HW233114   0.361   1.361  14.289 -0.9599  0.4213 -2.3085
 7219SOL     OW33115   1.837   1.014   1.265  0.0532 -0.6089 -0.5303
 7219SOL    HW133116   1.773   0.946   1.243 -1.7316  0.4563  1.4257
 7219SOL    HW233117   1.892   1.011   1.186 -2.5923 -1.8291 -2.3581
 7220SOL     OW33118   2.450   0.615   3.314  0.2313  0.1409 -0.2351
 7220SOL    HW133119   2.400   0.559   3.255 -0.7058  1.5137 -0.7612
 7220SOL    HW233120   2.378   0.679   3.313 -0.4521 -0.6210  0.6829
 7221SOL     OW33121   0.165   4.647   2.174  0.0134 -0.5059 -0.3166
 7221SOL    HW133122   0.129   0.015   2.169  0.7073 -0.1974  0.1777
 7221SOL    HW233123   0.177   4.635   2.268 -1.5220  0.4998  0.0116
 7222SOL     OW33124   4.550   4.549   8.130 -0.0343  0.4776 -0.0806
 7222SOL    HW133125   4.602   4.626   8.151 -0.2525  0.5062  0.3452
 7222SOL    HW233126   4.595   4.526   8.049 -1.0370  1.8244 -1.0231
 7223SOL     OW33127   4.463   1.719   4.235 -0.1415  0.0300 -0.2231
 7223SOL    HW133128   4.440   1.736   4.326  2.3037  3.4917 -0.2542
 7223SOL    HW233129   4.407   1.786   4.196 -1.7989 -0.9994  0.3568
 7224SOL     OW33130   3.188   1.282   2.531 -0.5866 -0.8112  0.0526
 7224SOL    HW133131   3.240   1.230   2.592  0.7924 -1.2108 -1.4688
 7224SOL    HW233132   3.258   1.323   2.480  0.5561 -0.5285  1.8345
 7225SOL     OW33133   4.350   4.208   2.599 -0.0077  0.8634  0.2654
 7225SOL    HW133134   4.382   4.166   2.518  0.0331  3.6794 -1.1771
 7225SOL    HW233135   4.264   4.171   2.615  0.4842 -0.4302 -0.0247
 7226SOL     OW33136   2.053   3.009   7.475 -0.1289  0.4071 -0.3974
 7226SOL    HW133137   2.078   2.925   7.436 -1.2686  1.2065 -2.8537
 7226SOL    HW233138   2.131   3.003   7.530 -0.5484 -0.7985  0.0854
 7227SOL     OW33139   2.768   3.280  10.457 -0.0526  0.6667  0.1542
 7227SOL    HW133140   2.761   3.354  10.396  2.4067  1.3213  0.7080
 7227SOL    HW233141   2.677   3.248  10.453  0.1383  0.0782  0.6254
 7228SOL     OW33142   1.751   2.740   8.972 -0.6134  0.3029  0.1613
 7228SOL    HW133143   1.707   2.685   8.907 -0.4938  1.0055 -0.5073
 7228SOL    HW233144   1.827   2.681   8.981  0.3885  1.7625  1.2816
 7229SOL     OW33145   3.575   3.956   8.393 -0.0126  0.4308  0.2717
 7229SOL    HW133146   3.592   3.897   8.319  0.1800 -2.1266  2.3343
 7229SOL    HW233147   3.651   3.928   8.445  0.2725 -0.8589 -0.8461
 7230SOL     OW33148   2.506   4.392   4.993  0.3030 -0.5600  0.2247
 7230SOL    HW133149   2.575   4.430   5.048  0.1995  1.1231 -0.8312
 7230SOL    HW233150   2.445   4.465   4.999  0.6157 -0.0763 -2.5939
 7231SOL     OW33151   2.676   4.492   5.178 -0.4761  0.2006 -0.4332
 7231SOL    HW133152   2.635   4.522   5.259 -1.0278  2.1408 -1.4184
 7231SOL    HW233153   2.700   4.575   5.137 -0.3044 -0.1797 -1.1048
 7232SOL     OW33154   1.221   4.496   2.652  0.3967  0.3979  0.3606
 7232SOL    HW133155   1.280   4.423   2.634 -0.0284 -0.0237  0.6797
 7232SOL    HW233156   1.189   4.522   2.565 -3.5050 -1.8027  1.1255
 7233SOL     OW33157   4.041   2.699   2.947  0.5724 -0.4986 -0.4762
 7233SOL    HW133158   3.956   2.712   2.989  1.5097 -0.0682  1.2575
 7233SOL    HW233159   4.048   2.604   2.949 -1.4239 -0.6407 -0.2757
 7234SOL     OW33160   1.068   0.324   9.678 -0.0843  0.1270  0.0142
 7234SOL    HW133161   1.018   0.323   9.597  0.6655 -0.9709 -0.4408
 7234SOL    HW233162   1.158   0.346   9.652  0.1684 -1.7294 -0.6548
 7235SOL     OW33163   1.172   0.722   8.416  0.0919  0.9112  0.1946
 7235SOL    HW133164   1.230   0.658   8.456 -0.3030  1.2223  1.2618
 7235SOL    HW233165   1.105   0.659   8.389 -0.2802  1.3868 -0.0023
 7236SOL     OW33166   2.127   2.039   7.171  0.3770  0.0209 -0.1938
 7236SOL    HW133167   2.062   2.012   7.105  0.3101  0.4303 -0.2956
 7236SOL    HW233168   2.177   2.091   7.109 -0.6553 -1.1181 -1.9928
 7237SOL     OW33169   0.491   1.831  15.824  0.3891 -0.0323  0.9594
 7237SOL    HW133170   0.457   1.839  15.735  1.0608 -1.9758  0.5214
 7237SOL    HW233171   0.406   1.835  15.867  0.6567  0.3861  1.4485
 7238SOL     OW33172   1.158   4.089  12.988  0.2344 -0.1864  0.2567
 7238SOL    HW133173   1.120   4.043  13.063 -3.2425  0.6005 -1.0360
 7238SOL    HW233174   1.214   4.015  12.963 -0.4781 -1.0610  1.2840
 7239SOL     OW33175   2.995   3.250  16.032 -0.2840  0.3534 -0.5645
 7239SOL    HW133176   2.904   3.230  16.010  0.3517  0.0762 -2.9540
 7239SOL    HW233177   2.989   3.242  16.127 -0.0861  0.1680 -0.5693
 7240SOL     OW33178   3.909   3.054   6.020  0.2862  0.4087  0.3108
 7240SOL    HW133179   4.003   3.035   6.027  0.3898  0.5491 -0.8338
 7240SOL    HW233180   3.890   3.044   6.114  0.7447 -1.9781  0.1356
 7241SOL     OW33181   0.884   1.643   6.098 -0.7688  0.1358 -0.0986
 7241SOL    HW133182   0.842   1.561   6.124  1.4499 -0.6870  0.9233
 7241SOL    HW233183   0.804   1.694   6.098 -1.2980 -0.6779 -0.9763
 7242SOL     OW33184   0.458   2.134   5.128 -0.5388 -0.8395 -0.3469
 7242SOL    HW133185   0.549   2.160   5.146 -1.1111  0.8753  0.0452
 7242SOL    HW233186   0.461   2.154   5.035 -0.7645  0.2287 -0.1271
 7243SOL     OW33187   0.642   0.502  12.151 -0.0830 -0.2026  0.2770
 7243SOL    HW133188   0.707   0.570  12.140 -1.9539  1.1688 -2.1738
 7243SOL    HW233189   0.569   0.541  12.102  0.0086  0.5966  0.7771
 7244SOL     OW33190   4.141   1.031   5.207  0.1612  0.0706  0.1760
 7244SOL    HW133191   4.112   0.992   5.289  1.7205 -0.2064  0.5897
 7244SOL    HW233192   4.165   1.118   5.238  4.2793 -1.1262  0.3347
 7245SOL     OW33193   3.907   0.060   4.687 -0.3053  0.2845  0.6200
 7245SOL    HW133194   3.934   0.094   4.773 -0.1262 -1.4278  1.2303
 7245SOL    HW233195   3.992   0.039   4.648 -0.3306 -0.3223  0.9052
 7246SOL     OW33196   1.372   3.767   2.210  0.0740 -0.4201 -0.1981
 7246SOL    HW133197   1.294   3.747   2.159 -0.5333  1.2238  0.1019
 7246SOL    HW233198   1.412   3.680   2.218  0.6723 -0.1524 -0.2086
 7247SOL     OW33199   3.237   3.459   4.324  0.1848  0.4193 -0.1452
 7247SOL    HW133200   3.310   3.399   4.335  0.6544  0.9681 -0.2781
 7247SOL    HW233201   3.160   3.403   4.311 -0.2349  1.2925 -1.3829
 7248SOL     OW33202   3.748   4.703   5.096  0.0797  0.6352  0.0064
 7248SOL    HW133203   3.703   4.663   5.021 -0.8020  1.6520 -0.0153
 7248SOL    HW233204   3.826   0.025   5.060 -0.1476 -0.1116 -1.4011
 7249SOL     OW33205   0.967   2.262  11.843  0.4447 -0.0411 -0.7023
 7249SOL    HW133206   0.982   2.321  11.769 -0.7831  1.0541 -0.0809
 7249SOL    HW233207   0.910   2.319  11.895 -1.2254 -1.5209 -0.8952
 7250SOL     OW33208   0.124   3.793  11.108  0.1251 -0.6146 -0.5392
 7250SOL    HW133209   0.210   3.794  11.067  0.9093  0.9061  1.2114
 7250SOL    HW233210   0.087   3.719  11.058  0.2720 -2.9992  2.8855
 7251SOL     OW33211   1.403   1.806   5.271 -0.4765  0.0473  0.2004
 7251SOL    HW133212   1.494   1.781   5.261 -0.5235  0.5872 -1.7421
 7251SOL    HW233213   1.364   1.753   5.201  1.1056  0.0368 -0.6562
 7252SOL     OW33214   2.368   2.732   8.840  0.6381  0.4396  0.0191
 7252SOL    HW133215   2.418   2.691   8.911  0.1411 -0.3755 -0.0984
 7252SOL    HW233216   2.314   2.796   8.888 -1.4004 -2.2408  1.3240
 7253SOL     OW33217   3.012   2.220   3.137 -0.3941 -0.3695 -0.0316
 7253SOL    HW133218   3.065   2.213   3.217  0.7809 -1.4974 -0.9124
 7253SOL    HW233219   3.028   2.139   3.089 -0.2071 -0.1070 -0.4108
 7254SOL     OW33220   2.161   3.957   0.534 -0.9881 -0.3905  0.3828
 7254SOL    HW133221   2.137   4.017   0.604  2.3413  0.4666  0.8193
 7254SOL    HW233222   2.083   3.963   0.480  0.2126  0.0227 -1.3190
 7255SOL     OW33223   0.369   4.290   6.198  0.0614 -0.3379 -0.0682
 7255SOL    HW133224   0.356   4.196   6.187 -0.2342 -0.2454 -0.5044
 7255SOL    HW233225   0.306   4.310   6.266  2.2468 -0.0038  1.8737
 7256SOL     OW33226   3.313   0.960  10.406  0.2688  0.4579 -0.3662
 7256SOL    HW133227   3.363   1.040  10.388  0.5363 -0.1201 -2.1920
 7256SOL    HW233228   3.370   0.891  10.372  2.1765  2.1659 -0.6314
 7257SOL     OW33229   1.086   1.754   9.930  0.0153  0.8778 -0.2691
 7257SOL    HW133230   1.144   1.711   9.867  1.5473  0.3627  1.4957
 7257SOL    HW233231   1.085   1.697  10.008  0.8716 -0.9669 -1.6097
 7258SOL     OW33232   3.444   0.981   3.369 -0.2415  0.1244 -0.2941
 7258SOL    HW133233   3.534   0.975   3.338 -0.2870  0.7710 -0.5443
 7258SOL    HW233234   3.398   0.952   3.290 -0.3792  1.5284 -0.7249
 7259SOL     OW33235   3.079   4.480   4.670  0.0844  0.0457  0.0388
 7259SOL    HW133236   3.129   4.399   4.657  0.5791 -0.0203  2.2898
 7259SOL    HW233237   3.008   4.453   4.728 -0.2518  0.2368 -0.2905
 7260SOL     OW33238   3.185   0.888   1.107 -0.1662 -0.3393 -0.4217
 7260SOL    HW133239   3.171   0.903   1.014 -1.2674  3.3657  0.3180
 7260SOL    HW233240   3.098   0.879   1.146  0.0585 -1.2969 -0.1468
 7261SOL     OW33241   3.858   0.561  16.822  0.1711 -0.0488  0.4951
 7261SOL    HW133242   3.793   0.624  16.791  0.1178 -0.8814 -1.0877
 7261SOL    HW233243   3.866   0.509  16.741  1.4893  0.3653  0.3603
 7262SOL     OW33244   0.890   0.975   6.340  0.0563 -0.0987 -0.3356
 7262SOL    HW133245   0.873   0.881   6.351  0.0735 -0.3962 -2.7113
 7262SOL    HW233246   0.877   1.013   6.427  0.7998  0.1816 -0.3426
 7263SOL     OW33247   3.459   3.974  17.447  0.7340  0.0443  0.0827
 7263SOL    HW133248   3.522   3.914  17.485 -0.9714 -1.4848  0.4886
 7263SOL    HW233249   3.486   3.981  17.356 -2.0577 -1.5971 -0.8724
 7264SOL     OW33250   2.547   0.484   5.512  0.0908  0.9640 -0.2800
 7264SOL    HW133251   2.574   0.568   5.473 -0.3554  1.6888  0.9759
 7264SOL    HW233252   2.453   0.494   5.526  0.2893 -1.0201  2.5279
 7265SOL     OW33253   0.388   4.325   6.703 -0.1458  0.0889  0.0051
 7265SOL    HW133254   0.462   4.298   6.757 -0.7812 -2.5126 -0.4365
 7265SOL    HW233255   0.326   4.257   6.728 -0.7643  0.9275  0.7494
 7266SOL     OW33256   3.545   2.185   4.863  0.0417  0.2468 -0.1258
 7266SOL    HW133257   3.551   2.129   4.786  0.6538 -1.0435  0.8567
 7266SOL    HW233258   3.572   2.270   4.827  0.5813  0.9175  1.8528
 7267SOL     OW33259   1.599   2.670   5.003 -0.3523 -0.5501 -0.7399
 7267SOL    HW133260   1.524   2.630   5.046 -0.7441  2.1423  1.0437
 7267SOL    HW233261   1.553   2.734   4.948 -0.3375  0.6429  0.6550
 7268SOL     OW33262   2.303   0.674  11.885 -0.0651 -0.0582 -0.0207
 7268SOL    HW133263   2.337   0.653  11.798  0.0431 -2.6979  0.6489
 7268SOL    HW233264   2.386   0.673  11.932 -0.6990  2.8676  1.1669
 7269SOL     OW33265   3.650   3.521   1.511 -0.2195 -0.3851 -0.1391
 7269SOL    HW133266   3.730   3.573   1.517 -0.1691 -0.4218 -0.4975
 7269SOL    HW233267   3.586   3.578   1.554 -0.7563  0.2051 -1.7247
 7270SOL     OW33268   2.848   4.454   5.490  0.1972  0.4777 -0.1338
 7270SOL    HW133269   2.878   4.396   5.560 -2.9025  1.3942  1.9072
 7270SOL    HW233270   2.903   4.431   5.414 -0.5946  1.0471 -0.8823
 7271SOL     OW33271   2.354   1.545   4.128  0.5955 -0.2082 -0.2871
 7271SOL    HW133272   2.391   1.611   4.186 -0.3527  0.8535 -0.8870
 7271SOL    HW233273   2.422   1.537   4.060  0.1996  0.2618 -0.7406
 7272SOL     OW33274   3.823   0.528   8.383 -0.1835  0.0094 -0.0602
 7272SOL    HW133275   3.817   0.583   8.461  1.3455 -1.0818  0.8316
 7272SOL    HW233276   3.742   0.550   8.338 -0.4206  2.2426  1.4760
 7273SOL     OW33277   3.965   4.278   1.637 -0.3748  0.0711 -0.0017
 7273SOL    HW133278   3.971   4.371   1.656 -3.7324  0.1233  0.6562
 7273SOL    HW233279   4.050   4.250   1.671  1.2969  2.0289 -2.5558
 7274SOL     OW33280   3.822   1.473   6.076  0.2625 -0.0810  0.1479
 7274SOL    HW133281   3.743   1.481   6.022  0.1805  0.4219  0.3443
 7274SOL    HW233282   3.879   1.443   6.005 -0.5359  0.5213 -0.7508
 7275SOL     OW33283   0.340   2.947   8.814  0.2850  0.2062  0.4561
 7275SOL    HW133284   0.323   3.038   8.789  1.6776  0.5941  0.8817
 7275SOL    HW233285   0.299   2.896   8.744  3.9452 -1.6591 -0.3572
 7276SOL     OW33286   4.345   4.123   8.057 -0.2652  0.5265  0.0386
 7276SOL    HW133287   4.325   4.148   8.147 -1.0369  1.1245 -0.3070
 7276SOL    HW233288   4.375   4.205   8.019  1.1286  0.4085  0.8629
 7277SOL     OW33289   4.544   0.012   0.399  0.3781 -0.2457  0.2176
 7277SOL    HW133290   4.630   0.037   0.433  0.5268  0.1760 -0.4837
 7277SOL    HW233291   4.583   4.687   0.325 -0.3106  1.5579 -1.2692
 7278SOL     OW33292   4.290   0.784   9.656 -0.5475 -0.0947  0.4168
 7278SOL    HW133293   4.325   0.698   9.631  1.0047  0.5789  0.2295
 7278SOL    HW233294   4.371   0.836   9.661 -0.6116  0.0348  0.0965
 7279SOL     OW33295   1.540   0.885  16.550 -0.2759 -0.0020  0.0459
 7279SOL    HW133296   1.499   0.884  16.637 -2.0049 -0.7611 -0.7854
 7279SOL    HW233297   1.607   0.820  16.569 -0.6361  0.0108  1.3806
 7280SOL     OW33298   2.045   3.280   9.396 -0.3886  0.1448 -0.0261
 7280SOL    HW133299   2.048   3.370   9.430  0.8588  0.9123 -2.1479
 7280SOL    HW233300   1.951   3.262   9.399 -0.6438  1.2053 -1.3606
 7281SOL     OW33301   1.190   3.357   9.310 -0.2242  0.3046 -0.5898
 7281SOL    HW133302   1.153   3.446   9.310  1.2374  0.9497 -3.7528
 7281SOL    HW233303   1.210   3.340   9.402 -1.0180  0.1689 -0.4467
 7282SOL     OW33304   2.857   2.086   5.592 -0.1374 -0.0314 -0.3205
 7282SOL    HW133305   2.787   2.145   5.621 -1.1901 -0.8293 -1.2482
 7282SOL    HW233306   2.927   2.152   5.592  0.4483 -0.6462  0.7770
 7283SOL     OW33307   4.195   0.380  11.476 -0.2516  0.9657 -0.4400
 7283SOL    HW133308   4.196   0.286  11.462 -1.7345  0.7191  1.1378
 7283SOL    HW233309   4.180   0.406  11.385 -1.1712 -0.6977 -0.7585
 7284SOL     OW33310   2.460   0.066   5.703  0.7221  0.3946 -0.3752
 7284SOL    HW133311   2.369   0.071   5.731  1.5692 -3.1045  2.8930
 7284SOL    HW233312   2.470   0.126   5.629 -1.9997 -1.8251 -2.5623
 7285SOL     OW33313   0.836   2.510   4.597 -0.1338  0.0890 -0.8763
 7285SOL    HW133314   0.838   2.576   4.528 -0.6806  3.5720  2.4289
 7285SOL    HW233315   0.865   2.552   4.678 -0.7417 -2.0644  0.4492
 7286SOL     OW33316   0.817   1.399   2.308  0.3186 -0.3629  0.0964
 7286SOL    HW133317   0.883   1.339   2.343 -1.5019 -1.2310  2.0125
 7286SOL    HW233318   0.740   1.343   2.309  0.3849 -0.4975 -1.7141
 7287SOL     OW33319   2.290   0.747   9.297  0.0800 -0.2196 -0.4314
 7287SOL    HW133320   2.343   0.825   9.314 -0.6329 -0.0151  0.8759
 7287SOL    HW233321   2.332   0.715   9.218  1.3326  0.2336  0.0406
 7288SOL     OW33322   2.838   0.416  16.855  0.5247 -0.2397  0.2633
 7288SOL    HW133323   2.743   0.418  16.849  0.4048 -0.8208  2.0922
 7288SOL    HW233324   2.856   0.341  16.799 -2.0828 -0.8565  0.2534
 7289SOL     OW33325   3.064   2.436   2.992 -0.5737 -0.1985 -0.3365
 7289SOL    HW133326   3.028   2.361   3.038 -1.1016  1.1928  1.4898
 7289SOL    HW233327   3.038   2.517   3.035  4.2683  2.2339 -1.9975
 7290SOL     OW33328   0.940   1.518  12.385 -0.1115  0.1348 -0.3388
 7290SOL    HW133329   0.996   1.574  12.439  0.9010  0.7855 -2.0848
 7290SOL    HW233330   0.864   1.512  12.444 -0.3689  1.7264 -0.4913
 7291SOL     OW33331   3.159   3.760  10.211  0.3314 -0.3427  0.0576
 7291SOL    HW133332   3.211   3.713  10.278 -0.5094  0.2850  1.1513
 7291SOL    HW233333   3.092   3.696  10.186  1.6479 -2.9407  3.0924
 7292SOL     OW33334   4.210   3.710   4.860  0.3208  0.7018  0.1456
 7292SOL    HW133335   4.214   3.621   4.826  1.8489  0.4421  1.0045
 7292SOL    HW233336   4.133   3.699   4.916  0.9974 -0.0821  0.9235
 7293SOL     OW33337   4.633   4.512  14.981 -0.2357 -0.1340  0.4574
 7293SOL    HW133338   4.596   4.593  15.019  1.2592  0.5974  0.3418
 7293SOL    HW233339   0.004   4.533  14.989 -0.6523  1.3498  1.6489
 7294SOL     OW33340   2.074   1.688   1.257 -0.0012  0.1530 -0.0135
 7294SOL    HW133341   2.095   1.775   1.292  0.0626  0.0735  0.1481
 7294SOL    HW233342   2.141   1.633   1.297 -0.0159 -0.4361 -0.7987
 7295SOL     OW33343   2.105   1.226   1.924 -0.1800 -0.4887 -0.5885
 7295SOL    HW133344   2.051   1.176   1.863 -0.0159 -1.3154 -0.0672
 7295SOL    HW233345   2.121   1.147   1.976 -1.2114 -1.0495 -1.1017
 7296SOL     OW33346   2.665   1.712   1.372 -0.3244  0.1717 -0.4189
 7296SOL    HW133347   2.653   1.790   1.317 -0.0227  0.1929 -0.4527
 7296SOL    HW233348   2.731   1.753   1.429 -1.8516  0.8968  0.8285
 7297SOL     OW33349   4.623   0.045   3.297  0.5289 -0.2883  0.0935
 7297SOL    HW133350   4.610   0.133   3.260 -0.2406 -0.9059 -1.1124
 7297SOL    HW233351   4.624   0.064   3.391  0.5922  2.2481 -0.4298
 7298SOL     OW33352   3.137   0.021  10.642  0.8605 -0.2065  0.6768
 7298SOL    HW133353   3.226   0.030  10.607  1.0028  0.1753  1.1348
 7298SOL    HW233354   3.147   0.014  10.737  0.3332 -0.6704  0.7019
 7299SOL     OW33355   4.694   2.568  15.859  0.3882 -0.4187  0.4767
 7299SOL    HW133356   4.719   2.606  15.943  0.5226 -0.9954  0.6914
 7299SOL    HW233357   4.629   2.634  15.835 -0.3162  0.0883  3.8067
 7300SOL     OW33358   2.457   3.071   4.430 -0.0124 -0.1769 -0.4386
 7300SOL    HW133359   2.415   3.041   4.349 -1.1997 -2.5888  1.0733
 7300SOL    HW233360   2.406   3.036   4.502  2.5027 -1.4091  0.7512
 7301SOL     OW33361   0.546   2.794   6.579  0.4151 -0.1336  0.4325
 7301SOL    HW133362   0.520   2.766   6.667 -3.0767 -1.7344 -1.1166
 7301SOL    HW233363   0.637   2.819   6.596  1.1675 -2.1010 -0.6495
 7302SOL     OW33364   0.053   1.936   7.753 -0.1392 -0.1351 -0.4041
 7302SOL    HW133365   0.094   1.850   7.739  1.2920  0.5330 -0.3412
 7302SOL    HW233366   0.081   1.956   7.842 -0.8637 -2.3720  0.3231
 7303SOL     OW33367   0.587   2.787  12.794 -0.0582 -0.5771  0.4734
 7303SOL    HW133368   0.679   2.777  12.772 -0.4743 -1.2255 -0.9846
 7303SOL    HW233369   0.551   2.761  12.709 -0.4070  1.4519 -0.0085
 7304SOL     OW33370   0.143   0.558   3.250  0.1305 -0.2840 -0.1456
 7304SOL    HW133371   0.155   0.590   3.339 -0.1670  0.1739 -0.2723
 7304SOL    HW233372   0.192   0.631   3.213  0.5651 -0.8931 -0.7943
 7305SOL     OW33373   1.554   2.306   6.225  0.9137  0.0171  0.3284
 7305SOL    HW133374   1.558   2.219   6.185  0.1424 -0.7177  1.8689
 7305SOL    HW233375   1.632   2.352   6.194  1.2721 -1.1034 -0.4179
 7306SOL     OW33376   4.571   0.627   6.887 -0.4337 -0.6525 -0.3878
 7306SOL    HW133377   4.503   0.654   6.826  0.1421  0.3897 -0.5771
 7306SOL    HW233378   4.554   0.533   6.884 -0.9276 -0.6324  1.9896
 7307SOL     OW33379   2.359   4.623   5.012  0.0304 -0.0181  0.5187
 7307SOL    HW133380   2.268   4.648   5.022  0.0809  0.1941  0.4536
 7307SOL    HW233381   2.406   4.695   5.053 -2.8092  1.7126  0.7002
 7308SOL     OW33382   4.314   1.762  12.463  0.0249 -0.0398 -0.3259
 7308SOL    HW133383   4.240   1.799  12.510 -1.5727 -4.1587  0.4495
 7308SOL    HW233384   4.277   1.734  12.380 -2.3340  1.6132  0.1813
 7309SOL     OW33385   0.096   3.936   0.752 -0.5261  0.0985 -0.2160
 7309SOL    HW133386   0.058   3.985   0.825 -0.2984  0.2130 -0.1725
 7309SOL    HW233387   0.111   4.009   0.691  1.8109  0.2144  0.5002
 7310SOL     OW33388   0.848   0.945   2.171  0.2562  0.2022  0.4107
 7310SOL    HW133389   0.811   0.937   2.082  2.3975 -0.2531 -0.4300
 7310SOL    HW233390   0.804   0.876   2.221  1.0476  0.2870  1.2149
 7311SOL     OW33391   0.370   1.992   7.757  0.3633  0.0251 -0.2250
 7311SOL    HW133392   0.308   1.992   7.685 -0.6442 -1.7849  0.6361
 7311SOL    HW233393   0.362   1.907   7.800 -1.5446  0.5596  0.4749
 7312SOL     OW33394   2.082   1.960   1.348  0.6457  0.8341  0.0491
 7312SOL    HW133395   2.100   2.053   1.337  2.9493  0.1584 -1.9399
 7312SOL    HW233396   2.042   1.955   1.435 -0.4003  1.7318 -0.3899
 7313SOL     OW33397   0.477   2.761   6.840  0.5933 -0.1121 -0.1788
 7313SOL    HW133398   0.386   2.742   6.862  1.2848 -1.0794  1.8551
 7313SOL    HW233399   0.492   2.838   6.895  0.8448 -0.6330  0.4874
 7314SOL     OW33400   4.435   2.828   0.659 -0.0819  0.1608  0.1749
 7314SOL    HW133401   4.529   2.819   0.675 -0.3523 -0.2920  1.4499
 7314SOL    HW233402   4.401   2.839   0.747  0.3807 -1.0676  0.5067
 7315SOL     OW33403   1.093   2.375  11.338  0.4555  0.0665 -0.0507
 7315SOL    HW133404   1.111   2.462  11.304 -1.6714 -0.1756 -1.7465
 7315SOL    HW233405   1.011   2.362  11.290  1.2507 -0.5397 -1.2446
 7316SOL     OW33406   0.717   4.010   3.518  0.4533  0.4546 -0.0573
 7316SOL    HW133407   0.781   3.961   3.466 -0.5956 -0.1663 -0.7722
 7316SOL    HW233408   0.709   4.083   3.456 -0.8512 -0.4026 -0.9077
 7317SOL     OW33409   2.796   0.592   6.036 -0.4628 -0.1468  0.2405
 7317SOL    HW133410   2.741   0.526   6.078 -1.7929  0.7243 -0.1166
 7317SOL    HW233411   2.777   0.665   6.095  1.8895  0.9861 -0.3980
 7318SOL     OW33412   0.900   4.028   7.966 -0.2065  0.0553  0.1288
 7318SOL    HW133413   0.949   4.096   8.014  0.2711 -1.0175  1.1602
 7318SOL    HW233414   0.860   4.081   7.897  1.4850 -0.6831 -1.4252
 7319SOL     OW33415   1.126   2.659   2.068  0.3516 -0.0921 -0.0600
 7319SOL    HW133416   1.137   2.669   2.162  0.6891  1.2964 -0.2354
 7319SOL    HW233417   1.049   2.603   2.065  0.7906 -0.7235  0.4288
 7320SOL     OW33418   4.376   1.702  12.781  0.1212 -0.4370  0.0952
 7320SOL    HW133419   4.449   1.741  12.732 -2.4428  2.9887 -1.0629
 7320SOL    HW233420   4.341   1.775  12.831 -0.2447 -0.5367 -0.0123
 7321SOL     OW33421   0.129   1.416  11.631 -1.2656  0.4092 -0.0850
 7321SOL    HW133422   0.046   1.377  11.659  0.1274 -2.2809  0.2068
 7321SOL    HW233423   0.112   1.511  11.637  0.7927  0.6928  0.9658
 7322SOL     OW33424   3.656   2.502   5.966 -0.0011 -0.3884 -0.0075
 7322SOL    HW133425   3.727   2.457   6.010 -0.3024 -1.6200 -0.7971
 7322SOL    HW233426   3.663   2.583   6.017  0.0331 -1.0596  1.0544
 7323SOL     OW33427   4.607   4.010   2.086 -0.0025  0.5385 -0.2243
 7323SOL    HW133428   4.583   4.035   1.996 -3.3914 -1.3876  0.1422
 7323SOL    HW233429   4.691   4.053   2.100  0.5519  0.0640 -2.0256
 7324SOL     OW33430   2.122   0.952   8.790  0.0844 -0.5906  0.1715
 7324SOL    HW133431   2.108   0.914   8.704 -0.6450 -0.4196  0.2111
 7324SOL    HW233432   2.033   0.970   8.820  0.2048 -0.0834  0.2220
 7325SOL     OW33433   2.389   2.952   3.681  0.4484  0.0143 -0.6470
 7325SOL    HW133434   2.381   2.966   3.776  1.4893 -0.7903 -0.4401
 7325SOL    HW233435   2.297   2.951   3.654  0.3577  0.3247 -0.3477
 7326SOL     OW33436   0.060   1.753   8.293  0.0671 -0.6134  0.2623
 7326SOL    HW133437   0.121   1.805   8.345  0.4508  0.2545 -1.0746
 7326SOL    HW233438   4.711   1.814   8.272 -0.6055 -1.2700  0.6039
 7327SOL     OW33439   3.467   4.659   8.200  0.3609 -0.5948  0.0973
 7327SOL    HW133440   3.411   4.582   8.188 -0.5969  0.3567 -1.5534
 7327SOL    HW233441   3.497   4.654   8.291 -1.3766  0.2687  0.7091
 7328SOL     OW33442   4.555   3.721   1.424  0.0340 -0.1889 -0.1667
 7328SOL    HW133443   4.605   3.670   1.361 -0.8350 -0.9204 -0.2679
 7328SOL    HW233444   4.625   3.776   1.460 -0.9200  1.1616 -0.4270
 7329SOL     OW33445   1.210   3.455   3.398 -0.0094 -0.3115 -0.4989
 7329SOL    HW133446   1.270   3.529   3.405  2.1216 -2.2258  1.0071
 7329SOL    HW233447   1.250   3.399   3.332  1.2125 -0.1197  0.0932
 7330SOL     OW33448   3.087   3.550   1.981 -0.2290 -0.6467  0.3088
 7330SOL    HW133449   3.136   3.632   1.972  2.3605 -2.1976  0.1943
 7330SOL    HW233450   3.034   3.543   1.901  0.1524 -0.0117 -0.0027
 7331SOL     OW33451   2.450   1.619   1.592  0.0086 -0.2619 -0.1661
 7331SOL    HW133452   2.435   1.712   1.575 -2.5925 -0.2100  2.4348
 7331SOL    HW233453   2.546   1.619   1.592  0.0194 -0.1457  2.2421
 7332SOL     OW33454   2.511   1.768   8.472  0.0373 -0.1565  0.2965
 7332SOL    HW133455   2.506   1.802   8.562  2.5984  1.9609 -0.3573
 7332SOL    HW233456   2.427   1.790   8.431 -0.9956 -1.3320  1.7870
 7333SOL     OW33457   0.834   3.979   0.886 -0.2290 -0.0367 -0.0035
 7333SOL    HW133458   0.905   3.984   0.950  0.0794 -1.6619 -0.2113
 7333SOL    HW233459   0.783   4.043   0.935  1.6489  0.7782  0.8798
 7334SOL     OW33460   2.566   3.008   6.383  0.1666 -0.1673 -1.2130
 7334SOL    HW133461   2.608   2.928   6.417  1.2514  0.7204 -0.4526
 7334SOL    HW233462   2.643   3.041   6.337  0.6027 -1.8986 -1.7344
 7335SOL     OW33463   4.134   1.563  16.149 -0.1267  0.1004  0.6582
 7335SOL    HW133464   4.183   1.644  16.169  0.6431 -0.9717  3.2087
 7335SOL    HW233465   4.068   1.600  16.091  2.0205  1.5860 -0.8692
 7336SOL     OW33466   4.695   1.200   0.256  1.1001  0.3967 -0.1211
 7336SOL    HW133467   0.035   1.273   0.243  0.5173  0.6518 -1.4748
 7336SOL    HW233468   0.015   1.174   0.338 -0.0147 -0.2420  0.2234
 7337SOL     OW33469   0.428   0.971   7.358 -0.2710 -0.5290 -0.0019
 7337SOL    HW133470   0.480   0.917   7.417 -0.4955 -0.2592  0.4416
 7337SOL    HW233471   0.348   0.918   7.362 -1.6539  1.4857 -0.5081
 7338SOL     OW33472   2.288   1.724  16.561 -1.0528 -0.3043  0.1240
 7338SOL    HW133473   2.202   1.683  16.560 -0.9505 -0.5284  0.3851
 7338SOL    HW233474   2.301   1.746  16.654 -3.0667 -1.1358  0.6034
 7339SOL     OW33475   3.930   3.878   4.525  0.1114  0.5041 -0.3813
 7339SOL    HW133476   4.021   3.900   4.505  0.6419 -1.5654 -0.3468
 7339SOL    HW233477   3.947   3.783   4.529 -3.5802 -0.1168  0.9836
 7340SOL     OW33478   0.000   3.978   7.405  0.2285 -0.4592 -0.1338
 7340SOL    HW133479   0.092   4.006   7.404 -0.2928  1.1711 -1.9758
 7340SOL    HW233480   4.696   4.013   7.490 -1.0925  0.4554 -0.9067
 7341SOL     OW33481   1.756   1.417   8.462  0.5996 -0.6032  0.9525
 7341SOL    HW133482   1.812   1.475   8.410  0.1170 -0.3275  0.7409
 7341SOL    HW233483   1.688   1.468   8.505  0.0064 -1.0990  0.5939
 7342SOL     OW33484   0.140   1.648  10.272 -0.4495 -0.3580 -0.3838
 7342SOL    HW133485   0.185   1.704  10.209 -1.5572  2.8264  1.6380
 7342SOL    HW233486   0.060   1.621  10.226  0.7333 -0.7836 -2.1625
 7343SOL     OW33487   1.506   2.737   1.985  0.6238  0.1189  0.1790
 7343SOL    HW133488   1.600   2.741   1.970  1.1120  1.0948  3.5959
 7343SOL    HW233489   1.497   2.728   2.080  1.6961 -2.0776  0.0828
 7344SOL     OW33490   1.814   2.995   3.471 -0.2977  0.3226 -0.0314
 7344SOL    HW133491   1.798   3.058   3.401  2.6593  0.1199 -0.9023
 7344SOL    HW233492   1.795   3.055   3.543  1.0159  0.9149 -0.1725
 7345SOL     OW33493   1.079   4.373   9.532 -0.0812 -0.0065 -0.4903
 7345SOL    HW133494   1.013   4.380   9.463  0.2611  0.7332 -0.7512
 7345SOL    HW233495   1.069   4.460   9.572 -0.4271  0.6221 -1.9448
 7346SOL     OW33496   0.359   2.418   4.613 -0.4462  0.2968 -0.1053
 7346SOL    HW133497   0.278   2.446   4.570 -0.1625  0.8796 -0.2526
 7346SOL    HW233498   0.365   2.490   4.676  0.5475  0.0730  0.0505
 7347SOL     OW33499   2.787   0.512  11.313  0.7021  0.3259 -0.3074
 7347SOL    HW133500   2.845   0.448  11.354 -1.9261 -2.5470 -1.1138
 7347SOL    HW233501   2.835   0.593  11.331  0.9231  0.6448 -2.3117
 7348SOL     OW33502   1.614   1.379   2.222 -0.1127  0.1084 -0.1594
 7348SOL    HW133503   1.672   1.443   2.179  0.7195  0.2998  1.2419
 7348SOL    HW233504   1.525   1.398   2.194 -0.9963 -0.4620  2.3142
 7349SOL     OW33505   0.689   0.866  11.068  0.0740  0.0663  0.3423
 7349SOL    HW133506   0.684   0.920  11.147 -1.2669 -0.1606  0.4098
 7349SOL    HW233507   0.660   0.783  11.106  1.5919 -1.2953 -1.4658
 7350SOL     OW33508   1.900   1.108  11.322  0.3569  0.3850 -0.4059
 7350SOL    HW133509   1.977   1.102  11.379  1.7029  2.2977 -1.9980
 7350SOL    HW233510   1.889   1.202  11.312 -3.1101  0.1200  1.0300
 7351SOL     OW33511   4.274   1.323   7.738  0.3319 -0.0937 -0.5614
 7351SOL    HW133512   4.190   1.370   7.742  1.6959  2.3458 -0.9669
 7351SOL    HW233513   4.334   1.397   7.731 -2.0540  2.0803  1.8422
 7352SOL     OW33514   1.234   3.689  15.633 -0.2973  0.3684  0.8848
 7352SOL    HW133515   1.280   3.716  15.713  0.1037 -1.1643  1.1764
 7352SOL    HW233516   1.279   3.610  15.601  0.0263  1.2781 -0.8916
 7353SOL     OW33517   0.303   0.272   2.726 -0.3403 -0.0517 -0.0836
 7353SOL    HW133518   0.280   0.358   2.693 -0.0231  0.5847  1.3376
 7353SOL    HW233519   0.288   0.219   2.648  1.4261  0.1946 -0.5780
 7354SOL     OW33520   2.662   0.020  10.314 -0.3991  0.5356  0.4992
 7354SOL    HW133521   2.584   4.712  10.361 -0.0187  1.8864  1.9833
 7354SOL    HW233522   2.626   0.056  10.233 -1.9582 -0.1355  0.8905
 7355SOL     OW33523   3.351   2.185  14.106 -0.4204 -0.5084  0.3154
 7355SOL    HW133524   3.279   2.127  14.084 -0.6320  0.6392 -2.0979
 7355SOL    HW233525   3.423   2.135  14.067 -3.0166 -0.8511 -4.0306
 7356SOL     OW33526   3.772   3.312   2.723 -0.1868 -0.3306  0.2888
 7356SOL    HW133527   3.864   3.327   2.748  0.3088 -0.6997 -1.3095
 7356SOL    HW233528   3.770   3.292   2.629  0.2313 -0.7914  0.3761
 7357SOL     OW33529   3.531   0.387   5.261 -0.0330 -0.5803 -0.1579
 7357SOL    HW133530   3.442   0.420   5.273 -0.1772 -1.1309  0.2692
 7357SOL    HW233531   3.567   0.412   5.346  1.3034 -0.1650 -0.8412
 7358SOL     OW33532   3.877   4.502   1.350  0.0081 -0.4010 -0.0397
 7358SOL    HW133533   3.961   4.511   1.304  0.0893 -0.6546  0.0609
 7358SOL    HW233534   3.847   4.434   1.290 -1.8041 -1.1941  1.7592
 7359SOL     OW33535   4.293   0.950  12.767 -0.0765 -0.0115  0.3660
 7359SOL    HW133536   4.380   0.980  12.741  0.1053  0.8986  1.9653
 7359SOL    HW233537   4.267   0.899  12.690  1.6966 -1.7851  0.9630
 7360SOL     OW33538   1.082   4.546   7.669 -0.3161 -0.3178 -0.2280
 7360SOL    HW133539   1.124   4.474   7.715 -1.3440 -0.6065  0.2563
 7360SOL    HW233540   1.131   4.540   7.587  0.4498 -1.4452  0.3165
 7361SOL     OW33541   2.351   4.311   0.673  0.1495  0.4793 -0.2346
 7361SOL    HW133542   2.302   4.291   0.753 -0.0766 -2.3557 -1.0856
 7361SOL    HW233543   2.426   4.363   0.703  0.6804 -0.1548 -0.4650
 7362SOL     OW33544   2.512   0.558  17.095  0.5210  0.1667  0.1008
 7362SOL    HW133545   2.517   0.524  17.006  2.8791  0.5743  0.0845
 7362SOL    HW233546   2.595   0.605  17.106  2.2905 -2.6404 -1.3244
 7363SOL     OW33547   4.371   0.608   3.802  0.1595 -0.3200 -0.6390
 7363SOL    HW133548   4.351   0.676   3.738  1.8533  0.0772 -0.7367
 7363SOL    HW233549   4.292   0.623   3.854  0.9701 -0.6461  0.6907
 7364SOL     OW33550   3.863   1.020   5.128  0.3476  0.4551 -0.7622
 7364SOL    HW133551   3.866   0.976   5.043 -1.0022  0.5791 -0.8631
 7364SOL    HW233552   3.944   0.984   5.166 -0.2289  0.2762  0.2935
 7365SOL     OW33553   1.234   0.914   7.274  0.2048  0.4321 -0.2423
 7365SOL    HW133554   1.246   0.906   7.369 -1.6222  1.7873  0.0967
 7365SOL    HW233555   1.164   0.978   7.268 -1.0608 -1.0543 -1.0336
 7366SOL     OW33556   2.963   3.317  12.524 -0.7167 -0.1864 -0.2457
 7366SOL    HW133557   2.941   3.395  12.575  0.7730 -0.8959  1.4912
 7366SOL    HW233558   2.908   3.246  12.558 -0.3625  0.2109  1.1608
 7367SOL     OW33559   0.761   4.438   3.440  0.4580  0.1096  0.7537
 7367SOL    HW133560   0.728   4.408   3.525 -0.2636 -1.3751 -0.0595
 7367SOL    HW233561   0.856   4.442   3.455  0.7498  0.8661 -1.3570
 7368SOL     OW33562   1.720   4.332   4.493 -0.0538 -0.1893  0.2023
 7368SOL    HW133563   1.801   4.379   4.474 -0.1611  0.2895  0.9171
 7368SOL    HW233564   1.706   4.279   4.415 -1.2962 -0.3001  0.5035
 7369SOL     OW33565   2.299   1.442   6.888  0.3505  0.1319  0.1826
 7369SOL    HW133566   2.394   1.430   6.890  0.2272 -0.9094  0.0088
 7369SOL    HW233567   2.292   1.537   6.889 -2.4313 -0.0801  2.2513
 7370SOL     OW33568   4.662   1.465   6.383 -0.0613 -0.4880 -0.4944
 7370SOL    HW133569   4.645   1.409   6.308 -3.5695  0.1650 -0.1900
 7370SOL    HW233570   0.017   1.417   6.415 -1.1977 -1.6592  0.4459
 7371SOL     OW33571   3.695   0.448   5.497  0.7290  0.0606 -0.4179
 7371SOL    HW133572   3.751   0.498   5.557  1.0373  0.6185 -1.1671
 7371SOL    HW233573   3.746   0.368   5.486  0.1792 -0.0878 -1.8402
 7372SOL     OW33574   0.208   2.337   9.092 -0.4020 -0.1219  0.0386
 7372SOL    HW133575   0.143   2.322   9.160 -0.0001 -1.0094  0.2207
 7372SOL    HW233576   0.177   2.417   9.048  2.7675  0.4049 -1.2817
 7373SOL     OW33577   3.455   3.661   1.699  0.0595 -0.3232 -0.0755
 7373SOL    HW133578   3.494   3.630   1.780  0.3285  1.8961  0.6391
 7373SOL    HW233579   3.374   3.610   1.696 -1.5580  2.2287  0.1780
 7374SOL     OW33580   3.320   1.094  15.057  0.2369 -0.1785  0.4031
 7374SOL    HW133581   3.352   1.020  15.109  1.2390  0.0544  0.1215
 7374SOL    HW233582   3.264   1.134  15.123 -0.2374  1.3348 -0.9133
 7375SOL     OW33583   4.075   3.479  16.482  0.0699  0.0966  0.0752
 7375SOL    HW133584   4.071   3.563  16.528  0.6540  0.7889 -1.1396
 7375SOL    HW233585   4.101   3.424  16.555 -2.3258 -2.0232 -0.6692
 7376SOL     OW33586   0.619   4.085   2.661 -0.5029 -0.2500  0.2009
 7376SOL    HW133587   0.523   4.080   2.666 -0.5446  0.6946  0.4168
 7376SOL    HW233588   0.650   4.040   2.739  0.3453 -0.8375 -0.4756
 7377SOL     OW33589   4.222   1.406   2.598 -0.0637 -0.2660  0.4987
 7377SOL    HW133590   4.204   1.339   2.532  0.7292 -0.4485  0.4669
 7377SOL    HW233591   4.317   1.413   2.594 -0.0344 -1.4723 -1.0883
 7378SOL     OW33592   3.737   0.061  13.629 -0.2899  0.7126  0.0341
 7378SOL    HW133593   3.673   4.713  13.644 -0.9563  1.5964  1.3036
 7378SOL    HW233594   3.678   0.134  13.609  0.1038  0.7194 -1.0707
 7379SOL     OW33595   2.482   0.527   9.150 -0.2253  0.4630 -0.4174
 7379SOL    HW133596   2.442   0.484   9.074  0.9675 -2.0572  0.3640
 7379SOL    HW233597   2.512   0.451   9.200 -0.6926  0.6996  0.2202
 7380SOL     OW33598   2.672   3.440   3.099  0.2208  0.2140  0.0377
 7380SOL    HW133599   2.730   3.515   3.095  0.6223 -0.0087  1.7407
 7380SOL    HW233600   2.605   3.482   3.153 -0.5723 -2.7852  1.3874
 7381SOL     OW33601   3.554   3.722   0.861 -0.3179  0.0297 -0.0896
 7381SOL    HW133602   3.637   3.762   0.836 -0.3606 -0.7104 -1.3910
 7381SOL    HW233603   3.499   3.782   0.811 -0.7157  0.6821  1.1115
 7382SOL     OW33604   4.204   2.481   1.187 -0.1710  0.6359 -0.5842
 7382SOL    HW133605   4.188   2.433   1.106  0.5382 -1.9352  0.7845
 7382SOL    HW233606   4.116   2.490   1.223 -0.4714 -4.3235 -0.1505
 7383SOL     OW33607   2.582   3.760   3.752  0.5698 -0.1280  0.1714
 7383SOL    HW133608   2.582   3.844   3.706 -0.7515  0.0355  0.4892
 7383SOL    HW233609   2.655   3.774   3.813  0.7196  1.1201 -0.3018
 7384SOL     OW33610   0.094   3.263  10.115  0.3511  0.1749 -0.2084
 7384SOL    HW133611   0.189   3.271  10.126  0.5931 -2.0132 -0.6305
 7384SOL    HW233612   0.084   3.260  10.019  0.2641 -2.6814 -0.1215
 7385SOL     OW33613   4.198   4.050  14.612  0.2972  0.7521  0.3519
 7385SOL    HW133614   4.237   4.009  14.535 -1.1039  0.1415 -0.0351
 7385SOL    HW233615   4.215   4.143  14.600 -1.4146  1.2471  1.7487
 7386SOL     OW33616   2.700   3.779  10.487 -1.1636 -0.1191 -0.0639
 7386SOL    HW133617   2.695   3.854  10.546 -0.6740  0.7311 -1.1137
 7386SOL    HW233618   2.680   3.818  10.402  0.6212 -1.5319 -1.1241
 7387SOL     OW33619   1.607   4.669   9.275  0.0306 -0.4249 -0.9897
 7387SOL    HW133620   1.669   4.596   9.276 -0.1986 -0.6179 -0.7151
 7387SOL    HW233621   1.534   4.627   9.230  0.5574 -1.5090 -0.8299
 7388SOL     OW33622   2.712   2.098  12.604  0.2706 -0.2067  0.3951
 7388SOL    HW133623   2.649   2.027  12.618 -0.7105  0.7166  0.7039
 7388SOL    HW233624   2.749   2.113  12.691  0.2874  1.9111  0.0197
 7389SOL     OW33625   1.118   1.567   8.861 -0.1749 -0.4800 -0.2479
 7389SOL    HW133626   1.162   1.517   8.929 -1.5191 -0.6558  0.5010
 7389SOL    HW233627   1.145   1.655   8.886 -2.5447  0.3853 -0.7142
 7390SOL     OW33628   3.091   0.944   8.314 -0.1574 -0.2712 -0.3472
 7390SOL    HW133629   3.020   0.936   8.378  1.2099  2.0481  1.4550
 7390SOL    HW233630   3.068   0.872   8.255  0.2216 -0.2624 -0.5047
 7391SOL     OW33631   1.275   0.089  16.104 -0.1544  0.8053  0.1968
 7391SOL    HW133632   1.180   0.079  16.104 -0.2978  2.1449 -0.1887
 7391SOL    HW233633   1.297   0.054  16.190 -0.4512  1.3097  0.4802
 7392SOL     OW33634   3.485   1.073  14.208  0.1822  0.2713 -0.1821
 7392SOL    HW133635   3.401   1.113  14.186 -0.8989 -1.0039  1.5850
 7392SOL    HW233636   3.473   1.049  14.300  2.3328  1.2473  0.3594
 7393SOL     OW33637   3.926   1.507   4.188  0.4508  0.1465 -0.0422
 7393SOL    HW133638   3.903   1.483   4.098  1.2900  0.4499 -0.3303
 7393SOL    HW233639   3.873   1.587   4.191 -1.2284 -1.0030  1.5328
 7394SOL     OW33640   3.452   2.960   4.893 -0.2938 -0.3033  0.4603
 7394SOL    HW133641   3.428   3.022   4.824 -1.0265 -1.2385 -0.1363
 7394SOL    HW233642   3.366   2.962   4.935 -0.4563 -0.4183  0.1396
 7395SOL     OW33643   3.217   3.859  17.602  0.3894 -0.1695 -0.1591
 7395SOL    HW133644   3.266   3.824  17.676  2.0045 -1.2816 -1.7574
 7395SOL    HW233645   3.282   3.882  17.536 -0.6249  1.3391 -0.6303
 7396SOL     OW33646   1.111   2.344  16.963  0.7847  0.1179 -0.3489
 7396SOL    HW133647   1.094   2.256  16.995 -1.6643  0.7422  0.0663
 7396SOL    HW233648   1.169   2.368  17.035 -0.5441 -1.8309  1.3615
 7397SOL     OW33649   4.139   3.721   3.162  0.0093  0.1839  0.2466
 7397SOL    HW133650   4.224   3.711   3.205 -0.3729 -0.3587  0.8641
 7397SOL    HW233651   4.175   3.790   3.106  0.0345 -1.8335 -2.2359
 7398SOL     OW33652   0.544   3.805   9.604 -0.1646  0.2072  0.2027
 7398SOL    HW133653   0.506   3.853   9.677  0.9868  1.1608  0.1834
 7398SOL    HW233654   0.462   3.775   9.566  0.3352  0.8628 -1.3881
 7399SOL     OW33655   2.950   1.167   2.545 -0.1515 -0.4180 -0.2958
 7399SOL    HW133656   3.040   1.195   2.561 -0.7560  0.5383  1.4966
 7399SOL    HW233657   2.964   1.073   2.534 -1.3509 -0.4682 -1.3306
 7400SOL     OW33658   3.618   3.455  15.394 -0.1222 -0.3774  0.5996
 7400SOL    HW133659   3.535   3.484  15.433  0.4247  2.2023 -0.1268
 7400SOL    HW233660   3.601   3.361  15.399 -1.9897 -0.1324 -1.3016
 7401SOL     OW33661   2.622   3.675   1.338 -0.5461  0.1537 -0.3216
 7401SOL    HW133662   2.639   3.749   1.280  2.7049 -0.3951 -0.0711
 7401SOL    HW233663   2.684   3.682   1.410 -1.9162  1.6234  0.7273
 7402SOL     OW33664   1.080   0.149  12.069  0.0993 -0.5745  0.5014
 7402SOL    HW133665   1.125   0.184  11.992  0.6911 -0.3034  0.9718
 7402SOL    HW233666   1.081   0.229  12.122  2.1593  0.3558 -0.9236
 7403SOL     OW33667   2.678   0.080   1.628 -0.5965  0.3205  0.5589
 7403SOL    HW133668   2.667   0.129   1.546 -0.5617 -2.9951 -1.4264
 7403SOL    HW233669   2.769   0.083   1.656 -1.1299  1.9935  2.0810
 7404SOL     OW33670   0.721   3.349   7.010 -0.2513 -0.1538  0.1356
 7404SOL    HW133671   0.687   3.363   6.921  1.2953  0.4534 -0.3526
 7404SOL    HW233672   0.655   3.285   7.036 -0.6928 -0.2722 -1.2660
 7405SOL     OW33673   0.669   4.688   9.588 -0.7511 -0.1221 -0.3502
 7405SOL    HW133674   0.651   4.697   9.682  0.4197  0.6098 -0.1974
 7405SOL    HW233675   0.653   0.054   9.551  2.6552  0.4348 -0.5165
 7406SOL     OW33676   1.574   1.488   6.120  0.1767  0.6104 -0.1902
 7406SOL    HW133677   1.540   1.508   6.207  0.6004  1.7524 -0.2904
 7406SOL    HW233678   1.614   1.403   6.138 -0.2614  0.5320  0.3996
 7407SOL     OW33679   2.044   2.665   2.674  0.1564  0.3258 -0.0409
 7407SOL    HW133680   1.981   2.609   2.627  0.1980 -1.3831  1.9296
 7407SOL    HW233681   2.119   2.644   2.619 -0.0254  1.8771 -0.8635
 7408SOL     OW33682   0.358   0.593   9.226 -0.0034 -0.5831 -0.2315
 7408SOL    HW133683   0.366   0.687   9.214  0.3005 -0.6888 -0.8172
 7408SOL    HW233684   0.418   0.566   9.157 -0.8823  0.6497 -1.4766
 7409SOL     OW33685   3.641   0.805   5.701  0.0165  0.4283 -0.1581
 7409SOL    HW133686   3.615   0.773   5.787 -0.2908 -1.4947 -0.9848
 7409SOL    HW233687   3.552   0.809   5.665 -0.7826  0.8261  1.8659
 7410SOL     OW33688   1.820   2.578  16.476  0.0486 -0.1339 -0.4986
 7410SOL    HW133689   1.783   2.657  16.516 -0.0826 -0.7976  0.6843
 7410SOL    HW233690   1.752   2.557  16.412  0.0832 -0.2684 -0.4905
 7411SOL     OW33691   0.988   4.222   3.070 -0.5905  0.0683  0.5639
 7411SOL    HW133692   0.940   4.156   3.021  1.9642 -1.1647 -0.2703
 7411SOL    HW233693   1.029   4.263   2.994 -1.6422  2.6071  1.3330
 7412SOL     OW33694   3.775   1.130   7.995  0.0605  0.2245  0.1965
 7412SOL    HW133695   3.770   1.056   7.935  0.4898 -0.8309  1.4654
 7412SOL    HW233696   3.834   1.190   7.950  1.5432 -1.0799  0.4302
 7413SOL     OW33697   3.717   2.847   3.871  0.1062 -0.3618  0.1003
 7413SOL    HW133698   3.652   2.855   3.801 -0.5644  0.4583  0.8225
 7413SOL    HW233699   3.721   2.751   3.876  1.8768 -0.2665  0.4075
 7414SOL     OW33700   0.439   3.361   2.577  0.3722 -0.3740 -0.0935
 7414SOL    HW133701   0.426   3.355   2.671  4.2256 -1.3389  0.3685
 7414SOL    HW233702   0.415   3.453   2.564  0.4097 -0.3301  0.1615
 7415SOL     OW33703   2.697   3.935  17.300 -0.4728  0.0576  0.5987
 7415SOL    HW133704   2.732   3.847  17.286  1.1503  0.4340  2.2765
 7415SOL    HW233705   2.645   3.899  17.372 -1.6350  1.5489  0.4912
 7416SOL     OW33706   2.388   4.553   1.192  0.5015 -0.3809  0.8710
 7416SOL    HW133707   2.477   4.517   1.191 -0.4595 -2.7462  2.2871
 7416SOL    HW233708   2.415   4.642   1.215  0.1355  0.0775 -0.4514
 7417SOL     OW33709   1.930   3.861   5.346 -0.0321 -0.0305 -1.0458
 7417SOL    HW133710   1.980   3.904   5.416 -0.9674  0.6346 -0.7739
 7417SOL    HW233711   1.968   3.774   5.341 -1.5967 -0.7937  0.1562
 7418SOL     OW33712   3.793   0.974   6.897  0.3274 -0.0855 -0.4323
 7418SOL    HW133713   3.730   0.925   6.951 -2.2527  0.4745 -2.9436
 7418SOL    HW233714   3.846   0.907   6.853  0.0022 -0.8525  0.3240
 7419SOL     OW33715   1.347   0.202  13.577  0.1971 -0.2365 -0.2034
 7419SOL    HW133716   1.329   0.209  13.670  0.1074 -0.2242 -0.2215
 7419SOL    HW233717   1.342   0.107  13.567 -1.6750 -0.0791 -0.9482
 7420SOL     OW33718   1.288   0.057   2.749  0.2450  0.0774  0.2225
 7420SOL    HW133719   1.207   0.041   2.798  0.8708  1.1984  1.6318
 7420SOL    HW233720   1.331   4.697   2.774 -1.5242 -1.4209 -1.6102
 7421SOL     OW33721   2.089   3.584   3.619  0.6215  0.4539 -0.2416
 7421SOL    HW133722   2.164   3.631   3.656  1.9282 -1.7439 -0.0453
 7421SOL    HW233723   2.123   3.571   3.531  0.8196  1.4869 -0.3178
 7422SOL     OW33724   2.102   0.232   2.211  0.7450 -0.2121  0.2778
 7422SOL    HW133725   2.125   0.175   2.138  3.1186 -0.5624  1.3074
 7422SOL    HW233726   2.173   0.295   2.203  1.0152 -0.7610 -1.8376
 7423SOL     OW33727   0.638   4.272   0.235 -0.0237  0.8654 -0.0240
 7423SOL    HW133728   0.699   4.203   0.261 -1.2366  0.3367  1.4669
 7423SOL    HW233729   0.580   4.221   0.178 -1.4945 -0.9634  3.0707
 7424SOL     OW33730   1.091   4.435   8.324  0.5907  0.8275  0.0007
 7424SOL    HW133731   1.084   4.440   8.419  0.2643  1.1277 -0.0371
 7424SOL    HW233732   1.003   4.456   8.294 -0.2231  1.0605  2.5986
 7425SOL     OW33733   2.827   2.124   0.444 -0.2586  0.4204  0.3382
 7425SOL    HW133734   2.877   2.094   0.520 -2.0239 -1.0418  0.9302
 7425SOL    HW233735   2.898   2.171   0.400 -0.3772  1.6223  1.4471
 7426SOL     OW33736   3.170   2.567   5.434  0.0030  0.1111  0.1147
 7426SOL    HW133737   3.096   2.514   5.405 -1.0110  1.7215 -0.2380
 7426SOL    HW233738   3.239   2.512   5.396  1.2691  0.9386  1.2707
 7427SOL     OW33739   2.016   1.602   5.636  0.2928  0.7993  0.0367
 7427SOL    HW133740   2.031   1.690   5.602  1.6134  0.0788 -1.2341
 7427SOL    HW233741   2.061   1.550   5.570  0.7202  0.7427  0.3690
 7428SOL     OW33742   4.559   2.931  14.462 -0.6116  0.5466  0.3162
 7428SOL    HW133743   4.632   2.941  14.524 -0.8723 -0.2628  0.7487
 7428SOL    HW233744   4.481   2.901  14.507 -2.7447  1.7549 -2.5558
 7429SOL     OW33745   1.910   0.517   4.639 -0.3820 -0.3901 -0.3148
 7429SOL    HW133746   1.852   0.594   4.635 -0.0535 -0.1179  0.1418
 7429SOL    HW233747   1.994   0.560   4.651 -0.9451  0.6999 -0.2494
 7430SOL     OW33748   0.451   2.084   4.806  0.2175  0.2439  0.1905
 7430SOL    HW133749   0.465   2.174   4.776  1.3685 -0.1418 -0.4304
 7430SOL    HW233750   0.358   2.093   4.788  0.6729  1.6876 -1.5116
 7431SOL     OW33751   2.709   1.587   2.019 -0.1766  0.0982 -0.1053
 7431SOL    HW133752   2.653   1.526   2.067 -0.8214  0.2507 -0.6509
 7431SOL    HW233753   2.655   1.598   1.940  0.2153  3.0962  0.0425
 7432SOL     OW33754   2.167   0.604   3.616 -0.4327  0.3032 -0.5540
 7432SOL    HW133755   2.198   0.598   3.526 -0.7038 -1.7148 -0.5181
 7432SOL    HW233756   2.080   0.566   3.609  0.3434 -1.4999 -0.5370
 7433SOL     OW33757   3.759   2.152  13.616  0.1431  0.0150  0.1300
 7433SOL    HW133758   3.694   2.085  13.636  1.1648 -1.1655 -0.4938
 7433SOL    HW233759   3.750   2.162  13.522 -1.5203 -1.6519  0.1205
 7434SOL     OW33760   2.029   2.447   1.967 -0.0109 -0.1045 -0.3924
 7434SOL    HW133761   2.094   2.491   2.022 -1.0387  1.7428 -0.6676
 7434SOL    HW233762   2.015   2.526   1.913 -1.2079  1.0454  1.6240
 7435SOL     OW33763   1.059   0.036   8.594  0.5026 -0.3069  0.2418
 7435SOL    HW133764   1.083   4.666   8.578  1.5865 -0.0064  0.1672
 7435SOL    HW233765   0.978   0.009   8.638  0.8102  0.2486  1.1505
 7436SOL     OW33766   0.837   4.706   7.444  0.0076  0.0937 -1.2279
 7436SOL    HW133767   0.755   4.668   7.473  0.5973  1.1993  1.9640
 7436SOL    HW233768   0.875   0.026   7.522 -5.0498 -0.7859  1.6822
 7437SOL     OW33769   2.496   0.223   3.742 -0.1446  0.1730  0.1697
 7437SOL    HW133770   2.590   0.233   3.757  0.0797 -3.4286  1.0039
 7437SOL    HW233771   2.489   0.209   3.648  0.6330  1.8496 -0.1510
 7438SOL     OW33772   1.184   0.151   7.630  0.4882  0.1364  0.2798
 7438SOL    HW133773   1.227   0.209   7.693 -0.6730 -0.8939  2.0164
 7438SOL    HW233774   1.255   0.106   7.586  0.5647  0.6671 -0.1397
 7439SOL     OW33775   4.688   3.503   3.504  0.2422  0.1052  0.1228
 7439SOL    HW133776   0.036   3.569   3.509 -0.5148  0.9474 -0.4157
 7439SOL    HW233777   0.022   3.425   3.497 -2.1453 -1.6862  1.2003
 7440SOL     OW33778   2.287   1.898  15.339  0.4316 -0.1331 -0.1429
 7440SOL    HW133779   2.322   1.987  15.349 -1.1070  0.4423  0.0602
 7440SOL    HW233780   2.247   1.898  15.252 -0.3094 -0.4425  0.1959
 7441SOL     OW33781   1.950   3.134   7.245  0.5551  0.2460  0.2229
 7441SOL    HW133782   2.033   3.134   7.198 -0.5372  0.8061 -1.6987
 7441SOL    HW233783   1.989   3.097   7.325  0.0074 -0.0217  0.3644
 7442SOL     OW33784   2.251   3.602   6.680  0.8117  0.1148 -0.4839
 7442SOL    HW133785   2.276   3.683   6.725  1.6521  0.4758 -1.6050
 7442SOL    HW233786   2.157   3.589   6.682  0.7238  1.0535  1.9446
 7443SOL     OW33787   2.827   0.526  17.416  0.7650  0.1367 -0.5369
 7443SOL    HW133788   2.847   0.613  17.383  0.4084 -0.0409 -1.2120
 7443SOL    HW233789   2.865   0.521  17.504  1.6635 -1.7285 -1.0225
 7444SOL     OW33790   3.353   3.744   1.976  0.2272  0.0444 -0.1211
 7444SOL    HW133791   3.440   3.712   1.952  0.5124 -0.5496  1.7198
 7444SOL    HW233792   3.355   3.696   2.059  1.3943  1.5508  0.7360
 7445SOL     OW33793   3.296   0.408  16.842  0.9923  0.1763  0.0782
 7445SOL    HW133794   3.288   0.424  16.748  1.2120  0.1269  0.0510
 7445SOL    HW233795   3.309   0.313  16.838  0.0064  0.0055  1.1881
 7446SOL     OW33796   0.202   2.311  14.609  0.2736  0.1507 -0.3869
 7446SOL    HW133797   0.157   2.322  14.692  2.1405  0.8382  0.5437
 7446SOL    HW233798   0.294   2.309  14.636  0.6211 -2.9468 -1.8872
 7447SOL     OW33799   3.692   4.577   1.063  0.1641 -0.3730  0.1924
 7447SOL    HW133800   3.721   4.550   0.976 -2.5763  0.7668 -1.0613
 7447SOL    HW233801   3.711   4.497   1.112 -0.2252 -0.7097 -0.2218
 7448SOL     OW33802   4.447   1.032   5.852 -0.2488 -0.1135 -0.0818
 7448SOL    HW133803   4.483   1.119   5.866 -2.0942  0.4927  0.7454
 7448SOL    HW233804   4.402   1.054   5.771 -2.0031 -0.2599  0.8711
 7449SOL     OW33805   1.632   2.097  11.196 -0.3600  0.3611 -0.1160
 7449SOL    HW133806   1.660   2.056  11.114  1.6721 -2.5898  2.0820
 7449SOL    HW233807   1.553   2.046  11.214  0.1766 -0.9297 -1.3688
 7450SOL     OW33808   3.018   4.616   2.084  0.3396 -0.0092  0.3723
 7450SOL    HW133809   3.108   4.614   2.050  0.4182  0.6131  0.5604
 7450SOL    HW233810   3.027   4.565   2.164 -2.6422 -0.6724  0.2982
 7451SOL     OW33811   1.851   3.707  12.251  0.1054  0.2314  0.5322
 7451SOL    HW133812   1.923   3.666  12.204  0.7109 -0.0100  1.6745
 7451SOL    HW233813   1.854   3.690  12.345  0.9119  1.9328  0.8131
 7452SOL     OW33814   1.223   4.286  10.286  0.0528  0.4086 -0.1834
 7452SOL    HW133815   1.163   4.339  10.338 -0.7855  0.2380 -0.9839
 7452SOL    HW233816   1.205   4.325  10.201  1.2042 -0.2023 -0.7035
 7453SOL     OW33817   4.714   1.905   4.068 -0.4035 -0.2664 -0.9004
 7453SOL    HW133818   4.643   1.913   4.004 -2.9389  0.9825  2.0516
 7453SOL    HW233819   0.006   1.999   4.076  0.8299 -0.4547 -0.7064
 7454SOL     OW33820   0.385   4.354   1.790 -0.7867 -0.2362 -0.9682
 7454SOL    HW133821   0.392   4.268   1.750  0.9005 -0.1317 -0.8944
 7454SOL    HW233822   0.291   4.369   1.776 -1.1135 -0.4901  0.9470
 7455SOL     OW33823   2.115   3.765   7.112  0.2279 -0.4717 -0.0781
 7455SOL    HW133824   2.168   3.845   7.117 -1.4731  0.4809  2.3829
 7455SOL    HW233825   2.025   3.792   7.128  1.5031  3.2142  0.9099
 7456SOL     OW33826   0.047   0.791   4.784  0.2398 -0.0852  0.2300
 7456SOL    HW133827   0.007   0.737   4.852  1.8697 -1.3718  0.1598
 7456SOL    HW233828   0.086   0.720   4.734 -1.2608 -0.4735 -0.3612
 7457SOL     OW33829   2.773   2.585   2.395 -0.1519 -0.8779 -0.0354
 7457SOL    HW133830   2.681   2.605   2.379 -0.7469 -2.8361  0.8174
 7457SOL    HW233831   2.797   2.563   2.305 -1.9189 -3.1802  0.0483
 7458SOL     OW33832   0.091   1.609   9.401 -0.2579 -0.7299 -0.0804
 7458SOL    HW133833   0.142   1.645   9.329 -0.6557  0.3832  0.1866
 7458SOL    HW233834   0.079   1.520   9.370  1.7191 -1.6727  1.8246
 7459SOL     OW33835   3.231   3.341   2.740 -0.0738 -0.4064 -0.0966
 7459SOL    HW133836   3.149   3.339   2.790  0.6205  2.0779  1.1053
 7459SOL    HW233837   3.244   3.435   2.733 -0.6382 -0.3463 -0.3164
 7460SOL     OW33838   3.853   1.598   3.830  0.2697 -0.6504  0.1869
 7460SOL    HW133839   3.783   1.663   3.835  0.0619 -1.0862  2.9340
 7460SOL    HW233840   3.888   1.611   3.742 -1.5836  1.9337 -0.1480
 7461SOL     OW33841   0.890   0.945   1.374  0.0301 -0.0755 -0.1032
 7461SOL    HW133842   0.913   0.900   1.456 -0.5701 -4.3823 -2.3153
 7461SOL    HW233843   0.838   0.877   1.333  0.7748  0.2279 -1.5602
 7462SOL     OW33844   3.949   1.718   0.454 -0.0919  0.2091  0.4423
 7462SOL    HW133845   3.906   1.712   0.539  0.1960  2.0991  0.7198
 7462SOL    HW233846   3.877   1.710   0.392  1.0528  1.0877 -1.0150
 7463SOL     OW33847   3.897   0.479   8.841 -0.6009 -0.0880 -0.1517
 7463SOL    HW133848   3.920   0.542   8.909 -0.3397 -1.9672  1.5020
 7463SOL    HW233849   3.950   0.515   8.771 -0.9298  1.5976  0.4667
 7464SOL     OW33850   0.606   3.542   3.010 -0.3221 -0.2848  0.5463
 7464SOL    HW133851   0.670   3.587   2.954  1.9669  0.5338  3.8075
 7464SOL    HW233852   0.628   3.456   2.974 -0.0286  0.5122 -1.1741
 7465SOL     OW33853   0.256   2.622   9.003 -0.1364 -0.0268 -0.3116
 7465SOL    HW133854   0.191   2.688   8.976  2.1226  2.1314 -0.4757
 7465SOL    HW233855   0.318   2.674   9.054 -1.4137 -0.1608  1.3768
 7466SOL     OW33856   0.829   0.376  13.995  0.2929 -0.1023 -0.1369
 7466SOL    HW133857   0.890   0.425  13.940  0.2076 -0.6862 -0.7608
 7466SOL    HW233858   0.750   0.428  13.981 -0.2565 -0.9034 -0.0418
 7467SOL     OW33859   4.451   2.840   0.144 -0.2584 -0.1659  0.0212
 7467SOL    HW133860   4.497   2.803   0.219 -1.2491 -2.4786 -0.5236
 7467SOL    HW233861   4.373   2.883   0.179  1.3942  1.5670  1.6278
 7468SOL     OW33862   2.163   3.793  17.229 -0.2026 -0.3824  0.4903
 7468SOL    HW133863   2.158   3.882  17.194 -1.0279 -1.4217 -1.9854
 7468SOL    HW233864   2.072   3.765  17.221 -0.1373 -0.4787  0.0762
 7469SOL     OW33865   0.139   3.021   3.985  0.4551 -0.2827 -0.4336
 7469SOL    HW133866   0.107   3.056   4.068 -1.8369  0.2928 -1.5743
 7469SOL    HW233867   0.111   3.096   3.933  2.9960  0.4024 -0.8274
 7470SOL     OW33868   3.705   0.006  15.668  0.4697  0.2621 -1.0094
 7470SOL    HW133869   3.758   4.648  15.660 -0.7341 -0.7312  0.8330
 7470SOL    HW233870   3.686   0.018  15.575  0.6652  0.9270 -0.9652
 7471SOL     OW33871   1.432   0.883   5.875 -0.1470  0.3430  0.3873
 7471SOL    HW133872   1.398   0.794   5.866  1.3539 -0.2966  1.1435
 7471SOL    HW233873   1.378   0.933   5.815 -2.1175 -2.7773 -0.4549
 7472SOL     OW33874   1.409   4.422   1.616  0.5487 -0.1185 -0.2173
 7472SOL    HW133875   1.379   4.338   1.581  1.6556 -1.7903  2.8897
 7472SOL    HW233876   1.422   4.483   1.544 -0.5459  0.7495  0.3183
 7473SOL     OW33877   4.409   4.289   1.695  0.3215  0.2939  0.7357
 7473SOL    HW133878   4.330   4.311   1.745 -1.2851  0.3333 -1.8486
 7473SOL    HW233879   4.391   4.350   1.624  0.3587 -0.6353 -0.0842
 7474SOL     OW33880   1.041   3.266  17.025 -0.5486  0.3669 -0.3452
 7474SOL    HW133881   1.110   3.332  17.031  0.2797 -0.4455 -0.9763
 7474SOL    HW233882   1.045   3.230  16.936  1.4036  0.5968 -0.3442
 7475SOL     OW33883   3.448   3.147   9.621  0.3108 -0.0757  0.7144
 7475SOL    HW133884   3.485   3.168   9.535  0.5382 -1.0519  0.5677
 7475SOL    HW233885   3.372   3.100   9.585  1.0126 -1.2702  0.7820
 7476SOL     OW33886   1.023   1.948  17.662 -0.6414  0.5487 -0.3501
 7476SOL    HW133887   1.014   2.030  17.614 -1.1706  0.5765 -0.1996
 7476SOL    HW233888   1.061   1.889  17.597  1.6592 -1.1746  2.6028
 7477SOL     OW33889   3.252   1.082   0.300  0.1742  0.2009 -0.3279
 7477SOL    HW133890   3.338   1.059   0.334 -0.2412 -0.5083  0.2386
 7477SOL    HW233891   3.247   1.176   0.317  2.6145 -0.0869  1.9077
 7478SOL     OW33892   1.402   2.358   9.991  0.4746 -0.1590 -0.0847
 7478SOL    HW133893   1.381   2.274   9.950  0.7157 -0.7404  0.9772
 7478SOL    HW233894   1.461   2.400   9.928  0.4487  0.9672  0.6415
 7479SOL     OW33895   2.273   4.352   2.480 -0.4934  0.0720  0.0642
 7479SOL    HW133896   2.329   4.427   2.495  0.9950 -1.0823  0.2223
 7479SOL    HW233897   2.327   4.283   2.518  2.9445  2.0871 -1.2007
 7480SOL     OW33898   4.654   2.808   4.544  0.5803  0.4145 -0.1617
 7480SOL    HW133899   4.657   2.885   4.600 -0.6361 -0.0980  0.6051
 7480SOL    HW233900   4.718   2.824   4.474 -0.7551 -1.5315 -1.8523
 7481SOL     OW33901   3.405   1.446  12.655  0.3497 -0.5443 -0.3743
 7481SOL    HW133902   3.475   1.491  12.609  0.6746 -0.6397  0.0330
 7481SOL    HW233903   3.422   1.478  12.743 -0.1319 -2.5890  0.4656
 7482SOL     OW33904   0.714   1.081   8.910 -0.5294  0.2674  0.2956
 7482SOL    HW133905   0.684   1.084   8.820  0.8142 -4.0244 -0.2971
 7482SOL    HW233906   0.693   1.167   8.949 -1.9592  0.6660 -1.3700
 7483SOL     OW33907   0.352   0.512   4.976 -0.1556  0.5349 -0.3292
 7483SOL    HW133908   0.296   0.572   5.025 -0.8831  0.2149 -0.7693
 7483SOL    HW233909   0.442   0.536   5.000  0.1883 -0.8967 -0.1601
 7484SOL     OW33910   0.329   3.133  15.095  0.6832 -0.3120  0.8378
 7484SOL    HW133911   0.377   3.112  15.175  2.0017  0.7156  0.3242
 7484SOL    HW233912   0.304   3.225  15.107  0.4166 -0.1452 -1.0027
 7485SOL     OW33913   0.998   1.281   3.133  0.3493  0.2954 -0.0628
 7485SOL    HW133914   0.968   1.358   3.182  0.6504 -0.6311  1.5762
 7485SOL    HW233915   1.091   1.294   3.149  0.3667  1.7850 -1.3924
 7486SOL     OW33916   4.300   1.405   8.798 -0.0571 -0.4467  0.4118
 7486SOL    HW133917   4.299   1.342   8.726 -1.9947  0.6824 -0.5288
 7486SOL    HW233918   4.385   1.386   8.839  0.1126 -2.1348 -0.7418
 7487SOL     OW33919   4.415   4.156  12.522 -0.1750 -0.0003  0.4423
 7487SOL    HW133920   4.346   4.220  12.537 -1.0920 -0.7464 -0.5937
 7487SOL    HW233921   4.493   4.208  12.543  0.3184 -0.4942 -0.1837
 7488SOL     OW33922   2.045   0.586   3.149 -0.2281  0.6523  0.2844
 7488SOL    HW133923   2.002   0.670   3.136  1.4880  2.0125  3.5969
 7488SOL    HW233924   2.101   0.581   3.071  1.3940 -0.6276  1.5415
 7489SOL     OW33925   0.481   3.474   1.375  0.2948  0.3590  0.0034
 7489SOL    HW133926   0.406   3.474   1.434 -0.3672 -0.1281 -0.8215
 7489SOL    HW233927   0.531   3.396   1.398  2.3786  0.9294 -2.5868
 7490SOL     OW33928   0.300   4.264  15.139 -0.1131 -0.2710 -0.0929
 7490SOL    HW133929   0.276   4.266  15.232  0.5324  1.2964  0.0396
 7490SOL    HW233930   0.299   4.169  15.125 -0.6143 -0.1797 -0.6338
 7491SOL     OW33931   3.009   3.597   4.544  0.4444  0.4293  0.3051
 7491SOL    HW133932   3.088   3.588   4.492  0.7617 -0.6080  0.9831
 7491SOL    HW233933   3.038   3.568   4.630  2.1528 -1.2401 -0.8325
 7492SOL     OW33934   1.333   1.441   5.761  0.4328  0.4568  0.5678
 7492SOL    HW133935   1.380   1.516   5.797  0.3108  0.8924 -0.2038
 7492SOL    HW233936   1.287   1.476   5.686  0.6242 -0.1100  0.1823
 7493SOL     OW33937   3.735   0.078   0.429 -0.2897  0.0510  0.0740
 7493SOL    HW133938   3.764   4.714   0.396 -1.5536 -0.2776 -0.1769
 7493SOL    HW233939   3.822   0.117   0.420 -0.8524  1.2200 -0.2578
 7494SOL     OW33940   3.811   2.755   4.363 -0.2530  0.6344 -0.1650
 7494SOL    HW133941   3.806   2.724   4.454 -0.3755  1.0807 -0.0192
 7494SOL    HW233942   3.720   2.747   4.334 -1.3480  0.8721  3.1272
 7495SOL     OW33943   2.408   1.163   0.477 -0.1883  0.0864  0.0915
 7495SOL    HW133944   2.381   1.074   0.454  0.7304 -0.2946  0.5041
 7495SOL    HW233945   2.444   1.198   0.396  1.2682  0.7571  1.0463
 7496SOL     OW33946   1.109   4.426   4.388  0.3144  0.4511 -0.0232
 7496SOL    HW133947   1.117   4.331   4.389  1.8856  0.5841 -0.7884
 7496SOL    HW233948   1.013   4.429   4.385  0.2570  0.2767  2.1514
 7497SOL     OW33949   4.006   4.595   2.302  0.2143  0.0527  0.6445
 7497SOL    HW133950   4.047   4.681   2.293 -1.7303  1.1427  2.2028
 7497SOL    HW233951   3.915   4.619   2.319 -0.2521 -0.0128 -1.7353
 7498SOL     OW33952   0.873   3.652   2.037 -0.2059  0.1037 -0.4927
 7498SOL    HW133953   0.936   3.702   2.088  1.0242  0.1479 -2.0373
 7498SOL    HW233954   0.931   3.633   1.963 -2.2801 -1.3303 -1.7413
 7499SOL     OW33955   4.232   4.573  13.930 -0.2730 -0.2016 -0.2456
 7499SOL    HW133956   4.187   4.544  13.851 -1.4542  0.3062  0.2408
 7499SOL    HW233957   4.223   4.668  13.916  0.6724 -0.1542 -0.5401
 7500SOL     OW33958   0.932   0.572   4.787  0.1283 -0.4643 -0.2345
 7500SOL    HW133959   0.981   0.590   4.867 -1.8713 -0.4782  0.9961
 7500SOL    HW233960   0.971   0.489   4.759  0.0287 -0.5299 -0.1801
 7501SOL     OW33961   0.613   1.170  13.516  0.3106  0.3236  0.4785
 7501SOL    HW133962   0.693   1.121  13.538  0.4666  1.0133  1.4520
 7501SOL    HW233963   0.626   1.254  13.560 -0.5710  0.8866 -0.3446
 7502SOL     OW33964   2.988   1.925   7.335 -0.5381 -0.3698  0.4588
 7502SOL    HW133965   2.904   1.968   7.320  0.0069  0.4047 -0.4304
 7502SOL    HW233966   3.024   1.970   7.411 -1.1588  1.5034 -0.3520
 7503SOL     OW33967   2.059   3.665   2.882 -0.0884 -0.2671  0.2870
 7503SOL    HW133968   2.024   3.608   2.813 -2.0735 -0.1124  1.1800
 7503SOL    HW233969   2.058   3.753   2.844  2.2618  0.9053  3.0027
 7504SOL     OW33970   2.470   0.557  13.938  0.0514 -0.1868  0.2398
 7504SOL    HW133971   2.503   0.491  13.878 -0.9077 -0.1894 -0.2935
 7504SOL    HW233972   2.387   0.511  13.951  0.2704 -1.2114 -2.0436
 7505SOL     OW33973   2.866   2.670  13.478  0.4619 -0.1517  0.4205
 7505SOL    HW133974   2.784   2.714  13.501  0.1497 -0.3824 -0.2443
 7505SOL    HW233975   2.842   2.648  13.388  1.6914  2.0023 -0.4357
 7506SOL     OW33976   0.814   3.594  11.138 -0.0309  0.5180 -0.1033
 7506SOL    HW133977   0.771   3.515  11.172 -0.6042  1.1140  0.5413
 7506SOL    HW233978   0.900   3.587  11.179  0.8147 -1.7742 -2.2285
 7507SOL     OW33979   2.397   3.697   5.157 -0.2095 -0.3284 -0.0843
 7507SOL    HW133980   2.453   3.768   5.127 -1.1484 -1.3473 -4.2920
 7507SOL    HW233981   2.334   3.735   5.218 -0.0287  0.6153 -0.4800
 7508SOL     OW33982   2.439   1.175  15.054 -0.7034  0.5669  0.2825
 7508SOL    HW133983   2.451   1.245  15.118  0.4237 -0.9451  1.6899
 7508SOL    HW233984   2.344   1.175  15.061 -0.7346  1.0361 -0.1048
 7509SOL     OW33985   4.104   0.507   5.384 -0.7794  0.4421  0.2803
 7509SOL    HW133986   4.199   0.498   5.395 -0.9316 -2.8264 -0.9716
 7509SOL    HW233987   4.071   0.508   5.474 -2.5541  1.0366 -0.3955
 7510SOL     OW33988   1.212   4.284   5.390 -0.4791 -0.1755 -0.4877
 7510SOL    HW133989   1.181   4.201   5.353 -1.1330 -0.8013  1.4774
 7510SOL    HW233990   1.295   4.247   5.421  1.0668  0.6040 -3.7382
 7511SOL     OW33991   2.474   1.810   2.092 -0.2175  0.2661 -0.1143
 7511SOL    HW133992   2.548   1.831   2.035 -2.9474  2.1468 -2.9583
 7511SOL    HW233993   2.401   1.827   2.032 -0.4754 -1.8460 -0.3946
 7512SOL     OW33994   3.159   2.206   5.215  0.2893 -0.3806 -0.4415
 7512SOL    HW133995   3.078   2.169   5.250  0.7448 -1.4778 -0.5472
 7512SOL    HW233996   3.133   2.244   5.132  1.2262 -1.3372 -1.1636
 7513SOL     OW33997   2.652   0.186  11.984 -0.3453 -0.0860  0.5307
 7513SOL    HW133998   2.618   0.157  12.068  0.5277  2.7798  1.8905
 7513SOL    HW233999   2.724   0.122  11.980  0.5087  1.1142 -3.7592
 7514SOL     OW34000   2.445   2.800   4.969  0.0555 -0.2265  0.0123
 7514SOL    HW134001   2.377   2.849   4.922  1.4223  0.9325 -0.7448
 7514SOL    HW234002   2.393   2.726   5.000 -0.1647 -0.1515 -0.1773
 7515SOL     OW34003   1.629   1.301  10.563 -0.2207 -0.7584 -0.0502
 7515SOL    HW134004   1.536   1.312  10.584  0.1185  1.0718  0.4780
 7515SOL    HW234005   1.630   1.212  10.527 -1.5159 -0.7509 -0.1326
 7516SOL     OW34006   2.344   3.571   4.152 -0.2690  0.1786 -0.2655
 7516SOL    HW134007   2.317   3.520   4.229 -2.7547 -0.4059 -1.5352
 7516SOL    HW234008   2.387   3.643   4.199  2.0890 -1.2835 -0.1544
 7517SOL     OW34009   0.642   2.334  14.281  0.6872  0.6686  0.1973
 7517SOL    HW134010   0.714   2.385  14.244  1.2979  1.1241  1.9987
 7517SOL    HW234011   0.686   2.309  14.363  0.1089  0.8486  0.5635
 7518SOL     OW34012   3.010   0.460   4.043  0.6627  0.0711 -0.2894
 7518SOL    HW134013   3.024   0.407   3.964  0.5329 -0.7100  0.2098
 7518SOL    HW234014   3.035   0.397   4.111 -1.1709  0.3885  0.6779
 7519SOL     OW34015   1.662   2.159   9.559 -0.2419 -0.2309  0.0882
 7519SOL    HW134016   1.712   2.229   9.600  0.1761 -0.7164  0.4134
 7519SOL    HW234017   1.573   2.175   9.592  0.0545 -0.5685  1.0635
 7520SOL     OW34018   2.357   2.472   8.299  0.2245 -0.2983 -0.0631
 7520SOL    HW134019   2.332   2.382   8.276 -0.7620 -0.6991  2.5889
 7520SOL    HW234020   2.384   2.459   8.390  0.0794 -1.6792 -0.2205
 7521SOL     OW34021   2.032   2.967   6.579 -0.8184  0.2495  0.1794
 7521SOL    HW134022   2.016   3.047   6.630 -1.5967  0.1010  0.1698
 7521SOL    HW234023   2.124   2.946   6.593 -0.8056 -0.7219 -1.3057
 7522SOL     OW34024   2.483   1.488   6.407 -0.5885  0.2594  0.4482
 7522SOL    HW134025   2.445   1.449   6.485 -2.2191  3.3662  1.2173
 7522SOL    HW234026   2.415   1.465   6.343 -0.4724 -0.0956  0.4547
 7523SOL     OW34027   3.714   2.987   4.974 -0.5656 -0.5736 -0.1991
 7523SOL    HW134028   3.732   2.915   5.035  2.5127  0.3580  0.0191
 7523SOL    HW234029   3.619   2.980   4.962 -0.5686 -2.1252  0.6212
 7524SOL     OW34030   4.436   1.638   8.556  0.5976 -0.5310 -0.1633
 7524SOL    HW134031   4.412   1.580   8.484 -2.8818 -1.0082  1.4211
 7524SOL    HW234032   4.354   1.640   8.605  0.3852 -2.1579 -0.4295
 7525SOL     OW34033   3.697   2.753  17.193 -0.0608 -0.3032  0.0358
 7525SOL    HW134034   3.731   2.666  17.173  1.3476 -0.0005  1.2134
 7525SOL    HW234035   3.633   2.735  17.262  0.6288 -3.7513 -0.1800
 7526SOL     OW34036   3.941   0.213   5.946  0.3437  0.0697 -0.4413
 7526SOL    HW134037   3.915   0.302   5.972  0.6238 -0.1247  0.4951
 7526SOL    HW234038   4.002   0.182   6.013  1.5767  0.8763 -1.1916
 7527SOL     OW34039   3.151   3.812   2.771  0.5427  0.1181 -0.1338
 7527SOL    HW134040   3.061   3.790   2.795  0.7104 -0.7707 -0.3216
 7527SOL    HW234041   3.130   3.867   2.695 -0.7208 -0.0867  0.0575
 7528SOL     OW34042   4.345   3.866   1.142  0.0533 -0.2025 -0.6412
 7528SOL    HW134043   4.274   3.903   1.194  0.9819 -1.3280  1.4409
 7528SOL    HW234044   4.423   3.913   1.170 -0.1784 -0.3320  0.2135
 7529SOL     OW34045   3.711   3.938   5.418 -0.2037  0.0595 -0.0921
 7529SOL    HW134046   3.797   3.969   5.444 -0.4846 -1.2329  2.3582
 7529SOL    HW234047   3.686   3.889   5.497  2.3618  2.2648  2.0838
 7530SOL     OW34048   1.420   3.933  16.032 -0.1182  0.3590 -0.4935
 7530SOL    HW134049   1.433   3.866  15.965 -0.8760 -1.8387  1.5598
 7530SOL    HW234050   1.327   3.917  16.048 -0.3167  0.9979 -1.0260
 7531SOL     OW34051   2.662   2.347   5.277 -0.2293  0.1861  0.1167
 7531SOL    HW134052   2.618   2.373   5.196 -0.8670  0.0564  0.4227
 7531SOL    HW234053   2.587   2.338   5.336  0.4595  0.0841  0.9871
 7532SOL     OW34054   3.288   1.914   6.341 -0.3629 -0.0438 -0.6129
 7532SOL    HW134055   3.261   1.928   6.432 -0.2812 -2.1349 -0.2701
 7532SOL    HW234056   3.203   1.940   6.306  0.5001 -0.1748 -2.7861
 7533SOL     OW34057   2.740   0.660   5.378  0.2718  0.2809 -0.3318
 7533SOL    HW134058   2.733   0.754   5.397 -4.7213 -0.4927  1.6280
 7533SOL    HW234059   2.807   0.662   5.309 -0.7942  0.4833 -1.3699
 7534SOL     OW34060   2.971   3.000   7.273  0.3245 -0.2991  0.2113
 7534SOL    HW134061   3.059   2.975   7.244 -0.2375  0.3129 -2.0596
 7534SOL    HW234062   2.916   2.924   7.256  0.4046  0.2494 -2.5227
 7535SOL     OW34063   1.213   1.812  16.211  0.1662  0.0547  0.2643
 7535SOL    HW134064   1.225   1.828  16.305  0.1282  0.7345  0.1540
 7535SOL    HW234065   1.301   1.837  16.184 -0.0022 -0.1373 -0.4626
 7536SOL     OW34066   4.609   3.726   8.601 -0.6467 -0.3479  0.2184
 7536SOL    HW134067   4.682   3.664   8.601  1.0477  1.6429 -1.7667
 7536SOL    HW234068   4.649   3.813   8.611 -0.2020 -0.7125  1.6516
 7537SOL     OW34069   2.261   3.258   7.428 -0.2322 -0.2069 -0.2588
 7537SOL    HW134070   2.313   3.187   7.391  0.1057 -0.3154  0.4161
 7537SOL    HW234071   2.208   3.293   7.357  1.5978 -0.0267 -1.5315
 7538SOL     OW34072   3.264   4.037   5.204  0.1385  0.2412 -0.1780
 7538SOL    HW134073   3.243   4.113   5.256 -0.3736  0.6751 -1.0177
 7538SOL    HW234074   3.358   4.042   5.184  0.2148  0.7015  0.3102
 7539SOL     OW34075   3.211   1.599  16.558  0.1121 -0.0162  0.5444
 7539SOL    HW134076   3.269   1.579  16.632 -0.2395 -2.2260  0.2193
 7539SOL    HW234077   3.196   1.507  16.539  1.7308 -0.3529  0.9026
 7540SOL     OW34078   2.962   4.196   0.975  0.5214  0.5290  0.2347
 7540SOL    HW134079   2.903   4.177   0.902  2.3875 -2.7073 -0.4489
 7540SOL    HW234080   2.987   4.106   0.996  1.1394  1.1726  2.2802
 7541SOL     OW34081   2.234   3.811   6.206  0.1833 -0.1214  0.1422
 7541SOL    HW134082   2.265   3.792   6.294 -1.2796  1.0284  0.9014
 7541SOL    HW234083   2.196   3.724   6.192 -0.9270  0.8144 -2.7511
 7542SOL     OW34084   2.875   0.063  14.381 -0.5038  0.5128 -0.5156
 7542SOL    HW134085   2.846   0.153  14.393  1.9338  1.2729 -0.3519
 7542SOL    HW234086   2.835   0.017  14.454  0.4763  1.7684  0.7968
 7543SOL     OW34087   3.134   0.439   8.650  0.2802 -0.3576  0.4686
 7543SOL    HW134088   3.092   0.510   8.698 -2.0392 -0.8608 -0.8039
 7543SOL    HW234089   3.064   0.417   8.588 -1.4442  0.6288  2.0688
 7544SOL     OW34090   0.882   1.513  15.631 -0.2040  0.0516  0.4121
 7544SOL    HW134091   0.885   1.593  15.684 -0.0565  0.7240 -0.6164
 7544SOL    HW234092   0.795   1.480  15.654 -0.6894  0.2810 -1.1306
 7545SOL     OW34093   1.036   1.920   6.897 -0.1488  0.6928  0.7756
 7545SOL    HW134094   1.115   1.904   6.845 -0.5576 -0.2418  0.4378
 7545SOL    HW234095   1.044   1.885   6.986 -0.5106 -0.6460  0.2906
 7546SOL     OW34096   2.984   2.847   8.127 -0.4999  0.2012 -0.1843
 7546SOL    HW134097   2.978   2.764   8.174  0.4404 -0.2883 -0.9282
 7546SOL    HW234098   3.071   2.877   8.154  0.9132 -2.2674 -2.0247
 7547SOL     OW34099   0.428   2.192   2.890  0.0104 -0.0815 -0.4443
 7547SOL    HW134100   0.368   2.151   2.827 -2.5251  1.3201  1.0507
 7547SOL    HW234101   0.366   2.206   2.961  1.6599 -2.0883  1.3660
 7548SOL     OW34102   4.337   2.376   6.405 -0.7779  0.3171  0.0587
 7548SOL    HW134103   4.260   2.337   6.448 -0.4933 -0.2068  0.1014
 7548SOL    HW234104   4.325   2.469   6.420 -2.6840  0.3317 -1.5337
 7549SOL     OW34105   4.515   3.358  14.343 -0.0404  0.2741  0.2444
 7549SOL    HW134106   4.601   3.399  14.336 -0.9650  2.1925  0.2356
 7549SOL    HW234107   4.454   3.398  14.281  2.5577  2.2600 -0.9839
 7550SOL     OW34108   2.878   2.776   3.803 -0.2144 -0.0045  0.6769
 7550SOL    HW134109   2.792   2.771   3.761  0.0254 -0.0668  0.1935
 7550SOL    HW234110   2.914   2.719   3.734  1.0879  1.4004  0.2045
 7551SOL     OW34111   0.033   1.305   8.529  0.6235  0.5140 -0.6226
 7551SOL    HW134112   0.040   1.300   8.624 -1.6724  1.3707 -0.4088
 7551SOL    HW234113   0.106   1.248   8.505  1.0890  2.1472 -3.1123
 7552SOL     OW34114   0.702   2.510  13.539 -0.0500  0.7684 -0.3774
 7552SOL    HW134115   0.772   2.482  13.480 -0.8465 -1.4205 -0.2559
 7552SOL    HW234116   0.720   2.455  13.615  0.3458 -2.4868 -2.8221
 7553SOL     OW34117   2.244   1.787   8.927  0.2700  0.0584  0.0445
 7553SOL    HW134118   2.279   1.698   8.918 -0.3138 -0.2579  0.9891
 7553SOL    HW234119   2.321   1.837   8.899  1.2024 -0.4293  1.7177
 7554SOL     OW34120   4.374   0.350   6.268 -0.7825  0.1008 -0.0530
 7554SOL    HW134121   4.304   0.286   6.272  1.9147 -2.8917 -0.4379
 7554SOL    HW234122   4.349   0.395   6.349  0.2899 -1.5008  1.1588
 7555SOL     OW34123   1.375   1.358  15.329  0.1400  0.2849 -0.5774
 7555SOL    HW134124   1.459   1.359  15.375 -0.0259 -2.5449 -0.2353
 7555SOL    HW234125   1.383   1.439  15.278 -0.9884  0.6923 -0.1166
 7556SOL     OW34126   0.876   4.488   6.644 -0.0185  0.1348 -0.1185
 7556SOL    HW134127   0.954   4.438   6.670 -0.1155 -0.0795 -0.2401
 7556SOL    HW234128   0.841   4.521   6.727  1.3298 -0.8570  0.8578
 7557SOL     OW34129   0.643   2.859  14.653  0.5487  0.1219  0.0313
 7557SOL    HW134130   0.710   2.806  14.611  0.2542 -1.6724  1.8103
 7557SOL    HW234131   0.687   2.867  14.738 -0.5152  0.5343  0.5432
 7558SOL     OW34132   1.831   1.390   5.944  0.0137  0.4598 -0.8858
 7558SOL    HW134133   1.826   1.368   6.037 -1.3506 -1.6685 -1.4591
 7558SOL    HW234134   1.918   1.428   5.939  0.1001  0.3885  0.1652
 7559SOL     OW34135   4.243   2.371   5.569  0.1002 -0.3134  0.5909
 7559SOL    HW134136   4.198   2.290   5.547  2.8982 -1.0861 -2.2928
 7559SOL    HW234137   4.226   2.427   5.494  4.1655  1.1241  0.7033
 7560SOL     OW34138   4.311   2.195   2.918  0.2713  0.2801  0.0603
 7560SOL    HW134139   4.220   2.218   2.938  0.7688  1.9546  0.4171
 7560SOL    HW234140   4.363   2.242   2.983  0.9100 -1.3639  0.7405
 7561SOL     OW34141   3.707   2.976   3.342  0.5470 -0.2899 -0.1005
 7561SOL    HW134142   3.664   2.920   3.407  3.1695 -0.9923  1.0232
 7561SOL    HW234143   3.784   2.920   3.330  1.4937  0.0785  4.2898
 7562SOL     OW34144   2.367   4.583   4.485 -0.1865  0.1389  0.4888
 7562SOL    HW134145   2.337   4.662   4.442 -0.5355  0.5110  1.4167
 7562SOL    HW234146   2.359   4.602   4.578 -1.8463 -1.4969  0.6982
 7563SOL     OW34147   3.051   0.370   4.648  0.1002  0.3999  0.4273
 7563SOL    HW134148   2.978   0.397   4.703 -0.2035  1.4765 -0.4940
 7563SOL    HW234149   3.045   0.427   4.571  2.0277 -1.0628 -0.8133
 7564SOL     OW34150   4.660   2.703  16.193 -0.5465 -0.3882 -0.3085
 7564SOL    HW134151   4.685   2.791  16.222 -0.4105  0.0947 -1.9363
 7564SOL    HW234152   4.579   2.717  16.145  1.4906  0.7410 -3.4515
 7565SOL     OW34153   4.446   3.767   7.642 -0.5264  0.2801 -0.2173
 7565SOL    HW134154   4.486   3.699   7.698 -0.9160  0.4803  0.3045
 7565SOL    HW234155   4.446   3.843   7.700 -0.6119 -1.3857  1.9778
 7566SOL     OW34156   4.621   4.721  16.609 -0.2244  0.2811 -0.7069
 7566SOL    HW134157   4.603   4.631  16.634  0.5299 -0.5530 -3.1944
 7566SOL    HW234158   4.604   0.048  16.690  1.5650 -1.1092  0.4984
 7567SOL     OW34159   0.332   2.484   8.766  0.0422 -0.4925 -0.2877
 7567SOL    HW134160   0.256   2.437   8.731 -2.0165  0.8906  2.3731
 7567SOL    HW234161   0.302   2.510   8.853  1.4734 -0.4020  0.1926
 7568SOL     OW34162   1.175   3.485  16.252 -0.5242  0.0262  0.0183
 7568SOL    HW134163   1.178   3.455  16.343  1.2909 -0.2995 -0.1609
 7568SOL    HW234164   1.270   3.486  16.239 -0.5589  0.7964 -0.1646
 7569SOL     OW34165   3.652   1.802   3.869  0.2671  0.4842 -0.2587
 7569SOL    HW134166   3.657   1.864   3.796 -0.7014  0.6152 -0.2049
 7569SOL    HW234167   3.560   1.804   3.894 -0.2091 -2.7088 -1.8283
 7570SOL     OW34168   4.420   1.524  17.004 -0.1556  0.2906 -0.7106
 7570SOL    HW134169   4.472   1.445  16.988  1.8377  1.6209 -0.6431
 7570SOL    HW234170   4.486   1.589  17.025 -1.2729  0.3595  2.5423
 7571SOL     OW34171   3.141   1.642   4.856 -0.1750  0.0753  0.5203
 7571SOL    HW134172   3.079   1.596   4.912 -1.0984 -0.0649 -0.6036
 7571SOL    HW234173   3.085   1.647   4.778  2.0429 -0.3073 -1.0939
 7572SOL     OW34174   1.454   0.372   9.477 -0.3296  0.3047 -0.7427
 7572SOL    HW134175   1.411   0.307   9.421  0.7957 -0.8446 -0.2940
 7572SOL    HW234176   1.403   0.450   9.457  1.2081  1.5380  0.1932
 7573SOL     OW34177   4.295   2.761   7.970  0.0378  0.3368 -0.0651
 7573SOL    HW134178   4.251   2.687   7.926  2.3772  0.3922 -2.5332
 7573SOL    HW234179   4.269   2.752   8.061  1.2602  0.2368  0.2687
 7574SOL     OW34180   0.262   0.450  16.462  0.0919 -0.1358  0.0112
 7574SOL    HW134181   0.220   0.487  16.384  0.9198  1.0157  0.1198
 7574SOL    HW234182   0.198   0.382  16.482 -0.1917  0.1519  0.0732
 7575SOL     OW34183   0.920   1.487  16.662 -0.5099 -0.7329  0.0697
 7575SOL    HW134184   1.009   1.518  16.646 -0.0926 -0.6842  2.4887
 7575SOL    HW234185   0.887   1.547  16.730 -0.7890  3.2322 -3.5570
 7576SOL     OW34186   2.310   4.064   1.995  0.1533  0.0675 -0.2548
 7576SOL    HW134187   2.280   3.997   1.934  0.1399  0.5450 -0.7789
 7576SOL    HW234188   2.233   4.119   1.982  1.0726  1.6066  0.7516
 7577SOL     OW34189   2.069   3.007   5.256  0.3342 -0.2159 -0.0260
 7577SOL    HW134190   1.987   2.988   5.212  0.1382 -0.9697  0.6658
 7577SOL    HW234191   2.104   2.918   5.268 -0.8879 -0.4286  2.0080
 7578SOL     OW34192   3.788   4.198   5.748 -0.0851  0.2380  0.2032
 7578SOL    HW134193   3.725   4.198   5.676  1.2326 -0.6973 -0.9701
 7578SOL    HW234194   3.765   4.117   5.794 -3.2866  0.5655 -0.8668
 7579SOL     OW34195   1.007   3.938   3.993 -0.5614 -0.6039 -0.0079
 7579SOL    HW134196   0.984   3.915   4.083 -3.7996  0.0555 -0.6900
 7579SOL    HW234197   1.054   3.858   3.971 -0.1118 -0.4104  0.2441
 7580SOL     OW34198   3.186   2.219   6.370 -0.4365 -0.4198 -0.3495
 7580SOL    HW134199   3.183   2.138   6.421 -2.7291 -1.3468 -1.9627
 7580SOL    HW234200   3.228   2.185   6.291  0.3536  0.1319 -0.1721
 7581SOL     OW34201   1.285   2.240   1.092  0.0361 -0.2426  0.4587
 7581SOL    HW134202   1.291   2.198   1.006 -3.5927 -1.1239  0.6251
 7581SOL    HW234203   1.297   2.167   1.152  2.2580  0.4745  0.8883
 7582SOL     OW34204   1.453   1.130  10.707 -0.5066  0.4333  0.0177
 7582SOL    HW134205   1.514   1.104  10.638 -1.5118 -2.9246  0.3938
 7582SOL    HW234206   1.444   1.045  10.750  2.6218  0.1574  0.1761
 7583SOL     OW34207   2.984   3.696   3.774 -1.0671  0.7725  0.2935
 7583SOL    HW134208   3.039   3.706   3.696 -0.4165  1.1566  0.8034
 7583SOL    HW234209   2.924   3.628   3.743  0.3575 -0.3830  0.1191
 7584SOL     OW34210   0.925   0.452   7.909 -0.0644  0.0168  0.3259
 7584SOL    HW134211   0.918   0.510   7.985  2.1153  0.1091  0.4753
 7584SOL    HW234212   0.834   0.423   7.901  0.4405 -1.5020  0.0005
 7585SOL     OW34213   0.401   0.282   3.190 -0.6542 -0.0744  0.7026
 7585SOL    HW134214   0.469   0.217   3.205  1.1965  1.2920 -1.6781
 7585SOL    HW234215   0.330   0.225   3.219 -0.4969 -1.0180 -0.8089
 7586SOL     OW34216   0.743   0.613   1.680 -0.3536  0.2702 -0.7855
 7586SOL    HW134217   0.781   0.560   1.749 -1.4425  0.5636  0.0394
 7586SOL    HW234218   0.662   0.635   1.726 -0.4252 -0.4700 -0.5685
 7587SOL     OW34219   2.109   1.594   5.059  0.1900 -0.6406  1.2978
 7587SOL    HW134220   2.099   1.685   5.030  2.7309 -0.5401  0.7360
 7587SOL    HW234221   2.151   1.605   5.145 -0.5525 -2.6929  1.9172
 7588SOL     OW34222   3.602   2.556   3.679 -0.2014 -0.1744 -0.0398
 7588SOL    HW134223   3.588   2.575   3.772  1.4230 -0.5024  0.2691
 7588SOL    HW234224   3.567   2.467   3.676  2.0279 -1.0593  0.1224
 7589SOL     OW34225   1.734   2.559   3.888  0.0320 -0.4935 -0.1583
 7589SOL    HW134226   1.670   2.627   3.907 -2.4307 -2.8599 -0.0086
 7589SOL    HW234227   1.729   2.548   3.793  0.3917  2.6093 -0.5444
 7590SOL     OW34228   4.086   2.988  15.783 -0.0609 -0.5202  0.6240
 7590SOL    HW134229   4.028   3.010  15.709  1.1673  0.6457 -0.0010
 7590SOL    HW234230   4.045   3.046  15.847 -0.0404 -2.3647  2.2936
 7591SOL     OW34231   2.135   0.819   8.512 -0.6300 -0.0669 -0.0807
 7591SOL    HW134232   2.055   0.840   8.464  1.7749  2.4536 -2.9579
 7591SOL    HW234233   2.186   0.891   8.474  1.7603 -1.7061  0.0079
 7592SOL     OW34234   4.016   3.594   3.648  0.2331 -0.3564 -0.5018
 7592SOL    HW134235   4.076   3.643   3.593  1.1897  1.0406  1.7711
 7592SOL    HW234236   4.016   3.656   3.721 -1.7527 -0.8546 -0.0713
 7593SOL     OW34237   4.442   3.322  16.664 -0.6871 -0.5227 -0.2996
 7593SOL    HW134238   4.358   3.283  16.689 -0.9380 -0.5017 -1.1132
 7593SOL    HW234239   4.430   3.401  16.716 -0.8704 -1.0789  0.5097
 7594SOL     OW34240   3.225   1.193   6.441 -0.0001  0.0296  0.1589
 7594SOL    HW134241   3.245   1.198   6.348 -0.1199  2.9963  0.2796
 7594SOL    HW234242   3.308   1.180   6.487  1.1338  1.8255 -1.3508
 7595SOL     OW34243   4.078   0.555   3.641  0.3768 -0.2067 -0.7637
 7595SOL    HW134244   4.078   0.486   3.707 -1.6151 -0.5481 -1.1080
 7595SOL    HW234245   4.080   0.511   3.556  1.6195 -0.8896 -0.3835
 7596SOL     OW34246   3.074   1.482   7.455 -0.3841  0.1035  0.5435
 7596SOL    HW134247   3.062   1.397   7.412  0.6220  1.1030 -1.7209
 7596SOL    HW234248   3.124   1.451   7.530 -1.1017 -2.0976  0.1080
 7597SOL     OW34249   1.964   0.682   9.454 -0.0938  0.1543  0.2593
 7597SOL    HW134250   1.979   0.776   9.464  0.7477 -0.0704  1.0346
 7597SOL    HW234251   2.026   0.657   9.522  0.5159  0.8158 -0.0501
 7598SOL     OW34252   0.424   4.288  15.553 -0.3632  0.3272  0.2680
 7598SOL    HW134253   0.368   4.365  15.560  0.1533  0.8936 -1.8128
 7598SOL    HW234254   0.362   4.219  15.576 -1.2584  0.8886 -0.4785
 7599SOL     OW34255   1.917   1.363  11.871  0.1858  0.0913 -1.0160
 7599SOL    HW134256   1.946   1.388  11.959 -1.7202  0.8586 -0.6095
 7599SOL    HW234257   1.831   1.406  11.866 -1.3321 -2.7824  0.3580
 7600SOL     OW34258   1.819   3.361   2.875 -0.3889  0.1663 -0.5662
 7600SOL    HW134259   1.855   3.411   2.801  0.3486 -0.7339 -0.8206
 7600SOL    HW234260   1.751   3.313   2.829  0.0126  0.6472 -1.6718
 7601SOL     OW34261   4.100   0.623   2.660  0.0019 -0.1185  0.3627
 7601SOL    HW134262   4.080   0.540   2.703 -1.5031 -0.1138 -0.3140
 7601SOL    HW234263   4.124   0.606   2.569  0.4456 -0.4262  0.5416
 7602SOL     OW34264   0.355   2.594   2.808 -0.0781  0.3247 -0.0505
 7602SOL    HW134265   0.323   2.547   2.731  1.0742  0.2181 -0.4671
 7602SOL    HW234266   0.323   2.682   2.789 -2.6029 -0.3274  1.2518
 7603SOL     OW34267   0.181   0.467   7.761  0.1251 -0.3548 -0.8667
 7603SOL    HW134268   0.201   0.457   7.668  1.4050 -0.2216 -0.6123
 7603SOL    HW234269   0.193   0.562   7.762 -1.2538 -0.1919 -0.3184
 7604SOL     OW34270   3.933   3.036   4.722  0.0756 -0.0774  0.1288
 7604SOL    HW134271   3.858   3.045   4.782  1.0235  0.6360  1.2039
 7604SOL    HW234272   3.993   2.988   4.779 -1.0587 -0.7246  0.7994
 7605SOL     OW34273   1.164   2.937   4.832  0.1489 -0.1675  0.0741
 7605SOL    HW134274   1.090   2.996   4.816  0.3472 -0.1134 -0.6317
 7605SOL    HW234275   1.235   2.994   4.803 -1.7967  2.2548  0.0553
 7606SOL     OW34276   2.599   3.843   8.749  0.1741 -0.2523 -0.5759
 7606SOL    HW134277   2.675   3.895   8.724 -0.8096  0.9158 -1.0999
 7606SOL    HW234278   2.523   3.899   8.763  1.4783  1.3017  0.2179
 7607SOL     OW34279   1.212   3.186   7.679 -0.0210  0.1890 -0.1499
 7607SOL    HW134280   1.133   3.133   7.665  2.0180 -2.6959 -0.9437
 7607SOL    HW234281   1.246   3.182   7.590 -1.5264  1.8039 -0.7911
 7608SOL     OW34282   0.884   1.837   3.276  0.0405  0.5574  0.7195
 7608SOL    HW134283   0.836   1.803   3.200  0.6299 -0.6590  0.9028
 7608SOL    HW234284   0.969   1.795   3.271 -1.1071 -1.3519 -3.0151
 7609SOL     OW34285   3.673   2.514   2.345  0.2285  0.4489 -0.3488
 7609SOL    HW134286   3.718   2.594   2.320  2.9583 -0.2837  2.1003
 7609SOL    HW234287   3.599   2.543   2.398  0.9596 -2.0003  2.0298
 7610SOL     OW34288   2.811   0.892   9.647 -1.0661 -0.5998  0.7025
 7610SOL    HW134289   2.727   0.864   9.683 -0.3175 -0.2761  2.7213
 7610SOL    HW234290   2.872   0.873   9.719 -0.6493 -1.1816  0.1953
 7611SOL     OW34291   1.399   0.889   4.287 -0.0799  0.1460  0.3667
 7611SOL    HW134292   1.417   0.974   4.248 -0.4967  0.1404  0.1634
 7611SOL    HW234293   1.420   0.900   4.379  2.0119  0.4366 -0.1531
 7612SOL     OW34294   2.604   2.347   1.619 -0.2065  0.3022 -0.2435
 7612SOL    HW134295   2.622   2.424   1.564  1.4176  0.1115  0.0212
 7612SOL    HW234296   2.516   2.324   1.589  0.1204 -2.5732  1.0177
 7613SOL     OW34297   3.617   3.405   4.340  0.0446 -0.4366 -0.1445
 7613SOL    HW134298   3.543   3.384   4.282 -0.2324  1.4357 -0.4939
 7613SOL    HW234299   3.649   3.316   4.354 -2.1765 -1.6495 -2.7207
 7614SOL     OW34300   1.336   3.696   7.656 -0.2888  0.2645 -0.1958
 7614SOL    HW134301   1.352   3.746   7.736  0.5480  1.0969 -0.8838
 7614SOL    HW234302   1.311   3.616   7.702 -0.7814  0.3592 -0.3031
 7615SOL     OW34303   1.816   3.398   8.086  0.3331  0.1036 -0.0346
 7615SOL    HW134304   1.768   3.352   8.155  0.5164 -0.8974 -0.5809
 7615SOL    HW234305   1.901   3.354   8.075  0.1577 -0.3391  0.3762
 7616SOL     OW34306   1.818   4.579   6.538 -0.6059  0.7212  0.0068
 7616SOL    HW134307   1.856   4.667   6.548  0.7934  0.3673 -2.1895
 7616SOL    HW234308   1.889   4.526   6.575 -0.9715 -0.2687 -0.7100
 7617SOL     OW34309   3.371   3.232   4.246  0.3985  0.3027  0.3725
 7617SOL    HW134310   3.328   3.158   4.203  1.4338  0.5892 -1.1821
 7617SOL    HW234311   3.385   3.196   4.334 -2.6568 -0.5639  0.4901
 7618SOL     OW34312   3.641   0.030   4.026 -0.4645  0.0030  0.1388
 7618SOL    HW134313   3.726   0.056   4.059 -0.2002  0.4683 -0.9042
 7618SOL    HW234314   3.616   0.105   3.973  0.2179 -0.4857 -0.8832
 7619SOL     OW34315   1.356   4.344   3.025  0.1595  0.5435  0.2542
 7619SOL    HW134316   1.275   4.359   2.976 -0.7019 -0.5628  1.3395
 7619SOL    HW234317   1.385   4.259   2.992 -0.2816  0.8204 -0.8529
 7620SOL     OW34318   3.215   0.811   2.545  0.2428  0.0144  0.0957
 7620SOL    HW134319   3.302   0.843   2.568  0.3000  0.2020 -0.3734
 7620SOL    HW234320   3.236   0.718   2.549  1.9976  0.3808 -0.9671
 7621SOL     OW34321   1.746   3.646   1.638 -0.3322  0.0473 -0.0112
 7621SOL    HW134322   1.729   3.739   1.650 -0.2833 -0.0058  0.4769
 7621SOL    HW234323   1.661   3.631   1.597 -0.3174 -0.7347  0.2326
 7622SOL     OW34324   3.373   2.266   9.028  0.5012 -0.4733  0.5226
 7622SOL    HW134325   3.425   2.296   9.102 -1.6146  2.4050  0.8454
 7622SOL    HW234326   3.318   2.342   9.010  1.8073  0.5598  0.9600
 7623SOL     OW34327   3.293   1.602   6.428  0.2789 -0.2321  0.2667
 7623SOL    HW134328   3.370   1.546   6.437  0.2032 -0.4260 -0.3095
 7623SOL    HW234329   3.317   1.688   6.393  0.3662  0.8155  2.9260
 7624SOL     OW34330   1.539   2.705  16.134 -0.1905  0.7189 -0.4304
 7624SOL    HW134331   1.625   2.745  16.148 -0.9405  1.8480  0.9873
 7624SOL    HW234332   1.530   2.651  16.212  0.0636 -0.7926 -1.4549
 7625SOL     OW34333   2.458   2.551   7.614 -0.8295  0.5774 -0.1057
 7625SOL    HW134334   2.372   2.594   7.615 -1.4648 -0.6931 -0.0611
 7625SOL    HW234335   2.511   2.629   7.597 -0.1807  0.0533 -0.5090
 7626SOL     OW34336   1.845   0.800   0.627 -0.2934  0.7959 -0.0149
 7626SOL    HW134337   1.824   0.713   0.594  0.7401  0.6169 -0.1970
 7626SOL    HW234338   1.788   0.791   0.703 -1.3351 -1.6130 -1.0804
 7627SOL     OW34339   0.116   2.230  14.849 -0.0359  0.6546 -0.1914
 7627SOL    HW134340   0.161   2.174  14.913 -0.1632 -0.7709 -1.3505
 7627SOL    HW234341   0.103   2.313  14.894  1.4829  1.6628 -1.6448
 7628SOL     OW34342   1.450   1.534  10.060  0.3045 -0.3286  0.3747
 7628SOL    HW134343   1.414   1.470  10.122 -3.1797 -0.1963 -1.5492
 7628SOL    HW234344   1.376   1.545  10.001  0.3145 -2.4607 -0.0319
 7629SOL     OW34345   1.678   2.521   2.303 -0.0369 -0.0083  0.1530
 7629SOL    HW134346   1.628   2.595   2.267  2.4680  0.8798 -1.5378
 7629SOL    HW234347   1.632   2.445   2.267 -0.1596 -0.5884  1.5608
 7630SOL     OW34348   1.089   0.689   2.525  0.4316 -0.1665  0.0772
 7630SOL    HW134349   1.150   0.723   2.459  1.9347 -0.5205  1.2654
 7630SOL    HW234350   1.137   0.699   2.607  2.1980  1.3203 -1.1282
 7631SOL     OW34351   4.128   3.249   8.207  0.4503  0.3327  0.1095
 7631SOL    HW134352   4.058   3.186   8.223  0.6107 -0.3638 -1.8789
 7631SOL    HW234353   4.115   3.265   8.113 -3.3818  0.5590  0.6672
 7632SOL     OW34354   3.981   1.163  15.638 -0.3121 -0.0954 -0.1910
 7632SOL    HW134355   3.905   1.219  15.655  0.0103 -0.2058  1.6484
 7632SOL    HW234356   4.053   1.226  15.647 -0.7929  0.4913 -0.4751
 7633SOL     OW34357   0.964   2.643   4.337  0.1157  0.1355 -0.6170
 7633SOL    HW134358   0.992   2.723   4.381 -1.7442  1.3566 -1.6505
 7633SOL    HW234359   1.049   2.600   4.330  1.4436  2.6225  0.4218
 7634SOL     OW34360   2.228   0.013   6.548 -0.3693 -0.7985  0.3585
 7634SOL    HW134361   2.308   0.063   6.566 -0.8278 -0.5351  1.6423
 7634SOL    HW234362   2.270   4.651   6.571  0.4944 -0.2701  0.6868
 7635SOL     OW34363   1.704   0.764   3.985  0.2993 -0.4899 -0.0355
 7635SOL    HW134364   1.786   0.810   3.965  0.8388 -0.3309  2.4807
 7635SOL    HW234365   1.734   0.701   4.050  0.1784 -0.4461  0.0618
 7636SOL     OW34366   3.643   1.556   3.196 -0.1860  0.9830 -0.5205
 7636SOL    HW134367   3.662   1.522   3.109  0.4563  0.0237 -0.0052
 7636SOL    HW234368   3.589   1.486   3.233  1.1822  0.1885  0.0180
 7637SOL     OW34369   2.705   0.657   4.536 -0.2143 -0.6980 -0.1578
 7637SOL    HW134370   2.679   0.698   4.453 -1.9114  0.8952  1.1538
 7637SOL    HW234371   2.723   0.737   4.586 -0.2768 -1.3358  0.8817
 7638SOL     OW34372   2.846   2.656   2.652  0.3485 -0.6818 -0.2961
 7638SOL    HW134373   2.851   2.565   2.681  1.7280 -0.5282 -0.0437
 7638SOL    HW234374   2.862   2.650   2.558 -1.9829  1.3613 -0.8345
 7639SOL     OW34375   1.522   1.396   9.206 -0.3746 -0.6923  0.1146
 7639SOL    HW134376   1.554   1.486   9.204 -2.9007  0.2131  1.5898
 7639SOL    HW234377   1.575   1.367   9.280  0.3795  0.6253  0.0856
 7640SOL     OW34378   0.687   0.730  12.972  0.3330 -0.6860  0.6135
 7640SOL    HW134379   0.667   0.824  12.973 -0.3169 -0.8298  0.3187
 7640SOL    HW234380   0.599   0.695  12.983 -0.2213  0.4691 -0.2432
 7641SOL     OW34381   4.419   4.666  16.264 -0.1190  0.4853  0.6180
 7641SOL    HW134382   4.415   4.634  16.174  1.4669  1.3981  0.2256
 7641SOL    HW234383   4.333   4.708  16.264 -0.7427 -0.8299 -0.9363
 7642SOL     OW34384   0.985   4.369  17.236 -0.5233  0.3076  0.1362
 7642SOL    HW134385   0.959   4.311  17.164 -1.7659 -0.5179  1.2742
 7642SOL    HW234386   1.078   4.347  17.245 -0.5399 -0.1603 -0.8016
 7643SOL     OW34387   1.435   2.389   3.786  0.3753 -0.1103 -0.1344
 7643SOL    HW134388   1.464   2.398   3.876  1.8178 -3.0049 -0.3037
 7643SOL    HW234389   1.350   2.345   3.795 -0.4827  1.5829 -0.0264
 7644SOL     OW34390   1.499   1.981  10.840 -0.3899  0.3387 -0.3680
 7644SOL    HW134391   1.520   1.892  10.813  0.2964  0.1791  0.7068
 7644SOL    HW234392   1.574   2.005  10.895 -2.0468 -0.3825  2.1796
 7645SOL     OW34393   4.571   2.075   2.811 -0.8131  0.2820 -0.4714
 7645SOL    HW134394   4.611   2.134   2.747  1.2218 -0.0086  0.5150
 7645SOL    HW234395   4.488   2.115   2.839 -1.6219 -1.1839 -0.7602
 7646SOL     OW34396   3.001   1.526  10.754  0.3199 -0.1261 -0.1748
 7646SOL    HW134397   3.067   1.459  10.737  0.7069  0.3194 -0.4523
 7646SOL    HW234398   3.038   1.601  10.707  0.1231  0.5655  0.7718
 7647SOL     OW34399   4.564   4.037   5.135  0.0338 -0.3258 -0.8017
 7647SOL    HW134400   4.535   3.972   5.071 -4.4606 -1.7548  2.7216
 7647SOL    HW234401   4.613   4.097   5.079 -1.2726  0.5144 -1.0412
 7648SOL     OW34402   2.146   4.624   3.455  0.1854 -0.2930  0.2245
 7648SOL    HW134403   2.199   4.617   3.535 -1.2303 -1.1006  1.0948
 7648SOL    HW234404   2.195   4.691   3.408  0.3204 -0.1684  0.5417
 7649SOL     OW34405   1.628   2.489   4.494  0.2544 -0.2601  0.0852
 7649SOL    HW134406   1.608   2.579   4.519  1.1659  0.0720 -0.4019
 7649SOL    HW234407   1.723   2.491   4.497  0.0964  2.8224  2.7704
 7650SOL     OW34408   4.709   1.684   4.778  0.1188  0.4256 -0.3310
 7650SOL    HW134409   0.058   1.621   4.796 -2.2731 -2.6898 -1.8488
 7650SOL    HW234410   4.706   1.681   4.682  0.1352  1.1072 -0.3499
 7651SOL     OW34411   4.135   2.609   6.942  0.0458 -0.1565 -0.1453
 7651SOL    HW134412   4.128   2.704   6.945 -1.7726 -0.2648 -0.6378
 7651SOL    HW234413   4.223   2.591   6.976 -0.4807 -0.3489  1.1113
 7652SOL     OW34414   3.704   4.535   0.344 -0.5820  0.2088  0.4719
 7652SOL    HW134415   3.638   4.511   0.280  0.3267  0.6120 -0.6132
 7652SOL    HW234416   3.777   4.476   0.329 -3.8365 -2.9739 -2.6701
 7653SOL     OW34417   1.103   0.191   6.516  0.2515  0.4855 -0.1849
 7653SOL    HW134418   1.148   0.205   6.599  1.1216  0.2134 -0.6110
 7653SOL    HW234419   1.066   0.105   6.533 -1.7338  1.9492  2.8361
 7654SOL     OW34420   3.062   1.459   6.021 -0.6293 -0.2356  0.3660
 7654SOL    HW134421   3.021   1.477   5.937  0.1418  3.0035  0.6534
 7654SOL    HW234422   3.002   1.513   6.073  0.7486  0.3835  1.3217
 7655SOL     OW34423   2.090   1.112  11.496 -0.1610  0.2944 -0.6232
 7655SOL    HW134424   2.174   1.147  11.465 -0.1178 -0.3264 -1.1966
 7655SOL    HW234425   2.095   1.136  11.589  0.4503 -0.3630 -0.4954
 7656SOL     OW34426   1.912   0.501   3.566 -0.0177 -0.4982  0.1290
 7656SOL    HW134427   1.863   0.431   3.522 -0.4570  2.1100 -3.5890
 7656SOL    HW234428   1.864   0.576   3.530  0.1350 -0.0270  0.9259
 7657SOL     OW34429   1.038   3.708  13.051  0.2918  0.4194  0.3042
 7657SOL    HW134430   1.009   3.749  12.970  0.4206 -0.6104 -0.2644
 7657SOL    HW234431   1.109   3.649  13.025  1.0024  1.5198 -0.2931
 7658SOL     OW34432   4.528   0.063  12.971 -0.5559 -0.2603  0.0693
 7658SOL    HW134433   4.544   0.133  13.034 -1.8031  0.8801 -0.9077
 7658SOL    HW234434   4.589   0.087  12.901 -1.2721 -1.8307 -1.0970
 7659SOL     OW34435   0.145   0.397  17.491 -0.3348  0.1748  0.2065
 7659SOL    HW134436   0.135   0.486  17.457 -2.9462 -0.4475 -0.6644
 7659SOL    HW234437   0.057   0.365  17.509 -0.5058  0.8338  0.5586
 7660SOL     OW34438   0.686   2.375   8.380  0.3907  0.6103 -0.6896
 7660SOL    HW134439   0.637   2.457   8.369 -1.5573 -0.5632 -0.7139
 7660SOL    HW234440   0.768   2.415   8.408 -0.6461  2.3815 -0.1652
 7661SOL     OW34441   4.354   3.373   4.206  0.2222  0.0018 -0.3663
 7661SOL    HW134442   4.267   3.338   4.185 -1.2857  2.7417  1.2312
 7661SOL    HW234443   4.322   3.464   4.206  1.6059  0.4914 -0.6137
 7662SOL     OW34444   3.076   0.148   0.342  0.7011  0.2835 -0.2286
 7662SOL    HW134445   3.131   0.185   0.412  0.8389  0.3091 -0.3493
 7662SOL    HW234446   3.017   0.213   0.305  0.5876  0.4007  0.1600
 7663SOL     OW34447   0.388   3.938   6.436 -0.0533  0.4888  0.1390
 7663SOL    HW134448   0.402   3.848   6.465  2.1560  0.7875  0.0411
 7663SOL    HW234449   0.453   3.996   6.477 -0.8969  0.4539  1.5008
 7664SOL     OW34450   2.783   0.153   4.096 -0.4989  0.3709 -0.0977
 7664SOL    HW134451   2.726   0.190   4.028 -1.1571  0.4438  0.4965
 7664SOL    HW234452   2.863   0.206   4.092  0.3471 -0.9590 -0.7928
 7665SOL     OW34453   0.317   4.249   5.550  0.1561 -0.1533 -0.4246
 7665SOL    HW134454   0.246   4.302   5.586  0.3666 -0.4451  0.4095
 7665SOL    HW234455   0.333   4.207   5.635  1.0206  3.3511  1.1118
 7666SOL     OW34456   3.755   3.006   6.595  0.2633 -0.4684  0.0019
 7666SOL    HW134457   3.672   2.959   6.602 -1.5104  2.5831 -0.5269
 7666SOL    HW234458   3.723   3.061   6.523 -3.7671 -1.8869  0.6965
 7667SOL     OW34459   4.149   1.875   8.313 -0.5906  0.3530 -0.2311
 7667SOL    HW134460   4.169   1.965   8.340 -1.2750  0.9347 -1.6832
 7667SOL    HW234461   4.230   1.850   8.268  0.7249 -0.7719  2.7524
 7668SOL     OW34462   0.256   3.998  17.282 -0.1134  0.0520 -0.3221
 7668SOL    HW134463   0.250   3.929  17.217 -3.1465 -0.3523  0.3734
 7668SOL    HW234464   0.191   3.975  17.348 -0.5078  1.9780 -0.0325
 7669SOL     OW34465   0.761   3.588   7.107  0.4867 -0.3606 -0.5225
 7669SOL    HW134466   0.718   3.670   7.086  1.4641 -0.6492 -3.6291
 7669SOL    HW234467   0.695   3.522   7.082  0.3126  0.8194 -3.1725
 7670SOL     OW34468   1.213   1.727  12.760  0.0505  0.1434 -0.1536
 7670SOL    HW134469   1.268   1.686  12.827 -0.0806 -0.9240 -0.6897
 7670SOL    HW234470   1.254   1.813  12.753  3.0088 -1.0674  2.1654
 7671SOL     OW34471   0.239   0.234   7.879 -0.5602 -0.1032 -0.0986
 7671SOL    HW134472   0.332   0.235   7.903 -0.5893  0.4154 -0.0068
 7671SOL    HW234473   0.234   0.329   7.865  0.2970 -0.1667 -0.8890
 7672SOL     OW34474   1.536   3.767   5.017  0.0690 -0.2096 -0.1944
 7672SOL    HW134475   1.590   3.814   5.080 -0.8701  0.9388 -0.2487
 7672SOL    HW234476   1.478   3.729   5.084 -0.7248 -0.2602 -0.9099
 7673SOL     OW34477   1.002   0.209   8.007  0.5351 -0.4444  0.8359
 7673SOL    HW134478   0.934   0.192   8.072 -0.9291  1.2118 -0.2377
 7673SOL    HW234479   0.966   0.280   7.954  0.6766 -0.6860  0.4139
 7674SOL     OW34480   2.524   4.590   8.372  0.3036  0.3700  0.5336
 7674SOL    HW134481   2.529   4.647   8.295 -0.1142 -1.2374 -0.6804
 7674SOL    HW234482   2.606   4.602   8.420  0.9741  0.1739 -0.5549
 7675SOL     OW34483   3.162   0.761  14.819 -0.5912 -0.0628  0.3035
 7675SOL    HW134484   3.173   0.676  14.863 -1.5661 -1.2381 -1.7391
 7675SOL    HW234485   3.186   0.732  14.732  0.3769 -0.3694  0.6781
 7676SOL     OW34486   1.357   0.293   7.800  0.2959 -0.1061 -0.3039
 7676SOL    HW134487   1.374   0.201   7.818  1.3198  0.5288  1.9183
 7676SOL    HW234488   1.354   0.330   7.888 -3.4435  2.0050 -1.3229
 7677SOL     OW34489   4.291   3.490   7.910  0.5724  0.0281  0.2918
 7677SOL    HW134490   4.199   3.463   7.915 -0.1593  2.8020  1.5775
 7677SOL    HW234491   4.330   3.426   7.969  0.6347 -1.7403 -1.6434
 7678SOL     OW34492   1.646   4.309   2.663  0.0327 -0.3601 -0.1218
 7678SOL    HW134493   1.686   4.241   2.609  0.7032 -0.6960  0.8049
 7678SOL    HW234494   1.558   4.272   2.674  0.4031 -0.8420  1.1467
 7679SOL     OW34495   2.745   2.741   7.092 -0.8127  0.1263 -0.0585
 7679SOL    HW134496   2.786   2.655   7.099  1.2999  1.2284  1.1981
 7679SOL    HW234497   2.733   2.757   7.186  0.8128  1.1289 -0.0209
 7680SOL     OW34498   2.401   2.857   6.751 -0.1457  0.3894 -0.6623
 7680SOL    HW134499   2.415   2.903   6.834 -0.0124 -0.8883  0.0110
 7680SOL    HW234500   2.451   2.778   6.769 -1.3711 -0.2492 -0.0486
 7681SOL     OW34501   4.622   1.699   5.081  0.3380 -0.4043 -0.5709
 7681SOL    HW134502   4.633   1.710   4.987 -0.0554  0.0006 -0.5728
 7681SOL    HW234503   4.710   1.718   5.114 -0.0910  0.7346 -0.0381
 7682SOL     OW34504   2.131   0.407   0.323  0.4451  0.1072 -0.7353
 7682SOL    HW134505   2.068   0.427   0.393  0.3918 -1.7465 -0.2552
 7682SOL    HW234506   2.080   0.364   0.255 -0.2587 -0.6393  0.2616
 7683SOL     OW34507   2.531   2.859   5.914 -0.1518  0.3308 -0.0337
 7683SOL    HW134508   2.614   2.889   5.879 -2.1836  2.8788 -2.6261
 7683SOL    HW234509   2.562   2.816   5.994  0.5777  2.3695  0.7804
 7684SOL     OW34510   4.072   4.099  15.033  0.0559 -0.0520  0.4338
 7684SOL    HW134511   4.066   4.159  15.107  1.4777  1.2242 -0.5036
 7684SOL    HW234512   4.163   4.069  15.040 -0.1574 -0.7570  0.1973
 7685SOL     OW34513   2.767   3.364   5.760  0.6271 -0.3943  0.0750
 7685SOL    HW134514   2.721   3.446   5.777  0.5375 -0.2050 -1.0529
 7685SOL    HW234515   2.755   3.344   5.667  2.7039  0.9452 -0.4644
 7686SOL     OW34516   3.151   3.459   0.876  0.3321  0.2317 -0.3761
 7686SOL    HW134517   3.230   3.467   0.930 -0.0072  2.1550 -0.1495
 7686SOL    HW234518   3.086   3.486   0.942 -0.1429 -0.1810 -0.6729
 7687SOL     OW34519   0.512   0.140   4.499 -0.7130  0.2987  0.3190
 7687SOL    HW134520   0.539   0.057   4.538 -0.9184  0.3689  0.6113
 7687SOL    HW234521   0.559   0.206   4.551  0.5829 -1.1228  0.9640
 7688SOL     OW34522   2.357   0.220   4.334  0.2888  0.4072  1.0283
 7688SOL    HW134523   2.420   0.166   4.287 -0.5572 -0.8399  1.3252
 7688SOL    HW234524   2.299   0.155   4.374  0.0466 -0.3765 -0.6324
 7689SOL     OW34525   3.674   1.078  13.328 -0.0157  0.4498 -0.4339
 7689SOL    HW134526   3.650   1.019  13.256 -1.8487 -0.8166  1.2521
 7689SOL    HW234527   3.720   1.014  13.382 -0.0308  0.0639 -0.8723
 7690SOL     OW34528   3.136   3.530  11.387 -0.2370 -0.3554  0.4480
 7690SOL    HW134529   3.053   3.565  11.418 -0.5786  0.6492 -1.6294
 7690SOL    HW234530   3.187   3.609  11.404 -0.6004  0.5560 -2.7221
 7691SOL     OW34531   2.498   3.200  16.038 -0.2049 -0.3721  0.2311
 7691SOL    HW134532   2.476   3.143  16.111 -0.8118  0.3946  0.6406
 7691SOL    HW234533   2.422   3.258  16.042  0.4916  0.5802 -0.2030
 7692SOL     OW34534   3.116   2.456  17.392  0.1114  0.3168  0.1236
 7692SOL    HW134535   3.047   2.482  17.332 -0.3235 -1.9389 -0.3728
 7692SOL    HW234536   3.116   2.361  17.379 -2.6683  0.0696  1.9497
 7693SOL     OW34537   2.806   0.333   7.616  0.2982 -0.5435 -0.2010
 7693SOL    HW134538   2.895   0.358   7.592 -0.5595  1.2255 -1.5390
 7693SOL    HW234539   2.771   0.319   7.528  0.1240 -1.1784 -0.0360
 7694SOL     OW34540   3.617   3.322   4.916  0.3099 -0.3388 -0.1211
 7694SOL    HW134541   3.631   3.413   4.890  1.4031  0.1937  2.3061
 7694SOL    HW234542   3.647   3.323   5.007 -2.8104 -0.7920  0.9243
 7695SOL     OW34543   2.579   4.508   5.558 -0.1395  0.0029  0.0754
 7695SOL    HW134544   2.570   4.575   5.490  0.6444  0.7318  0.6835
 7695SOL    HW234545   2.672   4.518   5.580  0.2365  0.9271 -1.9302
 7696SOL     OW34546   0.676   4.568   8.055  0.5044 -0.1042  0.8773
 7696SOL    HW134547   0.650   4.657   8.079  0.3697 -0.5429  2.3606
 7696SOL    HW234548   0.592   4.524   8.064  0.4748  0.1832  2.0626
 7697SOL     OW34549   4.277   2.915   4.173  0.4211 -0.1736  0.0578
 7697SOL    HW134550   4.262   3.004   4.204 -0.4069 -0.9436  1.8812
 7697SOL    HW234551   4.214   2.865   4.226 -0.2300 -0.8894 -1.3915
 7698SOL     OW34552   1.778   1.126   8.425  0.1658  0.4121  0.4401
 7698SOL    HW134553   1.777   1.119   8.330 -3.4224  0.8673  0.4260
 7698SOL    HW234554   1.824   1.210   8.428 -0.7363  1.0143 -2.9038
 7699SOL     OW34555   4.609   0.491   4.766 -0.2967  0.0726 -0.1055
 7699SOL    HW134556   4.682   0.430   4.770  0.0295  0.4994  0.4357
 7699SOL    HW234557   4.542   0.475   4.833 -0.4414 -0.2123 -0.3210
 7700SOL     OW34558   1.590   3.612   7.059 -0.0908 -0.4713  0.2091
 7700SOL    HW134559   1.511   3.558   7.052 -0.3850 -0.2429  1.8510
 7700SOL    HW234560   1.594   3.648   6.970 -2.6146 -0.9277 -0.0913
 7701SOL     OW34561   2.012   1.718   7.964 -0.1478  0.0693  0.4088
 7701SOL    HW134562   2.026   1.624   7.973  1.4740  0.2745 -0.0522
 7701SOL    HW234563   2.065   1.753   7.892 -1.1703  2.0905  0.6372
 7702SOL     OW34564   1.769   2.713  11.025  0.4458  0.0919 -0.6859
 7702SOL    HW134565   1.786   2.676  10.938 -0.7552 -0.1123 -0.8325
 7702SOL    HW234566   1.779   2.804  10.997  0.4279  0.2239 -0.2678
 7703SOL     OW34567   1.982   2.592   5.375 -0.0282 -0.0518  0.2348
 7703SOL    HW134568   1.890   2.615   5.361 -0.3801 -0.3202  2.0190
 7703SOL    HW234569   2.011   2.650   5.446 -1.7990 -0.4323  1.2722
 7704SOL     OW34570   4.305   1.721  13.670  0.4591 -0.1344 -0.2621
 7704SOL    HW134571   4.260   1.776  13.735  0.3140  0.0010 -0.4778
 7704SOL    HW234572   4.366   1.668  13.721  0.9670  0.5970 -0.1022
 7705SOL     OW34573   4.225   2.529   5.332  0.2103  0.4241 -0.2473
 7705SOL    HW134574   4.195   2.456   5.278  3.3048 -1.1776  0.2184
 7705SOL    HW234575   4.317   2.535   5.306  0.3551 -1.8576 -0.1912
 7706SOL     OW34576   2.048   2.430  11.006  0.3442 -0.3800 -0.0396
 7706SOL    HW134577   2.061   2.521  11.031  1.0408  0.1119 -2.1903
 7706SOL    HW234578   2.123   2.383  11.042  1.4325  2.5615  1.5140
 7707SOL     OW34579   4.302   4.583   5.985  0.2399 -0.1769  0.3080
 7707SOL    HW134580   4.336   4.496   6.004  2.4477  0.4668 -0.7315
 7707SOL    HW234581   4.277   4.594   5.893 -0.2651 -0.0763  0.4542
 7708SOL     OW34582   0.602   0.960   4.600 -0.4259 -0.2255 -0.1184
 7708SOL    HW134583   0.526   0.908   4.575 -0.4100 -0.2466 -0.1225
 7708SOL    HW234584   0.582   0.956   4.694  0.6403  1.0292  0.1755
 7709SOL     OW34585   1.249   2.179   9.836  0.0882 -0.1812  0.2754
 7709SOL    HW134586   1.177   2.117   9.827  0.7048 -0.9127  0.3434
 7709SOL    HW234587   1.232   2.221   9.920 -1.3427  0.5306 -0.3875
 7710SOL     OW34588   2.313   0.246  11.602 -0.3942  0.7376  0.3249
 7710SOL    HW134589   2.373   0.256  11.528  0.3831 -1.8175  0.6317
 7710SOL    HW234590   2.377   0.215  11.666 -0.4772 -0.6184 -0.2557
 7711SOL     OW34591   3.969   1.142  13.944 -0.5062  0.4733  0.0248
 7711SOL    HW134592   3.887   1.154  13.991 -1.4137 -0.1453 -1.3925
 7711SOL    HW234593   3.952   1.194  13.866 -0.3238  1.1392  0.4265
 7712SOL     OW34594   0.494   0.762  13.798 -0.8085  0.0071  0.3741
 7712SOL    HW134595   0.416   0.711  13.776 -0.2824 -1.5666  2.1652
 7712SOL    HW234596   0.484   0.834  13.736 -2.6453 -0.6420 -0.0768
 7713SOL     OW34597   2.541   3.910   5.053  0.0816  0.3891  0.0079
 7713SOL    HW134598   2.625   3.874   5.023  0.6471 -0.6709  2.8054
 7713SOL    HW234599   2.537   3.991   5.003  0.2547 -2.0181 -3.8629
 7714SOL     OW34600   0.775   0.541   3.583  0.2418  0.0417  0.3120
 7714SOL    HW134601   0.705   0.595   3.547 -1.5761 -1.2213  1.9138
 7714SOL    HW234602   0.739   0.543   3.672 -0.6941 -1.1914 -0.0444
 7715SOL     OW34603   4.550   3.428   2.884  0.6585 -0.2935 -0.1732
 7715SOL    HW134604   4.458   3.401   2.877  0.6517 -0.2678 -0.1848
 7715SOL    HW234605   4.587   3.382   2.809 -0.1279 -0.5517 -0.4087
 7716SOL     OW34606   1.879   3.318   9.126  0.0173 -0.3993  0.6678
 7716SOL    HW134607   1.836   3.285   9.205 -0.9218 -0.1607  0.2533
 7716SOL    HW234608   1.849   3.252   9.064  1.4278 -0.8534  0.4513
 7717SOL     OW34609   3.665   4.203   7.246  0.8302 -0.8489  0.0731
 7717SOL    HW134610   3.745   4.248   7.218  0.8863  0.1937  1.9034
 7717SOL    HW234611   3.706   4.133   7.298  0.6970 -1.1943 -0.2814
 7718SOL     OW34612   1.266   2.225   4.917 -0.2751  0.3145  0.5386
 7718SOL    HW134613   1.219   2.296   4.961  0.3540  0.1636  1.4419
 7718SOL    HW234614   1.198   2.159   4.908  0.3578 -0.4354  1.3624
 7719SOL     OW34615   4.442   2.257  13.808  0.2809  0.2646 -0.6358
 7719SOL    HW134616   4.491   2.316  13.750  2.2200  0.5240  1.2907
 7719SOL    HW234617   4.478   2.170  13.790  0.4726  0.0232  0.9339
 7720SOL     OW34618   0.820   2.454   4.242 -0.5156 -0.3053 -0.4889
 7720SOL    HW134619   0.871   2.518   4.293  0.7792 -0.0144 -2.1234
 7720SOL    HW234620   0.886   2.429   4.177  1.5095  3.1291  0.1939
 7721SOL     OW34621   3.828   1.728   0.711  0.3277 -0.1542  1.0843
 7721SOL    HW134622   3.762   1.797   0.719 -0.5810 -0.8442 -0.4693
 7721SOL    HW234623   3.816   1.675   0.790 -0.2711  0.3812  1.3474
 7722SOL     OW34624   2.353   0.700   7.826 -0.2702 -0.2360 -0.0821
 7722SOL    HW134625   2.421   0.702   7.892 -0.4949  0.5775  0.1193
 7722SOL    HW234626   2.388   0.635   7.765 -0.2306 -0.2300 -0.0655
 7723SOL     OW34627   2.578   2.011   5.503  0.5271 -0.2663  0.0588
 7723SOL    HW134628   2.549   2.055   5.424  0.8072  1.0981  0.7105
 7723SOL    HW234629   2.656   2.057   5.535  1.1453 -1.7840  0.7709
 7724SOL     OW34630   3.840   2.742   2.306 -0.4415 -0.0345 -0.8025
 7724SOL    HW134631   3.846   2.824   2.257 -0.5592 -0.0174 -0.7883
 7724SOL    HW234632   3.927   2.713   2.278  0.7043  2.3399  0.2513
 7725SOL     OW34633   0.027   3.068  13.679  0.0684  0.0591  0.1623
 7725SOL    HW134634   0.099   3.023  13.723  1.5759  1.5909 -0.7425
 7725SOL    HW234635   0.074   3.146  13.650  0.8030  0.1463  1.5995
 7726SOL     OW34636   3.928   3.943   0.214 -0.3408  0.1950 -0.1347
 7726SOL    HW134637   3.878   3.888   0.274 -2.5930  1.7735 -0.6068
 7726SOL    HW234638   4.014   3.900   0.221 -0.7157 -0.7528 -1.3520
 7727SOL     OW34639   0.651   2.701  10.517  0.0919  0.3164 -0.5458
 7727SOL    HW134640   0.716   2.756  10.474  0.5209  0.0386 -0.2556
 7727SOL    HW234641   0.575   2.759  10.527  1.3421  2.1836 -2.1572
 7728SOL     OW34642   3.120   1.440  15.932 -0.5635 -0.2062 -0.1231
 7728SOL    HW134643   3.109   1.521  15.882  1.9973  0.1127 -0.1608
 7728SOL    HW234644   3.213   1.449  15.954 -1.1362  2.1290  1.3225
 7729SOL     OW34645   1.333   3.522   6.181  0.3393  0.6944 -0.6475
 7729SOL    HW134646   1.269   3.554   6.245 -1.1552  0.4728 -2.0293
 7729SOL    HW234647   1.278   3.514   6.103  2.0947  1.8363 -1.9891
 7730SOL     OW34648   4.338   2.571  13.406  0.0342 -0.2114  0.1438
 7730SOL    HW134649   4.382   2.589  13.323 -1.0377  0.7752 -0.2130
 7730SOL    HW234650   4.402   2.616  13.460  0.1900 -0.7434  0.3971
 7731SOL     OW34651   3.465   4.681   5.577  0.5746  0.2117  0.1512
 7731SOL    HW134652   3.528   4.714   5.514  1.7370 -1.7451  0.2890
 7731SOL    HW234653   3.412   0.036   5.602  1.7597  0.5905  1.5157
 7732SOL     OW34654   2.123   2.618   9.272 -0.4720 -0.1430  0.4348
 7732SOL    HW134655   2.067   2.586   9.201  0.1639 -0.2744 -0.0025
 7732SOL    HW234656   2.065   2.685   9.308 -2.3452 -1.9927  0.8707
 7733SOL     OW34657   2.150   0.539   0.871 -0.1706  0.5388 -0.6666
 7733SOL    HW134658   2.141   0.611   0.809 -0.9160 -0.3023 -1.5349
 7733SOL    HW234659   2.210   0.576   0.935 -1.4572  0.2196  0.7228
 7734SOL     OW34660   3.548   3.821   6.036  0.1922  0.5551 -0.2055
 7734SOL    HW134661   3.573   3.817   6.128 -0.6700  1.3521  0.0626
 7734SOL    HW234662   3.452   3.819   6.043  0.1431  1.6922 -0.4879
 7735SOL     OW34663   4.092   2.988   3.448 -0.6198  0.4339  0.3561
 7735SOL    HW134664   4.080   2.923   3.380  0.5490  0.6319 -0.0479
 7735SOL    HW234665   4.046   2.934   3.512 -0.2130  0.5325  0.7368
 7736SOL     OW34666   3.045   0.629   7.688 -0.1586 -0.2866  0.7615
 7736SOL    HW134667   3.050   0.558   7.624 -2.2370  0.9245 -0.7114
 7736SOL    HW234668   2.958   0.636   7.728  0.8776  0.6257  2.8806
 7737SOL     OW34669   2.659   1.919   0.459 -1.0133  0.5155  0.6574
 7737SOL    HW134670   2.603   1.935   0.535 -0.1549 -4.1503  2.2563
 7737SOL    HW234671   2.717   1.996   0.454  0.7053 -0.7902  0.5374
 7738SOL     OW34672   0.757   1.276   2.046 -0.2458  0.1681 -0.1136
 7738SOL    HW134673   0.707   1.201   2.012  0.6383 -0.4388 -0.0822
 7738SOL    HW234674   0.734   1.262   2.138 -0.9216 -0.0424 -0.3127
 7739SOL     OW34675   3.993   3.557   5.698 -0.2105  0.5099 -0.1613
 7739SOL    HW134676   4.065   3.617   5.678  0.3916 -0.2908 -0.4272
 7739SOL    HW234677   4.038   3.486   5.651  0.9750  0.9632  0.2795
 7740SOL     OW34678   2.641   3.824   5.359  0.4502  0.8743 -0.6021
 7740SOL    HW134679   2.690   3.877   5.297 -1.3903  0.2474 -2.5837
 7740SOL    HW234680   2.576   3.885   5.395 -1.0264  0.3762 -2.4573
 7741SOL     OW34681   0.026   3.356   7.686  0.1516 -0.2809  0.5807
 7741SOL    HW134682   4.701   3.434   7.716 -0.0459 -0.1349 -0.0930
 7741SOL    HW234683   4.676   3.296   7.707  0.8641 -1.0424  0.8682
 7742SOL     OW34684   0.761   0.151   4.274 -0.7333  0.3089  0.0204
 7742SOL    HW134685   0.815   0.174   4.198  0.3238  1.2125  1.0438
 7742SOL    HW234686   0.724   0.236   4.296  0.0220  0.7664 -0.4847
 7743SOL     OW34687   1.429   3.525   2.952  1.3129  0.3515 -0.2305
 7743SOL    HW134688   1.396   3.435   2.957  1.1936  0.4559  0.9064
 7743SOL    HW234689   1.382   3.570   3.022  0.1631 -1.7246  0.3248
 7744SOL     OW34690   4.123   2.203   7.588 -0.1102  0.4938  0.1706
 7744SOL    HW134691   4.181   2.278   7.571 -0.8937  1.7088  2.8156
 7744SOL    HW234692   4.039   2.243   7.610  0.6836  2.0324  0.4069
 7745SOL     OW34693   3.499   1.814   4.214  0.8053  0.0526  0.4671
 7745SOL    HW134694   3.442   1.739   4.195  0.7769 -0.0349  0.8927
 7745SOL    HW234695   3.451   1.873   4.156 -0.6731  0.4266  2.0658
 7746SOL     OW34696   0.625   3.433   5.042 -0.1541 -0.7619  0.3273
 7746SOL    HW134697   0.677   3.475   4.974  0.0484  2.1381  2.3212
 7746SOL    HW234698   0.653   3.465   5.127 -2.3437  0.9966  0.3605
 7747SOL     OW34699   4.024   1.901   6.555  0.3886 -0.1377  0.0432
 7747SOL    HW134700   4.115   1.895   6.525 -0.1575 -2.2176 -1.2421
 7747SOL    HW234701   4.042   1.949   6.636 -1.5161 -1.0717  1.0288
 7748SOL     OW34702   3.405   1.132   4.386  0.8275  0.5540 -0.5041
 7748SOL    HW134703   3.431   1.040   4.383  1.1335  0.6578 -1.0001
 7748SOL    HW234704   3.327   1.145   4.441 -1.4060 -0.9565 -3.3019
 7749SOL     OW34705   1.802   2.346   9.696  0.3794  0.1941 -0.1525
 7749SOL    HW134706   1.818   2.361   9.789  0.8660 -0.7453 -0.0855
 7749SOL    HW234707   1.887   2.306   9.680  0.7373  1.1493 -0.6606
 7750SOL     OW34708   3.420   3.391   9.762  0.2042  0.4953 -0.8455
 7750SOL    HW134709   3.327   3.380   9.782  0.8007 -1.8077  0.5977
 7750SOL    HW234710   3.450   3.307   9.728 -0.8279 -0.6321  1.0391
 7751SOL     OW34711   2.737   1.611  10.693  0.0987 -0.8839 -0.3260
 7751SOL    HW134712   2.800   1.669  10.651  1.1148 -1.3691  0.5303
 7751SOL    HW234713   2.794   1.565  10.754  0.2721  1.8806  1.5605
 7752SOL     OW34714   0.545   1.302   5.010 -0.0020  0.0635 -0.5864
 7752SOL    HW134715   0.587   1.230   4.962 -1.3851 -0.7239 -0.6359
 7752SOL    HW234716   0.493   1.255   5.076 -1.3884  1.8913 -0.4115
 7753SOL     OW34717   4.527   2.496   7.730 -0.4147 -0.0837  0.0698
 7753SOL    HW134718   4.554   2.461   7.645 -1.4983 -2.0650  0.5357
 7753SOL    HW234719   4.439   2.460   7.739 -1.4482  2.3249 -0.4582
 7754SOL     OW34720   4.066   4.518  11.175  0.1672 -0.2592  0.1479
 7754SOL    HW134721   4.035   4.443  11.126 -1.9144  2.0721 -2.0972
 7754SOL    HW234722   4.044   4.493  11.265 -0.8424  2.3959  0.6401
 7755SOL     OW34723   2.707   4.240   0.823  0.0552 -0.3853  0.1653
 7755SOL    HW134724   2.739   4.230   0.733  0.2805  3.8949 -0.2142
 7755SOL    HW234725   2.646   4.313   0.815  1.9355  1.2232  0.2572
 7756SOL     OW34726   4.460   3.172   3.942  0.2487 -0.1273  0.1293
 7756SOL    HW134727   4.488   3.254   3.983  0.3278 -0.7226  1.2707
 7756SOL    HW234728   4.367   3.186   3.929  0.6579  2.9776  0.4015
 7757SOL     OW34729   2.915   4.174   4.222 -0.2621  0.1475  0.4615
 7757SOL    HW134730   2.911   4.139   4.310  0.6585  1.7544  1.1419
 7757SOL    HW234731   2.851   4.246   4.225 -2.7322 -2.0562  0.4185
 7758SOL     OW34732   4.170   3.568   1.740 -0.0192 -0.1998  0.0003
 7758SOL    HW134733   4.256   3.527   1.750  0.2014 -0.4019 -2.7845
 7758SOL    HW234734   4.200   3.626   1.669  4.1651  1.1297  2.8395
 7759SOL     OW34735   3.841   0.336  17.288 -0.0025 -0.6432  0.1864
 7759SOL    HW134736   3.914   0.397  17.295 -0.6427  0.1977 -0.5119
 7759SOL    HW234737   3.776   0.391  17.245 -0.1724 -0.3864  0.7752
 7760SOL     OW34738   1.303   0.395  16.207  0.0975  0.3232  0.8731
 7760SOL    HW134739   1.265   0.481  16.191 -2.6641 -0.8086  1.4468
 7760SOL    HW234740   1.231   0.336  16.229 -1.8760  2.3022 -0.4222
 7761SOL     OW34741   0.705   0.346   5.742 -0.0056  0.1727  0.1200
 7761SOL    HW134742   0.771   0.281   5.766 -0.7531 -1.6763 -2.7627
 7761SOL    HW234743   0.745   0.420   5.788 -0.2257  0.7017 -0.5398
 7762SOL     OW34744   1.008   4.002   1.083  1.1212 -0.0049 -0.0775
 7762SOL    HW134745   1.038   4.071   1.142  1.7122 -0.3434  0.0165
 7762SOL    HW234746   0.961   3.943   1.142  0.2259 -0.0684 -0.8508
 7763SOL     OW34747   0.841   1.786   4.632  0.3433  0.1730 -0.4555
 7763SOL    HW134748   0.827   1.794   4.538 -1.9414 -1.2760 -0.2321
 7763SOL    HW234749   0.803   1.870   4.657  0.6130 -0.3383  1.7480
 7764SOL     OW34750   0.851   1.525   7.966  0.0541 -0.1378  0.5967
 7764SOL    HW134751   0.803   1.580   7.904  2.2060 -0.4793 -1.3760
 7764SOL    HW234752   0.814   1.557   8.049 -0.4610 -1.9686  1.0703
 7765SOL     OW34753   2.601   4.623   6.062 -0.6148 -0.4440 -0.3886
 7765SOL    HW134754   2.635   4.534   6.052  2.7367  0.9415 -1.5628
 7765SOL    HW234755   2.528   4.632   6.000 -0.0217  1.0871 -0.8723
 7766SOL     OW34756   3.133   0.490   4.385 -0.1206  0.3402 -0.1659
 7766SOL    HW134757   3.085   0.560   4.341  0.4043  0.0992 -1.1086
 7766SOL    HW234758   3.216   0.537   4.393 -0.8653  1.9197 -1.7814
 7767SOL     OW34759   1.015   4.067  17.412 -1.0502 -0.4065  0.3353
 7767SOL    HW134760   1.082   4.133  17.391  0.8873 -3.1247 -2.0473
 7767SOL    HW234761   0.975   4.104  17.490 -0.5947 -0.8159  0.7679
 7768SOL     OW34762   0.153   3.657   8.621  0.0580 -0.3793  0.3878
 7768SOL    HW134763   0.189   3.641   8.709 -1.6182 -1.8968  0.8051
 7768SOL    HW234764   0.226   3.681   8.565 -1.3120 -1.2005 -1.7443
 7769SOL     OW34765   3.537   1.339   0.358 -0.0819  0.0164  0.2850
 7769SOL    HW134766   3.599   1.371   0.423  0.4317 -3.5636  1.5502
 7769SOL    HW234767   3.486   1.417   0.338  2.1563  1.6380  0.8559
 7770SOL     OW34768   1.493   2.647  14.042  0.1774  0.0960  0.8829
 7770SOL    HW134769   1.403   2.675  14.022  0.3716  0.9798  1.2282
 7770SOL    HW234770   1.532   2.713  14.099  1.7804 -0.8844  0.9092
 7771SOL     OW34771   1.500   4.079   8.352 -0.6593 -0.4012 -0.0434
 7771SOL    HW134772   1.562   4.122   8.411 -1.3029 -1.7091  1.6139
 7771SOL    HW234773   1.433   4.147   8.354  0.9514  1.1604  1.0738
 7772SOL     OW34774   0.904   2.692   5.665  0.2169 -0.3376  0.2645
 7772SOL    HW134775   0.853   2.669   5.587  1.2285 -1.6633 -0.0021
 7772SOL    HW234776   0.861   2.633   5.726 -3.7139  2.1267 -0.0813
 7773SOL     OW34777   1.001   3.222  13.470  0.1502 -0.4918  0.1679
 7773SOL    HW134778   0.980   3.315  13.476  2.0167 -0.0023 -1.0340
 7773SOL    HW234779   0.938   3.179  13.528 -1.0590 -0.2478 -0.9668
 7774SOL     OW34780   0.678   0.812   5.875 -0.6405 -0.2000  0.2957
 7774SOL    HW134781   0.675   0.721   5.906 -0.3995 -0.7891 -1.4045
 7774SOL    HW234782   0.720   0.860   5.946 -2.6485 -0.4771  1.6663
 7775SOL     OW34783   2.108   0.988   1.049 -0.2530 -0.1195 -0.0398
 7775SOL    HW134784   2.073   1.028   0.970  1.8898 -0.1537 -1.0153
 7775SOL    HW234785   2.172   1.057   1.066 -1.3534  0.6089  1.0871
 7776SOL     OW34786   3.966   1.273   7.854  0.4349 -0.1711  0.1530
 7776SOL    HW134787   3.965   1.346   7.792 -0.0076 -0.0973  0.2481
 7776SOL    HW234788   4.016   1.205   7.809 -0.5827 -0.0180 -1.2181
 7777SOL     OW34789   2.954   0.787   4.704  0.0715  0.5108  0.9650
 7777SOL    HW134790   2.962   0.881   4.722 -1.2827  0.7436  0.4217
 7777SOL    HW234791   2.866   0.773   4.740  0.1540 -0.7605  0.6758
 7778SOL     OW34792   2.252   2.540   9.676  0.0690  0.5366 -0.6678
 7778SOL    HW134793   2.195   2.503   9.608 -1.5608 -0.9788  1.5356
 7778SOL    HW234794   2.211   2.513   9.758  0.3408 -0.8853 -0.9932
 7779SOL     OW34795   2.738   1.670  13.775  0.7987 -0.6364  0.8084
 7779SOL    HW134796   2.769   1.752  13.813  2.9301 -1.5313  0.9635
 7779SOL    HW234797   2.751   1.610  13.848  0.2993 -1.6145  0.0882
 7780SOL     OW34798   1.231   1.370   0.885 -0.0229 -0.5610 -0.1683
 7780SOL    HW134799   1.285   1.421   0.946 -0.4359 -0.1946 -0.1096
 7780SOL    HW234800   1.294   1.309   0.846 -1.8222 -1.0818 -2.2389
 7781SOL     OW34801   3.095   3.003  10.666  0.0425  0.4564  0.3060
 7781SOL    HW134802   3.070   2.990  10.758  0.7330 -0.9155  0.3031
 7781SOL    HW234803   3.013   3.037  10.630  0.7903  2.8434  0.8742
 7782SOL     OW34804   1.193   1.656   0.645  0.4788  0.4330  0.0384
 7782SOL    HW134805   1.211   1.703   0.564 -1.5930  0.1475 -0.5954
 7782SOL    HW234806   1.275   1.606   0.653  0.3023  0.3002  1.0625
 7783SOL     OW34807   4.273   2.280   7.159  0.5194 -0.0944 -0.1734
 7783SOL    HW134808   4.245   2.190   7.177 -1.3997  0.4882 -0.2074
 7783SOL    HW234809   4.360   2.265   7.122  1.4343 -1.4206  2.5049
 7784SOL     OW34810   0.698   3.072   6.754  0.2837 -0.0703 -0.0979
 7784SOL    HW134811   0.644   3.150   6.743 -0.2604 -0.8553 -2.8676
 7784SOL    HW234812   0.704   3.051   6.847  0.7145 -3.8938 -1.0193
 7785SOL     OW34813   0.531   4.274  10.935 -0.3005  0.2096 -0.6132
 7785SOL    HW134814   0.573   4.207  10.881 -0.2170  0.4592 -0.8617
 7785SOL    HW234815   0.582   4.351  10.909  2.1417 -1.2148 -0.0492
 7786SOL     OW34816   1.497   1.861   9.021  0.0766 -0.1221  0.0676
 7786SOL    HW134817   1.491   1.956   9.034 -1.3021 -0.1466 -0.4612
 7786SOL    HW234818   1.593   1.860   9.021  0.0731 -0.4496  1.2438
 7787SOL     OW34819   4.014   1.479   5.256  0.3354 -0.8894  0.0505
 7787SOL    HW134820   3.977   1.392   5.271 -0.4298 -0.4494  0.7076
 7787SOL    HW234821   3.952   1.515   5.193  0.3230 -1.1278 -0.0733
 7788SOL     OW34822   1.162   1.025  11.608 -0.0046 -0.1229  0.0216
 7788SOL    HW134823   1.145   1.013  11.515 -3.2528 -0.1845  0.5996
 7788SOL    HW234824   1.168   1.121  11.612 -1.8245 -0.0617  1.2315
 7789SOL     OW34825   1.724   1.643   5.116 -0.5822 -0.0802  0.1274
 7789SOL    HW134826   1.738   1.551   5.093 -2.2710  0.0239 -1.3529
 7789SOL    HW234827   1.664   1.667   5.045 -0.1315 -1.1395 -0.6101
 7790SOL     OW34828   1.925   1.203   9.404  0.0709  0.5256  0.6702
 7790SOL    HW134829   1.966   1.144   9.341  3.3464  2.6900  0.7675
 7790SOL    HW234830   1.989   1.268   9.433  0.3931 -0.0075  1.1340
 7791SOL     OW34831   4.371   0.482  15.173  0.0157  0.2193 -0.3312
 7791SOL    HW134832   4.461   0.515  15.165  0.0914 -0.3551 -1.7878
 7791SOL    HW234833   4.332   0.551  15.227  0.1569  0.8187 -1.0010
 7792SOL     OW34834   4.606   1.448   7.086  0.3075 -0.2111  0.4628
 7792SOL    HW134835   4.562   1.438   7.002  0.7942 -1.7715  0.3812
 7792SOL    HW234836   4.687   1.487   7.054 -0.4507  0.3045 -0.8090
 7793SOL     OW34837   1.122   2.436   5.386  0.0124 -0.3367 -0.6058
 7793SOL    HW134838   1.030   2.422   5.410 -0.3749 -0.3535 -2.1012
 7793SOL    HW234839   1.154   2.355   5.348  1.0439  0.2918 -1.0891
 7794SOL     OW34840   0.624   3.816   3.694  0.2701  0.3979 -0.3420
 7794SOL    HW134841   0.635   3.882   3.625  0.5886 -0.0145 -0.6829
 7794SOL    HW234842   0.654   3.734   3.654  2.6609  2.4540 -2.7346
 7795SOL     OW34843   4.677   1.182   5.696  0.7873  0.5600  0.4904
 7795SOL    HW134844   0.006   1.106   5.668  0.8651  0.7033  0.2329
 7795SOL    HW234845   4.647   1.209   5.609 -0.4313  3.5410  1.8541
 7796SOL     OW34846   4.674   4.431   2.521 -0.3773 -0.3438  0.2699
 7796SOL    HW134847   0.016   4.362   2.505  1.9076  1.2825  2.2850
 7796SOL    HW234848   4.613   4.394   2.585  0.9826 -0.9486  1.2213
 7797SOL     OW34849   4.523   3.900  10.699 -0.0396 -0.2950  0.1390
 7797SOL    HW134850   4.515   3.947  10.783 -2.0236  0.4483 -0.4617
 7797SOL    HW234851   4.613   3.917  10.671 -0.9334  0.9490 -2.0011
 7798SOL     OW34852   2.671   1.906   2.906 -0.5541 -0.1592 -0.3124
 7798SOL    HW134853   2.609   1.872   2.841 -1.7724 -0.6218  1.0999
 7798SOL    HW234854   2.736   1.957   2.857 -0.2363 -1.7106 -1.5007
 7799SOL     OW34855   2.543   3.290   4.608 -0.5338  0.2365 -0.6175
 7799SOL    HW134856   2.496   3.243   4.538 -2.1435  0.0208  0.6238
 7799SOL    HW234857   2.588   3.359   4.559 -0.4101  0.1133 -0.6784
 7800SOL     OW34858   2.424   1.487  16.112 -0.2840  0.2003 -0.3274
 7800SOL    HW134859   2.496   1.546  16.090  1.0432 -1.5511 -0.6762
 7800SOL    HW234860   2.370   1.543  16.169 -0.9147 -0.9780  0.2382
 7801SOL     OW34861   2.815   1.327   2.732 -0.5033 -0.0411  0.2342
 7801SOL    HW134862   2.765   1.273   2.793 -1.1309 -0.2953 -0.5154
 7801SOL    HW234863   2.879   1.264   2.698  0.8555  0.9443  0.9527
 7802SOL     OW34864   0.226   4.190  17.639  0.7083 -0.2014  0.4083
 7802SOL    HW134865   0.181   4.118  17.595  1.5041 -0.6543  0.3353
 7802SOL    HW234866   0.178   4.267  17.609  1.2838  0.0986  0.2588
 7803SOL     OW34867   3.917   1.385   7.385 -0.2919 -0.1707  0.3123
 7803SOL    HW134868   3.844   1.326   7.367  0.3664 -1.0126  0.3835
 7803SOL    HW234869   3.874   1.469   7.402  0.5348  0.1574  0.8095
 7804SOL     OW34870   2.089   1.080   2.150 -0.5841 -0.0618  1.3020
 7804SOL    HW134871   2.055   0.992   2.166 -0.1898 -0.1474  1.6728
 7804SOL    HW234872   2.159   1.087   2.215  0.5566  1.8485 -0.1177
 7805SOL     OW34873   3.628   3.400   6.165 -0.4783 -0.3192 -0.1512
 7805SOL    HW134874   3.721   3.418   6.148  0.0185 -1.8075  0.9511
 7805SOL    HW234875   3.617   3.317   6.118 -0.1646 -0.8195  0.6435
 7806SOL     OW34876   1.795   4.485  10.350  0.0952 -0.3630  0.3201
 7806SOL    HW134877   1.739   4.431  10.295 -0.8934  0.1564  0.8202
 7806SOL    HW234878   1.771   4.565  10.304  0.3248 -1.9394 -2.4948
 7807SOL     OW34879   0.265   2.023   5.825 -0.5006 -0.0433 -0.5445
 7807SOL    HW134880   0.222   2.103   5.855  1.6423  0.7085  0.5171
 7807SOL    HW234881   0.191   1.965   5.842 -1.3562  1.6023  1.3214
 7808SOL     OW34882   4.466   0.409  11.920  0.3442 -0.4225  0.5837
 7808SOL    HW134883   4.446   0.499  11.948 -0.2021 -0.9133  1.7577
 7808SOL    HW234884   4.558   0.408  11.946  0.9387  1.2896 -1.4177
 7809SOL     OW34885   0.798   3.410   1.874  0.1630 -0.2204  0.2056
 7809SOL    HW134886   0.812   3.330   1.923 -1.3123 -2.1746 -2.5737
 7809SOL    HW234887   0.814   3.484   1.933  1.7167 -0.4607  0.0724
 7810SOL     OW34888   0.692   2.582   2.996  0.0280  0.1676 -0.3485
 7810SOL    HW134889   0.621   2.616   3.051  0.2666  0.8160 -0.4476
 7810SOL    HW234890   0.656   2.548   2.914  1.0782 -0.0742 -0.7122
 7811SOL     OW34891   1.238   2.757   6.417 -0.1714  0.5078 -0.5837
 7811SOL    HW134892   1.198   2.707   6.488  1.3233  0.1707  0.0296
 7811SOL    HW234893   1.282   2.685   6.371 -0.8165 -0.9532  1.0871
 7812SOL     OW34894   1.935   2.892   8.763 -0.1662  0.6054 -0.4262
 7812SOL    HW134895   1.910   2.919   8.675  1.1797  1.7117 -0.4778
 7812SOL    HW234896   1.862   2.833   8.778 -1.5599  2.9818  2.0386
 7813SOL     OW34897   2.303   4.276  12.894 -0.4265 -0.0784  0.2131
 7813SOL    HW134898   2.374   4.301  12.834 -0.2913  0.1081  0.4503
 7813SOL    HW234899   2.346   4.248  12.975 -1.5278 -0.2958  0.7160
 7814SOL     OW34900   3.163   2.051   7.531  0.3980 -0.0735  0.0550
 7814SOL    HW134901   3.245   2.008   7.508  1.1833  0.1882  2.2830
 7814SOL    HW234902   3.168   2.057   7.627  1.0455 -0.5343  0.0482
 7815SOL     OW34903   1.718   0.589  11.154 -0.4020 -0.2221 -0.5685
 7815SOL    HW134904   1.807   0.610  11.182  0.4097 -2.4967 -1.4379
 7815SOL    HW234905   1.721   0.623  11.065  0.5356  0.0803 -0.4172
 7816SOL     OW34906   1.484   4.155   6.323  0.3050 -0.0176 -0.5258
 7816SOL    HW134907   1.555   4.213   6.294 -0.9212  1.2151 -1.0593
 7816SOL    HW234908   1.426   4.167   6.248 -0.9631  0.0828  0.4837
 7817SOL     OW34909   2.376   2.114  12.744  0.9008 -0.3066  0.1218
 7817SOL    HW134910   2.436   2.041  12.731 -0.1665 -1.8216  3.6322
 7817SOL    HW234911   2.345   2.117  12.654 -0.7304  1.1767  0.7277
 7818SOL     OW34912   1.970   1.686   6.648 -0.1141  0.1731  0.3993
 7818SOL    HW134913   2.037   1.652   6.588 -1.2741 -2.5508  0.6657
 7818SOL    HW234914   1.983   1.634   6.727  1.4565  0.0266  0.0482
 7819SOL     OW34915   3.763   2.225   2.959  0.5513 -0.2151 -0.0658
 7819SOL    HW134916   3.692   2.218   2.895 -0.0754  0.4467  0.5636
 7819SOL    HW234917   3.742   2.166   3.031  0.3940  1.3073  1.1295
 7820SOL     OW34918   4.269   2.584   3.498 -0.3488  0.4245  0.0855
 7820SOL    HW134919   4.350   2.534   3.511 -1.1186 -1.1785 -1.1981
 7820SOL    HW234920   4.235   2.569   3.586 -1.8837  0.9043 -0.4282
 7821SOL     OW34921   3.384   2.723   7.148  0.7611 -0.1655  0.3291
 7821SOL    HW134922   3.425   2.637   7.147 -1.4357 -1.2036 -0.6715
 7821SOL    HW234923   3.372   2.731   7.053  0.4112  0.3780  0.4162
 7822SOL     OW34924   1.631   2.989   3.795 -1.3096  0.8697 -0.2891
 7822SOL    HW134925   1.572   2.949   3.732 -2.3651  1.1777  0.5057
 7822SOL    HW234926   1.687   3.043   3.739 -1.4272 -0.9341 -2.1320
 7823SOL     OW34927   2.350   4.041  13.513  0.5240 -0.1213  0.7067
 7823SOL    HW134928   2.333   3.997  13.430 -0.6241  0.1087  0.8253
 7823SOL    HW234929   2.392   4.123  13.485  0.1619  0.3929  1.6741
 7824SOL     OW34930   1.267   2.039   7.378 -0.5256  0.2782 -0.1651
 7824SOL    HW134931   1.319   1.959   7.369  0.4351  1.0209 -1.2641
 7824SOL    HW234932   1.202   2.001   7.437 -0.8753  2.4827  0.8522
 7825SOL     OW34933   3.808   2.402   1.696 -0.3128  0.6582 -0.1523
 7825SOL    HW134934   3.812   2.384   1.602  0.4850 -1.0555  0.1969
 7825SOL    HW234935   3.717   2.430   1.698 -0.4568  0.1263  0.8858
 7826SOL     OW34936   3.774   3.872   1.675 -0.4856  0.0739 -0.6681
 7826SOL    HW134937   3.704   3.869   1.740 -0.8384  0.7906 -1.0178
 7826SOL    HW234938   3.756   3.954   1.630  2.1437  1.7711  1.3784
 7827SOL     OW34939   2.775   3.578   3.590 -0.2010  0.1817  0.4340
 7827SOL    HW134940   2.787   3.483   3.594  0.3617  0.2311 -0.0067
 7827SOL    HW234941   2.703   3.595   3.650  2.0673  0.8209  2.9660
 7828SOL     OW34942   1.821   1.563  17.261 -0.1419  0.1352 -0.8588
 7828SOL    HW134943   1.766   1.548  17.184  0.3992 -2.2695 -0.7856
 7828SOL    HW234944   1.833   1.474  17.297 -0.2386  0.2356 -0.5769
 7829SOL     OW34945   2.421   3.418   6.822  0.3023 -0.4419  0.4048
 7829SOL    HW134946   2.414   3.353   6.752  1.7457  1.0608 -1.1282
 7829SOL    HW234947   2.354   3.482   6.796  0.1446  0.4805  3.1320
 7830SOL     OW34948   4.659   3.737   6.880 -0.0114 -0.0655 -0.3164
 7830SOL    HW134949   4.642   3.768   6.969 -1.9343 -4.5528  0.8809
 7830SOL    HW234950   4.663   3.642   6.892  1.1700  0.0414  0.1628
 7831SOL     OW34951   2.020   3.744   3.364 -0.1982 -0.1513 -0.4780
 7831SOL    HW134952   2.058   3.810   3.423  0.6359 -2.1721  1.2241
 7831SOL    HW234953   2.031   3.788   3.280 -1.4860  3.1854  1.1066
 7832SOL     OW34954   1.080   2.052   3.479  0.8047  0.0586  0.6693
 7832SOL    HW134955   1.175   2.052   3.495  0.8244 -0.5707  0.5566
 7832SOL    HW234956   1.046   2.015   3.560  0.5972  1.9140  1.4177
 7833SOL     OW34957   2.546   0.806   7.375  0.1667 -0.1439 -0.2261
 7833SOL    HW134958   2.628   0.763   7.402 -0.0354 -0.0951  0.4765
 7833SOL    HW234959   2.515   0.841   7.459 -0.7086 -1.2147 -0.0881
 7834SOL     OW34960   3.007   2.098  10.201 -0.1386  0.3608  0.1926
 7834SOL    HW134961   2.948   2.173  10.192  0.9312  1.3211  1.1916
 7834SOL    HW234962   2.993   2.054  10.117 -2.3166  2.3637 -0.4917
 7835SOL     OW34963   1.806   2.064   7.425 -1.1198 -0.3694 -0.1230
 7835SOL    HW134964   1.842   2.120   7.356  1.1497 -0.7683  0.7369
 7835SOL    HW234965   1.875   1.998   7.425  0.0915  0.9063  1.2398
 7836SOL     OW34966   2.066   1.253   1.405 -0.2273  0.0681 -0.5181
 7836SOL    HW134967   2.015   1.255   1.324  2.5228 -0.8272 -2.2930
 7836SOL    HW234968   2.075   1.346   1.425  2.6465 -0.1036 -0.9722
 7837SOL     OW34969   0.558   1.895   6.608 -0.0728  0.0677 -0.5571
 7837SOL    HW134970   0.566   1.959   6.679  2.8728 -0.9984  0.0499
 7837SOL    HW234971   0.557   1.814   6.659 -0.3445  0.2556 -0.2649
 7838SOL     OW34972   2.395   3.419  14.858 -0.6702 -0.3375 -0.0178
 7838SOL    HW134973   2.302   3.437  14.872 -0.4891 -0.9610  1.9426
 7838SOL    HW234974   2.399   3.399  14.764 -1.2877 -2.8696  0.5143
 7839SOL     OW34975   4.714   0.215   7.340 -0.1027  0.1912  0.0435
 7839SOL    HW134976   4.685   0.126   7.320  0.9907 -0.5530  1.7676
 7839SOL    HW234977   4.652   0.239   7.409 -0.2714  0.4558 -0.1966
 7840SOL     OW34978   3.840   0.839  13.433  0.5613 -0.5302 -0.2070
 7840SOL    HW134979   3.747   0.829  13.453  0.4485 -1.3839 -1.1976
 7840SOL    HW234980   3.888   0.796  13.504  0.3879 -0.5046 -0.0738
 7841SOL     OW34981   0.249   4.438   0.392 -0.2416  0.5402  0.1826
 7841SOL    HW134982   0.232   4.494   0.468  0.6644  2.1818 -0.8310
 7841SOL    HW234983   0.302   4.496   0.338 -3.3257  2.7763 -0.4188
 7842SOL     OW34984   3.167   3.772   4.848  0.5065 -0.2746 -0.1458
 7842SOL    HW134985   3.098   3.740   4.907  2.3259  0.0283  2.1224
 7842SOL    HW234986   3.190   3.684   4.819  0.8405 -0.4045  0.5201
 7843SOL     OW34987   2.936   0.777   1.460 -0.0527  0.1327 -0.1929
 7843SOL    HW134988   2.919   0.863   1.499  0.5121 -0.2781  0.9411
 7843SOL    HW234989   2.945   0.795   1.366  1.6051 -2.0090 -0.4601
 7844SOL     OW34990   1.510   2.732  11.771 -0.0398  0.3045 -0.2612
 7844SOL    HW134991   1.460   2.677  11.711  0.1578  0.2705 -0.3945
 7844SOL    HW234992   1.460   2.810  11.795  1.4313  1.1391  0.1306
 7845SOL     OW34993   4.067   2.594   8.633 -0.2144  0.2920 -0.0775
 7845SOL    HW134994   4.142   2.537   8.653  0.3681  0.6719 -1.1935
 7845SOL    HW234995   4.063   2.653   8.708  1.0074  0.0954  0.1446
 7846SOL     OW34996   3.777   0.967  16.706  0.2843  0.0195 -0.0706
 7846SOL    HW134997   3.761   1.043  16.650  1.1702 -0.8202 -1.4419
 7846SOL    HW234998   3.847   0.997  16.764  0.4337  0.0642 -0.2750
 7847SOL     OW34999   0.863   1.137   5.799  0.2688  0.1654 -0.5746
 7847SOL    HW135000   0.803   1.088   5.854  0.8955 -1.6381 -1.4945
 7847SOL    HW235001   0.941   1.148   5.853  0.3411 -0.9382 -0.4470
 7848SOL     OW35002   1.104   0.045   2.968 -0.1664 -0.1631 -0.2097
 7848SOL    HW135003   1.031   0.104   2.986  1.0073  1.1873  0.0679
 7848SOL    HW235004   1.079   4.684   3.011 -1.8584  1.9782  2.9300
 7849SOL     OW35005   2.876   1.635   7.340 -0.2921  0.8516 -0.2448
 7849SOL    HW135006   2.937   1.576   7.384  1.5447  0.6181 -3.1131
 7849SOL    HW235007   2.885   1.712   7.396  0.1481  1.4416 -1.1241
 7850SOL     OW35008   4.103   2.890  11.543 -0.2323  0.0827  0.2422
 7850SOL    HW135009   4.015   2.908  11.512  0.3302  0.8941 -0.8766
 7850SOL    HW235010   4.147   2.975  11.532  2.1971 -1.1672  0.3201
 7851SOL     OW35011   0.506   3.741   0.824 -0.1644 -0.4782 -0.1706
 7851SOL    HW135012   0.532   3.739   0.732  0.0920 -1.3367 -0.0824
 7851SOL    HW235013   0.538   3.652   0.843  2.1437  0.3689 -0.0876
 7852SOL     OW35014   3.284   2.979   4.035 -0.1677 -0.1972  0.2533
 7852SOL    HW135015   3.322   3.035   3.967  2.2338  0.6589  2.3140
 7852SOL    HW235016   3.369   2.941   4.058 -0.2552 -1.3765 -1.4109
 7853SOL     OW35017   2.413   0.667   9.959  0.0207  0.0044  0.3117
 7853SOL    HW135018   2.431   0.581   9.998 -1.8890  0.1864  1.6237
 7853SOL    HW235019   2.412   0.719  10.040 -0.2924  0.1065  0.2414
 7854SOL     OW35020   1.008   2.302   1.104  0.0136  0.7112  0.2696
 7854SOL    HW135021   1.094   2.262   1.107  0.1562  0.9675 -0.3883
 7854SOL    HW235022   0.950   2.229   1.080  0.6597  0.2023  0.2505
 7855SOL     OW35023   2.628   4.157   2.388  0.5174 -0.4090 -0.2123
 7855SOL    HW135024   2.589   4.172   2.302 -0.3486  1.8522  0.5721
 7855SOL    HW235025   2.555   4.160   2.450  0.4435  0.2712 -0.3345
 7856SOL     OW35026   4.474   3.288   5.140  0.5934  0.2168  0.0870
 7856SOL    HW135027   4.472   3.337   5.058 -0.6729  2.4613  1.4526
 7856SOL    HW235028   4.554   3.238   5.126  1.9703  2.5202 -0.2907
 7857SOL     OW35029   1.070   3.005   4.387 -0.3234  0.8213 -0.2704
 7857SOL    HW135030   1.049   3.082   4.440  0.5778 -0.1867  1.5578
 7857SOL    HW235031   1.070   2.942   4.459  0.7464  0.9565 -0.1439
 7858SOL     OW35032   4.418   4.146   8.457 -0.9137 -0.0342 -0.3189
 7858SOL    HW135033   4.333   4.104   8.470 -1.4373  0.9680 -0.5144
 7858SOL    HW235034   4.479   4.080   8.487  0.8499 -0.0138 -3.8299
 7859SOL     OW35035   2.055   2.799   1.083  0.0498 -0.2052  0.0703
 7859SOL    HW135036   1.962   2.778   1.081  0.1802 -1.0934  2.9945
 7859SOL    HW235037   2.053   2.868   1.017  0.6270 -0.4399 -0.1931
 7860SOL     OW35038   2.975   3.660  12.455  0.4980 -0.3394  0.2210
 7860SOL    HW135039   3.059   3.622  12.484 -0.2802 -0.2364  2.6086
 7860SOL    HW235040   2.977   3.644  12.361  0.6265  0.1198  0.1461
 7861SOL     OW35041   1.811   1.398   8.113 -0.4495  0.1708 -0.0663
 7861SOL    HW135042   1.854   1.417   8.196 -1.0651  1.7750 -0.1083
 7861SOL    HW235043   1.747   1.468   8.103  0.7686  1.1582 -0.9865
 7862SOL     OW35044   1.311   0.002   5.449  0.6182  0.4532  0.1561
 7862SOL    HW135045   1.218   0.015   5.469  0.3667 -1.5829  0.2694
 7862SOL    HW235046   1.316   4.669   5.370  0.3852 -0.9837  1.1378
 7863SOL     OW35047   0.521   3.918   0.568  0.9421  0.0340  0.2542
 7863SOL    HW135048   0.455   3.963   0.516 -0.0558 -2.1506 -0.3822
 7863SOL    HW235049   0.585   3.989   0.565 -0.4044  1.0453 -3.7821
 7864SOL     OW35050   4.437   3.701   8.012  0.1244  0.4055  0.1516
 7864SOL    HW135051   4.376   3.634   7.982  1.6982 -0.9504 -0.0095
 7864SOL    HW235052   4.464   3.676   8.101  0.2977  2.4136  0.6677
 7865SOL     OW35053   2.996   0.179   7.775  0.1660  0.3054 -0.3770
 7865SOL    HW135054   2.929   0.224   7.725 -1.0548  0.7272  1.6135
 7865SOL    HW235055   2.951   0.097   7.795  0.2751  0.4986  0.6930
 7866SOL     OW35056   2.404   3.108   0.162  0.2531 -0.2206  0.6355
 7866SOL    HW135057   2.320   3.069   0.135  0.4953 -0.0462 -0.3763
 7866SOL    HW235058   2.436   3.030   0.207  3.0515  1.5049  1.5731
 7867SOL     OW35059   1.820   1.640   6.184 -0.4512 -0.0688 -0.2234
 7867SOL    HW135060   1.741   1.600   6.148  0.0205 -0.2460 -1.0615
 7867SOL    HW235061   1.861   1.683   6.108 -1.8166 -2.2318 -2.1876
 7868SOL     OW35062   4.297   4.572   4.596 -0.2160  0.2812 -0.4074
 7868SOL    HW135063   4.221   4.551   4.542 -0.9612 -0.7869  1.0425
 7868SOL    HW235064   4.315   4.485   4.632 -1.2292 -0.1093 -0.8400
 7869SOL     OW35065   2.483   2.323   4.507 -0.3224  0.8765 -0.2623
 7869SOL    HW135066   2.451   2.236   4.531  1.3298  0.4015  0.2164
 7869SOL    HW235067   2.526   2.300   4.425  0.8856  1.4283  0.2234
 7870SOL     OW35068   0.282   2.649  14.836  0.0690 -0.4346 -0.6288
 7870SOL    HW135069   0.318   2.721  14.889  0.0591  0.5814 -1.9949
 7870SOL    HW235070   0.255   2.685  14.752  2.2328 -1.2976 -1.6816
 7871SOL     OW35071   4.677   0.026   5.695 -0.1054  0.1823  0.2987
 7871SOL    HW135072   0.036   0.028   5.644  0.0497  0.2319  0.5439
 7871SOL    HW235073   4.707   0.071   5.774 -0.8715 -1.0137  1.2597
 7872SOL     OW35074   1.276   3.670   9.895 -0.4391  0.2264  0.2432
 7872SOL    HW135075   1.371   3.679   9.899 -0.5339  1.3831 -0.0330
 7872SOL    HW235076   1.254   3.755   9.855  0.0050  0.0483 -0.3808
 7873SOL     OW35077   3.190   0.185  15.225  0.4359  0.5640 -0.0391
 7873SOL    HW135078   3.192   0.223  15.313 -0.1900  0.9157 -0.1813
 7873SOL    HW235079   3.101   0.205  15.196  0.4590 -0.5437 -0.8721
 7874SOL     OW35080   3.826   1.739   4.768  0.0499 -0.4580 -0.1464
 7874SOL    HW135081   3.823   1.813   4.829 -1.1560  0.6826 -1.5610
 7874SOL    HW235082   3.755   1.685   4.802  0.3978 -2.2428 -2.2724
 7875SOL     OW35083   3.923   1.845   8.147  0.7781  0.5967  0.9971
 7875SOL    HW135084   3.855   1.893   8.194  0.4066 -0.3339  1.4196
 7875SOL    HW235085   3.978   1.800   8.212  1.6397  0.5414  0.2283
 7876SOL     OW35086   2.926   4.034   3.993  0.1476 -0.3024 -0.1479
 7876SOL    HW135087   2.900   4.088   4.068 -0.4109  0.8980 -1.2180
 7876SOL    HW235088   2.964   4.100   3.936  0.6802 -0.5977 -0.1380
 7877SOL     OW35089   3.416   2.741   8.386  0.2981  0.3406  0.3081
 7877SOL    HW135090   3.381   2.661   8.424 -1.5785  0.4937 -1.0691
 7877SOL    HW235091   3.399   2.811   8.449  3.6191  1.3820  0.0579
 7878SOL     OW35092   3.554   1.814   6.346  0.0219  0.2504 -0.2414
 7878SOL    HW135093   3.560   1.875   6.420  1.0886  0.0088 -0.1352
 7878SOL    HW235094   3.464   1.833   6.319 -0.1734  0.8688  0.8300
 7879SOL     OW35095   1.662   4.676   1.020 -0.1613 -0.3312 -0.0600
 7879SOL    HW135096   1.571   4.683   1.050 -1.0185 -2.8151 -2.0350
 7879SOL    HW235097   1.679   0.048   1.021 -0.5764 -0.2534 -0.4141
 7880SOL     OW35098   0.918   4.164   8.571  0.1372  0.5525  0.2144
 7880SOL    HW135099   0.991   4.128   8.522 -0.0539 -0.6259  0.7939
 7880SOL    HW235100   0.950   4.255   8.576 -0.2882  0.7137  0.0028
 7881SOL     OW35101   0.367   3.047   6.543 -0.2600  0.3454 -0.3496
 7881SOL    HW135102   0.437   2.982   6.545  1.0911  1.8410  1.3143
 7881SOL    HW235103   0.406   3.130   6.514  1.9044 -1.2593 -1.9737
 7882SOL     OW35104   3.809   4.580  11.690 -0.5729  0.2222 -0.1591
 7882SOL    HW135105   3.724   4.536  11.686 -0.0926 -0.6742 -0.3141
 7882SOL    HW235106   3.855   4.526  11.754 -0.9935  1.4307  1.1814
 7883SOL     OW35107   2.700   0.649  12.255 -0.2711 -0.0804  0.9151
 7883SOL    HW135108   2.716   0.616  12.343  5.5814 -0.7012 -0.3903
 7883SOL    HW235109   2.761   0.587  12.215  0.3716  1.5011 -0.5428
 7884SOL     OW35110   0.646   1.050  11.274 -0.3444  0.2442 -0.0653
 7884SOL    HW135111   0.558   1.058  11.311 -0.8044  2.4448 -1.6976
 7884SOL    HW235112   0.710   1.058  11.345 -2.8951 -0.9438  2.3872
 7885SOL     OW35113   2.462   1.354   7.248 -0.2329  0.0820  0.1358
 7885SOL    HW135114   2.409   1.418   7.295 -1.2710 -1.3688  0.9813
 7885SOL    HW235115   2.533   1.414   7.228 -0.0933  1.0195  3.3914
 7886SOL     OW35116   3.024   3.503  10.035  0.2371 -0.1116  0.3367
 7886SOL    HW135117   2.995   3.511  10.126  2.3068 -1.2689  1.0830
 7886SOL    HW235118   2.995   3.412  10.022  1.4953 -0.5156  0.3775
 7887SOL     OW35119   0.170   0.056   4.552 -0.4882  0.1942  0.2358
 7887SOL    HW135120   0.170   4.712   4.482 -1.8077  2.5647 -2.0043
 7887SOL    HW235121   0.111   0.014   4.615 -0.2402 -2.1426 -1.0905
 7888SOL     OW35122   4.291   0.631  12.429 -0.1868  0.4470  0.2207
 7888SOL    HW135123   4.216   0.621  12.370  0.5446 -2.9095 -0.1059
 7888SOL    HW235124   4.251   0.639  12.516 -0.8761 -0.1629 -0.0374
 7889SOL     OW35125   1.520   2.344   2.153 -0.4036  0.8810  0.2056
 7889SOL    HW135126   1.425   2.350   2.161 -0.2856 -1.3636  3.0931
 7889SOL    HW235127   1.532   2.322   2.060  0.1762  0.5230  0.3609
 7890SOL     OW35128   1.315   1.996   8.211  0.4904 -0.1907  0.2114
 7890SOL    HW135129   1.338   2.083   8.177 -0.6800  0.2490  0.5305
 7890SOL    HW235130   1.229   1.987   8.170  0.7383  1.8022 -0.7444
 7891SOL     OW35131   4.406   2.323   0.402 -0.0305  0.1266 -0.2693
 7891SOL    HW135132   4.462   2.382   0.351 -0.5071  1.3052  0.5689
 7891SOL    HW235133   4.444   2.237   0.384  1.8999  1.4994 -2.5995
 7892SOL     OW35134   0.812   0.283  12.822 -0.1048  0.0526  0.2212
 7892SOL    HW135135   0.889   0.298  12.877 -0.9890  0.9776  1.1873
 7892SOL    HW235136   0.742   0.302  12.884 -1.1189 -1.6613 -0.4120
 7893SOL     OW35137   0.839   4.309   3.721 -0.0048  0.2470  0.1458
 7893SOL    HW135138   0.780   4.250   3.768 -0.9170  0.0669 -1.2334
 7893SOL    HW235139   0.919   4.257   3.734 -1.2401 -1.2648  1.8179
 7894SOL     OW35140   3.393   0.484   5.575  0.1150 -0.2687 -0.1164
 7894SOL    HW135141   3.488   0.491   5.566  0.0840 -0.1433 -0.3434
 7894SOL    HW235142   3.387   0.440   5.660  1.0279 -0.9637 -0.4069
 7895SOL     OW35143   2.699   0.517   1.301 -0.1609  0.0694 -0.8418
 7895SOL    HW135144   2.658   0.487   1.220 -0.9460 -0.7907 -0.1342
 7895SOL    HW235145   2.643   0.591   1.325  0.1600 -0.5400  1.8208
 7896SOL     OW35146   2.206   2.054  11.180 -0.0334  0.3872 -0.6474
 7896SOL    HW135147   2.215   2.044  11.275 -1.0568  1.3214 -0.4578
 7896SOL    HW235148   2.202   2.149  11.169 -2.5197  0.3617 -0.0175
 7897SOL     OW35149   1.267   1.401  14.074 -0.0249  0.4119 -0.1905
 7897SOL    HW135150   1.236   1.401  13.984 -0.0653 -1.9488 -0.1856
 7897SOL    HW235151   1.185   1.397  14.125 -0.4993  0.7329 -0.9275
 7898SOL     OW35152   0.710   2.139   8.220 -0.0381  0.5158 -0.2135
 7898SOL    HW135153   0.660   2.189   8.157 -1.3609 -0.9321 -0.3314
 7898SOL    HW235154   0.709   2.198   8.296  1.3804 -0.7509  0.8219
 7899SOL     OW35155   0.006   0.418   2.803 -0.3930 -0.1008  0.3023
 7899SOL    HW135156   0.021   0.390   2.894 -1.2382  0.2532  0.5484
 7899SOL    HW235157   4.632   0.413   2.796 -0.4618  0.6270  0.7094
 7900SOL     OW35158   0.664   1.378   3.797 -0.4168 -0.3024  0.2178
 7900SOL    HW135159   0.651   1.349   3.707 -1.0228  0.3635  0.0925
 7900SOL    HW235160   0.609   1.314   3.843 -0.5124 -0.4274 -0.0698
 7901SOL     OW35161   2.158   0.134  15.611  0.9222  0.6092  0.0106
 7901SOL    HW135162   2.129   0.223  15.591 -2.5529 -0.4910  0.1977
 7901SOL    HW235163   2.247   0.149  15.643 -0.1704  1.4009  2.6562
 7902SOL     OW35164   1.374   0.861   7.531 -0.1252  0.4742 -0.5136
 7902SOL    HW135165   1.362   0.767   7.548 -0.5783  0.8186  1.0415
 7902SOL    HW235166   1.462   0.865   7.494 -0.5804  0.3129 -1.6248
 7903SOL     OW35167   1.764   0.737   1.039 -0.1955  0.3580 -0.0747
 7903SOL    HW135168   1.712   0.765   1.115  1.5187 -2.5079  2.1396
 7903SOL    HW235169   1.845   0.725   1.089 -1.8369  1.9936  3.0366
 7904SOL     OW35170   2.026   0.028   7.305  0.2386  0.1940  0.2037
 7904SOL    HW135171   2.083   4.675   7.326  0.6953 -0.2513 -2.5437
 7904SOL    HW235172   2.067   0.096   7.359 -0.2594  1.5486 -1.1106
 7905SOL     OW35173   0.305   2.511  14.434 -0.2106  0.0336  0.0433
 7905SOL    HW135174   0.294   2.595  14.479 -2.5396 -0.2196 -0.0386
 7905SOL    HW235175   0.386   2.479  14.473 -0.9931 -2.4356 -0.3421
 7906SOL     OW35176   1.119   2.721   8.168  0.4121 -0.2120  0.0782
 7906SOL    HW135177   1.213   2.701   8.168  0.2922 -0.7689 -1.0234
 7906SOL    HW235178   1.122   2.816   8.179 -1.1608 -0.2160  0.5561
 7907SOL     OW35179   2.618   0.635   2.860 -0.8181 -0.1117 -0.2408
 7907SOL    HW135180   2.613   0.539   2.864 -2.4417  0.0222  1.0089
 7907SOL    HW235181   2.601   0.658   2.769  3.2928  2.6552 -0.3007
 7908SOL     OW35182   4.528   1.468   4.433 -0.5330  0.2470 -0.0476
 7908SOL    HW135183   4.605   1.526   4.435  0.0738 -0.5705  0.0791
 7908SOL    HW235184   4.568   1.383   4.451 -0.5203  0.4874  1.0748
 7909SOL     OW35185   4.629   0.936   4.522 -0.3202  0.0727 -0.2513
 7909SOL    HW135186   4.555   0.916   4.579 -0.3657 -1.0515 -0.6959
 7909SOL    HW235187   4.662   0.855   4.483 -1.4713  0.2201 -1.5490
 7910SOL     OW35188   1.394   2.902   2.923  0.6617  0.2732  0.4432
 7910SOL    HW135189   1.381   2.812   2.894 -0.6358  0.3277  0.8648
 7910SOL    HW235190   1.308   2.944   2.917  0.7557  0.4768  0.5276
 7911SOL     OW35191   2.356   0.535  17.299  0.3474  0.0968 -0.1173
 7911SOL    HW135192   2.424   0.537  17.232  0.7953  3.2570  0.4457
 7911SOL    HW235193   2.398   0.581  17.372  2.0138 -0.6260 -0.6282
 7912SOL     OW35194   0.815   2.349   7.808 -0.2119 -0.0414  0.2600
 7912SOL    HW135195   0.906   2.377   7.811 -0.0930 -0.4422  0.4191
 7912SOL    HW235196   0.812   2.303   7.724  0.4344 -1.8323  1.2101
 7913SOL     OW35197   0.960   0.628  10.504  0.5190 -0.9480  0.1632
 7913SOL    HW135198   0.911   0.707  10.482  1.2797 -0.4986  0.0741
 7913SOL    HW235199   1.037   0.661  10.551  1.3413 -1.4099 -0.8407
 7914SOL     OW35200   2.220   2.630   8.141 -0.1490 -0.6767 -0.1825
 7914SOL    HW135201   2.263   2.581   8.211 -1.9148 -0.7837  0.8284
 7914SOL    HW235202   2.176   2.704   8.182 -2.5282 -2.5558  0.6305
 7915SOL     OW35203   3.267   3.388   3.727 -0.4132 -0.6662 -0.2857
 7915SOL    HW135204   3.218   3.367   3.647 -1.3366 -1.9121  0.5964
 7915SOL    HW235205   3.192   3.403   3.785  0.0669  3.1618 -0.6945
 7916SOL     OW35206   0.249   1.955   2.929  0.2365 -0.1467  0.2364
 7916SOL    HW135207   0.246   1.872   2.976 -0.1178  0.5036  1.3398
 7916SOL    HW235208   0.228   2.017   2.998  0.4916 -1.0197  1.0929
 7917SOL     OW35209   1.581   2.181   3.644 -0.4574 -0.7786 -0.1736
 7917SOL    HW135210   1.631   2.149   3.719 -1.4802 -0.1975  0.7675
 7917SOL    HW235211   1.531   2.249   3.689 -0.2079 -1.2932  0.8686
 7918SOL     OW35212   1.786   1.136  13.358 -0.2492 -0.0167  0.2466
 7918SOL    HW135213   1.772   1.131  13.453  1.5354 -0.5279  0.4871
 7918SOL    HW235214   1.727   1.207  13.333  2.2212  2.1880  0.6145
 7919SOL     OW35215   2.691   0.879   3.852  0.5209 -0.1556 -0.5377
 7919SOL    HW135216   2.742   0.954   3.823 -1.3877  1.4012  0.1218
 7919SOL    HW235217   2.626   0.877   3.781 -1.5229  0.0532  1.3360
 7920SOL     OW35218   3.949   4.557  15.974  0.1620  0.3891 -0.0069
 7920SOL    HW135219   4.001   4.537  15.897 -0.8080 -0.1189 -0.5318
 7920SOL    HW235220   4.005   4.526  16.046  0.6716  0.1372 -0.5181
 7921SOL     OW35221   2.869   1.336   1.036 -0.5628 -0.3214  0.1017
 7921SOL    HW135222   2.864   1.431   1.021  1.2244 -0.2817 -0.1651
 7921SOL    HW235223   2.782   1.336   1.076 -1.2081 -0.7556 -1.3177
 7922SOL     OW35224   3.902   4.334   7.085  0.0040  1.2490 -0.2008
 7922SOL    HW135225   3.982   4.378   7.058  0.5073  0.7943  0.5377
 7922SOL    HW235226   3.890   4.288   7.002  1.8748 -0.0946  0.2767
 7923SOL     OW35227   4.680   0.331   6.084  0.4900 -0.3540 -0.5265
 7923SOL    HW135228   4.712   0.314   6.172 -2.5326  0.1062  0.6529
 7923SOL    HW235229   0.023   0.284   6.030 -1.8662 -2.1616 -1.7827
 7924SOL     OW35230   2.141   2.391  17.531 -0.1899 -0.0710  0.0646
 7924SOL    HW135231   2.203   2.376  17.602  1.5468  1.0424 -1.2113
 7924SOL    HW235232   2.067   2.337  17.561  1.4996 -1.3992  1.8697
 7925SOL     OW35233   0.766   2.953   2.835  0.0765  0.1908 -0.0986
 7925SOL    HW135234   0.673   2.970   2.848  0.4918  2.1965  0.2602
 7925SOL    HW235235   0.792   3.013   2.765  1.2958  0.9297  0.9893
 7926SOL     OW35236   3.404   2.228   7.711  0.8813  0.1416 -0.1854
 7926SOL    HW135237   3.449   2.144   7.705  1.6108  0.4296  1.2224
 7926SOL    HW235238   3.464   2.277   7.767  0.2031  1.3932 -0.5437
 7927SOL     OW35239   1.440   3.935   2.758  0.0805 -0.2948 -0.1895
 7927SOL    HW135240   1.522   3.977   2.730  1.6426 -1.2904  2.9190
 7927SOL    HW235241   1.456   3.847   2.724 -0.3426 -0.4665  0.0590
 7928SOL     OW35242   3.716   0.368   8.676  0.1797  0.4896 -0.1276
 7928SOL    HW135243   3.702   0.279   8.708  0.8599  0.3397 -0.2665
 7928SOL    HW235244   3.800   0.387   8.717  0.3527  1.4996 -0.9401
 7929SOL     OW35245   2.356   4.716   8.096  0.5403  0.2838 -0.4304
 7929SOL    HW135246   2.312   4.646   8.143 -0.8402  0.6925 -1.1017
 7929SOL    HW235247   2.374   4.675   8.011  1.7228 -0.7264  0.3164
 7930SOL     OW35248   1.674   3.522  17.404 -0.2611  0.0404 -0.2924
 7930SOL    HW135249   1.686   3.588  17.472 -0.6748 -0.1837  0.0022
 7930SOL    HW235250   1.612   3.465  17.450 -0.3584 -0.0594 -0.5465
 7931SOL     OW35251   3.783   2.483   4.172  0.1013 -0.2910  0.0216
 7931SOL    HW135252   3.807   2.524   4.256  1.4886 -1.1078  0.0159
 7931SOL    HW235253   3.785   2.393   4.203  2.4367  0.8128  3.1867
 7932SOL     OW35254   2.929   1.850  15.660  0.1935 -0.1496  0.1114
 7932SOL    HW135255   2.861   1.902  15.703  1.5284  1.9367 -0.2977
 7932SOL    HW235256   2.903   1.869  15.570  1.7640  1.8557  0.0730
 7933SOL     OW35257   2.417   2.800   4.632 -0.1407 -0.1212  0.4776
 7933SOL    HW135258   2.425   2.880   4.684  3.4678  0.0036 -0.2764
 7933SOL    HW235259   2.328   2.781   4.661 -0.7253  0.8083 -0.6960
 7934SOL     OW35260   0.534   0.563   6.715 -0.4953  0.8793  0.2764
 7934SOL    HW135261   0.498   0.631   6.771  0.6974  1.7561 -0.0038
 7934SOL    HW235262   0.493   0.579   6.630 -1.0512  1.5358  0.6689
 7935SOL     OW35263   3.262   0.653  12.015 -0.7553 -0.0453 -0.0247
 7935SOL    HW135264   3.338   0.710  12.025 -0.6209 -0.2539  0.1302
 7935SOL    HW235265   3.202   0.710  12.064  1.9438  2.8793 -0.0967
 7936SOL     OW35266   4.504   1.501   6.095  0.1347 -1.2047 -0.1038
 7936SOL    HW135267   4.570   1.538   6.036  1.8389 -1.8623  1.3805
 7936SOL    HW235268   4.462   1.439   6.036 -0.7869 -3.2039  2.6707
 7937SOL     OW35269   0.927   3.483  17.386  0.2641 -0.3008  0.3201
 7937SOL    HW135270   0.973   3.458  17.466 -2.3673 -1.8243  1.3367
 7937SOL    HW235271   1.004   3.493  17.330  0.6912 -2.1204  0.5835
 7938SOL     OW35272   2.515   2.231   4.210  0.0871 -0.3471 -0.2837
 7938SOL    HW135273   2.605   2.200   4.222  0.2288  1.0612  2.4132
 7938SOL    HW235274   2.523   2.241   4.116 -1.9116 -0.0281 -0.4316
 7939SOL     OW35275   2.555   0.934   4.659 -0.2012 -0.5983  0.1691
 7939SOL    HW135276   2.554   0.987   4.739  1.7202 -0.2539 -0.0316
 7939SOL    HW235277   2.624   0.979   4.609  1.0092 -1.3601  1.1444
 7940SOL     OW35278   2.021   0.421  17.585  0.2911  0.1002  0.2113
 7940SOL    HW135279   1.948   0.482  17.575 -0.5016 -1.0805 -1.1266
 7940SOL    HW235280   2.089   0.484  17.557  1.1760 -0.3604  1.3319
 7941SOL     OW35281   0.691   3.240   4.111 -0.3324 -0.2745  0.1724
 7941SOL    HW135282   0.671   3.325   4.070 -0.5309 -1.3898 -2.0661
 7941SOL    HW235283   0.704   3.273   4.200  0.7353 -0.9915  0.2905
 7942SOL     OW35284   1.270   3.229   3.583  0.2654  0.0795  0.2069
 7942SOL    HW135285   1.222   3.302   3.546  0.1795  0.3645  0.8926
 7942SOL    HW235286   1.361   3.257   3.571  0.1984  0.3613  0.3723
 7943SOL     OW35287   2.743   0.759   0.258  0.2536  0.1848 -0.2128
 7943SOL    HW135288   2.790   0.843   0.255  1.5467 -0.4990  0.8989
 7943SOL    HW235289   2.656   0.788   0.231 -1.3979 -0.8034  4.1005
 7944SOL     OW35290   1.977   0.727   6.462 -0.3189  0.7523 -0.1030
 7944SOL    HW135291   1.996   0.633   6.458  0.5587  0.8834  0.8246
 7944SOL    HW235292   1.885   0.729   6.489 -1.0181 -0.7077 -2.3418
 7945SOL     OW35293   0.497   4.436   4.350  0.5545  0.0796 -0.0555
 7945SOL    HW135294   0.449   4.355   4.334 -0.1442  0.3756  0.5655
 7945SOL    HW235295   0.523   4.411   4.439 -0.0135 -0.9029 -0.1685
 7946SOL     OW35296   1.155   4.698   8.015  0.3676  0.3944  0.7094
 7946SOL    HW135297   1.078   4.642   8.008 -0.1771  1.3843 -1.3194
 7946SOL    HW235298   1.113   0.062   8.031  0.1220  0.5734 -0.8676
 7947SOL     OW35299   2.431   1.082   9.032 -0.4267 -0.0927  0.3321
 7947SOL    HW135300   2.425   0.996   8.989 -2.5895  0.0847  0.3132
 7947SOL    HW235301   2.525   1.082   9.051 -0.3129 -0.0849 -0.2241
 7948SOL     OW35302   3.480   1.947   6.043 -0.3769 -0.1740 -0.3321
 7948SOL    HW135303   3.480   1.866   6.094 -2.2022  1.0225  1.5584
 7948SOL    HW235304   3.559   1.988   6.078 -1.2117  0.8627  0.3537
 7949SOL     OW35305   1.722   1.797   5.961  0.4601 -0.2165 -0.5990
 7949SOL    HW135306   1.744   1.865   5.898  0.4205  1.5910  1.3345
 7949SOL    HW235307   1.735   1.716   5.912  2.4712  1.0920 -2.2137
 7950SOL     OW35308   4.644   2.854   2.194 -0.6281 -0.4940  0.2989
 7950SOL    HW135309   4.552   2.872   2.214 -0.7121 -0.8265  0.2093
 7950SOL    HW235310   4.700   2.925   2.227 -0.4750  0.6096 -2.3543
 7951SOL     OW35311   2.033   4.306  11.774  0.6838 -0.4324 -0.6477
 7951SOL    HW135312   2.020   4.358  11.694 -0.4534  1.8078  1.0140
 7951SOL    HW235313   2.107   4.357  11.808 -1.0713  1.1567  0.7650
 7952SOL     OW35314   3.219   0.910   5.853  0.1766 -0.3614 -0.4928
 7952SOL    HW135315   3.254   0.929   5.940 -1.0134  1.7796 -0.4787
 7952SOL    HW235316   3.210   0.815   5.852 -0.6049 -0.2996  0.8087
 7953SOL     OW35317   0.450   1.468   5.418 -0.4675 -0.2629  0.1569
 7953SOL    HW135318   0.419   1.494   5.505  0.9097 -0.8179  0.8058
 7953SOL    HW235319   0.534   1.514   5.417  0.3212 -1.7098 -1.7981
 7954SOL     OW35320   0.716   1.554  12.114 -0.4680  0.3363 -0.2724
 7954SOL    HW135321   0.674   1.507  12.043 -0.2468 -0.5271  0.1675
 7954SOL    HW235322   0.705   1.493  12.186  0.4035 -0.7458 -1.0633
 7955SOL     OW35323   3.700   1.574  14.614  0.1121 -0.3609  0.2202
 7955SOL    HW135324   3.718   1.504  14.552  0.3389  1.4004 -1.7240
 7955SOL    HW235325   3.745   1.540  14.691  1.1472 -0.8860 -0.6153
 7956SOL     OW35326   4.123   0.802   3.637 -0.4362 -0.2785 -0.5935
 7956SOL    HW135327   4.034   0.832   3.658 -1.1713 -2.0399 -1.2162
 7956SOL    HW235328   4.104   0.709   3.647 -2.1271  0.2625  1.2205
 7957SOL     OW35329   0.315   3.332   5.448  0.2804 -0.1878  0.4027
 7957SOL    HW135330   0.221   3.333   5.466  0.2678 -0.9133  0.3754
 7957SOL    HW235331   0.343   3.264   5.510 -1.4730 -1.7229 -0.5125
 7958SOL     OW35332   3.993   1.461   2.145  0.0223  0.1831 -0.2903
 7958SOL    HW135333   3.946   1.474   2.227  0.5338 -1.4059  0.2577
 7958SOL    HW235334   4.071   1.419   2.182 -1.5150 -0.0760  2.6170
 7959SOL     OW35335   4.402   3.506  12.023  0.3245 -0.0782  0.7521
 7959SOL    HW135336   4.379   3.420  11.990 -0.4570  0.3295  0.2305
 7959SOL    HW235337   4.313   3.530  12.052  0.7440  0.4585  1.6176
 7960SOL     OW35338   3.710   1.142   6.609  0.0014 -0.3838  0.0315
 7960SOL    HW135339   3.741   1.233   6.610 -0.4802 -0.1848 -3.6810
 7960SOL    HW235340   3.684   1.116   6.698 -0.2284  2.5944  0.8354
 7961SOL     OW35341   0.062   1.047   5.113  0.0323  0.3620 -0.0329
 7961SOL    HW135342   0.052   1.135   5.147  0.1429  0.2439  0.3064
 7961SOL    HW235343   0.076   0.991   5.189  1.3027 -0.1244 -0.6202
 7962SOL     OW35344   1.275   4.243   5.069 -0.0813  0.0086  0.1700
 7962SOL    HW135345   1.301   4.315   5.012  0.5149 -0.0578  0.3537
 7962SOL    HW235346   1.180   4.252   5.075 -0.2045 -0.5126 -1.0559
 7963SOL     OW35347   2.162   3.338   7.645  0.0506 -0.5450 -0.4251
 7963SOL    HW135348   2.108   3.414   7.623  2.1210  1.9105  2.8639
 7963SOL    HW235349   2.188   3.306   7.559  3.1192  1.1589 -0.1274
 7964SOL     OW35350   0.125   1.472   2.849  0.8546  0.1255 -0.0919
 7964SOL    HW135351   0.139   1.408   2.919 -1.4203 -0.7260 -0.4106
 7964SOL    HW235352   0.040   1.440   2.817 -0.1796  1.9183  0.8287
 7965SOL     OW35353   4.407   4.354  10.052 -0.0700 -0.6083 -0.0304
 7965SOL    HW135354   4.419   4.362   9.958  2.3521  1.6523  0.4620
 7965SOL    HW235355   4.497   4.339  10.082 -0.0532 -0.2405  0.1079
 7966SOL     OW35356   3.238   4.414   1.572  0.3057  0.0226  0.0089
 7966SOL    HW135357   3.245   4.322   1.600 -0.0745  0.7536  2.4398
 7966SOL    HW235358   3.325   4.417   1.531 -0.5697 -1.2180 -1.9286
 7967SOL     OW35359   3.949   4.691  15.075 -0.3589 -0.1404  0.3302
 7967SOL    HW135360   3.860   4.676  15.043  0.3459  0.3055 -1.8492
 7967SOL    HW235361   3.968   4.605  15.111  2.0045  1.3514  2.6787
 7968SOL     OW35362   4.276   1.439  17.224  0.0542  0.0335 -0.6907
 7968SOL    HW135363   4.230   1.517  17.256 -0.6801 -1.4230  1.8585
 7968SOL    HW235364   4.310   1.478  17.144 -0.0842 -0.3327 -0.9262
 7969SOL     OW35365   0.484   2.968   7.766 -0.3738 -0.3482  0.2144
 7969SOL    HW135366   0.517   2.948   7.854  1.2750 -0.5499 -0.4594
 7969SOL    HW235367   0.423   3.040   7.782  0.8012  0.7683 -0.3911
 7970SOL     OW35368   1.847   0.230   4.771 -0.6534 -0.3037 -0.6125
 7970SOL    HW135369   1.890   0.227   4.856  1.7961 -0.0385 -1.8687
 7970SOL    HW235370   1.895   0.293   4.719 -3.0671  0.0058 -2.4976
 7971SOL     OW35371   1.479   3.888  10.142  0.2074 -0.2647  0.2509
 7971SOL    HW135372   1.574   3.885  10.134  0.2446  1.1755  0.1263
 7971SOL    HW235373   1.447   3.818  10.085  0.0598  0.4317 -0.5238
 7972SOL     OW35374   2.835   1.059   1.456 -0.2816  0.7988  0.1253
 7972SOL    HW135375   2.786   1.062   1.538 -1.4049 -0.3021 -0.5124
 7972SOL    HW235376   2.866   1.150   1.452  1.3983  0.2896  1.7013
 7973SOL     OW35377   2.094   3.226   2.568  0.4544 -0.1439  0.1493
 7973SOL    HW135378   2.014   3.172   2.572 -0.6736  1.5710  0.8783
 7973SOL    HW235379   2.133   3.207   2.654  1.9719 -1.6625 -0.8730
 7974SOL     OW35380   4.487   0.971   3.380 -0.7560 -0.0016  0.1411
 7974SOL    HW135381   4.402   0.953   3.422 -0.8546 -0.6759 -0.3552
 7974SOL    HW235382   4.499   1.064   3.401 -0.0264  0.5448 -2.7635
 7975SOL     OW35383   0.138   2.596   4.499 -0.2727  0.2937 -0.4111
 7975SOL    HW135384   0.070   2.640   4.448  0.6235  1.7696 -0.3230
 7975SOL    HW235385   0.189   2.667   4.538 -1.9704  1.2396  0.0874
 7976SOL     OW35386   3.019   1.572   3.090 -0.1470  0.4654 -0.0425
 7976SOL    HW135387   3.026   1.516   3.013 -1.0447  0.1816  0.0862
 7976SOL    HW235388   2.949   1.635   3.070 -0.4272 -0.7729 -2.9572
 7977SOL     OW35389   2.625   0.782   1.717  0.1003 -0.0375 -1.1687
 7977SOL    HW135390   2.705   0.731   1.731  0.4534  0.7970 -0.1011
 7977SOL    HW235391   2.615   0.827   1.801  0.4772  0.9285 -1.6369
 7978SOL     OW35392   1.242   2.169   8.458  0.4980 -0.1084  0.5892
 7978SOL    HW135393   1.248   2.111   8.533  2.5366  0.2765  0.7227
 7978SOL    HW235394   1.202   2.109   8.396  0.0117 -1.8228  2.5911
 7979SOL     OW35395   2.145   2.762   5.230 -0.4282 -0.3310 -0.1706
 7979SOL    HW135396   2.086   2.698   5.270  0.1017 -0.9636 -0.4074
 7979SOL    HW235397   2.218   2.706   5.205 -2.1822 -2.2122 -1.0026
 7980SOL     OW35398   3.765   4.327   1.188 -0.5269 -0.6400 -0.4205
 7980SOL    HW135399   3.745   4.289   1.102 -0.1600 -0.3351 -0.6424
 7980SOL    HW235400   3.745   4.252   1.244 -0.7820  0.5753  1.1114
 7981SOL     OW35401   0.567   4.258   7.928  0.6020 -0.0737 -0.2370
 7981SOL    HW135402   0.504   4.324   7.958  0.7745  1.0444 -2.3512
 7981SOL    HW235403   0.584   4.232   8.018  0.6691  0.6374 -0.0448
 7982SOL     OW35404   2.804   4.546   3.936 -0.2700 -0.2563 -0.2963
 7982SOL    HW135405   2.860   4.531   3.860 -1.5053  1.2004 -1.4817
 7982SOL    HW235406   2.754   4.467   3.958  2.3570 -1.3799  1.6830
 7983SOL     OW35407   0.253   4.660  17.524  0.8400 -0.2452  0.1208
 7983SOL    HW135408   0.268   4.609  17.445  0.4831 -0.7009  0.3473
 7983SOL    HW235409   0.340   4.658  17.563  1.7285  2.8878 -1.7202
 7984SOL     OW35410   3.940   1.644   6.642  0.0208  0.0321  0.1295
 7984SOL    HW135411   4.006   1.638   6.573  0.8945  0.8834  0.8828
 7984SOL    HW235412   3.925   1.731   6.604  0.4010  0.1214  0.1796
 7985SOL     OW35413   1.272   3.501   3.804  0.1420  0.0947  0.4197
 7985SOL    HW135414   1.350   3.449   3.823  0.6907  0.8689  0.2672
 7985SOL    HW235415   1.198   3.445   3.779 -1.0889  0.6828  2.7506
 7986SOL     OW35416   2.792   0.135   6.091  0.5799  0.3015 -0.2485
 7986SOL    HW135417   2.737   0.095   6.023  1.2332 -0.2602 -0.4336
 7986SOL    HW235418   2.764   0.084   6.166 -0.3658  1.3481  0.1163
 7987SOL     OW35419   4.083   0.189   3.550  1.0258 -0.4179  0.1695
 7987SOL    HW135420   4.103   0.223   3.463 -0.8446  1.8722  0.6478
 7987SOL    HW235421   4.172   0.185   3.585  1.5768 -0.3426 -1.1940
 7988SOL     OW35422   0.366   2.084   6.135  0.0686 -0.1317 -0.3171
 7988SOL    HW135423   0.347   2.169   6.175  1.6739 -0.0665  0.2913
 7988SOL    HW235424   0.410   2.036   6.205 -0.6188 -1.1577 -0.5839
 7989SOL     OW35425   0.884   0.445   5.101  0.2439  0.0672  0.1758
 7989SOL    HW135426   0.923   0.449   5.188  0.3428 -0.4609  0.1588
 7989SOL    HW235427   0.945   0.493   5.045  0.7246 -0.5594  0.1661
 7990SOL     OW35428   2.136   3.922   8.733  0.5114 -0.0194 -0.1546
 7990SOL    HW135429   2.219   3.970   8.744  1.0428 -0.8434 -0.5395
 7990SOL    HW235430   2.115   3.897   8.823  1.1990  0.3753  0.1216
 7991SOL     OW35431   4.156   0.997   7.329 -0.5255  0.0217  0.2781
 7991SOL    HW135432   4.164   1.083   7.370 -1.5542  0.5371 -0.6073
 7991SOL    HW235433   4.089   1.011   7.262  0.0638 -2.3839 -0.8267
 7992SOL     OW35434   2.704   1.778  12.230 -0.0613 -0.4087 -0.3976
 7992SOL    HW135435   2.610   1.765  12.244 -0.2730  1.1839 -0.3581
 7992SOL    HW235436   2.702   1.858  12.177 -0.3211 -0.2308 -0.1182
 7993SOL     OW35437   2.812   1.810   5.797  0.0713 -0.0061  0.7377
 7993SOL    HW135438   2.837   1.871   5.727  0.5584 -1.1153 -0.0587
 7993SOL    HW235439   2.718   1.823   5.806  0.1478  0.5528  0.7164
 7994SOL     OW35440   1.693   2.473   4.236  0.4835 -0.0940 -0.4089
 7994SOL    HW135441   1.699   2.377   4.233  0.8291 -0.0991  0.4870
 7994SOL    HW235442   1.657   2.491   4.322  0.0599 -1.2758 -0.3324
 7995SOL     OW35443   4.016   0.280   6.624 -0.3797  0.2008  0.1292
 7995SOL    HW135444   4.032   0.317   6.711 -0.6515  1.0574 -0.1826
 7995SOL    HW235445   3.942   0.221   6.635 -0.9916  1.2732  1.7941
 7996SOL     OW35446   1.703   3.502  12.662  0.1919 -0.2924  0.1060
 7996SOL    HW135447   1.718   3.444  12.588  1.3400  1.1809 -0.8303
 7996SOL    HW235448   1.673   3.442  12.731 -0.6624 -0.3805 -0.3423
 7997SOL     OW35449   4.132   2.545  12.759 -1.0035 -0.1960  0.3194
 7997SOL    HW135450   4.178   2.498  12.689  0.0101  1.0931  0.1265
 7997SOL    HW235451   4.057   2.487  12.775 -0.3528 -1.2980 -0.6257
 7998SOL     OW35452   2.006   3.121   8.282 -0.4751 -0.0842 -0.3360
 7998SOL    HW135453   2.072   3.111   8.351  0.0404  0.3755 -0.7700
 7998SOL    HW235454   1.991   3.030   8.257 -0.0079 -1.1682  3.2809
 7999SOL     OW35455   0.840   2.393   1.318 -0.1055 -0.7976  0.0059
 7999SOL    HW135456   0.876   2.331   1.253  0.7110  1.2484 -1.4923
 7999SOL    HW235457   0.911   2.399   1.382  0.6348 -0.9565 -0.8017
 8000SOL     OW35458   3.423   4.439   3.003 -0.2643  0.1818  0.3674
 8000SOL    HW135459   3.428   4.353   3.045  0.4176 -1.7262 -3.6323
 8000SOL    HW235460   3.473   4.410   2.926 -0.1843 -1.8174  1.1635
 8001SOL     OW35461   3.038   1.185   4.773  0.5145 -0.4851  0.1706
 8001SOL    HW135462   3.083   1.105   4.802  3.2195 -0.2477 -3.4204
 8001SOL    HW235463   3.016   1.230   4.855  1.4962 -0.7568  0.5898
 8002SOL     OW35464   4.269   3.452   3.866  0.1880  0.2876  0.0038
 8002SOL    HW135465   4.181   3.488   3.874  0.1424  0.3870 -0.9169
 8002SOL    HW235466   4.254   3.366   3.905 -0.3470  0.7300  0.7729
 8003SOL     OW35467   4.440   2.223  10.680  0.0087 -0.6933  0.4153
 8003SOL    HW135468   4.345   2.219  10.671  0.1021 -1.2410 -0.2882
 8003SOL    HW235469   4.461   2.308  10.643  1.1320  0.2394  3.1928
 8004SOL     OW35470   2.942   4.706   6.282 -0.1968  0.0183 -0.2392
 8004SOL    HW135471   3.011   0.012   6.343  0.5974  0.6767 -1.4152
 8004SOL    HW235472   2.888   0.063   6.274  0.2480  0.4254  0.6554
 8005SOL     OW35473   2.896   0.700   1.722 -0.0063  0.0155 -0.2603
 8005SOL    HW135474   2.912   0.694   1.628  0.6421  0.0380 -0.1571
 8005SOL    HW235475   2.969   0.760   1.738 -2.3193  2.5284  0.8963
 8006SOL     OW35476   2.892   0.678   5.159 -0.5838 -0.5376 -0.0442
 8006SOL    HW135477   2.850   0.623   5.093 -2.4595 -0.4758  1.1013
 8006SOL    HW235478   2.983   0.684   5.129 -1.1494  0.1884 -1.5848
 8007SOL     OW35479   3.171   4.540   5.369 -0.0764  0.6685  0.0075
 8007SOL    HW135480   3.213   4.626   5.375 -0.2750  0.8772 -1.5153
 8007SOL    HW235481   3.116   4.546   5.291 -0.3456  2.1935  0.3132
 8008SOL     OW35482   4.172   3.385  16.745 -0.2740  0.5665 -0.1510
 8008SOL    HW135483   4.231   3.400  16.818  1.0657 -1.9363 -0.7106
 8008SOL    HW235484   4.155   3.292  16.764  0.9656  0.3251 -0.2134
 8009SOL     OW35485   4.340   0.569  16.327  0.4099 -0.4396  0.0961
 8009SOL    HW135486   4.388   0.644  16.361 -0.8236  0.9037 -1.1359
 8009SOL    HW235487   4.279   0.598  16.259 -0.4574 -0.8237  0.7137
 8010SOL     OW35488   3.130   1.305  15.500  0.0827 -0.6283  0.4866
 8010SOL    HW135489   3.199   1.331  15.561 -0.1395  0.8137  0.1042
 8010SOL    HW235490   3.058   1.359  15.531 -1.3814 -1.2651 -1.8057
 8011SOL     OW35491   4.088   0.444   1.043 -0.1500  0.4107  0.1259
 8011SOL    HW135492   4.090   0.510   1.111 -1.0389  1.2719 -0.6846
 8011SOL    HW235493   4.031   0.384   1.091 -0.2451  0.4277  0.0343
 8012SOL     OW35494   2.337   1.214  10.292 -0.3630 -0.2840 -0.0713
 8012SOL    HW135495   2.305   1.303  10.287 -1.7063 -0.8610 -1.7513
 8012SOL    HW235496   2.423   1.221  10.249  0.7985 -0.7763  2.1366
 8013SOL     OW35497   4.310   1.653   8.857  0.2843  0.2074 -0.0708
 8013SOL    HW135498   4.295   1.564   8.824  0.8484  0.7202 -1.7291
 8013SOL    HW235499   4.354   1.650   8.942 -0.4258 -2.6751  0.2098
 8014SOL     OW35500   2.325   3.455  16.357  0.2410  0.3218 -0.0485
 8014SOL    HW135501   2.319   3.465  16.262  1.1683 -1.2828 -0.2839
 8014SOL    HW235502   2.247   3.507  16.378 -0.5093 -1.4487  1.5433
 8015SOL     OW35503   2.977   3.067   2.538  0.1465  0.4641  0.0923
 8015SOL    HW135504   2.908   3.088   2.600  0.4536 -1.8767  1.2413
 8015SOL    HW235505   2.989   2.975   2.560 -0.0876 -0.3899 -3.3213
 8016SOL     OW35506   0.600   1.421   6.893  0.4464  0.2077 -0.1238
 8016SOL    HW135507   0.617   1.401   6.985  2.5161 -0.4714 -0.6632
 8016SOL    HW235508   0.564   1.342   6.854 -0.2417  0.1905  0.5283
 8017SOL     OW35509   3.712   4.698  14.953 -0.6543  0.0670 -0.3516
 8017SOL    HW135510   3.671   0.061  14.935 -1.5990 -0.0642  1.2118
 8017SOL    HW235511   3.672   4.650  14.881  0.0979 -2.4864  0.9413
 8018SOL     OW35512   2.381   2.463   6.712  0.4837  0.5428 -0.5815
 8018SOL    HW135513   2.293   2.426   6.709 -0.0924  1.8008  0.5937
 8018SOL    HW235514   2.419   2.475   6.625  1.8877 -0.3850 -0.0998
 8019SOL     OW35515   3.214   0.776  16.730 -0.6320  0.0372  0.7467
 8019SOL    HW135516   3.123   0.751  16.715 -0.1025 -1.5818  0.3337
 8019SOL    HW235517   3.232   0.824  16.649  0.5255 -2.3351 -0.3905
 8020SOL     OW35518   3.458   0.218   1.321  0.1098 -0.0352 -0.0641
 8020SOL    HW135519   3.469   0.249   1.231 -0.1764  0.4569  0.0729
 8020SOL    HW235520   3.525   0.150   1.332 -0.5333 -0.7280 -0.4182
 8021SOL     OW35521   1.621   2.275  14.585 -0.3633  0.0981  0.6537
 8021SOL    HW135522   1.702   2.314  14.554 -0.2513 -2.3504 -2.0952
 8021SOL    HW235523   1.579   2.349  14.631 -0.9223  0.3236 -0.2126
 8022SOL     OW35524   2.009   1.425   7.944  0.1096 -0.1534  0.1172
 8022SOL    HW135525   1.923   1.430   7.986  1.0752 -1.6141  2.3025
 8022SOL    HW235526   2.028   1.332   7.960  2.6657  0.7551  2.4400
 8023SOL     OW35527   2.786   1.437  11.453 -0.0932  0.0619  0.1900
 8023SOL    HW135528   2.737   1.473  11.526 -0.5705  1.7781 -0.9604
 8023SOL    HW235529   2.855   1.503  11.443  0.3940 -0.4133  0.3595
 8024SOL     OW35530   1.282   0.105   7.199  0.7511  0.2533  0.4502
 8024SOL    HW135531   1.319   0.062   7.121 -1.0611 -0.2600 -0.1242
 8024SOL    HW235532   1.224   0.176   7.173  0.4648  0.1531  0.8322
 8025SOL     OW35533   0.165   4.527   3.469 -0.1103 -0.3495  0.0412
 8025SOL    HW135534   0.177   4.621   3.483 -1.9454 -0.0361 -0.5022
 8025SOL    HW235535   0.232   4.511   3.403  0.0908 -0.8571  0.3700
 8026SOL     OW35536   2.733   1.718  12.779  0.2629  0.3058 -0.8406
 8026SOL    HW135537   2.797   1.719  12.850  0.3747  0.0537 -0.9366
 8026SOL    HW235538   2.689   1.636  12.803  0.8356  0.0021 -0.8241
 8027SOL     OW35539   2.543   1.910  12.690 -0.1802  0.5156  0.7326
 8027SOL    HW135540   2.612   1.846  12.707  0.7251  1.4118  0.4111
 8027SOL    HW235541   2.473   1.848  12.670 -0.1242  1.1203 -1.2970
 8028SOL     OW35542   1.997   1.713  13.700  0.2552  0.1485  0.0029
 8028SOL    HW135543   1.980   1.659  13.623 -0.7237 -0.9513  0.9720
 8028SOL    HW235544   2.092   1.705  13.703  0.2221 -0.3996 -0.3518
 8029SOL     OW35545   4.359   1.191   6.482 -0.0558  0.6299  0.1563
 8029SOL    HW135546   4.410   1.110   6.479  0.7877  1.1796 -0.1597
 8029SOL    HW235547   4.423   1.262   6.489 -0.3235  0.5230  3.6814
 8030SOL     OW35548   3.677   0.649   8.157  0.0670 -0.5441  0.2344
 8030SOL    HW135549   3.588   0.620   8.174 -0.0157  0.1727  0.9921
 8030SOL    HW235550   3.668   0.744   8.146  0.6022 -0.7479 -2.0350
 8031SOL     OW35551   2.188   1.584   1.685  0.1127 -0.1825  0.4735
 8031SOL    HW135552   2.268   1.585   1.632  0.3565 -0.9669  0.8287
 8031SOL    HW235553   2.186   1.680   1.696 -1.7870 -0.1713  0.0021
 8032SOL     OW35554   4.305   3.279   7.292  0.2666 -0.2257  0.0018
 8032SOL    HW135555   4.214   3.250   7.282 -0.1898  1.8668 -1.9935
 8032SOL    HW235556   4.295   3.372   7.269  2.1295  0.1489  0.7328
 8033SOL     OW35557   2.458   0.359   7.227  0.0937 -0.4887  0.0708
 8033SOL    HW135558   2.411   0.294   7.176  1.0813 -1.1225 -0.0364
 8033SOL    HW235559   2.546   0.361   7.190  0.4002 -2.5610  0.6979
 8034SOL     OW35560   2.126   3.234  15.350  0.1047 -0.0603  0.1191
 8034SOL    HW135561   2.091   3.265  15.266  1.9748  2.1340  0.1388
 8034SOL    HW235562   2.182   3.310  15.365 -0.0968 -0.3236  2.0841
 8035SOL     OW35563   3.092   4.630  11.799  0.0192 -0.1644 -0.1417
 8035SOL    HW135564   3.131   4.632  11.886  1.1791 -1.4724 -0.6427
 8035SOL    HW235565   3.111   4.720  11.771 -0.9891  0.5190  1.4070
 8036SOL     OW35566   1.743   4.321   6.199 -0.4903  0.1168 -0.2713
 8036SOL    HW135567   1.691   4.398   6.223  1.5019  2.0693 -2.2084
 8036SOL    HW235568   1.775   4.341   6.112  0.6382 -0.5240 -0.0003
 8037SOL     OW35569   2.392   1.897  10.527  0.6882 -0.2008  0.5816
 8037SOL    HW135570   2.478   1.934  10.508  0.1222  0.5970 -0.4114
 8037SOL    HW235571   2.346   1.978  10.550  0.4565 -0.9875  2.8383
 8038SOL     OW35572   3.269   0.180   7.697  0.4501 -0.1946 -0.3838
 8038SOL    HW135573   3.177   0.170   7.723  0.4269  2.1524  0.3939
 8038SOL    HW235574   3.305   0.229   7.770  0.9432  0.3355 -0.9855
 8039SOL     OW35575   3.370   3.411  11.467 -0.3330 -1.0142 -0.1550
 8039SOL    HW135576   3.393   3.492  11.513  0.6794 -1.5979  0.3693
 8039SOL    HW235577   3.283   3.429  11.431 -0.4948  0.7754  1.1328
 8040SOL     OW35578   1.857   3.908   7.137 -0.4579  0.1839  0.2546
 8040SOL    HW135579   1.882   3.966   7.209  0.9756 -1.6434  1.2651
 8040SOL    HW235580   1.797   3.847   7.182 -0.7318 -1.7903 -2.7915
 8041SOL     OW35581   3.112   1.935   6.558  0.1517 -0.3524  0.3315
 8041SOL    HW135582   3.054   1.990   6.610  0.4666 -0.5013  0.8425
 8041SOL    HW235583   3.140   1.866   6.619 -1.4377 -0.5327  0.8623
 8042SOL     OW35584   3.646   1.996  15.978  0.4662  0.3285 -0.8186
 8042SOL    HW135585   3.627   2.084  16.012  0.2398  0.8258 -2.2323
 8042SOL    HW235586   3.660   1.950  16.061 -0.2943  1.6349  0.0430
 8043SOL     OW35587   1.978   3.777   4.538 -0.6197 -0.5184 -0.0416
 8043SOL    HW135588   1.978   3.791   4.444  0.7176 -0.2622  0.0013
 8043SOL    HW235589   1.972   3.869   4.565 -2.7822 -0.4671 -0.6371
 8044SOL     OW35590   2.789   3.350   0.232  0.6109  0.4585 -0.4589
 8044SOL    HW135591   2.841   3.390   0.301  0.4099  1.5022 -0.9114
 8044SOL    HW235592   2.849   3.353   0.157 -1.3428  0.4250 -2.0230
 8045SOL     OW35593   2.846   3.615   0.461  0.3428 -0.2079 -0.6792
 8045SOL    HW135594   2.754   3.638   0.470  0.5886  0.1415  0.8482
 8045SOL    HW235595   2.859   3.540   0.519  0.1091  1.5046  1.5717
 8046SOL     OW35596   1.087   0.215   4.925 -0.0531  0.2199 -0.2584
 8046SOL    HW135597   1.012   0.253   4.880 -1.4141  0.5964  2.2870
 8046SOL    HW235598   1.122   0.172   4.847  0.9409  1.4369 -0.4746
 8047SOL     OW35599   3.799   1.884   5.108 -0.8322  0.1665  0.4810
 8047SOL    HW135600   3.819   1.935   5.030  1.3066 -1.5511 -0.0921
 8047SOL    HW235601   3.705   1.897   5.097 -0.5075  1.9298 -0.2180
 8048SOL     OW35602   1.547   4.591   6.535  0.1008 -0.0260 -1.1634
 8048SOL    HW135603   1.505   4.518   6.581  0.8129  0.0781 -0.3478
 8048SOL    HW235604   1.639   4.572   6.550 -0.4025 -0.8978  0.8920
 8049SOL     OW35605   2.856   0.820  16.355 -0.0464  0.3977 -0.3421
 8049SOL    HW135606   2.839   0.842  16.264  0.2245  1.5302 -0.1270
 8049SOL    HW235607   2.915   0.745  16.353  1.4133  1.5214  0.5443
 8050SOL     OW35608   1.600   1.910   9.508  0.3978 -0.3824 -0.2019
 8050SOL    HW135609   1.614   2.004   9.514  0.1462 -0.3424 -0.2747
 8050SOL    HW235610   1.673   1.883   9.452 -0.7886 -0.4697 -1.6749
 8051SOL     OW35611   3.842   4.349   2.442 -0.3622 -0.4801  0.3570
 8051SOL    HW135612   3.911   4.313   2.497 -0.2997  1.0780  1.2927
 8051SOL    HW235613   3.841   4.443   2.456 -2.9989 -0.5441  0.5292
 8052SOL     OW35614   1.743   3.300  13.455  0.7597  1.3645 -0.3006
 8052SOL    HW135615   1.795   3.253  13.520 -0.6442  0.7256  0.3642
 8052SOL    HW235616   1.655   3.264  13.469  1.1070  0.3166 -0.8045
 8053SOL     OW35617   0.817   2.215  13.010 -0.2667 -0.3143  0.4568
 8053SOL    HW135618   0.853   2.142  12.961 -1.0016 -1.1295  1.1376
 8053SOL    HW235619   0.849   2.199  13.099 -0.5757 -1.9801  0.2568
 8054SOL     OW35620   0.496   2.576   5.585 -0.2093 -0.4402  0.6335
 8054SOL    HW135621   0.492   2.490   5.544 -2.3683  1.0942 -2.4142
 8054SOL    HW235622   0.496   2.563   5.680 -2.7295 -0.6918  0.5955
 8055SOL     OW35623   2.181   2.592   6.357  0.4602  0.5896  0.2193
 8055SOL    HW135624   2.251   2.642   6.398  2.3218 -3.3088  1.7803
 8055SOL    HW235625   2.196   2.602   6.264 -1.2930  1.2342 -0.0013
 8056SOL     OW35626   2.356   1.538   8.905 -0.0710 -0.1324 -0.4911
 8056SOL    HW135627   2.314   1.504   8.826 -0.5085 -0.7176  0.0049
 8056SOL    HW235628   2.361   1.464   8.964 -0.3669  0.7471  0.6397
 8057SOL     OW35629   2.356   3.140   9.084 -0.1006 -0.1616 -0.5065
 8057SOL    HW135630   2.378   3.202   9.154  0.6895 -2.6540  1.4757
 8057SOL    HW235631   2.260   3.146   9.091 -0.1751 -0.2348 -1.5319
 8058SOL     OW35632   2.354   1.346   9.133 -0.6690 -0.3941  0.1772
 8058SOL    HW135633   2.394   1.264   9.105 -0.6148 -0.1481 -0.4632
 8058SOL    HW235634   2.411   1.371   9.205 -1.6322  0.4877  0.6490
 8059SOL     OW35635   2.588   2.509   5.066 -0.3979  0.4118  0.2225
 8059SOL    HW135636   2.675   2.544   5.046 -0.3943 -0.3213 -1.0595
 8059SOL    HW235637   2.566   2.481   4.977 -0.7911 -0.8213  0.7058
 8060SOL     OW35638   2.337   3.963   8.117  0.2594 -0.2911  0.2787
 8060SOL    HW135639   2.370   3.925   8.198 -0.9542 -0.8852  0.5093
 8060SOL    HW235640   2.381   3.904   8.056 -1.1024  0.1270 -1.1160
 8061SOL     OW35641   2.745   1.541  10.987 -0.1901 -0.4939 -0.5420
 8061SOL    HW135642   2.704   1.458  10.962 -0.5531 -0.3664 -0.3832
 8061SOL    HW235643   2.829   1.519  11.027 -0.3376  0.1704  0.1390
 8062SOL     OW35644   1.757   4.342   5.267  0.6294  0.0842  0.3688
 8062SOL    HW135645   1.687   4.285   5.235  2.3105 -2.5897  1.5485
 8062SOL    HW235646   1.835   4.309   5.223 -0.0366  0.0205 -0.7730
 8063SOL     OW35647   2.724   4.594   0.148  0.2037  0.1563 -0.1463
 8063SOL    HW135648   2.693   4.555   0.229 -1.3389  0.9886 -0.3446
 8063SOL    HW235649   2.779   4.523   0.115 -0.1555  0.5409 -1.6132
 8064SOL     OW35650   0.912   0.977   1.811 -0.9824  0.7011  0.0938
 8064SOL    HW135651   0.915   0.907   1.746 -0.0482  1.4777 -0.6886
 8064SOL    HW235652   0.997   0.960   1.853 -2.7045 -2.5769  2.2431
 8065SOL     OW35653   4.041   0.728   4.897 -0.1056  0.0663 -0.1573
 8065SOL    HW135654   3.963   0.705   4.946 -0.0178  2.0496  0.8996
 8065SOL    HW235655   4.027   0.681   4.814  0.7353 -0.0962 -0.2097
 8066SOL     OW35656   0.913   4.221  13.630  0.2649  0.8668 -0.4648
 8066SOL    HW135657   0.899   4.298  13.685 -1.6591 -0.4660  0.9405
 8066SOL    HW235658   0.997   4.255  13.598  0.8757 -1.4282 -1.2901
 8067SOL     OW35659   1.362   2.608   6.903 -0.3298  0.3133  0.1216
 8067SOL    HW135660   1.292   2.673   6.906 -1.8401 -1.2068 -1.9280
 8067SOL    HW235661   1.438   2.659   6.928 -1.5225  1.9326  0.4166
 8068SOL     OW35662   2.833   2.857   2.132  0.0376 -0.0028  0.2312
 8068SOL    HW135663   2.922   2.862   2.168 -1.0120  2.3126  2.4895
 8068SOL    HW235664   2.837   2.828   2.041 -1.7557 -2.4636  0.9524
 8069SOL     OW35665   3.291   0.057   5.356  1.0630 -0.4575 -0.2815
 8069SOL    HW135666   3.235   0.091   5.287 -0.7164  0.6734  1.7013
 8069SOL    HW235667   3.375   0.058   5.310  1.6791  1.6756  0.8764
 8070SOL     OW35668   0.430   3.970  17.501 -0.1177 -0.0944  0.1077
 8070SOL    HW135669   0.355   3.925  17.541  0.0082  0.8246  1.3913
 8070SOL    HW235670   0.394   3.969  17.412  2.0003  3.2436 -0.7743
 8071SOL     OW35671   2.856   2.687   6.254 -0.2577  0.5807  0.4213
 8071SOL    HW135672   2.886   2.597   6.267 -0.6518  0.0673 -2.2193
 8071SOL    HW235673   2.911   2.707   6.178  2.8313  0.5310  2.6600
 8072SOL     OW35674   2.183   0.872   1.735  0.4112 -0.3754 -0.7863
 8072SOL    HW135675   2.153   0.952   1.691 -0.2430  0.2323  0.7489
 8072SOL    HW235676   2.104   0.851   1.785 -0.0599 -1.9942 -2.2065
 8073SOL     OW35677   2.352   4.094   6.335  0.1967 -0.1351 -0.3919
 8073SOL    HW135678   2.316   4.052   6.413  0.8528  1.1727  0.6284
 8073SOL    HW235679   2.306   4.045   6.268  1.0308 -0.2679 -0.8673
 8074SOL     OW35680   0.289   0.037  15.010 -0.0032 -0.0526 -0.3132
 8074SOL    HW135681   0.207   0.086  15.012 -1.2564 -2.0927 -1.8705
 8074SOL    HW235682   0.260   4.685  14.955 -1.2718 -0.1114  0.4284
 8075SOL     OW35683   2.231   4.296   5.336 -0.0368  0.1903 -0.4299
 8075SOL    HW135684   2.308   4.302   5.392 -0.1769  0.9250 -0.3216
 8075SOL    HW235685   2.181   4.372   5.364  0.8956  1.2691 -1.6859
 8076SOL     OW35686   4.702   3.653  16.740  0.2735  0.2929 -0.1091
 8076SOL    HW135687   0.009   3.743  16.756  0.7684  0.0284  0.5205
 8076SOL    HW235688   4.627   3.664  16.682  1.6270 -0.4448 -1.9794
 8077SOL     OW35689   3.644   2.185   8.009 -0.1675 -0.5522  0.8753
 8077SOL    HW135690   3.705   2.237   8.063  1.8936 -0.7582 -1.2776
 8077SOL    HW235691   3.615   2.259   7.956  1.3831 -0.7125 -0.1703
 8078SOL     OW35692   0.192   0.083   5.576 -0.2650 -0.8309 -0.1861
 8078SOL    HW135693   0.253   0.117   5.641  0.8396 -2.8526 -0.1650
 8078SOL    HW235694   0.230   0.119   5.496  0.1774  0.6416  0.6835
 8079SOL     OW35695   1.536   3.135   8.170 -0.0107 -0.4758  0.0448
 8079SOL    HW135696   1.487   3.169   8.095  1.7863 -0.5851 -1.1728
 8079SOL    HW235697   1.463   3.084   8.205  0.5896  1.2570  3.7748
 8080SOL     OW35698   3.760   0.419   3.845 -0.8540  0.3590  0.0238
 8080SOL    HW135699   3.731   0.450   3.760 -0.1077 -1.2659 -0.8337
 8080SOL    HW235700   3.853   0.440   3.842 -1.2143  2.0890  1.1088
 8081SOL     OW35701   1.090   1.531   7.564 -0.2359  0.2311 -0.4215
 8081SOL    HW135702   1.086   1.567   7.653  1.2598  0.6516 -0.5302
 8081SOL    HW235703   0.997   1.514   7.548 -0.5431  1.7329 -0.2438
 8082SOL     OW35704   1.837   1.578   8.879 -0.2384 -0.1766 -0.1150
 8082SOL    HW135705   1.879   1.559   8.796 -0.8775 -0.1876 -0.4344
 8082SOL    HW235706   1.912   1.617   8.924 -1.1512  1.2302  0.1840
 8083SOL     OW35707   1.600   3.619   7.845  0.2758 -0.1911  0.6680
 8083SOL    HW135708   1.524   3.674   7.863  0.9457  1.3513 -1.2984
 8083SOL    HW235709   1.556   3.544   7.804  2.0215 -1.6116  1.3646
 8084SOL     OW35710   1.575   2.754   3.942 -0.5860  0.0527 -0.7180
 8084SOL    HW135711   1.508   2.798   3.994  0.6815 -1.5222  2.2582
 8084SOL    HW235712   1.587   2.823   3.877  0.0441 -0.9287 -1.6531
 8085SOL     OW35713   1.687   0.185   2.562  0.3340  0.1467  0.1005
 8085SOL    HW135714   1.657   0.203   2.651  1.1103 -2.3196  0.8664
 8085SOL    HW235715   1.776   0.218   2.572  0.0455  0.8224  0.4115
 8086SOL     OW35716   2.465   0.920  15.133 -0.5244 -0.8300  0.0550
 8086SOL    HW135717   2.558   0.897  15.146 -0.4361  1.0005  2.7125
 8086SOL    HW235718   2.465   1.011  15.104 -2.5834 -0.8040  0.1763
 8087SOL     OW35719   2.868   2.478  17.238 -0.2671  0.0022  0.4218
 8087SOL    HW135720   2.777   2.464  17.264 -1.0925  0.9752 -1.9459
 8087SOL    HW235721   2.882   2.394  17.195 -1.1266 -0.7139  1.5456
 8088SOL     OW35722   1.742   4.466   8.381  0.3175  0.4637  0.2447
 8088SOL    HW135723   1.815   4.443   8.325 -1.2670  1.1297 -2.1011
 8088SOL    HW235724   1.701   4.546   8.349 -0.3526  0.5397  1.2893
 8089SOL     OW35725   4.058   0.593   7.064  0.2795  0.1317  0.7287
 8089SOL    HW135726   4.122   0.659   7.036 -1.3686  0.4794 -2.1650
 8089SOL    HW235727   4.062   0.604   7.159  2.0099  0.8996  0.5674
 8090SOL     OW35728   3.289   1.448   3.160 -0.2414 -0.3219 -0.1194
 8090SOL    HW135729   3.351   1.409   3.222  0.4260 -0.9979 -1.2099
 8090SOL    HW235730   3.248   1.527   3.194  0.4419 -0.3351  0.7355
 8091SOL     OW35731   4.561   2.983   8.431  0.0968  0.2381 -0.0549
 8091SOL    HW135732   4.535   3.060   8.379  0.0975  0.8401  0.8425
 8091SOL    HW235733   4.482   2.965   8.482 -0.0673 -0.6944 -0.6361
 8092SOL     OW35734   0.128   2.846   8.922 -0.2038 -0.1072 -0.3697
 8092SOL    HW135735   0.068   2.852   8.848 -0.9210  1.3847  0.3280
 8092SOL    HW235736   0.201   2.891   8.880  0.6930 -1.3023 -0.0899
 8093SOL     OW35737   3.681   3.196   7.828 -0.3002  0.1513  0.4398
 8093SOL    HW135738   3.592   3.222   7.852 -0.3431 -0.3009  0.7788
 8093SOL    HW235739   3.727   3.229   7.905  2.1615  0.3688 -1.1421
 8094SOL     OW35740   0.295   1.583   8.449  0.5111 -0.6513 -0.6319
 8094SOL    HW135741   0.353   1.621   8.382 -3.6696  4.2291 -1.5476
 8094SOL    HW235742   0.328   1.638   8.520 -2.6873 -1.2858  1.3600
 8095SOL     OW35743   1.574   0.057   3.594  0.3312  0.0990 -0.2417
 8095SOL    HW135744   1.545   4.695   3.556 -1.0533  0.5198 -0.0980
 8095SOL    HW235745   1.493   0.092   3.631  0.8167 -0.1521  1.0562
 8096SOL     OW35746   1.655   0.297  10.714 -0.2775 -0.2934 -0.0238
 8096SOL    HW135747   1.702   0.222  10.678 -0.7934 -0.5468 -0.1669
 8096SOL    HW235748   1.722   0.365  10.715 -0.8477  0.2597  1.3978
 8097SOL     OW35749   1.070   2.338   6.381 -0.2417 -0.2770 -0.7545
 8097SOL    HW135750   1.011   2.406   6.348 -2.0067 -0.7226  1.4316
 8097SOL    HW235751   1.155   2.381   6.387 -0.5812  0.3259 -0.2553
 8098SOL     OW35752   2.717   3.041   4.451 -0.6944  0.1094 -0.2166
 8098SOL    HW135753   2.774   3.065   4.377 -1.7592 -0.0244 -1.0708
 8098SOL    HW235754   2.626   3.062   4.434 -0.4043  1.6129  0.1474
 8099SOL     OW35755   3.345   1.007  17.110  0.3292 -0.0519 -0.2219
 8099SOL    HW135756   3.317   0.981  17.022  1.2763  2.1665 -1.1661
 8099SOL    HW235757   3.438   0.985  17.104 -0.0398 -1.0040 -2.7158
 8100SOL     OW35758   1.924   4.371   8.976  0.2005 -0.3514 -0.6353
 8100SOL    HW135759   1.896   4.281   8.989 -0.6094 -0.0196 -0.1011
 8100SOL    HW235760   1.894   4.429   9.046 -0.8711 -3.5392  1.5267
 8101SOL     OW35761   2.971   0.205   5.909 -0.4117 -0.1940 -0.6762
 8101SOL    HW135762   2.922   0.162   5.980  1.9039 -0.3169  0.8467
 8101SOL    HW235763   2.994   0.124   5.865  3.0568 -0.2901  1.3410
 8102SOL     OW35764   1.891   1.567   2.306  0.0003 -0.5279 -0.2693
 8102SOL    HW135765   1.900   1.538   2.396 -0.1081 -0.3059 -0.1859
 8102SOL    HW235766   1.922   1.490   2.258  1.1505 -1.7559  2.4750
 8103SOL     OW35767   0.745   1.652   7.251  0.2992  0.0648 -0.2739
 8103SOL    HW135768   0.649   1.656   7.248  0.2732 -0.7195 -0.4738
 8103SOL    HW235769   0.742   1.574   7.195  1.1187  0.0292 -0.2721
 8104SOL     OW35770   0.539   1.426  10.354 -0.0664 -0.4462 -0.1761
 8104SOL    HW135771   0.573   1.426  10.444  1.2762  1.1555 -0.6966
 8104SOL    HW235772   0.565   1.338  10.329  0.2047 -0.7362  1.0828
 8105SOL     OW35773   3.348   1.799  16.415  0.5427  0.3010 -0.2043
 8105SOL    HW135774   3.310   1.775  16.331 -0.5630  0.0810  0.3617
 8105SOL    HW235775   3.293   1.741  16.468  1.5417  2.1580  2.8987
 8106SOL     OW35776   3.484   4.319  10.375 -0.1564  0.2573  0.3397
 8106SOL    HW135777   3.524   4.237  10.404 -0.2256 -0.0628 -0.4524
 8106SOL    HW235778   3.536   4.381  10.426  0.4067 -0.9327  1.2172
 8107SOL     OW35779   3.539   0.078   0.097  0.0291  0.0464  0.1840
 8107SOL    HW135780   3.501   4.715   0.076  0.1878  0.6688 -2.5567
 8107SOL    HW235781   3.460   0.125   0.122  1.1599  1.9589  0.2266
 8108SOL     OW35782   1.949   2.194   2.031  0.0912  0.0354 -0.1586
 8108SOL    HW135783   1.855   2.195   2.049 -0.2408  0.4722 -1.9002
 8108SOL    HW235784   1.955   2.287   2.009  0.2315  0.6550  2.4696
 8109SOL     OW35785   0.286   1.091   8.536  0.1738  0.0301  0.1381
 8109SOL    HW135786   0.360   1.053   8.489 -0.8782 -2.5428  0.5454
 8109SOL    HW235787   0.311   1.183   8.531 -0.8607  0.3375  0.5129
 8110SOL     OW35788   1.668   3.341   7.409  0.2941 -0.4471 -0.5122
 8110SOL    HW135789   1.715   3.409   7.360 -0.9053 -0.0036 -1.0561
 8110SOL    HW235790   1.731   3.327   7.479  1.5033  1.1517 -1.2747
 8111SOL     OW35791   3.341   4.199   5.925  0.1997 -0.1545  0.3586
 8111SOL    HW135792   3.255   4.169   5.954  0.1753  0.0907  0.5399
 8111SOL    HW235793   3.316   4.270   5.865 -0.5369 -0.7441 -0.0509
 8112SOL     OW35794   0.260   0.229  12.303 -0.6743 -0.3222 -0.6851
 8112SOL    HW135795   0.351   0.251  12.284 -0.1068 -2.0656 -0.0840
 8112SOL    HW235796   0.281   0.173  12.378 -0.4509  0.3281 -0.2679
 8113SOL     OW35797   1.816   0.253   2.154 -0.2188  0.1080  0.2873
 8113SOL    HW135798   1.766   0.313   2.208 -2.8155 -0.1290 -1.8649
 8113SOL    HW235799   1.903   0.259   2.195 -0.1993 -1.4941  0.4831
 8114SOL     OW35800   3.929   1.432   8.080  0.2498  0.3141  0.3845
 8114SOL    HW135801   3.865   1.485   8.033 -1.0403 -1.0073  0.6370
 8114SOL    HW235802   3.940   1.360   8.017 -0.7688  0.6469 -0.1803
 8115SOL     OW35803   0.100   4.615  12.855  0.0106  0.3805 -0.0723
 8115SOL    HW135804   0.185   4.636  12.815  0.0307 -1.6407 -1.1077
 8115SOL    HW235805   0.054   4.699  12.863 -1.7783 -0.4770 -1.3602
 8116SOL     OW35806   3.570   3.174  14.307  0.3929  0.0474 -0.2921
 8116SOL    HW135807   3.562   3.138  14.395 -1.9391  0.1055 -0.4932
 8116SOL    HW235808   3.493   3.230  14.300  1.1593  1.0945 -0.4553
 8117SOL     OW35809   2.040   4.390   7.532  0.3028  0.3777  0.1735
 8117SOL    HW135810   2.103   4.329   7.571 -0.0663  0.5279  1.0203
 8117SOL    HW235811   1.967   4.335   7.504 -1.1418  2.0285  0.6874
 8118SOL     OW35812   3.564   2.767   5.875 -0.6595 -0.2580  0.1551
 8118SOL    HW135813   3.499   2.834   5.898 -0.2097  0.3889 -0.4408
 8118SOL    HW235814   3.625   2.788   5.945  0.6262 -1.5155 -0.5920
 8119SOL     OW35815   2.010   3.896   7.994  0.1378 -0.3973  0.6722
 8119SOL    HW135816   1.970   3.815   8.025 -2.7166  1.2821  1.3049
 8119SOL    HW235817   2.082   3.905   8.057  1.2990 -2.3053 -0.3661
 8120SOL     OW35818   1.243   3.021   6.439  0.0153 -0.2049  0.3724
 8120SOL    HW135819   1.238   2.932   6.404 -0.7608 -0.4760  1.1872
 8120SOL    HW235820   1.237   3.077   6.361 -1.8032 -0.3046  0.4423
 8121SOL     OW35821   1.163   4.281   3.580  0.1754 -0.1315 -0.2681
 8121SOL    HW135822   1.249   4.297   3.619  0.4584 -1.1198 -0.4946
 8121SOL    HW235823   1.122   4.239   3.656  0.7616 -2.1043 -1.0398
 8122SOL     OW35824   1.565   2.452   9.802 -0.2707  0.4627  0.0079
 8122SOL    HW135825   1.558   2.532   9.751 -2.5057  0.0855 -0.2679
 8122SOL    HW235826   1.654   2.423   9.782 -0.1201  0.2975  0.8756
 8123SOL     OW35827   4.451   2.376   0.854  0.3688  0.4885  0.0375
 8123SOL    HW135828   4.532   2.399   0.900  0.5269  3.0275 -1.4909
 8123SOL    HW235829   4.465   2.282   0.843  1.5365  0.6429  0.2148
 8124SOL     OW35830   4.221   2.824   6.652  0.1176  0.3616  0.3198
 8124SOL    HW135831   4.210   2.873   6.734  3.0881  2.2219 -0.4109
 8124SOL    HW235832   4.138   2.776   6.658  0.5518 -0.4344  0.0348
 8125SOL     OW35833   4.483   4.018   8.856 -0.0147  0.4367 -0.6909
 8125SOL    HW135834   4.575   4.039   8.842 -0.2484  1.2719 -0.9825
 8125SOL    HW235835   4.466   4.061   8.939  0.2406  0.8707 -0.8661
 8126SOL     OW35836   0.589   2.516   8.890 -0.2133  0.4960 -0.1908
 8126SOL    HW135837   0.577   2.542   8.981  3.2134  1.0700  0.1147
 8126SOL    HW235838   0.502   2.496   8.855  0.8782 -0.7337 -2.2151
 8127SOL     OW35839   2.198   4.099   4.370  0.0035  0.5654 -0.2888
 8127SOL    HW135840   2.160   4.169   4.424  0.9873  3.3651 -3.2147
 8127SOL    HW235841   2.193   4.026   4.431 -0.7907  1.6026  0.8951
 8128SOL     OW35842   3.855   2.753  14.159  0.2171  0.4892 -0.8392
 8128SOL    HW135843   3.939   2.799  14.167  1.0278 -0.9745 -0.8610
 8128SOL    HW235844   3.822   2.760  14.248  1.0872 -2.2501 -0.2833
 8129SOL     OW35845   4.298   3.716   1.546  0.1271 -0.0570  0.1751
 8129SOL    HW135846   4.262   3.773   1.478  1.8445  0.1823 -0.5361
 8129SOL    HW235847   4.387   3.706   1.512 -0.1028  3.2427 -1.3935
 8130SOL     OW35848   2.711   3.748   8.434 -0.0342 -0.1728  0.6595
 8130SOL    HW135849   2.635   3.790   8.393  0.4498  0.8646  0.8190
 8130SOL    HW235850   2.685   3.657   8.424 -1.0611  0.3585 -1.5667
 8131SOL     OW35851   0.686   0.744   6.324 -0.0859  0.3568  0.1191
 8131SOL    HW135852   0.609   0.718   6.375  0.9469 -1.2407  0.8417
 8131SOL    HW235853   0.758   0.733   6.385 -0.2647 -1.8356 -0.0937
 8132SOL     OW35854   1.684   1.388   6.914 -0.0995 -0.0385 -0.4796
 8132SOL    HW135855   1.746   1.347   6.975  1.4849  1.2108 -1.2482
 8132SOL    HW235856   1.744   1.394   6.840 -2.4071  1.8136 -2.2030
 8133SOL     OW35857   4.233   2.192   4.277 -0.3505 -0.1080 -0.1916
 8133SOL    HW135858   4.279   2.111   4.255  1.3477  0.9078 -0.3763
 8133SOL    HW235859   4.292   2.219   4.347 -2.0576  0.5218  1.0086
 8134SOL     OW35860   4.594   0.918   6.387 -0.3597 -0.7866 -0.0434
 8134SOL    HW135861   4.644   0.922   6.306 -1.3289 -0.0971 -0.6192
 8134SOL    HW235862   4.523   0.863   6.352 -0.6551 -0.0284 -0.6426
 8135SOL     OW35863   3.130   1.114   7.427  0.3718  1.0466 -0.1985
 8135SOL    HW135864   3.054   1.148   7.381 -0.1915 -1.2126 -0.9497
 8135SOL    HW235865   3.098   1.117   7.518 -1.4309  0.8004 -0.8357
 8136SOL     OW35866   3.156   4.022   2.590 -0.5228 -0.0338  0.2479
 8136SOL    HW135867   3.168   4.098   2.647 -0.2428  0.3074 -0.2604
 8136SOL    HW235868   3.106   4.066   2.522 -0.6302 -1.4204 -0.5695
 8137SOL     OW35869   2.679   2.745  10.295  0.0894 -0.1324 -0.2903
 8137SOL    HW135870   2.595   2.727  10.337  1.1341 -1.1595  1.3499
 8137SOL    HW235871   2.670   2.833  10.257  1.0500 -0.2731 -0.8423
 8138SOL     OW35872   0.955   1.847   2.834  0.7339  1.1443  0.1571
 8138SOL    HW135873   0.861   1.832   2.844  0.8915  0.0313 -0.0216
 8138SOL    HW235874   0.965   1.934   2.873 -0.8587  1.4046 -0.0204
 8139SOL     OW35875   2.773   1.944  16.137 -0.3596 -0.2685 -0.6952
 8139SOL    HW135876   2.755   1.913  16.226  0.4000 -0.0915 -0.4821
 8139SOL    HW235877   2.683   1.928  16.108 -0.5171  0.5313 -0.6524
 8140SOL     OW35878   4.311   4.608   6.315 -0.3036  0.1810  0.1658
 8140SOL    HW135879   4.229   4.600   6.364 -0.0520 -0.4166  0.4828
 8140SOL    HW235880   4.325   4.514   6.302 -0.5549  0.1126  0.3990
 8141SOL     OW35881   1.715   2.777   7.960 -0.3190 -0.1553 -0.0176
 8141SOL    HW135882   1.728   2.866   7.994 -2.0177  0.7238 -1.6598
 8141SOL    HW235883   1.775   2.722   8.010 -0.1244 -0.3167 -0.4288
 8142SOL     OW35884   0.440   3.634  16.201  0.1901 -0.5172 -0.2681
 8142SOL    HW135885   0.446   3.652  16.295 -3.1677 -0.0572 -0.1623
 8142SOL    HW235886   0.488   3.709  16.166  1.7361 -1.0140  0.8021
 8143SOL     OW35887   1.175   2.685  15.215  0.0964  0.4713  0.3972
 8143SOL    HW135888   1.263   2.695  15.177  0.4277 -0.9186  0.7821
 8143SOL    HW235889   1.167   2.600  15.258  1.1272 -0.4897 -1.2653
 8144SOL     OW35890   0.611   1.315  16.029 -0.0454 -0.3801 -0.6125
 8144SOL    HW135891   0.638   1.228  16.058 -0.3409  0.2095  1.4194
 8144SOL    HW235892   0.525   1.325  16.069  0.5152  1.6608  0.0955
 8145SOL     OW35893   0.570   0.882  11.867  0.0354 -0.1896 -0.3484
 8145SOL    HW135894   0.492   0.938  11.870  0.4506  0.4527 -1.2938
 8145SOL    HW235895   0.551   0.841  11.782 -1.9991  0.7759 -0.3779
 8146SOL     OW35896   0.110   3.482   9.315 -0.0833 -0.0485  0.4472
 8146SOL    HW135897   0.035   3.500   9.259  0.1035 -0.4438  0.0682
 8146SOL    HW235898   0.159   3.415   9.268 -0.7222 -2.2307  2.8912
 8147SOL     OW35899   2.039   1.856   5.815  0.4544 -0.1584  0.6317
 8147SOL    HW135900   2.036   1.808   5.733 -0.6186  0.1790  0.4866
 8147SOL    HW235901   1.957   1.905   5.809  1.0804  0.5593 -2.1037
 8148SOL     OW35902   2.192   2.125  10.307  0.2683 -0.1347 -0.1582
 8148SOL    HW135903   2.276   2.127  10.260 -0.6983 -0.2486 -1.8892
 8148SOL    HW235904   2.224   2.152  10.393 -1.6895 -1.0123  0.8469
 8149SOL     OW35905   0.068   3.962   2.388  0.0258 -0.1695 -0.8961
 8149SOL    HW135906   0.107   3.938   2.304  2.4193 -0.1789  0.2231
 8149SOL    HW235907   0.131   3.909   2.437  0.6560  1.1669 -0.2470
 8150SOL     OW35908   0.491   3.200   7.058 -0.2289  0.0718  0.4408
 8150SOL    HW135909   0.395   3.198   7.057 -0.2702  0.6121  2.3470
 8150SOL    HW235910   0.491   3.209   7.153  1.0910  1.8997  0.2645
 8151SOL     OW35911   0.486   2.928   2.334  0.5891 -0.2110  0.5447
 8151SOL    HW135912   0.581   2.921   2.348  0.7298 -1.3361 -0.8679
 8151SOL    HW235913   0.474   2.853   2.275 -0.5385 -0.4280  1.0555
 8152SOL     OW35914   3.213   0.120  12.411 -0.6081 -0.3784 -0.5693
 8152SOL    HW135915   3.186   0.031  12.390 -0.9621 -0.1166 -1.2521
 8152SOL    HW235916   3.132   0.166  12.387 -0.0292  0.6014 -0.6540
 8153SOL     OW35917   2.153   4.139   5.750  0.2234  0.1398  0.0230
 8153SOL    HW135918   2.111   4.061   5.785 -0.0484  1.1994  2.1037
 8153SOL    HW235919   2.152   4.192   5.830 -1.3670 -1.6203  1.1798
 8154SOL     OW35920   0.657   3.207   3.455 -0.2074 -0.0971 -0.0827
 8154SOL    HW135921   0.606   3.242   3.528  0.2350  2.0335 -0.8105
 8154SOL    HW235922   0.734   3.174   3.501 -0.4157 -0.9119 -0.3215
 8155SOL     OW35923   0.826   4.460   8.316 -0.1238  0.3804  0.1771
 8155SOL    HW135924   0.761   4.441   8.383 -1.2753  2.6398 -0.3054
 8155SOL    HW235925   0.774   4.499   8.246  0.9654 -1.4345 -1.6336
 8156SOL     OW35926   4.454   0.646  13.705  0.1543 -0.1676 -0.3506
 8156SOL    HW135927   4.504   0.625  13.783  1.8197  0.6289 -1.2149
 8156SOL    HW235928   4.372   0.604  13.731 -0.0199 -0.2767 -1.0615
 8157SOL     OW35929   4.621   0.637  13.916  0.1187  0.3335  0.0458
 8157SOL    HW135930   4.668   0.560  13.951 -2.0153 -1.0983 -0.2467
 8157SOL    HW235931   4.637   0.704  13.983  0.4326 -0.4525  0.7664
 8158SOL     OW35932   0.170   3.885   6.767  0.0882  0.1333 -0.0127
 8158SOL    HW135933   0.118   3.811   6.798 -1.6122  1.1623 -0.4209
 8158SOL    HW235934   0.135   3.894   6.678 -0.1549  1.5743  0.2250
 8159SOL     OW35935   1.598   0.377   4.807 -0.0847  0.3401 -0.2210
 8159SOL    HW135936   1.640   0.304   4.851 -1.3730 -0.4041 -0.2272
 8159SOL    HW235937   1.659   0.378   4.733 -1.2941  2.8795 -1.1837
 8160SOL     OW35938   2.141   3.983   2.457 -0.2212  0.1273 -0.1460
 8160SOL    HW135939   2.084   4.032   2.397  0.8775  0.4158 -0.9642
 8160SOL    HW235940   2.134   4.036   2.536  0.2131 -0.3810  0.2323
 8161SOL     OW35941   0.712   3.106  11.424  0.3844 -0.4224  0.0935
 8161SOL    HW135942   0.768   3.166  11.473 -0.9295 -0.2960  1.4539
 8161SOL    HW235943   0.770   3.083  11.352  1.5341 -3.8603  2.1266
 8162SOL     OW35944   1.654   0.591   7.269  0.1304  0.3487 -1.0209
 8162SOL    HW135945   1.713   0.660   7.237 -0.2707 -0.2487 -3.0506
 8162SOL    HW235946   1.716   0.535   7.315 -1.2348 -0.2249  0.0994
 8163SOL     OW35947   2.459   1.764   4.266 -0.3344  0.1807 -0.5579
 8163SOL    HW135948   2.466   1.837   4.204  0.2637  0.3875 -0.2579
 8163SOL    HW235949   2.550   1.735   4.273 -0.0023  0.6276 -3.1137
 8164SOL     OW35950   2.124   0.986   5.233 -0.8355  0.0959 -0.0128
 8164SOL    HW135951   2.105   0.937   5.313 -3.0672  0.7704 -0.1282
 8164SOL    HW235952   2.046   1.041   5.242 -0.0520  1.0560  0.9024
 8165SOL     OW35953   1.408   1.765   8.329 -0.0622 -0.1904  0.1689
 8165SOL    HW135954   1.486   1.780   8.382  1.1681 -1.1397 -1.3483
 8165SOL    HW235955   1.395   1.846   8.278  0.4177  0.8978  1.7959
 8166SOL     OW35956   2.270   2.540   2.074 -0.2602  0.0686  0.5989
 8166SOL    HW135957   2.281   2.582   2.159  0.2390  1.6011 -0.2305
 8166SOL    HW235958   2.323   2.602   2.025  0.9973 -2.0389 -0.7225
 8167SOL     OW35959   3.045   0.401   7.541  0.1645  0.2065 -0.0250
 8167SOL    HW135960   3.003   0.412   7.455 -1.5971  0.8493  0.9176
 8167SOL    HW235961   3.122   0.351   7.515 -0.1605 -0.9770  1.2477
 8168SOL     OW35962   2.077   3.074   5.835  0.3443  0.0531  0.6421
 8168SOL    HW135963   2.154   3.018   5.827  0.9993  0.8507  1.3445
 8168SOL    HW235964   2.024   3.018   5.779 -0.1813 -0.6670  1.8635
 8169SOL     OW35965   0.883   1.919  11.365 -0.2116  0.6386  0.1415
 8169SOL    HW135966   0.799   1.899  11.323 -0.2190  1.9759 -0.4868
 8169SOL    HW235967   0.938   1.899  11.289  1.6708 -1.3514  2.0064
 8170SOL     OW35968   2.997   1.591   2.478 -0.2671 -0.7192 -0.6235
 8170SOL    HW135969   2.955   1.527   2.420 -0.0125  0.1796 -1.8087
 8170SOL    HW235970   2.989   1.546   2.562  0.3542  0.3952  0.0284
 8171SOL     OW35971   2.532   3.832   1.639  0.7715  0.0907 -0.4713
 8171SOL    HW135972   2.518   3.883   1.719 -0.3975 -0.8396 -0.0846
 8171SOL    HW235973   2.456   3.774   1.646  0.0162  1.4014  2.1157
 8172SOL     OW35974   0.931   1.441   5.869  0.6191  0.8102  0.5321
 8172SOL    HW135975   0.972   1.396   5.796 -0.7398 -2.1836  1.6171
 8172SOL    HW235976   0.844   1.448   5.830  0.5953 -0.1154  0.4149
 8173SOL     OW35977   1.865   2.739   7.218  0.0382 -0.0554 -0.8183
 8173SOL    HW135978   1.937   2.737   7.155 -1.0439 -2.0462 -1.9750
 8173SOL    HW235979   1.911   2.746   7.302 -1.2614 -1.7812  0.0377
 8174SOL     OW35980   1.931   0.118   7.769 -0.2098  0.1966  0.2623
 8174SOL    HW135981   1.839   0.096   7.757  0.1221 -1.5097  0.8287
 8174SOL    HW235982   1.926   0.152   7.858 -0.4136 -2.5012  1.2799
 8175SOL     OW35983   3.714   2.311   4.531  0.1394  0.0010  0.3802
 8175SOL    HW135984   3.761   2.278   4.608  0.6780 -1.3247 -0.5194
 8175SOL    HW235985   3.786   2.359   4.490  1.4671 -0.3696  2.2743
 8176SOL     OW35986   0.250   3.588   7.541  0.3225  0.4518  0.0043
 8176SOL    HW135987   0.277   3.639   7.617 -1.4440 -0.2987  1.1322
 8176SOL    HW235988   0.261   3.497   7.570 -1.9820  0.8925  2.2306
 8177SOL     OW35989   3.982   4.369  17.355 -0.0534  0.4444 -0.1849
 8177SOL    HW135990   3.942   4.293  17.398  1.2583 -0.9739 -1.4923
 8177SOL    HW235991   3.928   4.440  17.389  0.2814  0.2063  0.8489
 8178SOL     OW35992   4.251   3.467   5.832 -0.6773  0.2993 -0.3639
 8178SOL    HW135993   4.301   3.388   5.850  0.3021  1.4965  2.1505
 8178SOL    HW235994   4.312   3.541   5.830  0.8699 -0.9749 -0.4716
 8179SOL     OW35995   0.602   0.931   2.604  0.6940  0.2557 -0.3610
 8179SOL    HW135996   0.675   0.869   2.601  0.7046  0.2270  0.4254
 8179SOL    HW235997   0.528   0.870   2.596  1.0513 -0.1094 -0.8829
 8180SOL     OW35998   1.341   4.708  16.348  0.6923  0.0371  0.1900
 8180SOL    HW135999   1.287   4.702  16.427  2.4556 -0.9613  1.3070
 8180SOL    HW236000   1.414   0.038  16.382  1.4409 -1.7560  1.3239
 8181SOL     OW36001   3.079   3.038  12.599 -0.0751 -0.3292  0.8328
 8181SOL    HW136002   2.988   3.043  12.570  0.7120  0.2997 -1.5014
 8181SOL    HW236003   3.105   2.952  12.565  2.0206  0.3767  0.6222
 8182SOL     OW36004   4.571   2.278   6.304  0.2500  0.3167  0.1999
 8182SOL    HW136005   4.528   2.200   6.268 -0.1604 -0.4314  2.3305
 8182SOL    HW236006   4.492   2.315   6.343  1.6988  1.6789  1.8596
 8183SOL     OW36007   1.757   0.373   3.177 -0.6609 -0.0279 -0.5772
 8183SOL    HW136008   1.817   0.317   3.227 -1.3727  1.2706  1.7692
 8183SOL    HW236009   1.730   0.436   3.245  1.0254 -0.6799  0.7016
 8184SOL     OW36010   3.493   4.221   6.159  0.4669 -0.1370  0.2186
 8184SOL    HW136011   3.469   4.200   6.069  0.4301 -1.3141  0.4998
 8184SOL    HW236012   3.419   4.183   6.206 -0.8883  0.4836 -1.4070
 8185SOL     OW36013   4.046   1.615  14.401  0.3472 -0.1260 -0.2719
 8185SOL    HW136014   4.060   1.612  14.306 -2.9608 -0.0818 -0.7586
 8185SOL    HW236015   4.043   1.710  14.412  0.0896 -0.1798  0.0960
 8186SOL     OW36016   2.438   4.358  14.725 -0.1793  0.3791  0.0820
 8186SOL    HW136017   2.442   4.263  14.721 -1.4452  0.3457 -0.3125
 8186SOL    HW236018   2.384   4.373  14.803  2.3258  1.0042  1.6919
 8187SOL     OW36019   2.340   2.187   6.496  0.8167  0.0120 -0.2633
 8187SOL    HW136020   2.263   2.241   6.478  2.6474  3.3649  1.9360
 8187SOL    HW236021   2.303   2.100   6.511 -0.7611  0.4937 -1.3560
 8188SOL     OW36022   0.114   0.774  10.329 -0.1032 -0.1692 -0.1535
 8188SOL    HW136023   0.121   0.703  10.393  1.0608  0.4873  0.4467
 8188SOL    HW236024   0.039   0.818  10.370 -2.0935 -3.1456 -0.6110
 8189SOL     OW36025   3.948   3.922   1.866  0.5100  0.1171 -0.0419
 8189SOL    HW136026   3.927   4.011   1.896  1.4517  0.6228 -0.8716
 8189SOL    HW236027   3.905   3.909   1.781 -0.9467 -1.3072  0.9130
 8190SOL     OW36028   1.832   3.625   2.255 -0.0100 -0.8756 -0.5087
 8190SOL    HW136029   1.740   3.605   2.242 -0.6567  1.3301  0.7946
 8190SOL    HW236030   1.858   3.542   2.296  2.1256  0.6933  1.2900
 8191SOL     OW36031   3.463   0.169  17.130  0.4564 -0.1624  0.5389
 8191SOL    HW136032   3.503   0.213  17.205  3.8213  0.1447 -1.4430
 8191SOL    HW236033   3.499   0.219  17.057 -2.0163  2.4098  1.0977
 8192SOL     OW36034   3.113   2.853   6.430 -0.3190  0.3548  0.9663
 8192SOL    HW136035   3.199   2.895   6.437  0.5400 -1.3602  0.5023
 8192SOL    HW236036   3.080   2.876   6.343 -1.1033 -2.3346  0.5733
 8193SOL     OW36037   0.340   2.310   6.272  0.3277 -0.1659  0.2130
 8193SOL    HW136038   0.326   2.404   6.263  2.5416  0.0121 -1.5748
 8193SOL    HW236039   0.264   2.281   6.322  0.2630  1.9835  1.3215
 8194SOL     OW36040   0.163   3.590   0.843 -0.0731 -0.8526  0.1417
 8194SOL    HW136041   0.096   3.639   0.795 -1.5707 -2.6402  0.4094
 8194SOL    HW236042   0.228   3.586   0.773 -0.2548 -0.2538 -0.0567
 8195SOL     OW36043   2.295   3.729  12.451 -0.3465  0.4599  0.7962
 8195SOL    HW136044   2.327   3.749  12.363  1.0791  3.1995  1.9493
 8195SOL    HW236045   2.223   3.790  12.465 -0.3400  0.6219  0.1610
 8196SOL     OW36046   4.639   1.771   3.802  0.1917 -0.7121  0.2617
 8196SOL    HW136047   4.708   1.791   3.739 -0.2482 -1.7371 -0.5490
 8196SOL    HW236048   4.643   1.675   3.803  0.3534 -0.6923  2.1798
 8197SOL     OW36049   2.056   2.759   3.881  0.5861  0.4527  0.4687
 8197SOL    HW136050   2.030   2.839   3.836  3.9864  1.9650  1.1789
 8197SOL    HW236051   1.970   2.720   3.897  0.2814  0.6101 -0.8030
 8198SOL     OW36052   2.078   0.348  14.334 -1.4289  0.4167  0.6673
 8198SOL    HW136053   2.141   0.296  14.284  1.2386  1.8112  2.5430
 8198SOL    HW236054   2.006   0.286  14.330  0.6180 -1.6580 -3.9061
 8199SOL     OW36055   3.242   3.085   7.606 -1.2781 -0.1998  0.0391
 8199SOL    HW136056   3.296   3.019   7.561  2.1224  1.1234  2.1619
 8199SOL    HW236057   3.220   3.024   7.677  0.3885 -1.2790 -0.3648
 8200SOL     OW36058   2.588   3.572   0.070  0.1635  0.2781  0.1918
 8200SOL    HW136059   2.526   3.636   0.103  0.3752  0.3069  0.5399
 8200SOL    HW236060   2.578   3.511   0.144 -0.6872  1.1261  0.7731
 8201SOL     OW36061   3.544   3.152   5.121 -0.0145 -0.1127 -0.0958
 8201SOL    HW136062   3.565   3.161   5.028 -2.1361  1.1310 -0.4534
 8201SOL    HW236063   3.480   3.223   5.133 -1.7856 -1.1106 -3.6875
 8202SOL     OW36064   1.216   1.236   3.438 -0.3433  0.4888 -0.2328
 8202SOL    HW136065   1.187   1.145   3.434 -2.2954  1.0595  0.3876
 8202SOL    HW236066   1.269   1.249   3.360 -1.3191  0.1504 -0.9549
 8203SOL     OW36067   2.305   0.854   3.917  0.1715  0.1029 -0.1152
 8203SOL    HW136068   2.318   0.847   3.822  0.1480  0.3107 -0.1340
 8203SOL    HW236069   2.218   0.896   3.915  0.0161 -0.3167 -2.6339
 8204SOL     OW36070   3.214   3.918   0.547 -0.0834 -0.3600  0.3163
 8204SOL    HW136071   3.161   3.882   0.476  0.4505 -1.7036  0.6096
 8204SOL    HW236072   3.186   3.867   0.623 -2.5589 -1.6179 -1.4154
 8205SOL     OW36073   2.276   1.400   9.411  0.0073  0.0022  0.6396
 8205SOL    HW136074   2.368   1.425   9.412  0.2784 -0.9732 -0.3756
 8205SOL    HW236075   2.271   1.340   9.486  1.2541 -0.9572 -0.0478
 8206SOL     OW36076   3.880   1.213  12.985  0.7590  0.6266  0.1213
 8206SOL    HW136077   3.909   1.122  12.986  0.1679  0.3929 -2.9624
 8206SOL    HW236078   3.804   1.209  13.042  1.0513 -1.4093  0.3616
 8207SOL     OW36079   3.646   4.236  17.376 -0.3156  0.1146 -0.8700
 8207SOL    HW136080   3.580   4.209  17.313 -0.1412  0.6806 -1.2862
 8207SOL    HW236081   3.610   4.318  17.410 -1.0176 -0.9055  0.8533
 8208SOL     OW36082   2.424   4.458  16.456 -0.1013 -0.1483 -0.2277
 8208SOL    HW136083   2.469   4.543  16.463 -1.6231  0.4784  1.7587
 8208SOL    HW236084   2.411   4.457  16.361 -1.3159 -2.1005 -0.0163
 8209SOL     OW36085   0.665   3.984   6.483  0.1383 -0.2260  0.3840
 8209SOL    HW136086   0.701   4.069   6.455 -0.8426 -0.1729 -0.7035
 8209SOL    HW236087   0.619   3.949   6.407  0.1394 -0.2627  0.4005
 8210SOL     OW36088   3.694   0.608   0.047 -0.4595  0.5102 -0.0170
 8210SOL    HW136089   3.671   0.515   0.054  0.7986  0.3344  1.8385
 8210SOL    HW236090   3.757   0.605  17.663  0.3125  0.8283  0.6415
 8211SOL     OW36091   2.387   0.159   3.048 -0.4840  0.1902 -0.4991
 8211SOL    HW136092   2.465   0.206   3.074 -1.7170  1.1529  1.4594
 8211SOL    HW236093   2.427   0.111   2.975  2.7866 -0.0515  1.4509
 8212SOL     OW36094   2.443   3.858  16.943 -0.3575 -0.4312 -0.3551
 8212SOL    HW136095   2.452   3.901  17.028 -1.8637  1.7818 -1.3181
 8212SOL    HW236096   2.474   3.930  16.888  2.0013 -1.3310 -0.1874
 8213SOL     OW36097   3.359   3.296  10.636  0.6042 -0.7418  0.3581
 8213SOL    HW136098   3.275   3.329  10.667  0.9790  1.1747 -0.6595
 8213SOL    HW236099   3.375   3.232  10.706 -0.1769 -1.1368  0.1656
 8214SOL     OW36100   1.360   1.757   1.102  0.0436  0.5720 -0.3254
 8214SOL    HW136101   1.434   1.708   1.139 -0.7687 -1.1635 -0.9844
 8214SOL    HW236102   1.326   1.690   1.042 -2.8908  1.9291 -0.1679
 8215SOL     OW36103   0.121   2.720  10.866  0.2589 -0.1986  0.2288
 8215SOL    HW136104   0.130   2.766  10.783 -1.0022 -1.8989 -0.8242
 8215SOL    HW236105   0.117   2.792  10.929 -1.5584  0.7264 -0.9538
 8216SOL     OW36106   2.237   4.277   1.116 -0.2965  0.0964 -0.2226
 8216SOL    HW136107   2.240   4.339   1.189  1.2911 -1.2450  0.8529
 8216SOL    HW236108   2.242   4.188   1.152 -0.9138 -0.4511 -1.4933
 8217SOL     OW36109   3.545   1.715   7.424  0.7653 -0.7169  0.2923
 8217SOL    HW136110   3.509   1.636   7.465  1.0781 -1.2549 -0.4658
 8217SOL    HW236111   3.513   1.697   7.336 -1.5525  0.1135  0.9778
 8218SOL     OW36112   2.794   4.216   3.721 -0.0276  0.0899  0.2709
 8218SOL    HW136113   2.886   4.205   3.745  0.5344  1.8841 -1.0525
 8218SOL    HW236114   2.747   4.234   3.802 -2.0132  1.6602 -1.2277
 8219SOL     OW36115   0.143   4.704   7.164 -0.4715  0.0180  0.4976
 8219SOL    HW136116   0.195   4.682   7.086 -1.3505 -3.1541  0.7924
 8219SOL    HW236117   0.184   0.063   7.196 -0.7721 -0.0180  0.9592
 8220SOL     OW36118   4.682   2.955   8.152  0.0177 -0.2558 -0.3307
 8220SOL    HW136119   0.032   3.011   8.124 -3.0990  3.9082  0.1449
 8220SOL    HW236120   4.653   2.999   8.232 -1.4144 -1.9019  0.0873
 8221SOL     OW36121   4.688   0.033  16.262  0.2244  0.5442 -0.2266
 8221SOL    HW136122   4.717   4.665  16.279 -0.2153  0.5249  0.4661
 8221SOL    HW236123   4.598   0.032  16.296 -0.4629 -0.3460 -2.1031
 8222SOL     OW36124   0.745   3.282  10.947 -0.3015 -0.4626 -0.3339
 8222SOL    HW136125   0.706   3.321  11.025 -1.7006  0.1888 -1.3600
 8222SOL    HW236126   0.798   3.207  10.975  0.8008 -1.6546 -5.6211
 8223SOL     OW36127   1.656   4.704   9.738  0.3838 -0.4055  0.3942
 8223SOL    HW136128   1.694   4.619   9.713  0.3131 -0.6306  1.0643
 8223SOL    HW236129   1.575   4.701   9.686  1.3809 -1.4029 -1.1332
 8224SOL     OW36130   1.568   0.767   8.590 -0.3486 -0.7551  0.4660
 8224SOL    HW136131   1.636   0.700   8.593 -1.7544 -2.1080  2.1251
 8224SOL    HW236132   1.591   0.801   8.503 -0.8740  0.2113  0.7036
 8225SOL     OW36133   4.234   3.590   4.403 -0.2396  0.2631 -0.1769
 8225SOL    HW136134   4.159   3.591   4.462 -0.3942  2.0114 -0.4045
 8225SOL    HW236135   4.184   3.594   4.321 -0.7546 -1.1960  0.0699
 8226SOL     OW36136   3.351   2.524   0.583 -0.1814  0.4685 -0.2581
 8226SOL    HW136137   3.407   2.583   0.634  1.0528  0.0628 -1.1365
 8226SOL    HW236138   3.416   2.492   0.521 -0.4744  0.2086 -0.4283
 8227SOL     OW36139   1.065   2.973   7.340 -0.1808  0.1618  0.1874
 8227SOL    HW136140   1.140   3.008   7.290 -0.3368 -0.3002 -0.3643
 8227SOL    HW236141   1.091   2.882   7.329  0.7680  0.8033 -3.0051
 8228SOL     OW36142   3.391   2.735  15.067  0.2371 -0.6706 -0.1909
 8228SOL    HW136143   3.312   2.781  15.038  0.1203 -0.3584  0.6262
 8228SOL    HW236144   3.388   2.765  15.158 -0.0723 -1.5579  0.0976
 8229SOL     OW36145   2.254   1.195   8.701  0.1771 -0.2600 -0.5026
 8229SOL    HW136146   2.216   1.145   8.773  0.6464 -0.2544 -0.2549
 8229SOL    HW236147   2.264   1.123   8.639 -0.6791 -0.5478 -0.3082
 8230SOL     OW36148   3.307   3.124   6.778  0.2584  0.1612  0.0592
 8230SOL    HW136149   3.318   3.219   6.787  0.1142  0.0456  1.4376
 8230SOL    HW236150   3.248   3.102   6.850  0.9430  0.5946  0.7635
 8231SOL     OW36151   3.029   4.270   5.376  0.5942  0.3576  0.2361
 8231SOL    HW136152   2.996   4.223   5.299  1.9536  0.0902 -0.1926
 8231SOL    HW236153   3.116   4.289   5.341  0.1559 -1.5478 -1.9188
 8232SOL     OW36154   4.647   2.681   1.958 -0.1116 -0.5560 -0.3823
 8232SOL    HW136155   4.563   2.712   1.923 -1.5176 -1.8473  1.8709
 8232SOL    HW236156   4.655   2.749   2.025  0.0517  1.0992 -2.0703
 8233SOL     OW36157   1.010   1.338   9.124  0.1524  0.8075  0.1139
 8233SOL    HW136158   0.998   1.274   9.054  0.8786 -0.6193  1.2783
 8233SOL    HW236159   1.103   1.362   9.121  0.9455 -2.1852  0.1510
 8234SOL     OW36160   3.035   1.303   8.588 -0.4254  0.4327  0.4261
 8234SOL    HW136161   3.088   1.294   8.667 -2.1451  0.8461  1.6214
 8234SOL    HW236162   3.104   1.275   8.527 -1.7264 -3.4149  0.7097
 8235SOL     OW36163   0.170   3.295   3.459 -0.2681  0.0772 -0.0126
 8235SOL    HW136164   0.189   3.324   3.370  2.5469  1.4306  1.0053
 8235SOL    HW236165   0.255   3.268   3.494 -0.1462 -2.1365 -2.0359
 8236SOL     OW36166   1.047   1.919  13.593  0.1217 -0.8432  0.0955
 8236SOL    HW136167   1.141   1.921  13.575  0.1882  2.8616  0.9034
 8236SOL    HW236168   1.043   1.924  13.689  2.8362  0.4360  0.1407
 8237SOL     OW36169   4.458   1.103   0.265 -0.4604  0.1028  0.1143
 8237SOL    HW136170   4.548   1.131   0.250 -0.3508 -0.2752  0.0727
 8237SOL    HW236171   4.448   1.098   0.360  0.9851 -1.1646  0.1940
 8238SOL     OW36172   2.142   3.483   3.338 -0.3973  0.4502  0.3413
 8238SOL    HW136173   2.178   3.468   3.251  1.4837 -0.8547  1.3299
 8238SOL    HW236174   2.093   3.565   3.338 -0.4793  0.4001 -0.3976
 8239SOL     OW36175   3.867   4.220   0.038 -0.6213  0.1609  0.1978
 8239SOL    HW136176   3.790   4.271   0.065 -0.4496  0.9259 -0.7307
 8239SOL    HW236177   3.859   4.203  17.631 -0.4715  2.4767 -0.2377
 8240SOL     OW36178   3.519   0.521   3.087 -0.2027  0.2019 -0.6180
 8240SOL    HW136179   3.444   0.474   3.049 -0.6072  0.2814  0.0959
 8240SOL    HW236180   3.490   0.528   3.177  1.8271 -1.3711  0.1627
 8241SOL     OW36181   3.336   0.384   0.256 -0.1736 -0.0165 -0.2310
 8241SOL    HW136182   3.399   0.369   0.186 -0.6987  2.4059 -1.2403
 8241SOL    HW236183   3.262   0.391   0.195  0.9473  0.6170 -1.5120
 8242SOL     OW36184   2.086   0.015  13.334 -0.3048  0.3404  0.9575
 8242SOL    HW136185   2.051   0.000  13.247 -0.1864  0.5842  0.8689
 8242SOL    HW236186   2.072   0.109  13.346 -0.3837  0.6150 -1.3235
 8243SOL     OW36187   0.459   2.288  14.748  0.3795 -0.0504  0.5012
 8243SOL    HW136188   0.507   2.321  14.824 -0.1853 -1.5664  1.5103
 8243SOL    HW236189   0.456   2.196  14.774 -0.9935 -0.2234 -0.2884
 8244SOL     OW36190   3.893   2.288   7.344 -0.6500 -0.1527 -0.9647
 8244SOL    HW136191   3.928   2.374   7.320  1.9577 -1.1766 -0.8079
 8244SOL    HW236192   3.968   2.233   7.321 -0.8906 -0.6062 -0.6586
 8245SOL     OW36193   2.099   4.541   5.440  0.1508 -0.5080  0.4089
 8245SOL    HW136194   2.125   4.524   5.531 -2.3628 -0.3239  1.1737
 8245SOL    HW236195   2.028   4.605   5.450 -0.9126 -1.6398  0.0862
 8246SOL     OW36196   2.987   3.517   5.968  0.1486 -0.0278 -0.3212
 8246SOL    HW136197   3.017   3.561   5.888  1.4289  0.3541  0.3765
 8246SOL    HW236198   2.921   3.578   6.002 -0.6946 -0.6547 -0.8471
 8247SOL     OW36199   3.167   2.327   7.919 -0.3430  0.4742  0.0273
 8247SOL    HW136200   3.187   2.246   7.872  1.2293 -1.3294  3.7465
 8247SOL    HW236201   3.214   2.308   8.001 -1.5189  2.4495  1.1338
 8248SOL     OW36202   4.146   4.520  17.196  0.3601 -0.5205 -0.3741
 8248SOL    HW136203   4.080   4.552  17.135  1.5078  1.3509 -0.6480
 8248SOL    HW236204   4.096   4.468  17.259 -0.4718  0.0017 -0.6067
 8249SOL     OW36205   4.701   2.573  14.584 -0.0871 -0.2247 -0.4877
 8249SOL    HW136206   0.048   2.578  14.650 -0.6042  0.0037  0.0376
 8249SOL    HW236207   4.655   2.655  14.601  1.8684  0.5120  1.1696
 8250SOL     OW36208   3.933   0.459   6.443 -0.1832 -0.2186  0.0279
 8250SOL    HW136209   3.881   0.524   6.491 -0.4278 -0.0883 -0.4096
 8250SOL    HW236210   3.951   0.394   6.510 -0.4118 -0.3072  0.0050
 8251SOL     OW36211   2.209   1.456   2.240 -0.2461  0.2441  0.5124
 8251SOL    HW136212   2.208   1.511   2.162  0.0261  1.2712  1.2347
 8251SOL    HW236213   2.130   1.402   2.232 -1.4590  2.0972 -0.0489
 8252SOL     OW36214   4.202   3.152  12.251  0.0623 -0.0938 -0.1563
 8252SOL    HW136215   4.239   3.219  12.308  2.0810 -1.9414  0.7099
 8252SOL    HW236216   4.178   3.202  12.173 -0.9653  0.2185  0.3583
 8253SOL     OW36217   2.583   1.347   3.318  0.4556  0.7037 -0.1376
 8253SOL    HW136218   2.509   1.399   3.289 -1.6514 -2.3320 -0.1791
 8253SOL    HW236219   2.543   1.303   3.393  0.9276 -0.1272 -0.3704
 8254SOL     OW36220   2.482   0.094   1.239 -0.6492 -0.5171 -0.2762
 8254SOL    HW136221   2.573   0.093   1.270 -1.0878  1.4110  1.0281
 8254SOL    HW236222   2.496   0.143   1.158 -1.9722  0.0420 -0.1583
 8255SOL     OW36223   4.291   0.045  12.152 -0.5335  0.0238  0.2659
 8255SOL    HW136224   4.352   4.712  12.103  0.7933  1.8863 -0.1640
 8255SOL    HW236225   4.268   0.117  12.094  2.3790  1.7658  1.2337
 8256SOL     OW36226   1.179   1.324   4.288  0.2897 -0.4143  0.2791
 8256SOL    HW136227   1.213   1.340   4.376  0.7256  0.2658 -0.0197
 8256SOL    HW236228   1.127   1.244   4.300  1.1561 -0.5822  2.9297
 8257SOL     OW36229   4.381   3.728   6.113 -0.1741 -0.1825 -0.0860
 8257SOL    HW136230   4.330   3.809   6.122 -0.9720 -0.7252  0.3480
 8257SOL    HW236231   4.382   3.725   6.017  0.8978 -0.0369 -0.0808
 8258SOL     OW36232   1.449   3.761  15.830 -0.4028 -0.3265  0.3249
 8258SOL    HW136233   1.472   3.670  15.850 -1.1671 -0.7233 -0.6003
 8258SOL    HW236234   1.504   3.778  15.753 -1.0316  0.2389  0.0028
 8259SOL     OW36235   1.114   3.419   4.427 -0.4189  0.0828 -0.1178
 8259SOL    HW136236   1.071   3.360   4.366  1.7615 -0.9858 -0.6286
 8259SOL    HW236237   1.204   3.392   4.448 -0.4091  0.7677  0.7621
 8260SOL     OW36238   2.933   1.742   0.687 -0.2554 -0.4559 -0.0710
 8260SOL    HW136239   2.965   1.662   0.728 -2.9744 -2.1614 -1.2430
 8260SOL    HW236240   2.905   1.782   0.769 -0.8569 -0.8407 -0.0861
 8261SOL     OW36241   3.229   0.327   3.346 -0.0570 -0.4080  0.9628
 8261SOL    HW136242   3.240   0.267   3.272  1.0489  0.7484  0.1984
 8261SOL    HW236243   3.270   0.406   3.311  0.2749 -0.5570  1.0154
 8262SOL     OW36244   0.974   0.549   8.334 -0.4055  0.3708  0.1899
 8262SOL    HW136245   0.884   0.520   8.345 -0.0943 -0.5767  0.2386
 8262SOL    HW236246   1.019   0.467   8.352 -1.1181 -0.0290  0.1592
 8263SOL     OW36247   4.063   4.575   5.489  0.1125 -0.5234 -0.0071
 8263SOL    HW136248   4.117   4.606   5.416 -0.1368  2.3115  1.0437
 8263SOL    HW236249   3.982   4.550   5.444 -0.5734  0.2026  0.8310
 8264SOL     OW36250   1.775   1.092  12.498 -0.0494  0.4932 -0.0787
 8264SOL    HW136251   1.803   1.160  12.438 -0.6754  1.6711  0.9699
 8264SOL    HW236252   1.793   1.131  12.584 -1.4033  1.7755 -0.3790
 8265SOL     OW36253   0.731   2.588   7.873  0.2563  0.2233  0.1579
 8265SOL    HW136254   0.733   2.505   7.825  0.2783 -0.0342  0.6039
 8265SOL    HW236255   0.745   2.561   7.963  1.5029  2.8381  0.7451
 8266SOL     OW36256   1.830   3.538   4.533  0.3325  0.1588  0.6975
 8266SOL    HW136257   1.759   3.593   4.567 -0.3762  0.8547 -1.9095
 8266SOL    HW236258   1.902   3.601   4.536 -0.6415  1.2471  1.3404
 8267SOL     OW36259   2.345   3.597   4.601 -0.2152 -0.1417 -0.8030
 8267SOL    HW136260   2.327   3.565   4.689 -0.2532 -0.3250 -0.8764
 8267SOL    HW236261   2.373   3.685   4.624  1.3122 -1.0592  0.8924
 8268SOL     OW36262   0.706   0.533   3.004 -0.2771  0.4742  0.0867
 8268SOL    HW136263   0.750   0.565   3.082 -2.1250  0.6511  1.0633
 8268SOL    HW236264   0.758   0.455   2.982  0.1309  0.0522  2.6102
 8269SOL     OW36265   4.521   1.129   8.759  0.1419 -0.4665 -0.0943
 8269SOL    HW136266   4.446   1.151   8.703 -0.8044 -0.6424  1.0854
 8269SOL    HW236267   4.592   1.111   8.698  0.4052  0.3823 -0.0439
 8270SOL     OW36268   2.963   2.554   9.498 -0.3447 -0.0023  1.1004
 8270SOL    HW136269   2.889   2.547   9.558  0.1312 -4.1750  1.2051
 8270SOL    HW236270   2.918   2.534   9.416 -1.9892  0.3341  1.9175
 8271SOL     OW36271   3.661   3.630   8.951  0.5740  0.2229 -0.1190
 8271SOL    HW136272   3.566   3.634   8.939  0.6722 -0.9261 -1.2331
 8271SOL    HW236273   3.680   3.543   8.914 -1.3119  0.0721 -0.7462
 8272SOL     OW36274   2.288   0.434   2.118 -0.4672 -0.1608 -0.3353
 8272SOL    HW136275   2.355   0.498   2.092 -0.5262 -0.0460 -0.2064
 8272SOL    HW236276   2.223   0.438   2.048 -0.8648 -3.6973 -0.1700
 8273SOL     OW36277   4.586   0.554   5.956  0.7318  0.0026  0.2637
 8273SOL    HW136278   4.494   0.557   5.982  1.0059 -0.2588  1.2525
 8273SOL    HW236279   4.612   0.476   6.005 -2.6340 -0.7515  0.8758
 8274SOL     OW36280   4.499   3.691   7.372 -0.2814 -0.4916 -0.1316
 8274SOL    HW136281   4.488   3.721   7.462  0.1862  2.0445 -0.9312
 8274SOL    HW236282   4.573   3.632   7.385 -0.0620 -0.4123 -1.0300
 8275SOL     OW36283   4.693   4.369   3.365 -0.1863  0.0168  0.0404
 8275SOL    HW136284   0.030   4.437   3.398 -0.1316 -0.5404  1.0946
 8275SOL    HW236285   0.023   4.291   3.343 -1.7949 -1.3247  1.0250
 8276SOL     OW36286   1.645   3.903   2.102  0.1094 -0.1589  0.0594
 8276SOL    HW136287   1.612   3.824   2.060 -0.2280  0.0208 -0.0104
 8276SOL    HW236288   1.567   3.957   2.118  0.4935  0.6007 -0.6284
 8277SOL     OW36289   1.903   0.889  13.221  0.4945 -0.6249 -0.3790
 8277SOL    HW136290   1.993   0.915  13.238 -0.0526  0.3955  0.9562
 8277SOL    HW236291   1.856   0.957  13.269  0.5369  0.1150 -1.3811
 8278SOL     OW36292   2.741   0.214   3.460  0.1277  0.2654  0.3500
 8278SOL    HW136293   2.821   0.225   3.410  0.7467 -2.1707  0.7995
 8278SOL    HW236294   2.713   0.304   3.473 -0.1359  0.2332 -0.0056
 8279SOL     OW36295   2.383   1.513  10.933  0.0402 -0.2797 -0.5828
 8279SOL    HW136296   2.398   1.566  10.855  2.2322 -0.6217 -0.3676
 8279SOL    HW236297   2.337   1.434  10.905  1.1771 -0.4197 -1.9966
 8280SOL     OW36298   2.526   2.338  15.948  0.4249  0.5307 -0.0464
 8280SOL    HW136299   2.474   2.262  15.974  0.4233  0.3019 -0.7090
 8280SOL    HW236300   2.578   2.351  16.026  2.0223 -3.3873 -0.4391
 8281SOL     OW36301   0.639   3.748   7.915  0.1345  0.1928 -0.5483
 8281SOL    HW136302   0.702   3.679   7.936 -0.4501 -0.2065 -0.1191
 8281SOL    HW236303   0.648   3.801   7.995 -1.6944 -1.5793  0.8217
 8282SOL     OW36304   3.920   3.021  15.588  0.2470  0.3136  0.1056
 8282SOL    HW136305   3.896   3.091  15.527 -1.1638  1.2404  1.7351
 8282SOL    HW236306   3.971   2.967  15.527 -0.3149  1.6152 -1.5319
 8283SOL     OW36307   0.347   3.838  17.028  0.0312  0.0007 -0.1104
 8283SOL    HW136308   0.423   3.885  16.996 -1.1078  2.6359  1.0372
 8283SOL    HW236309   0.392   3.760  17.062  1.5273  1.1338  0.5082
 8284SOL     OW36310   0.658   0.967   1.933  0.0016 -0.2989 -0.4232
 8284SOL    HW136311   0.749   0.962   1.904  0.6918  2.9181  1.1523
 8284SOL    HW236312   0.626   0.880   1.910  3.1157 -1.1277 -1.5826
 8285SOL     OW36313   1.842   0.090   8.941 -0.2757  0.0048 -0.3097
 8285SOL    HW136314   1.749   0.075   8.928 -0.7087  2.7745 -0.4967
 8285SOL    HW236315   1.888   0.063   8.861 -1.1329 -1.8500 -0.1655
 8286SOL     OW36316   3.933   1.943   2.460  0.3897 -0.0836  0.1767
 8286SOL    HW136317   4.021   1.974   2.441  0.4973 -1.3284 -1.4451
 8286SOL    HW236318   3.939   1.956   2.554  0.2407 -0.4102  0.2357
 8287SOL     OW36319   3.372   4.188   1.282 -0.0158 -0.8226  0.1797
 8287SOL    HW136320   3.358   4.118   1.219 -1.4684 -2.3318  2.2080
 8287SOL    HW236321   3.416   4.144   1.354  2.2500  0.6748 -0.2670
 8288SOL     OW36322   0.168   1.146  14.362 -0.3520 -0.2084  0.2475
 8288SOL    HW136323   0.256   1.108  14.354  0.1129  0.8403  0.4218
 8288SOL    HW236324   0.190   1.239  14.367 -1.1545  0.1090 -2.1996
 8289SOL     OW36325   0.431   1.991   8.967 -0.1633 -0.3983 -0.1635
 8289SOL    HW136326   0.499   1.977   9.033  0.8087  0.2365 -1.0366
 8289SOL    HW236327   0.492   1.983   8.894  0.2613  0.6846  0.0685
 8290SOL     OW36328   0.292   3.216   5.696  0.4764  0.2627 -0.4188
 8290SOL    HW136329   0.286   3.208   5.791  0.0280 -1.4164 -0.5837
 8290SOL    HW236330   0.362   3.280   5.686  0.6731  0.2220  0.6804
 8291SOL     OW36331   2.962   3.577  14.255 -0.4225  0.2313  0.3253
 8291SOL    HW136332   2.975   3.527  14.335 -0.1864  1.0463  0.7976
 8291SOL    HW236333   2.937   3.660  14.296  0.0887  0.0755  0.9484
 8292SOL     OW36334   4.340   0.010   7.851 -0.5055 -0.0831 -0.1714
 8292SOL    HW136335   4.332   4.671   7.925  0.0991 -1.8606 -1.5476
 8292SOL    HW236336   4.332   4.671   7.777  1.7585 -0.3998 -0.1569
 8293SOL     OW36337   2.229   1.607   3.863  0.7909 -0.6283 -0.4760
 8293SOL    HW136338   2.287   1.604   3.939 -2.2027  0.6393  1.8369
 8293SOL    HW236339   2.278   1.660   3.799  1.0623 -0.2083  0.0771
 8294SOL     OW36340   2.516   2.821   4.181  0.4500 -0.1922 -0.0728
 8294SOL    HW136341   2.445   2.797   4.241 -0.1359  2.3241  0.2374
 8294SOL    HW236342   2.567   2.742   4.164  0.5220  0.0257 -0.8597
 8295SOL     OW36343   3.675   2.462   0.152 -0.5042  0.0383 -0.2187
 8295SOL    HW136344   3.759   2.422   0.175 -1.0134 -1.9683 -1.8553
 8295SOL    HW236345   3.641   2.404   0.084  2.8435  1.2053 -2.9006
 8296SOL     OW36346   0.659   1.365   0.703  0.1633 -0.0901  0.3504
 8296SOL    HW136347   0.745   1.384   0.739  0.6900  0.0328 -0.9911
 8296SOL    HW236348   0.622   1.453   0.711  1.7431  0.6026  0.1008
 8297SOL     OW36349   2.259   0.208   0.026  0.9248  0.0309 -0.3456
 8297SOL    HW136350   2.255   0.295  17.674 -1.5722  0.5984  1.1887
 8297SOL    HW236351   2.314   0.171  17.644  0.4298 -0.7099 -0.3451
 8298SOL     OW36352   0.478   0.006   7.840  0.3090  0.1681 -0.2361
 8298SOL    HW136353   0.396   0.003   7.790  0.8326  0.0878 -1.0825
 8298SOL    HW236354   0.542   0.024   7.771 -1.4420  1.7901 -1.4479
 8299SOL     OW36355   3.061   3.123   4.103 -0.7483 -0.3923  0.6885
 8299SOL    HW136356   3.023   3.089   4.022  1.6201 -0.1498 -0.5278
 8299SOL    HW236357   3.139   3.068   4.101 -0.1885  0.4935 -1.4675
 8300SOL     OW36358   2.434   4.186   9.589  0.2202 -0.7364 -0.1612
 8300SOL    HW136359   2.523   4.196   9.554 -0.5632  0.3188 -1.8268
 8300SOL    HW236360   2.452   4.219   9.677  0.0635  0.6709 -0.6624
 8301SOL     OW36361   0.618   2.191  13.296 -0.3416  0.0720 -1.0248
 8301SOL    HW136362   0.544   2.151  13.249 -0.3017 -0.4658 -0.6357
 8301SOL    HW236363   0.624   2.282  13.268 -1.7106  0.1872 -0.9518
 8302SOL     OW36364   3.438   3.565   7.912  0.1440  0.4418 -0.0233
 8302SOL    HW136365   3.467   3.528   7.995 -0.6154  1.3618  0.6555
 8302SOL    HW236366   3.507   3.600   7.857  0.3822 -1.1277 -0.7327
 8303SOL     OW36367   1.894   0.245   1.896 -0.1028 -0.1620 -0.6345
 8303SOL    HW136368   1.955   0.175   1.876 -0.1219  0.4183 -2.7161
 8303SOL    HW236369   1.864   0.233   1.986  3.4155 -2.2670  0.2503
 8304SOL     OW36370   3.996   0.407   0.469  0.0877  0.3845 -0.3606
 8304SOL    HW136371   4.060   0.436   0.534  1.9999 -1.4975 -1.4151
 8304SOL    HW236372   3.917   0.419   0.523  1.5262  0.5519  1.7158
 8305SOL     OW36373   4.003   3.322   4.768  0.1618 -0.6732  0.2730
 8305SOL    HW136374   4.019   3.269   4.846  0.0166 -1.3227 -0.1330
 8305SOL    HW236375   3.997   3.254   4.701  0.0014  0.2753 -0.6772
 8306SOL     OW36376   2.187   2.433   3.044  0.1431 -0.2778 -0.6319
 8306SOL    HW136377   2.104   2.403   3.006 -0.0324  2.7269 -2.5904
 8306SOL    HW236378   2.154   2.488   3.115 -0.2736  1.4150 -2.1435
 8307SOL     OW36379   3.345   0.218   4.049  0.5604 -0.5905 -0.9531
 8307SOL    HW136380   3.382   0.302   4.074  0.0555 -0.8457  0.6217
 8307SOL    HW236381   3.385   0.214   3.962  0.5406  0.5857 -1.0153
 8308SOL     OW36382   0.741   3.843   7.037 -0.0017  0.0462  0.0833
 8308SOL    HW136383   0.723   3.918   6.981 -1.2375 -0.3953 -0.1124
 8308SOL    HW236384   0.836   3.845   7.033 -0.0428  0.3577 -0.7959
 8309SOL     OW36385   2.390   4.043   8.710  1.0584  0.4990 -0.2531
 8309SOL    HW136386   2.391   4.074   8.619 -0.5229  1.1056 -0.0567
 8309SOL    HW236387   2.475   4.079   8.737  0.9586 -0.3462  1.1450
 8310SOL     OW36388   3.428   3.138   3.154 -0.2441 -0.0291  0.3929
 8310SOL    HW136389   3.457   3.192   3.228  0.6795  0.5813 -0.4275
 8310SOL    HW236390   3.386   3.211   3.109  2.7299  0.1584 -2.0604
 8311SOL     OW36391   3.917   1.167  10.830 -0.5143  0.4113  0.5019
 8311SOL    HW136392   3.960   1.241  10.873  0.9455  1.1392 -2.2146
 8311SOL    HW236393   3.932   1.094  10.889  1.3271  1.7723  1.7404
 8312SOL     OW36394   2.359   2.379  12.513 -0.3984 -0.1293  0.0660
 8312SOL    HW136395   2.325   2.289  12.519 -1.7440  0.1796 -3.3881
 8312SOL    HW236396   2.445   2.361  12.475  0.0238  4.9160 -1.2776
 8313SOL     OW36397   3.691   4.123  10.479  0.0040 -0.1390 -0.6032
 8313SOL    HW136398   3.728   4.074  10.552  1.8931 -0.0772 -1.5290
 8313SOL    HW236399   3.684   4.058  10.409  2.2523  1.0734 -1.9459
 8314SOL     OW36400   1.044   4.017   1.929  0.4350 -0.3008  1.2112
 8314SOL    HW136401   0.959   4.010   1.886  1.4994 -1.0688 -0.7867
 8314SOL    HW236402   1.101   3.980   1.861 -0.4557 -0.5167  0.5913
 8315SOL     OW36403   2.092   1.054   1.574  0.3229 -0.0801 -0.3089
 8315SOL    HW136404   2.092   1.127   1.512  1.0563 -0.7640 -1.0995
 8315SOL    HW236405   2.002   1.032   1.550  0.6252  0.3877 -1.8467
 8316SOL     OW36406   1.127   3.957   6.098 -0.7639 -0.6398 -0.0339
 8316SOL    HW136407   1.174   3.922   6.023  0.7767 -1.6754  1.4215
 8316SOL    HW236408   1.138   3.887   6.162  0.8996  0.2196  0.6255
 8317SOL     OW36409   3.547   0.359  14.144 -0.0199  0.2048 -0.1074
 8317SOL    HW136410   3.469   0.307  14.124  0.0870 -0.7034  1.7891
 8317SOL    HW236411   3.551   0.425  14.075  0.2117 -0.4651 -0.7359
 8318SOL     OW36412   1.267   2.737   4.663  0.8765 -0.2680  0.3931
 8318SOL    HW136413   1.225   2.812   4.704 -0.2006 -0.2194 -0.8168
 8318SOL    HW236414   1.362   2.750   4.671  0.8355  2.4118 -3.2822
 8319SOL     OW36415   1.183   3.841   2.721  0.2643 -0.1055  0.3688
 8319SOL    HW136416   1.256   3.895   2.752  0.5337 -0.8967  1.1274
 8319SOL    HW236417   1.184   3.853   2.626 -0.8008  0.9585  0.4966
 8320SOL     OW36418   2.286   0.915   0.443 -0.3445  0.3631  0.7732
 8320SOL    HW136419   2.291   0.880   0.354 -0.0557  0.3559  0.7934
 8320SOL    HW236420   2.303   0.836   0.493  1.7529  0.8504  0.8267
 8321SOL     OW36421   2.989   4.146   2.405 -0.9725 -0.6300 -0.0822
 8321SOL    HW136422   3.052   4.212   2.377  2.1145 -3.8955 -0.7081
 8321SOL    HW236423   2.926   4.158   2.334 -0.7148 -1.3977 -0.4336
 8322SOL     OW36424   1.659   1.164   4.836  0.3188  0.7136 -0.2066
 8322SOL    HW136425   1.750   1.155   4.864 -0.0351 -0.2870  0.5832
 8322SOL    HW236426   1.665   1.134   4.745  1.3783 -1.1963  0.4977
 8323SOL     OW36427   2.182   1.307   3.414 -0.5411 -0.2687  0.1977
 8323SOL    HW136428   2.211   1.330   3.502 -0.5853 -0.4513  0.2598
 8323SOL    HW236429   2.252   1.248   3.385  1.6564  2.3891  0.0979
 8324SOL     OW36430   1.784   3.345   6.893  0.0975  0.0085  0.5227
 8324SOL    HW136431   1.785   3.393   6.976  1.0783  1.6343 -0.4251
 8324SOL    HW236432   1.759   3.416   6.833 -2.5157 -1.1561  0.2346
 8325SOL     OW36433   2.831   0.357  17.190  0.7411  0.2476 -0.1394
 8325SOL    HW136434   2.816   0.419  17.119 -1.5994  0.2233  0.3014
 8325SOL    HW236435   2.818   0.415  17.266  0.5027  0.4896 -0.3647
 8326SOL     OW36436   3.493   0.794   4.896  0.0855 -0.2437 -0.0789
 8326SOL    HW136437   3.569   0.851   4.898 -1.2869  1.5535  0.6909
 8326SOL    HW236438   3.432   0.848   4.946  0.5848 -0.3667  0.6545
 8327SOL     OW36439   4.459   3.846   2.255  0.1568 -0.2060  0.0272
 8327SOL    HW136440   4.391   3.869   2.192 -0.0478 -0.5937  0.1068
 8327SOL    HW236441   4.537   3.860   2.201 -0.4436  2.7225 -0.0504
 8328SOL     OW36442   0.044   4.473  17.672  0.4027  0.0168  0.1115
 8328SOL    HW136443   0.085   4.559  17.664  1.0182 -0.4942 -2.2646
 8328SOL    HW236444   0.068   4.457   0.076 -0.5223 -0.5153  0.2644
 8329SOL     OW36445   1.259   0.812   6.130 -0.0346  0.4623  0.1354
 8329SOL    HW136446   1.306   0.730   6.121  0.8569  0.6913  2.8645
 8329SOL    HW236447   1.250   0.808   6.225 -1.3122  0.9729  0.0482
 8330SOL     OW36448   4.120   4.609   9.986  0.1270  0.1919 -0.3568
 8330SOL    HW136449   4.027   4.602  10.006 -0.1510  4.2171 -0.2004
 8330SOL    HW236450   4.131   4.690   9.935 -0.2612  1.6451  1.8562
 8331SOL     OW36451   4.328   1.283  17.616  0.3359  0.1767  0.8003
 8331SOL    HW136452   4.421   1.273  17.637 -0.1529  0.4187  3.1168
 8331SOL    HW236453   4.313   1.360  17.671  1.7421  1.7281 -0.9984
 8332SOL     OW36454   2.693   4.374   5.987 -0.5163  0.2313 -0.9661
 8332SOL    HW136455   2.637   4.322   6.045  1.5108 -0.3965  0.4403
 8332SOL    HW236456   2.681   4.332   5.902  0.9280 -1.9510 -0.1138
 8333SOL     OW36457   2.770   3.794   3.434 -0.5654 -0.3378 -0.0836
 8333SOL    HW136458   2.783   3.713   3.482 -3.8682  0.2281  1.7576
 8333SOL    HW236459   2.697   3.775   3.375 -1.0875 -1.7217  1.0157
 8334SOL     OW36460   3.779   1.260   1.532  0.1949 -0.0522  0.0033
 8334SOL    HW136461   3.834   1.318   1.583  0.5347  1.1751 -1.7533
 8334SOL    HW236462   3.821   1.177   1.554 -2.8695 -1.4733  0.4569
 8335SOL     OW36463   0.817   4.709   5.670 -0.1619  0.5232  0.2095
 8335SOL    HW136464   0.811   4.637   5.732  0.7070  0.4028  0.1594
 8335SOL    HW236465   0.863   0.050   5.728  1.1934  2.1442 -2.5853
 8336SOL     OW36466   1.799   4.049   8.216  0.6755 -0.4301 -0.2891
 8336SOL    HW136467   1.754   4.096   8.286  2.6493  1.6929 -0.4557
 8336SOL    HW236468   1.801   4.104   8.138  1.9731  1.2812  0.9427
 8337SOL     OW36469   0.607   3.003   5.171 -0.0679  0.0451  0.0930
 8337SOL    HW136470   0.565   3.080   5.132  0.3128  0.0735 -0.2504
 8337SOL    HW236471   0.695   2.997   5.136 -0.4916  2.6756 -1.4071
 8338SOL     OW36472   2.335   0.085   9.110 -0.6714  0.4505 -0.2317
 8338SOL    HW136473   2.351   0.009   9.166 -0.0368  1.0695  0.4202
 8338SOL    HW236474   2.415   0.083   9.058  0.4071  0.0700  1.4335
 8339SOL     OW36475   1.668   1.745  15.687  0.0449 -0.0939 -0.6291
 8339SOL    HW136476   1.739   1.704  15.637  1.9384 -1.4863  3.1998
 8339SOL    HW236477   1.711   1.831  15.690 -1.4325  0.5837  1.2857
 8340SOL     OW36478   0.826   1.430   2.988  0.3878 -0.1673  0.0294
 8340SOL    HW136479   0.892   1.493   2.959  0.0260 -0.0374 -0.5120
 8340SOL    HW236480   0.878   1.355   3.015  0.4070  0.0516  0.6074
 8341SOL     OW36481   3.355   1.425   2.905 -0.8018  0.2499  0.8218
 8341SOL    HW136482   3.264   1.453   2.891 -1.3654 -2.3425 -0.7047
 8341SOL    HW236483   3.351   1.433   3.000 -2.8361 -0.0976  0.7650
 8342SOL     OW36484   4.181   3.582  16.257 -0.4454 -0.8867  0.3423
 8342SOL    HW136485   4.148   3.550  16.341  0.7831  0.9361  1.5164
 8342SOL    HW236486   4.272   3.586  16.286  0.2642 -0.5361 -1.9108
 8343SOL     OW36487   1.330   4.702   2.266 -0.1481  0.1852  0.0924
 8343SOL    HW136488   1.272   4.630   2.292  0.4167 -0.8551 -1.5079
 8343SOL    HW236489   1.274   0.055   2.242  0.0956  0.6573  0.9838
 8344SOL     OW36490   2.587   2.261  12.429  0.2021  0.1470  0.0392
 8344SOL    HW136491   2.663   2.296  12.384 -0.2204  1.5766  0.4547
 8344SOL    HW236492   2.626   2.203  12.495 -0.3028 -1.4003 -1.0039
 8345SOL     OW36493   2.308   2.991   2.173  0.3010 -0.1916 -0.2217
 8345SOL    HW136494   2.361   3.070   2.163 -1.3815  0.7551 -1.6637
 8345SOL    HW236495   2.293   2.961   2.083 -2.7701 -0.8924  0.5265
 8346SOL     OW36496   0.351   4.500   6.477  0.1452  0.1480 -0.0538
 8346SOL    HW136497   0.440   4.519   6.446 -0.0910 -2.2757 -2.1324
 8346SOL    HW236498   0.372   4.433   6.541 -1.7530 -0.5375 -0.1464
 8347SOL     OW36499   2.968   1.980   0.867  0.1822 -0.6393  0.1458
 8347SOL    HW136500   2.974   2.063   0.821 -0.3984 -0.8030 -0.2241
 8347SOL    HW236501   2.907   1.995   0.939  0.3583  0.8478 -0.0230
 8348SOL     OW36502   4.400   2.623   2.399 -0.3207  0.1966 -0.0201
 8348SOL    HW136503   4.331   2.570   2.440  0.5779 -0.6446  0.4139
 8348SOL    HW236504   4.366   2.622   2.310 -1.6083  0.0995  0.4793
 8349SOL     OW36505   3.476   0.243   2.960  0.3758 -0.2640 -0.1889
 8349SOL    HW136506   3.547   0.233   3.024  0.8669  0.4451 -0.6249
 8349SOL    HW236507   3.524   0.279   2.886  0.6277  1.1413  0.6568
 8350SOL     OW36508   3.362   4.678   1.413  0.6358  0.0548  0.0070
 8350SOL    HW136509   3.353   4.703   1.504  3.2012  1.3577 -0.0810
 8350SOL    HW236510   3.455   4.697   1.397  1.4137 -0.8412  3.5018
 8351SOL     OW36511   1.554   4.425  14.585 -0.0533  0.0087 -0.8028
 8351SOL    HW136512   1.615   4.353  14.568  1.2474  1.0341 -0.3903
 8351SOL    HW236513   1.543   4.407  14.679  2.6447  2.0563 -0.0963
 8352SOL     OW36514   3.133   1.979  13.378 -0.1015 -0.8287 -0.4129
 8352SOL    HW136515   3.078   2.050  13.409  2.2970  0.9627 -0.2843
 8352SOL    HW236516   3.217   1.999  13.418 -1.4194  0.6564  1.5805
 8353SOL     OW36517   0.212   2.336   2.454 -0.5151  0.3188 -0.0876
 8353SOL    HW136518   0.158   2.295   2.521 -2.9055 -0.7323 -2.6225
 8353SOL    HW236519   0.226   2.424   2.490  0.2572 -0.0765  0.5617
 8354SOL     OW36520   1.158   3.158  14.206  0.6319 -0.6710  0.3460
 8354SOL    HW136521   1.065   3.135  14.206  0.9486 -1.9775 -0.3940
 8354SOL    HW236522   1.175   3.151  14.112  1.4060 -3.1157  0.6537
 8355SOL     OW36523   2.077   2.679  11.083 -0.7967 -0.1038  0.3398
 8355SOL    HW136524   2.116   2.717  11.004  1.9440 -0.5302  1.4938
 8355SOL    HW236525   2.015   2.749  11.104 -0.4467  0.2531  0.1927
 8356SOL     OW36526   3.084   4.187   6.053  0.8260  0.2356 -0.3330
 8356SOL    HW136527   3.089   4.166   6.147 -1.0055  0.7011 -0.1272
 8356SOL    HW236528   3.034   4.270   6.054  0.4069 -0.0274  0.7630
 8357SOL     OW36529   1.807   2.767  16.215 -0.4471  0.5193 -0.2358
 8357SOL    HW136530   1.891   2.753  16.170 -0.2436 -3.2139  1.2921
 8357SOL    HW236531   1.832   2.789  16.304  0.6843 -1.6424 -0.0320
 8358SOL     OW36532   3.548   4.089   5.249 -0.1151 -0.5307  0.1520
 8358SOL    HW136533   3.578   4.180   5.241  0.0490 -0.8257 -2.6142
 8358SOL    HW236534   3.584   4.071   5.336 -0.4314 -0.3709  0.3166
 8359SOL     OW36535   4.207   3.763   9.540 -0.9303  0.3372 -0.2358
 8359SOL    HW136536   4.258   3.844   9.549  0.9832 -0.8115 -0.7402
 8359SOL    HW236537   4.179   3.749   9.630  1.6938 -0.5833  0.4326
 8360SOL     OW36538   3.186   1.948   7.138 -0.0554 -0.5214  0.1010
 8360SOL    HW136539   3.232   2.022   7.178 -1.3948 -0.4988  1.5934
 8360SOL    HW236540   3.108   1.949   7.193  1.6095  0.4356  2.4461
 8361SOL     OW36541   0.502   2.583  14.221  0.3732  0.2899  0.1453
 8361SOL    HW136542   0.515   2.489  14.210  2.9841  0.7499 -0.6016
 8361SOL    HW236543   0.408   2.582  14.243  0.6351 -3.1405  0.9968
 8362SOL     OW36544   3.452   0.735   2.929  0.2900  0.5903  0.3593
 8362SOL    HW136545   3.475   0.694   3.012  0.6288  2.9609  1.4346
 8362SOL    HW236546   3.445   0.662   2.868 -0.7665  0.6119  0.4389
 8363SOL     OW36547   2.200   0.808  15.385  0.1965  0.6616  0.3795
 8363SOL    HW136548   2.180   0.714  15.387  1.0746  0.4571 -0.7542
 8363SOL    HW236549   2.214   0.818  15.291  0.4549 -2.2709  0.1150
 8364SOL     OW36550   1.494   0.772  11.111 -0.2305 -0.3865 -0.0060
 8364SOL    HW136551   1.502   0.832  11.185  0.7322 -1.5777  0.8537
 8364SOL    HW236552   1.526   0.691  11.151 -0.8677 -0.6925 -0.1146
 8365SOL     OW36553   4.300   4.446  15.127  0.3026 -0.5050  0.1436
 8365SOL    HW136554   4.277   4.524  15.177  0.3316  1.0157 -2.2388
 8365SOL    HW236555   4.278   4.465  15.036 -1.5078 -1.1620  0.4459
 8366SOL     OW36556   2.867   1.884   5.323  0.4465  0.3515  0.0585
 8366SOL    HW136557   2.867   1.979   5.314 -1.0176  0.4759  1.4604
 8366SOL    HW236558   2.899   1.891   5.413  1.4464  0.8450 -0.3359
 8367SOL     OW36559   1.663   3.612  15.711  0.0926 -0.2104  0.2439
 8367SOL    HW136560   1.720   3.686  15.734 -1.4729  1.6249 -1.8209
 8367SOL    HW236561   1.729   3.546  15.691  1.5348  2.1770 -2.8205
 8368SOL     OW36562   2.056   0.223   6.791 -0.0837  0.0114  0.3336
 8368SOL    HW136563   2.081   0.215   6.883  1.5169 -1.3110 -0.1981
 8368SOL    HW236564   2.129   0.271   6.751 -1.1346  2.0774  0.9414
 8369SOL     OW36565   1.441   3.847  13.250 -0.5293  0.0396 -0.2961
 8369SOL    HW136566   1.439   3.751  13.245  1.1887  0.2476 -5.3973
 8369SOL    HW236567   1.404   3.863  13.337 -1.6265  0.3420 -0.8130
 8370SOL     OW36568   1.104   4.503   1.508  0.2538  0.9852  0.2410
 8370SOL    HW136569   1.069   4.473   1.592 -1.4033  0.2824 -0.6844
 8370SOL    HW236570   1.198   4.497   1.524  0.2930 -0.7192 -0.6535
 8371SOL     OW36571   1.686   0.620  10.877 -0.3350 -0.1295 -0.2823
 8371SOL    HW136572   1.709   0.596  10.787 -2.3709 -0.0522 -0.8356
 8371SOL    HW236573   1.591   0.631  10.869 -0.3533 -0.3623 -0.3811
 8372SOL     OW36574   0.491   0.303   3.443  0.4837  0.0699 -0.0813
 8372SOL    HW136575   0.439   0.330   3.367 -0.2725  1.4767  0.9322
 8372SOL    HW236576   0.443   0.345   3.515 -0.3130 -1.5170  0.3138
 8373SOL     OW36577   1.856   4.541   1.155  0.0944  0.7088  0.4398
 8373SOL    HW136578   1.817   4.583   1.078  0.6569 -0.8249 -0.6941
 8373SOL    HW236579   1.948   4.553   1.133  0.0556  0.3643  0.0856
 8374SOL     OW36580   1.215   1.279   7.521  0.8078  0.5780 -0.1922
 8374SOL    HW136581   1.183   1.369   7.513  1.9162  1.0630  0.8934
 8374SOL    HW236582   1.219   1.258   7.427 -0.6893  0.6882 -0.2927
 8375SOL     OW36583   1.210   1.555   5.502 -0.7697  0.0692 -0.3760
 8375SOL    HW136584   1.265   1.488   5.462  1.1402  0.9249  0.8004
 8375SOL    HW236585   1.205   1.618   5.430 -0.2873 -1.1703 -1.4881
 8376SOL     OW36586   1.136   1.852   6.016  0.0803  0.1049 -0.5353
 8376SOL    HW136587   1.195   1.811   6.079  2.5022  2.1549 -1.4547
 8376SOL    HW236588   1.105   1.931   6.061 -2.0792 -0.0966 -1.6652
 8377SOL     OW36589   1.667   1.020   5.326  0.3150  0.7274 -0.5739
 8377SOL    HW136590   1.750   1.067   5.324  1.5273 -1.5270 -3.7891
 8377SOL    HW236591   1.690   0.932   5.357 -0.1556  0.4705 -0.9471
 8378SOL     OW36592   2.486   3.026  10.754 -0.4942  0.0397 -0.5925
 8378SOL    HW136593   2.413   2.969  10.729 -0.9753  0.2465  0.3273
 8378SOL    HW236594   2.512   3.042  10.664  0.6578  3.7978  0.3783
 8379SOL     OW36595   0.664   0.140  11.712 -0.0585  0.3269  0.1957
 8379SOL    HW136596   0.755   0.166  11.706 -0.4670  1.5671 -0.6477
 8379SOL    HW236597   0.660   0.067  11.773 -1.3378  0.4885  0.3164
 8380SOL     OW36598   1.249   1.531   7.129  0.1618  0.1442  0.0186
 8380SOL    HW136599   1.179   1.569   7.182  0.4156  1.6064 -0.6995
 8380SOL    HW236600   1.297   1.612   7.115  0.3141  0.1810  0.7530
 8381SOL     OW36601   1.074   1.004  14.889 -0.3577  0.2568 -0.2211
 8381SOL    HW136602   1.093   1.003  14.983  1.7678 -1.9139 -0.6844
 8381SOL    HW236603   0.979   1.013  14.898 -0.5937 -1.8282 -0.8126
 8382SOL     OW36604   4.309   1.094   7.033 -0.1304 -0.1677 -0.0741
 8382SOL    HW136605   4.292   1.188   7.031 -0.6314 -0.3226 -2.1155
 8382SOL    HW236606   4.249   1.052   6.971 -1.5279 -0.1670  1.2768
 8383SOL     OW36607   0.482   1.437   2.539  1.1205 -0.4268 -0.2788
 8383SOL    HW136608   0.479   1.529   2.512  2.9569 -0.4470 -0.5637
 8383SOL    HW236609   0.568   1.423   2.580  0.0960 -0.5639  1.8578
 8384SOL     OW36610   4.315   1.523   2.834 -0.5426 -0.0199  0.2157
 8384SOL    HW136611   4.225   1.549   2.854 -0.4614  0.2032  0.3005
 8384SOL    HW236612   4.323   1.442   2.882 -1.0193 -0.7551 -0.9410
 8385SOL     OW36613   2.222   1.506  10.653  0.1001  0.2427 -0.2470
 8385SOL    HW136614   2.131   1.529  10.672  0.4190 -0.4378  2.0326
 8385SOL    HW236615   2.255   1.581  10.603 -0.2676 -0.8360 -2.0992
 8386SOL     OW36616   3.627   0.875   7.086  0.0371  0.2302  0.1719
 8386SOL    HW136617   3.592   0.962   7.107  0.1399  0.2721  0.1675
 8386SOL    HW236618   3.616   0.832   7.171  1.3376  1.0059  0.7275
 8387SOL     OW36619   1.903   1.169   5.231 -0.2171 -0.5928  0.0937
 8387SOL    HW136620   1.953   1.215   5.164  1.8365 -1.4439  1.0273
 8387SOL    HW236621   1.873   1.242   5.286  3.5617  0.1044  1.2647
 8388SOL     OW36622   0.185   3.390  13.928  0.0641  0.1803 -0.9651
 8388SOL    HW136623   0.240   3.405  13.851 -0.1399  2.8394 -0.5633
 8388SOL    HW236624   0.218   3.445  13.999 -1.8513  0.5081 -0.3451
 8389SOL     OW36625   1.653   3.655   8.136 -0.1816  0.9395  0.5099
 8389SOL    HW136626   1.709   3.578   8.151 -2.5390 -0.3580  2.6439
 8389SOL    HW236627   1.658   3.665   8.041  1.2361  1.7112  0.6657
 8390SOL     OW36628   0.432   3.987   4.699  0.3743  0.1162 -0.1774
 8390SOL    HW136629   0.522   4.017   4.686  0.3285  0.3650  0.0759
 8390SOL    HW236630   0.411   4.004   4.791  1.3437  0.4065 -0.0118
 8391SOL     OW36631   0.055   0.302   3.043  0.3668 -0.1584  0.0582
 8391SOL    HW136632   0.112   0.225   3.047  2.2367  1.2218  0.2380
 8391SOL    HW236633   0.094   0.344   3.119  1.0569 -1.3684  0.3724
 8392SOL     OW36634   4.107   3.902  13.226  0.0669 -0.7252  0.1655
 8392SOL    HW136635   4.167   3.901  13.300 -2.3244 -0.5041  2.1228
 8392SOL    HW236636   4.060   3.985  13.232  0.1224 -0.6811 -0.0137
 8393SOL     OW36637   3.340   3.719   5.286  0.3515 -0.3554 -0.3444
 8393SOL    HW136638   3.315   3.804   5.250  0.9470  0.6492  1.6219
 8393SOL    HW236639   3.432   3.710   5.258 -0.5177 -1.9306 -2.7677
 8394SOL     OW36640   0.250   1.738  10.046  0.6249  0.0016 -0.8580
 8394SOL    HW136641   0.338   1.708  10.070  0.5399  2.4857  2.4722
 8394SOL    HW236642   0.261   1.755   9.952 -0.5737  0.4985 -0.9017
 8395SOL     OW36643   0.977   3.505   6.942  0.0678 -0.2806 -0.0424
 8395SOL    HW136644   0.981   3.421   6.895  1.9239 -1.3447  2.0504
 8395SOL    HW236645   0.927   3.486   7.022 -0.3507 -2.4752 -0.8212
 8396SOL     OW36646   1.486   4.502   4.739 -0.3913 -0.0176 -0.3568
 8396SOL    HW136647   1.512   4.592   4.755  0.3535 -0.7338  2.3311
 8396SOL    HW236648   1.500   4.496   4.644 -2.0478  0.2902 -0.6231
 8397SOL     OW36649   2.687   2.500   9.640 -0.2287  0.1512  0.4092
 8397SOL    HW136650   2.648   2.578   9.678 -0.3579 -2.0007  4.7426
 8397SOL    HW236651   2.650   2.513   9.553 -1.8741 -0.2119  1.0624
 8398SOL     OW36652   3.182   0.871   2.964  0.5819  0.0794  1.3902
 8398SOL    HW136653   3.131   0.878   2.883  1.5522  1.2748  0.8773
 8398SOL    HW236654   3.252   0.812   2.936 -0.1085 -0.3201  0.5257
 8399SOL     OW36655   3.174   1.647   7.169  0.3090 -0.2377  0.3839
 8399SOL    HW136656   3.175   1.728   7.118  0.5313  0.9477  2.2628
 8399SOL    HW236657   3.105   1.668   7.232 -0.3500  0.7674 -0.6811
 8400SOL     OW36658   3.894   2.673   4.629  0.0750 -0.3148 -0.2902
 8400SOL    HW136659   3.983   2.691   4.659 -0.0686  0.3359 -0.2442
 8400SOL    HW236660   3.839   2.687   4.706  0.8580  0.1196  0.1850
 8401SOL     OW36661   3.374   1.977   8.113  0.5089 -0.0211 -0.2676
 8401SOL    HW136662   3.339   1.908   8.057 -1.0082  1.0469 -0.6564
 8401SOL    HW236663   3.405   1.929   8.189 -0.2489  0.2225  0.1945
 8402SOL     OW36664   1.513   0.361   5.823 -0.7779 -0.2120  0.0007
 8402SOL    HW136665   1.463   0.310   5.887  1.5652 -0.9528  1.2522
 8402SOL    HW236666   1.495   0.310   5.745 -0.9440  2.0436 -1.4380
 8403SOL     OW36667   2.100   2.907   4.568  0.3578 -0.1951 -0.1522
 8403SOL    HW136668   2.041   2.850   4.518 -0.4165  0.8738 -0.4528
 8403SOL    HW236669   2.070   2.993   4.539  0.0844 -1.1122 -2.6559
 8404SOL     OW36670   2.908   1.588   3.516 -0.7394  0.2345 -0.1250
 8404SOL    HW136671   2.886   1.644   3.591  0.4317 -0.7936  0.9843
 8404SOL    HW236672   2.847   1.629   3.455  0.0348 -2.2214 -2.5513
 8405SOL     OW36673   0.051   3.344   2.691 -0.8265  0.0619 -0.1045
 8405SOL    HW136674   0.084   3.352   2.602 -0.3684 -0.3601  0.0273
 8405SOL    HW236675   4.686   3.306   2.677 -1.3228 -0.0493  3.2599
 8406SOL     OW36676   0.438   0.834  10.263  0.3886  0.2861 -0.0682
 8406SOL    HW136677   0.464   0.872  10.347  0.1306  0.2911  0.0092
 8406SOL    HW236678   0.345   0.818  10.278  0.5560 -2.8799 -2.3974
 8407SOL     OW36679   3.550   1.188  17.300 -0.0052  0.6626  0.2099
 8407SOL    HW136680   3.583   1.278  17.304 -0.3029  0.7043  1.7091
 8407SOL    HW236681   3.627   1.143  17.265 -0.0789 -0.3068  1.3063
 8408SOL     OW36682   0.485   1.863  14.379  0.1154  0.3938  0.5714
 8408SOL    HW136683   0.393   1.885  14.392  0.5267  1.3313  1.8345
 8408SOL    HW236684   0.499   1.849  14.285  0.2284 -1.5922  0.8770
 8409SOL     OW36685   1.914   0.433   3.834  0.4159  0.0570  0.7327
 8409SOL    HW136686   1.905   0.452   3.741  2.2268  3.1519  1.1853
 8409SOL    HW236687   1.945   0.519   3.862  1.1825  0.8183 -2.4783
 8410SOL     OW36688   3.015   1.782  16.600  0.0149  0.3506 -0.1739
 8410SOL    HW136689   3.085   1.717  16.590 -0.3551  0.1790 -1.6773
 8410SOL    HW236690   2.941   1.726  16.578  0.8473 -1.9160  2.7736
 8411SOL     OW36691   4.328   2.945  15.670  0.7578 -0.2593  0.0397
 8411SOL    HW136692   4.239   2.955  15.705  0.6049  3.2144 -1.3879
 8411SOL    HW236693   4.338   3.028  15.624  1.0410 -0.2372  0.1438
 8412SOL     OW36694   0.364   4.697  17.245 -0.5985  0.2820 -0.5356
 8412SOL    HW136695   0.309   4.630  17.285 -1.7470  0.7154 -1.3716
 8412SOL    HW236696   0.301   0.024  17.192 -1.3449 -0.4337 -0.3079
 8413SOL     OW36697   3.754   0.357   5.130  0.3360  0.6002  0.0977
 8413SOL    HW136698   3.669   0.396   5.150 -0.0408  0.3850 -1.1036
 8413SOL    HW236699   3.727   0.308   5.053  0.1311 -0.7547  1.0311
 8414SOL     OW36700   4.172   1.849   2.343 -0.2921 -0.2975  0.0971
 8414SOL    HW136701   4.241   1.800   2.387 -0.5138  0.1352  0.9227
 8414SOL    HW236702   4.185   1.829   2.250 -0.7791 -0.6670  0.1056
 8415SOL     OW36703   0.307   1.364  12.397 -0.3655  0.3674  0.3591
 8415SOL    HW136704   0.233   1.378  12.456 -0.9811  0.9334 -0.5463
 8415SOL    HW236705   0.373   1.318  12.448  1.0648  2.1752  0.1408
 8416SOL     OW36706   2.268   1.398  15.613  0.0646 -0.1681 -0.6871
 8416SOL    HW136707   2.199   1.425  15.552  0.0733  1.7198  0.1487
 8416SOL    HW236708   2.323   1.476  15.620  1.8703 -1.5690  0.6255
 8417SOL     OW36709   2.969   1.104   9.627 -0.0051  0.1227 -0.3440
 8417SOL    HW136710   2.909   1.029   9.629  2.6560 -1.9394  1.0724
 8417SOL    HW236711   2.910   1.166   9.582 -0.6654  0.6120  1.1967
 8418SOL     OW36712   0.114   0.240  14.886 -0.2018 -0.2645 -0.2540
 8418SOL    HW136713   0.029   0.237  14.842  0.0692  2.2172 -0.9551
 8418SOL    HW236714   0.172   0.267  14.815  0.5745  1.5374  1.0485
 8419SOL     OW36715   0.101   0.717  12.634 -0.0756  0.3907  0.1005
 8419SOL    HW136716   0.195   0.722  12.616  0.3738 -1.3111  1.9317
 8419SOL    HW236717   0.083   0.795  12.687  0.6873  0.5666  0.1108
 8420SOL     OW36718   2.189   2.573  13.065 -0.6463  1.0292 -0.2329
 8420SOL    HW136719   2.266   2.629  13.056 -0.6704  1.2144  0.7128
 8420SOL    HW236720   2.126   2.610  13.003 -0.3227  1.9945  0.0088
 8421SOL     OW36721   3.938   4.444   8.307 -0.5734  0.4329  0.2234
 8421SOL    HW136722   3.858   4.428   8.357  1.7071 -0.2519  3.7461
 8421SOL    HW236723   3.943   4.539   8.309  0.8940  0.3546  0.6033
 8422SOL     OW36724   2.512   0.234   8.551  0.2251 -0.3820 -0.0414
 8422SOL    HW136725   2.498   0.240   8.456  1.7603  2.9362 -0.0832
 8422SOL    HW236726   2.428   0.199   8.578 -0.1205  0.3784 -0.1295
 8423SOL     OW36727   0.170   2.930   1.996 -0.4962  0.5884  0.2440
 8423SOL    HW136728   0.164   2.961   2.086 -0.5880 -1.1043  0.8211
 8423SOL    HW236729   0.216   2.846   2.001  0.2404  1.0915  1.8003
 8424SOL     OW36730   3.220   1.134   1.475  0.3721 -0.0470  0.1476
 8424SOL    HW136731   3.135   1.122   1.517 -0.2640  2.5963 -0.4039
 8424SOL    HW236732   3.207   1.227   1.457  2.8875  0.0646 -0.9818
 8425SOL     OW36733   3.132   4.269  16.934  0.4954  0.4247 -0.1054
 8425SOL    HW136734   3.063   4.226  16.882 -1.7605  2.8275  0.8916
 8425SOL    HW236735   3.103   4.239  17.020  1.0003  0.0357 -0.0735
 8426SOL     OW36736   3.592   2.386   5.733 -0.1728  0.1736  0.0329
 8426SOL    HW136737   3.650   2.319   5.769 -0.6356 -1.7103 -2.6977
 8426SOL    HW236738   3.611   2.456   5.795  0.6097 -0.1145  0.1203
 8427SOL     OW36739   0.080   0.694   1.943  0.2103 -0.4366 -0.0099
 8427SOL    HW136740   0.022   0.753   1.990  1.1187  0.2725  0.2356
 8427SOL    HW236741   0.128   0.756   1.888  1.3518 -1.2756  0.0394
 8428SOL     OW36742   1.109   1.745   9.588  0.6244  0.9167  0.0207
 8428SOL    HW136743   1.203   1.760   9.584  0.9148 -0.7182  0.6040
 8428SOL    HW236744   1.120   1.650   9.579 -1.2407  0.6120  0.9011
 8429SOL     OW36745   2.887   0.148   2.969  0.3410  0.0181 -0.5870
 8429SOL    HW136746   2.869   0.176   2.879  1.2237 -1.8092 -1.3131
 8429SOL    HW236747   2.806   0.104   2.997 -0.4535  1.5557 -0.4447
 8430SOL     OW36748   2.122   2.189   4.049 -0.0004  0.3938  0.4294
 8430SOL    HW136749   2.115   2.237   4.132 -0.2174 -1.9214  1.7623
 8430SOL    HW236750   2.196   2.235   4.009 -0.1686 -0.5406 -0.9527
 8431SOL     OW36751   3.519   4.126   5.705 -0.9098 -0.3952  0.3270
 8431SOL    HW136752   3.494   4.159   5.792  0.5533 -0.5543  0.8077
 8431SOL    HW236753   3.497   4.033   5.711  1.5132 -0.9747  0.0996
 8432SOL     OW36754   3.151   3.725   8.103  0.3139 -0.1593  0.2823
 8432SOL    HW136755   3.207   3.788   8.148  1.4835 -1.4424  0.6251
 8432SOL    HW236756   3.077   3.715   8.163 -0.1457 -0.2330 -0.2878
 8433SOL     OW36757   3.051   4.612  14.720  0.2353 -0.1590  0.1522
 8433SOL    HW136758   3.090   4.573  14.798  2.1420  1.7077  0.1265
 8433SOL    HW236759   3.133   4.603  14.672 -0.5829  1.2675 -1.5074
 8434SOL     OW36760   1.370   4.616   9.108 -0.1942 -0.1236  0.4012
 8434SOL    HW136761   1.317   4.544   9.141  1.4164 -0.7620  1.5650
 8434SOL    HW236762   1.428   4.575   9.045 -0.0463  1.1450 -0.3004
 8435SOL     OW36763   2.601   1.377   2.175 -0.0253 -0.4251 -0.4144
 8435SOL    HW136764   2.528   1.413   2.225  1.2597  1.8657 -0.1803
 8435SOL    HW236765   2.652   1.320   2.233 -0.9319 -1.4335 -0.6038
 8436SOL     OW36766   1.050   4.633  13.123  0.2549  0.1334  0.5070
 8436SOL    HW136767   1.110   4.559  13.110 -1.5168 -1.2242  0.0574
 8436SOL    HW236768   1.109   4.707  13.111 -0.9035  1.2213  1.5291
 8437SOL     OW36769   1.437   3.109   2.285  0.6349  0.8364 -0.4944
 8437SOL    HW136770   1.511   3.050   2.272 -0.2063 -0.7290  1.7639
 8437SOL    HW236771   1.446   3.150   2.199  1.8835  0.6090 -0.4690
 8438SOL     OW36772   0.035   2.511   1.542  0.4393 -0.4946 -0.7365
 8438SOL    HW136773   4.677   2.461   1.564 -1.1450  2.0589 -0.6432
 8438SOL    HW236774   0.105   2.454   1.575  0.3222  1.6546  3.3152
 8439SOL     OW36775   1.296   3.820  14.256 -0.0990  0.5033 -0.3151
 8439SOL    HW136776   1.362   3.889  14.263 -0.9366  1.4660 -1.9025
 8439SOL    HW236777   1.283   3.791  14.346  1.3673 -0.5901 -0.4624
 8440SOL     OW36778   1.736   0.882   2.301 -0.0554 -0.0446  0.2204
 8440SOL    HW136779   1.687   0.799   2.306  0.9898 -0.6716 -0.0999
 8440SOL    HW236780   1.673   0.947   2.271  0.2135  0.6851  1.2306
 8441SOL     OW36781   4.610   3.262   6.726 -0.1995 -0.2367 -0.4081
 8441SOL    HW136782   4.697   3.224   6.710 -0.1071  0.1225 -0.7768
 8441SOL    HW236783   4.557   3.236   6.651 -2.2367 -1.1139  1.3326
 8442SOL     OW36784   4.249   0.789   6.998  0.2326  0.6640  0.5910
 8442SOL    HW136785   4.297   0.840   7.063  3.3190 -2.6120  0.9233
 8442SOL    HW236786   4.319   0.788   6.932  0.2696 -0.0944  0.6382
 8443SOL     OW36787   2.117   1.234   9.039 -0.4572  0.1946  0.4501
 8443SOL    HW136788   2.195   1.271   9.080 -0.6035  1.0924 -0.0739
 8443SOL    HW236789   2.140   1.141   9.042  1.3678  0.6572  0.6812
 8444SOL     OW36790   2.207   3.174   2.793  0.3614 -0.1404  0.7178
 8444SOL    HW136791   2.127   3.171   2.845  0.2288  1.0605  0.5840
 8444SOL    HW236792   2.249   3.096   2.828  2.1811  0.7520  0.5647
 8445SOL     OW36793   2.370   1.220   3.031  0.0295  0.0090 -0.0729
 8445SOL    HW136794   2.419   1.139   3.018 -0.1021 -0.5089  2.8489
 8445SOL    HW236795   2.362   1.226   3.126 -1.2408 -1.7400 -0.0814
 8446SOL     OW36796   4.613   2.903  10.576  0.2562 -0.5196 -0.0815
 8446SOL    HW136797   4.683   2.926  10.515 -0.5441 -1.9619 -1.5184
 8446SOL    HW236798   4.635   2.947  10.659  0.0885 -0.6494  0.0309
 8447SOL     OW36799   0.174   2.325   3.476  0.6941 -0.4061 -0.1063
 8447SOL    HW136800   0.262   2.360   3.488  0.5462 -0.5148  1.3400
 8447SOL    HW236801   0.139   2.349   3.562  1.3284 -0.3681  0.1417
 8448SOL     OW36802   3.328   0.580   7.573  0.0975  0.7140  0.5387
 8448SOL    HW136803   3.289   0.647   7.629  0.4732  0.2378  1.3761
 8448SOL    HW236804   3.277   0.590   7.493  0.3092 -0.3119  0.2724
 8449SOL     OW36805   0.804   4.109  12.423  0.1411 -0.0425 -0.2362
 8449SOL    HW136806   0.871   4.042  12.438 -1.9133 -1.5711  2.0367
 8449SOL    HW236807   0.808   4.133  12.330 -3.2845  0.5374 -0.2194
 8450SOL     OW36808   1.481   4.495   5.655  0.1780 -0.1093  0.7569
 8450SOL    HW136809   1.400   4.459   5.618  0.1368 -1.2341  1.9222
 8450SOL    HW236810   1.534   4.417   5.671 -1.2952 -1.0949  0.8021
 8451SOL     OW36811   3.170   0.998   1.974  0.0621 -0.1348  0.1552
 8451SOL    HW136812   3.239   0.938   2.003  0.1302 -0.2253 -0.1938
 8451SOL    HW236813   3.171   0.977   1.881  0.1201  1.6471 -0.2471
 8452SOL     OW36814   4.478   4.182   3.352 -0.5283  0.0981 -0.4005
 8452SOL    HW136815   4.543   4.250   3.365  0.2008 -0.2761 -2.1113
 8452SOL    HW236816   4.529   4.101   3.344  1.4876  1.2628  0.7632
 8453SOL     OW36817   0.364   3.617   6.211 -0.6468  0.3084 -0.7525
 8453SOL    HW136818   0.394   3.610   6.120  0.0628  1.2469 -0.5943
 8453SOL    HW236819   0.432   3.678   6.240  1.2383 -1.1518 -2.0494
 8454SOL     OW36820   1.092   1.766  13.356  0.3514 -0.4861 -0.5847
 8454SOL    HW136821   1.115   1.823  13.283  1.7571 -1.6174 -1.0104
 8454SOL    HW236822   1.051   1.826  13.418  1.6845  0.0943 -0.2642
 8455SOL     OW36823   3.856   0.912   7.551 -0.0100 -0.1549  0.3871
 8455SOL    HW136824   3.843   0.885   7.460  0.2024 -1.5312  0.7579
 8455SOL    HW236825   3.799   0.988   7.560  2.3269  1.4367  1.5879
 8456SOL     OW36826   3.387   4.197   7.270  0.0909  0.0286  0.0544
 8456SOL    HW136827   3.400   4.128   7.336 -1.3831  1.5211  1.9268
 8456SOL    HW236828   3.472   4.214   7.230  0.4874 -2.1994 -0.0335
 8457SOL     OW36829   3.588   4.635   2.862  0.3641 -0.4803 -0.0557
 8457SOL    HW136830   3.580   4.543   2.840  0.4920 -0.4688 -0.1491
 8457SOL    HW236831   3.518   4.648   2.927  0.0057  2.3086 -1.0072
 8458SOL     OW36832   3.121   3.824   6.340  0.6509  0.4889 -0.0861
 8458SOL    HW136833   3.102   3.916   6.320 -2.8004 -0.2026  0.0240
 8458SOL    HW236834   3.157   3.823   6.429 -2.9875 -0.3209  1.3879
 8459SOL     OW36835   2.463   3.505   0.354 -0.2345  0.4868 -0.1921
 8459SOL    HW136836   2.499   3.424   0.390 -2.5114  0.0369  1.0484
 8459SOL    HW236837   2.393   3.475   0.297  0.2039 -2.1894  0.6585
 8460SOL     OW36838   1.201   3.859   2.441  0.0435  0.2823 -0.4331
 8460SOL    HW136839   1.291   3.859   2.406  1.3185 -0.9924  2.7997
 8460SOL    HW236840   1.157   3.812   2.370 -0.3137  0.9079 -0.6212
 8461SOL     OW36841   1.270   3.040   2.583  0.3641 -0.8345 -0.4969
 8461SOL    HW136842   1.303   3.056   2.495 -2.0954  1.5564 -0.9994
 8461SOL    HW236843   1.323   3.109   2.624 -0.1654 -1.0831  0.6220
 8462SOL     OW36844   1.519   3.068   6.541  0.0796 -0.1492  0.5393
 8462SOL    HW136845   1.463   3.014   6.484  0.5696 -0.9841  0.8525
 8462SOL    HW236846   1.461   3.136   6.575  0.1035 -0.5053  1.2976
 8463SOL     OW36847   4.062   2.834   1.323  0.3827 -0.1375 -0.0856
 8463SOL    HW136848   4.039   2.759   1.378  1.5987 -0.0544  0.5368
 8463SOL    HW236849   3.988   2.893   1.337  0.6679  0.7521 -2.3150
 8464SOL     OW36850   3.061   4.665   3.017 -0.2812  0.1494 -0.5820
 8464SOL    HW136851   2.999   0.008   2.982 -1.9189 -0.8143  0.5570
 8464SOL    HW236852   3.121   0.005   3.059 -0.8974 -0.7794  1.5993
 8465SOL     OW36853   1.043   0.034   5.486  0.4361 -0.7554 -0.1181
 8465SOL    HW136854   0.966   0.039   5.543 -0.5023 -0.2890 -1.4369
 8465SOL    HW236855   1.012   0.080   5.408 -1.1398 -1.3650  0.1551
 8466SOL     OW36856   3.083   2.571   5.128  0.0573 -0.4081  0.0286
 8466SOL    HW136857   3.012   2.540   5.185  0.0268 -0.6939 -0.1640
 8466SOL    HW236858   3.029   2.639   5.088  1.2236  2.3713  3.1525
 8467SOL     OW36859   3.790   3.635   7.314 -0.0454  0.0397  0.1784
 8467SOL    HW136860   3.791   3.624   7.219 -0.8468 -3.4783  0.5729
 8467SOL    HW236861   3.884   3.636   7.330 -0.0594  0.6761  0.2461
 8468SOL     OW36862   4.021   0.106   1.366  0.0489 -0.3141 -0.2124
 8468SOL    HW136863   3.981   0.175   1.312 -0.5753  0.0273  0.6952
 8468SOL    HW236864   3.947   0.079   1.421 -0.5485  3.4989  0.8906
 8469SOL     OW36865   4.639   1.476   6.700 -0.1671 -0.2662 -0.3919
 8469SOL    HW136866   4.660   1.387   6.729 -0.6409  0.5118  2.3558
 8469SOL    HW236867   4.675   1.475   6.611  0.8340 -2.5203  0.0429
 8470SOL     OW36868   2.077   1.558  16.572 -0.3616 -0.0388  0.0803
 8470SOL    HW136869   2.030   1.531  16.493 -1.2075 -2.0601  1.2675
 8470SOL    HW236870   2.030   1.520  16.647 -1.0538 -0.5077 -0.5936
 8471SOL     OW36871   2.918   4.337  16.119  0.5752 -0.0059  0.0865
 8471SOL    HW136872   2.847   4.316  16.180 -0.0803  2.4383  0.1778
 8471SOL    HW236873   2.877   4.338  16.032 -0.6886  3.7974  0.7012
 8472SOL     OW36874   1.989   0.237   5.001  0.3629 -0.4332 -0.1462
 8472SOL    HW136875   1.990   0.193   5.086  0.5391  0.4982  0.3401
 8472SOL    HW236876   1.969   0.330   5.012  1.6686 -0.2439  0.5485
 8473SOL     OW36877   0.822   3.272  10.142  0.1445  0.3007 -0.7198
 8473SOL    HW136878   0.904   3.252  10.098  0.0079 -1.0446 -0.3457
 8473SOL    HW236879   0.837   3.361  10.175 -0.9203  0.3188 -0.2909
 8474SOL     OW36880   0.097   2.142  15.722  0.2699  0.3146 -0.3349
 8474SOL    HW136881   0.008   2.143  15.688  0.3091 -1.6331 -0.5051
 8474SOL    HW236882   0.111   2.234  15.702  0.8484  0.3851  0.3776
 8475SOL     OW36883   1.667   2.695  10.481  0.0690 -0.4988  0.7877
 8475SOL    HW136884   1.708   2.699  10.395  0.0012  1.6415  0.8435
 8475SOL    HW236885   1.580   2.666  10.455 -0.5794  0.4773  1.8363
 8476SOL     OW36886   3.753   2.180  17.493  0.3385 -0.2060 -0.2881
 8476SOL    HW136887   3.694   2.166  17.567 -0.5094  2.6799 -0.3973
 8476SOL    HW236888   3.772   2.091  17.464  2.0548  0.3217 -0.7908
 8477SOL     OW36889   0.023   3.941   6.539  0.6297  0.5997 -0.0717
 8477SOL    HW136890   4.662   3.928   6.587  0.9561  1.0243  0.6029
 8477SOL    HW236891   0.012   3.878   6.467  0.0094 -0.3503  0.8582
 8478SOL     OW36892   4.105   0.593   3.988 -0.5033  0.2825  0.0592
 8478SOL    HW136893   4.031   0.651   4.003  0.5091  1.7652 -0.6173
 8478SOL    HW236894   4.135   0.576   4.077  1.9667  1.9798 -0.4359
 8479SOL     OW36895   3.913   4.276   4.465 -0.5030  0.4597 -0.1802
 8479SOL    HW136896   3.912   4.201   4.524  1.6907  1.3653  0.9772
 8479SOL    HW236897   3.834   4.313   4.504  0.1637  0.9129  0.7256
 8480SOL     OW36898   2.965   0.185   8.075 -0.1227  0.3473 -0.3567
 8480SOL    HW136899   2.919   0.130   8.012 -1.1311 -0.6759  1.2960
 8480SOL    HW236900   2.894   0.228   8.123  0.1869  1.3838 -0.8086
 8481SOL     OW36901   3.512   0.892   4.398 -0.6095  0.1699  0.2895
 8481SOL    HW136902   3.591   0.838   4.406 -0.4669  0.0787 -1.8290
 8481SOL    HW236903   3.442   0.834   4.369  1.3077 -1.4130 -1.1405
 8482SOL     OW36904   1.291   2.497   9.304 -0.4150 -0.2505  0.3743
 8482SOL    HW136905   1.350   2.540   9.367 -0.0765  1.2529 -0.9596
 8482SOL    HW236906   1.212   2.536   9.341 -0.6031  0.1721 -0.4792
 8483SOL     OW36907   0.361   1.304   3.204 -0.2729  0.3944 -0.6563
 8483SOL    HW136908   0.287   1.286   3.146  0.3500 -1.7720 -0.7830
 8483SOL    HW236909   0.340   1.397   3.207 -0.9198  0.2532 -0.9472
 8484SOL     OW36910   1.671   0.172   4.296 -0.0012  0.3685  0.3379
 8484SOL    HW136911   1.680   0.184   4.202 -0.9053  1.7771  0.4329
 8484SOL    HW236912   1.581   0.142   4.310 -0.8000  2.0976 -1.1035
 8485SOL     OW36913   4.172   1.272   7.422 -0.1043  0.3380  0.1083
 8485SOL    HW136914   4.237   1.326   7.377  2.5365 -1.9545  1.1651
 8485SOL    HW236915   4.089   1.315   7.401 -0.1878 -0.4637 -1.1613
 8486SOL     OW36916   2.344   0.275   3.452 -0.2125 -0.4446 -0.0618
 8486SOL    HW136917   2.257   0.299   3.421 -0.6866  0.3415  1.9059
 8486SOL    HW236918   2.402   0.341   3.414  1.0180 -2.5128 -1.8657
 8487SOL     OW36919   1.414   3.862  16.323  0.5193  0.3020  0.2254
 8487SOL    HW136920   1.508   3.877  16.323  0.6984 -0.8140 -1.6807
 8487SOL    HW236921   1.391   3.863  16.230  0.4537 -2.0259  0.1992
 8488SOL     OW36922   1.332   4.595   7.018  0.0710  0.1509 -0.2532
 8488SOL    HW136923   1.356   4.651   6.945  1.2756 -0.7141 -0.5150
 8488SOL    HW236924   1.416   4.553   7.036  0.1669  0.8708  1.0271
 8489SOL     OW36925   1.949   1.357   2.139 -0.1476  0.4184 -0.1275
 8489SOL    HW136926   2.014   1.349   2.069 -1.1189 -0.8085 -0.8885
 8489SOL    HW236927   1.946   1.267   2.171 -0.9861  1.5225  2.9017
 8490SOL     OW36928   2.415   3.054  13.204  0.3006 -0.2625  0.9521
 8490SOL    HW136929   2.375   3.066  13.118  1.5522  1.5246  0.6137
 8490SOL    HW236930   2.341   3.075  13.260  0.8902  4.5847 -0.0543
 8491SOL     OW36931   0.153   2.025   1.730  0.0769  0.6231 -0.1649
 8491SOL    HW136932   0.237   2.031   1.775 -0.2515 -1.7951  0.7656
 8491SOL    HW236933   0.146   1.935   1.699  1.4102  0.1772  0.8308
 8492SOL     OW36934   4.488   1.275   8.418 -0.2378  1.1995 -0.6732
 8492SOL    HW136935   4.558   1.277   8.484 -0.4465  2.0826 -0.4766
 8492SOL    HW236936   4.408   1.281   8.469 -0.1111  0.3075 -0.3707
 8493SOL     OW36937   1.204   3.156   6.180 -0.0848  0.3528  0.1249
 8493SOL    HW136938   1.142   3.214   6.135  0.5131  1.0079  0.1568
 8493SOL    HW236939   1.167   3.073   6.151  0.4624 -0.2547  1.1624
 8494SOL     OW36940   0.297   4.184   5.262  0.4024 -0.3372  0.1914
 8494SOL    HW136941   0.390   4.172   5.281  0.7890  1.0754 -0.7312
 8494SOL    HW236942   0.257   4.202   5.347 -3.1507  1.1117 -1.8033
 8495SOL     OW36943   2.785   3.820   3.942  0.5535  0.2643  0.1200
 8495SOL    HW136944   2.814   3.910   3.950  1.4220  0.0655 -0.6497
 8495SOL    HW236945   2.867   3.792   3.899  1.0022  2.0397 -0.1548
 8496SOL     OW36946   0.345   1.560   0.197  0.0673  0.0870 -0.5090
 8496SOL    HW136947   0.275   1.515   0.149  2.2849 -2.7275 -1.1289
 8496SOL    HW236948   0.420   1.525   0.150  2.1453  2.4098  1.0985
 8497SOL     OW36949   4.288   3.092   8.420 -0.1699 -0.2832  0.2949
 8497SOL    HW136950   4.290   3.064   8.329  0.5228  1.2537 -0.1675
 8497SOL    HW236951   4.252   3.180   8.409  1.5510  0.6652  2.1313
 8498SOL     OW36952   2.173   1.340  12.189  0.9588 -0.1261 -0.4738
 8498SOL    HW136953   2.232   1.404  12.227  0.5140 -0.2974  0.5161
 8498SOL    HW236954   2.126   1.390  12.122 -0.3778 -0.2147  0.3906
 8499SOL     OW36955   1.790   2.325   6.502 -0.3705  0.5032 -0.4455
 8499SOL    HW136956   1.818   2.406   6.459  0.4606 -0.9314 -2.5823
 8499SOL    HW236957   1.827   2.258   6.444 -0.9991 -2.3053  2.4051
 8500SOL     OW36958   3.740   4.172   2.719  0.4398 -0.0821 -0.6716
 8500SOL    HW136959   3.677   4.145   2.652  0.3904 -0.9986 -0.2500
 8500SOL    HW236960   3.817   4.123   2.690  0.3046 -2.0616  2.3959
 8501SOL     OW36961   1.490   1.271   4.331  0.0161  0.1942  0.0003
 8501SOL    HW136962   1.449   1.356   4.316 -0.7635 -0.2551 -0.4281
 8501SOL    HW236963   1.449   1.223   4.258  1.1889  0.0035 -0.5231
 8502SOL     OW36964   1.863   3.855   6.864 -0.5497 -0.0736 -0.3627
 8502SOL    HW136965   1.876   3.881   6.955  2.9471  1.2090 -1.2416
 8502SOL    HW236966   1.778   3.893   6.841 -1.0972 -0.8627  0.3346
 8503SOL     OW36967   0.245   3.189   8.744  0.3091  0.2874  0.2467
 8503SOL    HW136968   0.153   3.211   8.751 -0.0863 -0.9416 -1.1064
 8503SOL    HW236969   0.263   3.211   8.653 -2.9199  1.0341 -0.1939
 8504SOL     OW36970   3.082   0.773  17.584  0.4182 -0.2080  0.5370
 8504SOL    HW136971   3.118   0.795  17.669  1.9337  0.1064 -0.1844
 8504SOL    HW236972   2.992   0.754  17.613  0.7328  1.0093  2.3064
 8505SOL     OW36973   1.462   2.379   5.379  0.6714  0.1713  0.9804
 8505SOL    HW136974   1.436   2.307   5.322 -2.0473  2.1016 -0.2003
 8505SOL    HW236975   1.460   2.449   5.314 -1.9731 -0.3108  0.5498
 8506SOL     OW36976   3.260   2.775   8.828 -0.4171  0.1199  0.2016
 8506SOL    HW136977   3.267   2.734   8.742  2.8140  1.5878 -0.2202
 8506SOL    HW236978   3.183   2.737   8.871 -0.4638 -1.1374 -0.9946
 8507SOL     OW36979   2.350   4.682  14.656 -0.4069 -0.2620 -0.2677
 8507SOL    HW136980   2.363   0.049  14.691  0.6901 -0.5075 -0.0541
 8507SOL    HW236981   2.359   4.631  14.736 -0.7539 -0.4421 -0.3431
 8508SOL     OW36982   1.079   2.363   6.026 -0.3452 -0.5655 -0.2769
 8508SOL    HW136983   1.062   2.427   5.957  0.1880  1.6786  1.6492
 8508SOL    HW236984   1.170   2.385   6.046 -0.5768  2.4854 -2.6598
 8509SOL     OW36985   2.256   1.595   8.275 -0.2373 -0.0278 -0.0614
 8509SOL    HW136986   2.293   1.541   8.345 -2.2832 -0.4587  0.6892
 8509SOL    HW236987   2.326   1.578   8.212 -1.2536  1.4418 -1.5665
 8510SOL     OW36988   1.870   0.127   5.958 -0.3392 -0.5001 -0.6508
 8510SOL    HW136989   1.837   0.144   5.870 -0.0142 -0.0443 -0.6828
 8510SOL    HW236990   1.788   0.115   6.008 -0.3120  1.5859 -0.0673
 8511SOL     OW36991   0.923   0.163   8.894 -0.2854 -0.3884 -0.0519
 8511SOL    HW136992   1.016   0.150   8.878  0.0096  0.3915  1.0163
 8511SOL    HW236993   0.881   0.091   8.848  1.7705 -0.5825 -1.6129
 8512SOL     OW36994   2.832   4.075  12.501 -0.1260 -0.3361 -0.5763
 8512SOL    HW136995   2.908   4.032  12.541 -0.8599 -1.1613 -0.0455
 8512SOL    HW236996   2.868   4.153  12.460  0.5306 -1.1963 -1.6581
 8513SOL     OW36997   3.078   1.236  14.900  0.0967 -0.3409  0.2584
 8513SOL    HW136998   3.120   1.321  14.913  2.8566 -1.5650 -0.6391
 8513SOL    HW236999   3.120   1.176  14.962  0.0050  1.1266  1.7416
 8514SOL     OW37000   3.830   0.789   7.297 -0.0886  0.6920 -0.4076
 8514SOL    HW137001   3.736   0.784   7.315 -0.0331 -3.7800 -1.3082
 8514SOL    HW237002   3.851   0.699   7.319 -0.1366  0.7723 -0.0375
 8515SOL     OW37003   2.182   3.013  15.513 -0.0656 -0.4144  0.0370
 8515SOL    HW137004   2.159   3.079  15.448  3.7104  0.3178 -0.5386
 8515SOL    HW237005   2.140   2.941  15.467 -1.3254 -1.3605  2.7039
 8516SOL     OW37006   3.494   4.135   3.473 -0.1420 -0.7164 -0.1327
 8516SOL    HW137007   3.406   4.098   3.485 -0.0303 -0.7864  0.4553
 8516SOL    HW237008   3.548   4.061   3.501 -0.5300 -0.3162  1.6727
 8517SOL     OW37009   3.961   3.687   4.986  0.0409 -0.3422  0.5444
 8517SOL    HW137010   3.931   3.596   4.992 -0.3592 -0.2397  0.1455
 8517SOL    HW237011   3.915   3.717   5.065 -0.4219 -0.2107  0.2245
 8518SOL     OW37012   0.768   1.265   8.577 -0.1986  0.2336 -0.1320
 8518SOL    HW137013   0.719   1.187   8.604  0.7258 -0.7716 -1.3705
 8518SOL    HW237014   0.821   1.283   8.654 -0.1409 -0.8790  0.0868
 8519SOL     OW37015   0.323   0.416  15.019  0.4769  0.0911 -0.0461
 8519SOL    HW137016   0.257   0.351  14.991  1.5184 -0.8903 -0.2371
 8519SOL    HW237017   0.397   0.402  14.961  0.0463 -0.7629 -0.3999
 8520SOL     OW37018   2.311   2.253   9.422 -0.4364  0.4450 -0.6601
 8520SOL    HW137019   2.235   2.309   9.433  0.1483  0.9891  0.6295
 8520SOL    HW237020   2.267   2.169   9.426 -0.3118  0.4512  1.0804
 8521SOL     OW37021   2.630   2.714   6.111  0.0865 -0.2069 -0.0533
 8521SOL    HW137022   2.655   2.629   6.075  1.8259  0.9197 -1.5485
 8521SOL    HW237023   2.715   2.748   6.141  0.0423 -0.0082 -0.1470
 8522SOL     OW37024   0.941   1.590   0.772 -0.0192 -0.0352  0.3734
 8522SOL    HW137025   1.030   1.612   0.744  0.1447  0.7768  1.5276
 8522SOL    HW237026   0.903   1.578   0.685  1.8195 -1.8611 -0.1502
 8523SOL     OW37027   4.431   1.235   3.925 -0.4915  0.5264  0.2675
 8523SOL    HW137028   4.352   1.182   3.936  0.6458 -1.6300 -2.1566
 8523SOL    HW237029   4.460   1.211   3.837 -2.9522  4.1072 -1.5358
 8524SOL     OW37030   1.022   2.207  17.458 -0.3526 -0.2436 -0.0862
 8524SOL    HW137031   1.054   2.265  17.527 -2.1771 -0.1073  0.6544
 8524SOL    HW237032   0.963   2.267  17.412  0.4089 -0.4107 -1.2649
 8525SOL     OW37033   0.373   0.493   4.004  0.0464 -0.4668  0.4669
 8525SOL    HW137034   0.347   0.583   4.024  1.1376  0.3389 -1.6908
 8525SOL    HW237035   0.288   0.450   4.009 -0.0997 -0.4271 -1.6771
 8526SOL     OW37036   2.104   2.410   9.453  0.7760 -0.3266  0.3849
 8526SOL    HW137037   2.119   2.483   9.393  1.9702  0.6898  1.9039
 8526SOL    HW237038   2.018   2.379   9.424  1.0317 -0.8181  0.1575
 8527SOL     OW37039   2.356   2.353   0.031 -0.6052  0.0171  0.1780
 8527SOL    HW137040   2.412   2.292  17.670 -0.0022  0.6451  0.0848
 8527SOL    HW237041   2.414   2.429   0.035 -0.1967 -0.2440 -0.8420
 8528SOL     OW37042   3.123   3.107   6.992  0.2318 -0.4965 -0.8345
 8528SOL    HW137043   3.157   3.041   7.052  0.2568 -0.0877 -0.4062
 8528SOL    HW237044   3.050   3.051   6.964 -0.7384  0.2075  0.3387
 8529SOL     OW37045   1.285   0.328   5.084  0.1873  0.0983 -0.0342
 8529SOL    HW137046   1.300   0.399   5.022  0.9330  0.6857  0.8229
 8529SOL    HW237047   1.219   0.284   5.030  1.4989 -1.6232 -0.2414
 8530SOL     OW37048   0.913   4.248   6.968  0.2406 -0.2709  0.4447
 8530SOL    HW137049   0.977   4.206   7.026  0.9651  0.2531  0.0323
 8530SOL    HW237050   0.964   4.323   6.938  1.5309 -1.5072 -0.4389
 8531SOL     OW37051   2.444   3.923   2.279 -0.3574  0.5114 -0.8975
 8531SOL    HW137052   2.417   3.841   2.238 -0.4641  0.0746  0.0522
 8531SOL    HW237053   2.418   3.992   2.218 -0.8193 -1.1286 -2.5345
 8532SOL     OW37054   1.048   0.212   9.941  0.3041  0.5898 -0.0388
 8532SOL    HW137055   1.052   0.232   9.847  1.3521  1.1706  0.1418
 8532SOL    HW237056   1.123   0.257   9.979  0.8860 -0.5442  0.1655
 8533SOL     OW37057   0.858   0.082   4.527  0.2746  0.6094  0.2219
 8533SOL    HW137058   0.833   0.092   4.436 -0.7997  2.7228  0.7354
 8533SOL    HW237059   0.795   0.017   4.557  0.6899 -0.5791 -1.4690
 8534SOL     OW37060   0.170   2.094   6.864 -0.6801  0.0135 -0.0105
 8534SOL    HW137061   0.128   2.031   6.806 -1.7319  0.8968 -0.2026
 8534SOL    HW237062   0.239   2.123   6.804 -1.0958  0.2076 -0.3913
 8535SOL     OW37063   4.175   1.905   8.040  0.6979 -0.3853  0.5173
 8535SOL    HW137064   4.169   1.994   8.004  4.0599 -0.6896 -0.7882
 8535SOL    HW237065   4.102   1.909   8.102  0.1467 -0.1808 -0.1412
 8536SOL     OW37066   2.291   0.841   1.467 -0.4173 -0.3018 -0.4528
 8536SOL    HW137067   2.251   0.924   1.440  2.4631  1.1392 -0.2759
 8536SOL    HW237068   2.249   0.832   1.553  1.2420  2.2392  0.6318
 8537SOL     OW37069   0.665   1.822   4.330  0.0879  0.4638  0.0168
 8537SOL    HW137070   0.582   1.869   4.337  0.3512  0.6494  2.0103
 8537SOL    HW237071   0.635   1.734   4.351  2.3395  0.0431  1.4946
 8538SOL     OW37072   0.958   3.350   5.791  0.1590 -0.2466 -0.2421
 8538SOL    HW137073   0.890   3.310   5.737 -0.8733  1.8723 -0.4854
 8538SOL    HW237074   0.946   3.442   5.769  1.0782  0.2764  1.4613
 8539SOL     OW37075   1.908   2.605   2.463  0.5032 -0.3266 -0.0664
 8539SOL    HW137076   1.987   2.633   2.417 -0.0513  1.7985  0.2615
 8539SOL    HW237077   1.855   2.583   2.386  0.4406  0.1853 -0.1737
 8540SOL     OW37078   2.833   1.023  17.453 -0.2707  0.4199 -0.3126
 8540SOL    HW137079   2.921   1.050  17.479 -0.6884  1.0811  0.4117
 8540SOL    HW237080   2.790   1.109  17.448 -0.4289  0.3507 -0.1584
 8541SOL     OW37081   4.061   3.580   2.184  0.3722  0.5774  0.6271
 8541SOL    HW137082   4.128   3.540   2.128 -0.0376 -1.2225  1.4128
 8541SOL    HW237083   4.092   3.667   2.208 -1.1634  1.3902 -0.3512
 8542SOL     OW37084   3.368   4.525   6.075 -0.4053  0.1123 -0.0016
 8542SOL    HW137085   3.421   4.460   6.028 -0.3485 -0.4679  0.8698
 8542SOL    HW237086   3.377   4.607   6.026  1.5385  0.5080  1.0274
 8543SOL     OW37087   0.789   2.332  13.730  0.4122  0.0140  0.1022
 8543SOL    HW137088   0.877   2.324  13.769  1.3155  0.4539 -1.8616
 8543SOL    HW237089   0.783   2.250  13.681 -1.6550 -0.7543  1.6380
 8544SOL     OW37090   1.303   0.934  12.035  0.3961  0.1723 -0.4760
 8544SOL    HW137091   1.274   0.885  12.112  4.0642 -1.9628 -0.4107
 8544SOL    HW237092   1.334   1.018  12.069  0.8443  0.2258 -1.0128
 8545SOL     OW37093   1.858   1.086   6.547  0.1538  0.4253  0.0546
 8545SOL    HW137094   1.865   1.066   6.640  1.0521  1.7310  0.2571
 8545SOL    HW237095   1.811   1.008   6.516  1.7918 -0.1495 -0.9651
 8546SOL     OW37096   3.884   2.734   3.332  0.3494  0.0580 -0.2501
 8546SOL    HW137097   3.843   2.670   3.274 -0.0958  1.6307 -1.6681
 8546SOL    HW237098   3.979   2.727   3.316  0.1596 -2.2977 -0.3160
 8547SOL     OW37099   3.307   0.295   4.760  0.0453 -0.6904 -0.2328
 8547SOL    HW137100   3.343   0.239   4.691  0.7898  1.2229 -1.4098
 8547SOL    HW237101   3.240   0.329   4.701 -0.3896  0.4924  0.9537
 8548SOL     OW37102   0.937   2.684   1.419 -0.0185 -0.7946 -0.2411
 8548SOL    HW137103   0.999   2.707   1.489 -1.4485 -1.8587  1.3809
 8548SOL    HW237104   0.988   2.739   1.359  1.9677  0.0957  2.2691
 8549SOL     OW37105   1.505   0.741   2.543  0.0256  0.7053 -0.8308
 8549SOL    HW137106   1.583   0.700   2.580 -0.5594 -0.1690 -0.5639
 8549SOL    HW237107   1.456   0.772   2.618 -1.3146  1.7451 -2.1522
 8550SOL     OW37108   1.976   4.591   4.860  0.7569  0.4170 -0.0871
 8550SOL    HW137109   1.921   4.617   4.786  0.1756 -0.3248  0.0963
 8550SOL    HW237110   2.038   4.664   4.865 -1.4048  2.2422 -0.1009
 8551SOL     OW37111   3.541   1.076   0.342 -0.0043  0.4472 -0.1561
 8551SOL    HW137112   3.619   1.092   0.288  0.5569  1.9091  1.0812
 8551SOL    HW237113   3.511   1.167   0.345 -1.9005 -0.2283  1.5770
 8552SOL     OW37114   1.544   2.448   7.489  0.0367  0.4699 -0.3145
 8552SOL    HW137115   1.606   2.450   7.417  0.4087 -1.7501 -0.0669
 8552SOL    HW237116   1.610   2.424   7.554 -0.9726  0.9388  0.8818
 8553SOL     OW37117   0.264   3.611   4.934 -0.3689  0.4006 -0.3401
 8553SOL    HW137118   0.276   3.586   5.025  3.4281  0.3528 -0.8774
 8553SOL    HW237119   0.298   3.533   4.889 -0.7821  0.4601 -0.7660
 8554SOL     OW37120   2.865   4.713   1.906  0.5630 -0.1750  0.1018
 8554SOL    HW137121   2.903   4.663   1.978 -0.9591 -1.0321  0.3047
 8554SOL    HW237122   2.876   4.641   1.844 -0.4535 -0.5286  0.3445
 8555SOL     OW37123   2.757   1.294   4.453  0.1715  0.1179  0.1774
 8555SOL    HW137124   2.750   1.361   4.385 -4.6143 -0.0264  0.5532
 8555SOL    HW237125   2.790   1.342   4.530  1.3510 -2.1287  1.0929
 8556SOL     OW37126   3.666   3.610   4.526  0.7750  0.3369 -0.7212
 8556SOL    HW137127   3.676   3.655   4.443 -0.1530  0.9249 -0.5212
 8556SOL    HW237128   3.614   3.533   4.504  1.5696 -0.0984 -1.0713
 8557SOL     OW37129   2.246   1.448   8.638 -0.3208  0.1378 -0.1834
 8557SOL    HW137130   2.318   1.451   8.575  0.0899  1.7099  0.3485
 8557SOL    HW237131   2.244   1.355   8.658  2.2214  0.4825  1.6566
 8558SOL     OW37132   1.506   4.130  12.675 -0.8308 -0.0955  0.0684
 8558SOL    HW137133   1.538   4.214  12.641 -0.9147 -1.0037 -2.2495
 8558SOL    HW237134   1.557   4.121  12.755 -1.0039 -0.6807  0.1138
 8559SOL     OW37135   3.905   3.489   4.273 -0.3041 -0.4923 -0.2169
 8559SOL    HW137136   3.911   3.554   4.344  0.5822 -1.9099  1.0075
 8559SOL    HW237137   3.813   3.467   4.292  0.7053 -1.3315  3.8028
 8560SOL     OW37138   2.174   0.973   7.603 -0.0776 -0.0265 -0.5713
 8560SOL    HW137139   2.180   1.040   7.535 -2.2498  1.4948  0.7257
 8560SOL    HW237140   2.080   0.980   7.619  0.2817  0.1079  1.4113
 8561SOL     OW37141   0.603   1.541  12.380  0.6402  0.1091  0.3743
 8561SOL    HW137142   0.606   1.460  12.329 -1.5836  0.4728 -0.3261
 8561SOL    HW237143   0.660   1.517  12.453  1.2078 -2.3228 -0.8769
 8562SOL     OW37144   2.842   4.508   2.502  0.0868  0.3755 -0.3361
 8562SOL    HW137145   2.894   4.492   2.581 -1.5552  1.8505  1.0747
 8562SOL    HW237146   2.893   4.585   2.478  2.5968 -0.8808  0.9643
 8563SOL     OW37147   2.912   4.494   3.237  0.2579  0.1799  0.1265
 8563SOL    HW137148   3.005   4.518   3.238  0.1780  0.5299 -0.5819
 8563SOL    HW237149   2.882   4.559   3.173 -1.8146  0.7434  1.6553
 8564SOL     OW37150   4.306   4.091  10.573  0.3360  0.4077 -0.0156
 8564SOL    HW137151   4.258   4.033  10.632 -0.2178  0.0022 -0.8783
 8564SOL    HW237152   4.392   4.052  10.590  0.3417 -0.8578 -2.9891
 8565SOL     OW37153   1.040   0.672   3.005  0.1253  0.2796  0.7331
 8565SOL    HW137154   0.983   0.681   2.929 -3.4875 -0.9774  3.2765
 8565SOL    HW237155   0.982   0.624   3.064 -0.0776 -1.3161 -0.8011
 8566SOL     OW37156   1.506   4.531   4.491  0.6362  0.2832  0.0493
 8566SOL    HW137157   1.583   4.478   4.466 -0.6598 -1.0603 -1.0980
 8566SOL    HW237158   1.445   4.507   4.421  0.5561  1.7963 -0.3835
 8567SOL     OW37159   1.215   1.570  15.580  0.3099  0.2926 -0.0124
 8567SOL    HW137160   1.290   1.618  15.544  0.5825  0.1280  0.3330
 8567SOL    HW237161   1.262   1.494  15.613  0.1733  0.4524  0.5509
 8568SOL     OW37162   2.271   1.623  13.665  0.1000 -0.7840 -0.5844
 8568SOL    HW137163   2.251   1.546  13.612  1.1833 -0.7484 -1.0397
 8568SOL    HW237164   2.351   1.599  13.713  0.7196 -1.1119 -1.7750
 8569SOL     OW37165   4.525   3.887  11.394  0.1341 -0.2024 -0.4150
 8569SOL    HW137166   4.515   3.813  11.453  1.9402 -0.4208 -0.3857
 8569SOL    HW237167   4.544   3.958  11.455  1.6309 -0.8639 -0.1170
 8570SOL     OW37168   2.815   4.156   7.901 -0.1954 -0.3073 -0.9830
 8570SOL    HW137169   2.816   4.067   7.937  1.2260 -0.0214 -0.3112
 8570SOL    HW237170   2.872   4.190   7.969  0.8543 -3.0155 -0.4877
 8571SOL     OW37171   4.415   2.291   4.956 -0.3924 -0.4404  0.1588
 8571SOL    HW137172   4.468   2.369   4.968 -0.9852 -0.1368  0.7951
 8571SOL    HW237173   4.324   2.315   4.938  0.0042 -0.1665 -1.4566
 8572SOL     OW37174   0.851   1.128  10.574 -0.0334  0.5634 -0.4837
 8572SOL    HW137175   0.796   1.110  10.650 -0.8578  1.6190 -0.8210
 8572SOL    HW237176   0.792   1.149  10.501  0.1571  0.5010 -0.6519
 8573SOL     OW37177   4.155   3.813   8.468 -0.0816  0.9348 -0.2623
 8573SOL    HW137178   4.132   3.898   8.430  1.2970  1.7436  0.7320
 8573SOL    HW237179   4.232   3.833   8.521  0.8146 -1.5375 -0.5961
 8574SOL     OW37180   1.254   1.661   3.448 -0.1843  0.8183 -0.5676
 8574SOL    HW137181   1.269   1.711   3.528  1.7370 -0.0836 -0.3515
 8574SOL    HW237182   1.222   1.577   3.483 -0.2278  0.6389 -1.0376
 8575SOL     OW37183   2.469   0.647   6.842  0.0311  0.2867  0.5733
 8575SOL    HW137184   2.410   0.602   6.902  0.3294  1.3803  1.6763
 8575SOL    HW237185   2.413   0.717   6.809  1.7147  1.0792 -0.6142
 8576SOL     OW37186   4.230   2.006   7.208 -0.0193 -0.1385  0.0416
 8576SOL    HW137187   4.296   1.939   7.196 -0.9522 -0.6585 -2.1332
 8576SOL    HW237188   4.163   1.987   7.142 -0.5973  1.5249  0.1320
 8577SOL     OW37189   3.555   0.403   7.659 -0.1081  0.0468  0.4099
 8577SOL    HW137190   3.598   0.472   7.709 -0.4015 -0.6857  1.6556
 8577SOL    HW237191   3.473   0.444   7.632 -0.2614 -0.2224  0.4703
 8578SOL     OW37192   2.732   4.697  15.098  0.6210  0.5352 -0.0213
 8578SOL    HW137193   2.646   4.685  15.138  0.4917 -1.3172 -0.8582
 8578SOL    HW237194   2.754   4.617  15.051  0.3169  0.4655 -0.0464
 8579SOL     OW37195   0.185   3.258  13.558  0.4581 -0.3294 -0.2486
 8579SOL    HW137196   0.271   3.253  13.599  0.7603  2.2681 -0.5274
 8579SOL    HW237197   0.217   3.278  13.469  5.2556 -0.0439  1.5617
 8580SOL     OW37198   4.703   3.941  15.673 -0.1633  0.4944  0.0639
 8580SOL    HW137199   0.002   3.858  15.629  0.1332  0.2518  0.6533
 8580SOL    HW237200   4.629   3.919  15.730  0.1999  1.5316  0.9426
 8581SOL     OW37201   0.683   2.062   9.408  0.3609 -0.5578 -0.5404
 8581SOL    HW137202   0.758   2.012   9.438  0.0271  0.7590  2.4600
 8581SOL    HW237203   0.615   2.042   9.473 -0.6949  0.7592 -1.2369
 8582SOL     OW37204   2.007   0.579  14.205 -0.0099 -0.3976 -0.1791
 8582SOL    HW137205   2.016   0.629  14.286  1.7020  0.8045 -1.1119
 8582SOL    HW237206   2.030   0.490  14.233  1.3254  0.3149  0.9727
 8583SOL     OW37207   4.245   0.152   7.604  0.5832  0.4806  0.4597
 8583SOL    HW137208   4.264   0.212   7.532  0.8745 -0.0438  0.0942
 8583SOL    HW237209   4.251   0.215   7.676 -0.4998  0.3170  0.6850
 8584SOL     OW37210   4.431   0.401   2.804  0.5519 -0.4939  0.2824
 8584SOL    HW137211   4.400   0.411   2.714  0.6143  2.6754  0.6251
 8584SOL    HW237212   4.449   0.307   2.794  1.8362 -0.3412  1.1208
 8585SOL     OW37213   1.189   3.924   4.448 -0.0302  0.1354  0.0256
 8585SOL    HW137214   1.179   3.884   4.534  0.3119 -0.9081 -0.4192
 8585SOL    HW237215   1.272   3.883   4.423 -0.2854  0.2455 -0.9952
 8586SOL     OW37216   3.826   0.140  17.034 -0.0723 -0.0694 -0.3426
 8586SOL    HW137217   3.819   0.095  16.950 -0.6071 -2.5799  1.0431
 8586SOL    HW237218   3.891   0.207  17.015 -0.4421 -0.2626 -2.3413
 8587SOL     OW37219   2.261   4.076  17.503  0.2278  0.3245  0.6099
 8587SOL    HW137220   2.277   4.089  17.597 -0.1234 -1.2541  0.8961
 8587SOL    HW237221   2.332   4.115  17.452 -0.4608 -0.2620 -0.7977
 8588SOL     OW37222   2.165   0.159   4.119 -0.4143 -0.9605 -0.2801
 8588SOL    HW137223   2.229   0.186   4.053  0.7891 -0.6047  1.0373
 8588SOL    HW237224   2.190   0.067   4.129  0.9094 -0.7373 -1.4431
 8589SOL     OW37225   0.192   3.119  16.518  0.4859  0.1389  0.1164
 8589SOL    HW137226   0.143   3.192  16.556 -2.8353 -2.8123  1.4547
 8589SOL    HW237227   0.249   3.171  16.461  0.1083 -0.6311 -0.9565
 8590SOL     OW37228   1.412   2.363   6.533 -0.1099 -0.4503 -0.3891
 8590SOL    HW137229   1.397   2.399   6.446  2.7050  1.3918 -0.0955
 8590SOL    HW237230   1.350   2.417   6.583 -1.0705 -2.3582  0.4987
 8591SOL     OW37231   0.383   2.244  14.288 -0.1306  0.5687 -0.9346
 8591SOL    HW137232   0.427   2.173  14.242 -0.5480  0.1054 -0.6199
 8591SOL    HW237233   0.463   2.292  14.308  0.3573  0.9803 -3.9622
 8592SOL     OW37234   0.843   2.670   3.639  0.1603  1.1868  0.3984
 8592SOL    HW137235   0.861   2.581   3.607  1.0540  2.4314 -2.5300
 8592SOL    HW237236   0.855   2.657   3.733  0.5934  1.6091  0.4026
 8593SOL     OW37237   3.054   3.971   7.649  0.0131  0.2311 -0.2327
 8593SOL    HW137238   3.120   3.968   7.718 -0.8504  1.6384  0.6470
 8593SOL    HW237239   3.083   4.057   7.617 -1.7191  0.7561 -0.3595
 8594SOL     OW37240   4.018   4.269  11.056  0.2539 -0.1554 -0.1063
 8594SOL    HW137241   4.055   4.213  11.125 -1.3169 -2.7448 -1.3539
 8594SOL    HW237242   3.933   4.225  11.056  0.5464 -0.7398  0.8812
 8595SOL     OW37243   0.812   1.135   3.359 -0.0120 -0.0431  0.2035
 8595SOL    HW137244   0.882   1.167   3.301 -1.7871  0.2662 -1.7384
 8595SOL    HW237245   0.741   1.170   3.305 -0.1488  1.1948  1.1891
 8596SOL     OW37246   2.546   3.856   6.439 -0.1209 -0.0731  0.4903
 8596SOL    HW137247   2.468   3.802   6.452  3.2371 -4.5900  1.8458
 8596SOL    HW237248   2.575   3.808   6.361 -1.9200 -1.1667  0.5083
 8597SOL     OW37249   3.507   2.686   2.505  0.6482 -0.6507 -0.1963
 8597SOL    HW137250   3.478   2.731   2.425 -2.2139 -3.5109 -0.7669
 8597SOL    HW237251   3.432   2.631   2.526  0.3193 -0.8182 -1.7758
 8598SOL     OW37252   2.348   0.351   0.520  0.1904 -0.0028 -0.3830
 8598SOL    HW137253   2.312   0.327   0.434 -0.9451 -0.0591  0.1191
 8598SOL    HW237254   2.266   0.363   0.567 -0.6873  0.6043 -2.0592
 8599SOL     OW37255   4.028   4.229   5.235  0.0064  0.3599  0.2472
 8599SOL    HW137256   3.981   4.228   5.152 -0.2636 -0.2107  0.4096
 8599SOL    HW237257   3.993   4.311   5.268  0.7211  0.3388  1.0582
 8600SOL     OW37258   2.792   1.225   5.240 -0.1751 -0.5011  0.1545
 8600SOL    HW137259   2.855   1.154   5.250  1.7420  1.2361  0.3723
 8600SOL    HW237260   2.850   1.301   5.234 -1.2355  0.1221 -2.1165
 8601SOL     OW37261   3.744   1.416  12.800 -0.4999 -0.1376  0.1674
 8601SOL    HW137262   3.734   1.353  12.871  0.9108  0.1587  0.6321
 8601SOL    HW237263   3.733   1.505  12.834  1.8374 -0.1821  1.0397
 8602SOL     OW37264   2.790   2.228   4.844  0.0459 -0.2865  0.1344
 8602SOL    HW137265   2.714   2.284   4.830 -2.2410 -2.7293  2.9982
 8602SOL    HW237266   2.850   2.300   4.822 -1.1377  0.7903  0.4740
 8603SOL     OW37267   3.894   2.984   5.467  0.6028  0.6700 -0.2566
 8603SOL    HW137268   3.805   3.018   5.460  0.3982  0.1469 -0.2327
 8603SOL    HW237269   3.896   2.965   5.561 -0.0449  0.3576 -0.3057
 8604SOL     OW37270   4.341   1.933   3.006 -0.5073 -0.1555  0.4513
 8604SOL    HW137271   4.427   1.912   2.968 -0.7672  0.3683 -0.4201
 8604SOL    HW237272   4.341   2.029   3.005  2.7314 -0.1301 -0.5583
 8605SOL     OW37273   1.471   0.212   8.830 -0.5740 -0.5311  0.3558
 8605SOL    HW137274   1.540   0.150   8.854 -0.2683 -0.0803  0.6563
 8605SOL    HW237275   1.400   0.157   8.797 -0.0533 -0.1095 -1.4193
 8606SOL     OW37276   3.604   1.530   1.154  0.3897  0.7251  0.0800
 8606SOL    HW137277   3.660   1.589   1.204  0.2676  0.7251  0.2154
 8606SOL    HW237278   3.604   1.455   1.214  3.0105  1.5608  1.1236
 8607SOL     OW37279   4.572   1.908   8.294  0.5938 -0.3179 -0.0721
 8607SOL    HW137280   4.538   1.933   8.380 -1.7757  0.9935 -1.3989
 8607SOL    HW237281   4.505   1.859   8.246  0.1791  0.8280 -0.6671
 8608SOL     OW37282   4.113   2.349   2.221  0.3074  0.5902 -0.1926
 8608SOL    HW137283   4.131   2.338   2.128 -0.7812  1.3362 -0.4940
 8608SOL    HW237284   4.102   2.444   2.216  0.9292  0.7336  1.1666
 8609SOL     OW37285   0.942   2.646   6.544  0.3697  0.4531 -0.0042
 8609SOL    HW137286   0.904   2.717   6.595 -1.1461  0.5599 -1.2727
 8609SOL    HW237287   0.957   2.575   6.606  1.1458 -0.0183 -0.7401
 8610SOL     OW37288   3.350   0.681   6.049 -0.9074  0.2794  0.2456
 8610SOL    HW137289   3.303   0.737   6.111  0.8517  1.4674  0.5012
 8610SOL    HW237290   3.284   0.656   5.985 -0.1111 -0.2398 -0.3696
 8611SOL     OW37291   1.306   0.577   3.044  0.0481  0.3187 -0.4342
 8611SOL    HW137292   1.215   0.607   3.042  0.5625  1.8347 -1.0077
 8611SOL    HW237293   1.323   0.592   3.137  1.2612  1.7921 -0.9000
 8612SOL     OW37294   1.016   2.325   2.328  0.1500  0.1736  0.5510
 8612SOL    HW137295   0.929   2.349   2.295 -0.0536 -0.6430  0.5023
 8612SOL    HW237296   1.002   2.234   2.353 -0.9302  0.4882  1.0593
 8613SOL     OW37297   0.681   0.601   6.075 -0.4426 -0.2113 -0.2701
 8613SOL    HW137298   0.589   0.579   6.057 -0.5496 -0.2184  0.2910
 8613SOL    HW237299   0.668   0.626   6.167 -0.4755  1.6836 -0.7848
 8614SOL     OW37300   2.562   2.031   8.211 -1.0872 -0.1549 -0.8582
 8614SOL    HW137301   2.577   2.104   8.270 -0.9673  0.2455 -1.3906
 8614SOL    HW237302   2.540   2.061   8.123  2.9891  1.9030 -1.1641
 8615SOL     OW37303   2.741   2.788  10.692 -0.3069  0.1336 -0.3083
 8615SOL    HW137304   2.807   2.718  10.698  0.2176  0.7916  1.5690
 8615SOL    HW237305   2.768   2.836  10.613 -0.2553  2.1393  0.9448
 8616SOL     OW37306   2.588   3.982  12.563  0.0955  0.1800 -0.1046
 8616SOL    HW137307   2.668   4.034  12.555  0.3083 -0.2446 -0.7708
 8616SOL    HW237308   2.631   3.916  12.509 -0.5115 -1.1867  1.0868
 8617SOL     OW37309   2.670   2.124   5.910  0.8317 -0.0396 -0.2327
 8617SOL    HW137310   2.691   2.186   5.841  2.9194 -0.6766 -0.1832
 8617SOL    HW237311   2.644   2.044   5.865 -0.3881  0.0836  0.2633
 8618SOL     OW37312   3.872   1.733   5.795  0.1118 -0.2773  0.1591
 8618SOL    HW137313   3.809   1.662   5.785 -1.0658  1.1130 -2.1180
 8618SOL    HW237314   3.906   1.749   5.707  0.4698  2.0586  0.7209
 8619SOL     OW37315   4.144   1.395   9.750 -0.0685  0.2266  0.0783
 8619SOL    HW137316   4.143   1.339   9.673 -0.6848  0.2399  0.0812
 8619SOL    HW237317   4.185   1.473   9.712 -1.8325  1.8352  1.5006
 8620SOL     OW37318   3.002   1.759   1.135 -0.5626 -0.3589  0.7030
 8620SOL    HW137319   2.961   1.844   1.150 -1.8537 -0.8008 -0.3104
 8620SOL    HW237320   2.953   1.716   1.065 -0.0931  1.1580 -0.5575
 8621SOL     OW37321   0.277   0.886   5.305  0.0118 -0.5324 -0.0491
 8621SOL    HW137322   0.285   0.791   5.294 -0.0442 -0.7948  2.0597
 8621SOL    HW237323   0.360   0.922   5.276  1.0754 -1.3720  1.9630
 8622SOL     OW37324   2.428   2.406   7.851 -0.1582  0.5792  0.4336
 8622SOL    HW137325   2.447   2.487   7.897  1.9984 -1.4847  3.1885
 8622SOL    HW237326   2.407   2.435   7.762 -2.7261 -0.2230  0.7772
 8623SOL     OW37327   4.644   1.090   7.581  0.2466 -0.2477 -0.2513
 8623SOL    HW137328   4.628   1.112   7.673  1.7516  1.4538 -0.3930
 8623SOL    HW237329   4.554   1.107   7.556 -0.0939  0.2390  1.2639
 8624SOL     OW37330   1.675   3.419   5.354 -0.8096  0.4852  0.3102
 8624SOL    HW137331   1.705   3.380   5.272 -0.0732  1.8862 -0.0954
 8624SOL    HW237332   1.679   3.338   5.404 -0.5182 -0.4579 -1.2195
 8625SOL     OW37333   4.045   4.299   5.623 -0.2074 -0.3078  0.1519
 8625SOL    HW137334   3.968   4.259   5.664 -0.7789 -1.4550 -2.0543
 8625SOL    HW237335   4.014   4.386   5.600  2.7480  0.4050 -1.1182
 8626SOL     OW37336   0.584   4.504   7.308 -0.1430 -0.5230  0.2875
 8626SOL    HW137337   0.663   4.450   7.307  0.1551 -0.1218  1.8192
 8626SOL    HW237338   0.579   4.521   7.402 -0.4954 -3.3511  0.7578
 8627SOL     OW37339   2.710   0.780   6.871  0.1315 -0.3270  0.2161
 8627SOL    HW137340   2.630   0.730   6.853  0.1881  0.4119 -2.0555
 8627SOL    HW237341   2.711   0.838   6.795  0.8258  1.0354  1.2825
 8628SOL     OW37342   1.259   3.045   3.799  0.3557  0.1461  1.3770
 8628SOL    HW137343   1.259   3.124   3.744  2.5141 -1.5288 -1.0730
 8628SOL    HW237344   1.315   2.989   3.745 -0.6212  1.4096 -0.9448
 8629SOL     OW37345   2.815   4.375   1.605 -0.5684 -0.7423  0.6373
 8629SOL    HW137346   2.759   4.426   1.662 -1.0692  0.4996 -0.9597
 8629SOL    HW237347   2.778   4.397   1.519  0.2425  0.4516  0.5907
 8630SOL     OW37348   1.886   2.493   9.062  0.1987  0.1416  0.0653
 8630SOL    HW137349   1.863   2.460   9.149  2.5258  1.1454  1.0630
 8630SOL    HW237350   1.919   2.412   9.023  0.3859 -0.0105  0.5402
 8631SOL     OW37351   2.223   0.781   3.353 -0.2446  0.1808 -0.3191
 8631SOL    HW137352   2.192   0.832   3.428 -2.2054 -1.1553 -0.2139
 8631SOL    HW237353   2.197   0.846   3.288 -0.2740  0.5460  0.0625
 8632SOL     OW37354   3.814   2.222   7.615 -0.1745 -0.2897  0.2952
 8632SOL    HW137355   3.818   2.227   7.520 -1.2551 -0.6226  0.2295
 8632SOL    HW237356   3.819   2.315   7.637 -0.8331  0.1351 -1.3163
 8633SOL     OW37357   2.717   1.734   4.319  0.5775 -0.7861 -0.1098
 8633SOL    HW137358   2.799   1.782   4.317 -0.1998  0.4770 -1.3220
 8633SOL    HW237359   2.701   1.728   4.414 -0.0561 -1.2269 -0.2407
 8634SOL     OW37360   3.013   3.660   6.935 -0.4169 -0.3585  0.2241
 8634SOL    HW137361   3.084   3.683   6.876 -0.9810 -0.7693 -0.6176
 8634SOL    HW237362   3.017   3.730   7.000 -1.1938  0.2808 -0.4224
 8635SOL     OW37363   1.043   0.707   8.027 -0.3843 -0.2528 -0.1457
 8635SOL    HW137364   0.988   0.690   8.103 -1.4250 -2.0876 -1.2884
 8635SOL    HW237365   1.125   0.678   8.068 -1.0595  0.0835  1.4236
 8636SOL     OW37366   2.280   2.442  10.727 -0.2790  0.3602  0.3130
 8636SOL    HW137367   2.293   2.452  10.821 -0.8164 -1.5560  0.5913
 8636SOL    HW237368   2.191   2.478  10.725  0.0777  1.2454  0.2594
 8637SOL     OW37369   1.239   1.078   8.714  0.5799 -0.0751  0.1575
 8637SOL    HW137370   1.219   1.036   8.630  0.9732 -0.5366  0.2971
 8637SOL    HW237371   1.175   1.149   8.708 -0.2564 -0.8025  0.3575
 8638SOL     OW37372   1.246   2.949   3.292  0.2758 -0.3287  0.6418
 8638SOL    HW137373   1.232   2.856   3.275 -1.1089 -0.1487  0.8248
 8638SOL    HW237374   1.324   2.955   3.236 -1.0805  0.5771 -1.1213
 8639SOL     OW37375   2.800   1.219   2.326  0.1255  0.4712 -0.1133
 8639SOL    HW137376   2.848   1.188   2.402 -0.9606  0.6776  0.6463
 8639SOL    HW237377   2.871   1.251   2.269 -1.0634  0.0301 -1.8526
 8640SOL     OW37378   1.679   2.085   7.666  0.2755  0.3222  0.2995
 8640SOL    HW137379   1.686   2.181   7.670 -0.5069  0.3526  0.9631
 8640SOL    HW237380   1.726   2.069   7.584 -2.7557 -0.9157 -1.2343
 8641SOL     OW37381   1.688   1.378   2.879 -0.5744 -0.2981  0.0800
 8641SOL    HW137382   1.716   1.290   2.856 -1.0796 -0.7390  1.1313
 8641SOL    HW237383   1.780   1.404   2.872 -1.2162  2.6512  2.3781
 8642SOL     OW37384   2.585   0.651  11.925  0.0931  0.0072  0.1607
 8642SOL    HW137385   2.648   0.715  11.891  0.2273 -0.8368 -1.1366
 8642SOL    HW237386   2.650   0.607  11.980  0.0009 -0.8380 -0.4249
 8643SOL     OW37387   1.802   2.036   8.776 -0.4123 -1.1000 -0.2865
 8643SOL    HW137388   1.787   2.104   8.710 -2.7857 -2.6698 -1.3841
 8643SOL    HW237389   1.870   1.985   8.733  0.0766  0.4952 -1.3698
 8644SOL     OW37390   4.055   0.860   2.341  0.1986 -0.2281 -0.2129
 8644SOL    HW137391   4.116   0.789   2.328  0.3646  0.4507 -3.0234
 8644SOL    HW237392   4.091   0.925   2.281  2.4481 -0.4146  0.9607
 8645SOL     OW37393   4.306   1.642  11.935  0.6354  0.6122  0.0633
 8645SOL    HW137394   4.265   1.706  11.877  1.0108  2.1584  1.5100
 8645SOL    HW237395   4.376   1.697  11.970  0.3508  1.2246 -0.3320
 8646SOL     OW37396   0.113   4.475   5.913  0.1839  0.0188  0.2630
 8646SOL    HW137397   0.041   4.533   5.939 -2.8965 -2.7281 -2.2614
 8646SOL    HW237398   0.187   4.532   5.937  0.5564 -0.5504  0.4534
 8647SOL     OW37399   0.885   0.369  11.726  0.2037  0.4062 -0.4642
 8647SOL    HW137400   0.866   0.368  11.819  2.3975  2.2756  0.0059
 8647SOL    HW237401   0.930   0.286  11.710 -0.7250 -0.8367  3.3624
 8648SOL     OW37402   3.712   1.892   6.919  0.1078  0.0174  0.1336
 8648SOL    HW137403   3.764   1.970   6.941  0.4110 -0.6617  1.8044
 8648SOL    HW237404   3.644   1.903   6.985 -1.8938  3.0510 -2.3773
 8649SOL     OW37405   4.145   2.551   0.316  0.5039 -0.2196 -0.5902
 8649SOL    HW137406   4.205   2.545   0.242  1.6655 -0.8895  0.3900
 8649SOL    HW237407   4.186   2.631   0.349 -0.0916  0.3560 -1.2727
 8650SOL     OW37408   3.418   1.359   2.436 -0.2731 -0.4728  0.3264
 8650SOL    HW137409   3.461   1.336   2.354 -0.1489 -3.2705  1.1694
 8650SOL    HW237410   3.432   1.451   2.456 -0.9036 -0.5041  0.8911
 8651SOL     OW37411   2.369   1.875  10.034 -0.3733  0.1322 -0.1695
 8651SOL    HW137412   2.437   1.808  10.026 -0.7923 -0.7000  3.3258
 8651SOL    HW237413   2.357   1.881  10.129  1.5420 -1.5880  0.1665
 8652SOL     OW37414   0.972   1.997   9.858  0.3188  0.2587  0.7638
 8652SOL    HW137415   0.890   1.965   9.821  0.9708 -0.2889 -0.2002
 8652SOL    HW237416   1.026   1.921   9.879 -0.3683 -0.0106  1.5789
 8653SOL     OW37417   3.919   1.526   3.558  0.2716 -0.8195 -0.1596
 8653SOL    HW137418   3.967   1.608   3.571 -0.3428 -0.6549  1.1048
 8653SOL    HW237419   3.938   1.510   3.466 -0.2638 -2.4249  0.0120
 8654SOL     OW37420   3.946   4.352   2.183  0.1244  0.0007  0.0424
 8654SOL    HW137421   3.890   4.335   2.258  0.1032 -0.6106 -0.1154
 8654SOL    HW237422   3.997   4.431   2.200 -1.6708  1.0336  0.6122
 8655SOL     OW37423   2.979   0.495   1.374  0.6867 -0.2134 -0.3313
 8655SOL    HW137424   2.905   0.468   1.321 -1.0470  1.8451  1.0408
 8655SOL    HW237425   2.953   0.585   1.396 -1.6116 -0.5464 -1.7165
 8656SOL     OW37426   2.765   1.117   0.392 -0.6407  0.6009  0.1593
 8656SOL    HW137427   2.771   1.213   0.391  4.6537  0.3160  0.3300
 8656SOL    HW237428   2.692   1.110   0.331  1.3244 -0.2309 -2.1336
 8657SOL     OW37429   0.940   3.233   7.159 -0.4498 -0.0526 -0.0880
 8657SOL    HW137430   0.869   3.286   7.124 -0.7722  0.5476  1.5118
 8657SOL    HW237431   0.911   3.200   7.243 -0.1650 -1.5512 -0.5733
 8658SOL     OW37432   1.709   2.104   3.849 -0.4231 -0.0091  0.7263
 8658SOL    HW137433   1.759   2.185   3.861  0.1058 -0.6839  3.2678
 8658SOL    HW237434   1.784   2.044   3.853  1.8159  2.6997 -1.1799
 8659SOL     OW37435   1.893   0.449   6.752 -0.4129 -0.1003  0.0503
 8659SOL    HW137436   1.937   0.478   6.672  0.5908 -2.9312 -0.4324
 8659SOL    HW237437   1.942   0.368   6.766  2.1081  1.6945  1.6533
 8660SOL     OW37438   2.117   2.320   6.424  0.2651  0.4135  0.0576
 8660SOL    HW137439   2.114   2.410   6.392 -1.7549 -0.5149 -2.3428
 8660SOL    HW237440   2.041   2.284   6.378 -0.0336  0.1291  0.7757
 8661SOL     OW37441   4.171   3.238   9.171 -0.4901  0.2024 -0.3409
 8661SOL    HW137442   4.213   3.322   9.192 -1.0130 -0.1366  1.9924
 8661SOL    HW237443   4.193   3.180   9.244 -1.2601  0.5600  0.1689
 8662SOL     OW37444   0.607   1.739   6.063  0.0983  0.1665  0.5465
 8662SOL    HW137445   0.575   1.828   6.079 -1.8590 -0.8444  2.3789
 8662SOL    HW237446   0.566   1.722   5.978  4.3328  1.8212 -1.8080
 8663SOL     OW37447   3.559   3.534   0.578  0.8054 -0.1936 -0.8727
 8663SOL    HW137448   3.652   3.517   0.569  1.0649  0.7277 -0.0181
 8663SOL    HW237449   3.545   3.504   0.667  2.5760  0.6091 -0.3227
 8664SOL     OW37450   1.548   2.057   6.076 -0.3021  0.0990  0.0267
 8664SOL    HW137451   1.603   1.979   6.070  1.3343  1.2336  0.3317
 8664SOL    HW237452   1.504   2.066   5.991  0.9118  1.0627 -0.5004
 8665SOL     OW37453   3.813   3.475   0.862  0.2056 -0.1145  0.2163
 8665SOL    HW137454   3.758   3.538   0.910 -0.7899 -0.6212 -0.2841
 8665SOL    HW237455   3.901   3.490   0.898  1.0099 -3.0325 -0.5953
 8666SOL     OW37456   2.800   0.740   0.975  0.0432  0.2368 -0.4162
 8666SOL    HW137457   2.840   0.663   0.934 -1.6856 -0.8966  0.0542
 8666SOL    HW237458   2.778   0.799   0.903  0.2551  1.7639  0.7604
 8667SOL     OW37459   2.327   3.680   3.743 -0.1664  0.2623 -0.1900
 8667SOL    HW137460   2.290   3.755   3.789 -0.8461 -1.0004  1.3157
 8667SOL    HW237461   2.418   3.709   3.748 -0.8252  2.2038  0.3723
 8668SOL     OW37462   2.571   0.572  16.239 -0.2187  0.5366 -0.4654
 8668SOL    HW137463   2.617   0.610  16.164 -0.8362  0.7990 -0.7112
 8668SOL    HW237464   2.618   0.615  16.310 -3.2709  0.9683  1.3052
 8669SOL     OW37465   2.048   4.026   5.528 -0.6386  0.1938  0.0965
 8669SOL    HW137466   2.074   4.095   5.590  0.3964 -2.6521  2.8363
 8669SOL    HW237467   2.133   3.982   5.530 -1.0837 -0.6364  0.7540
 8670SOL     OW37468   1.974   2.395   2.828 -0.0152  0.2730  0.0528
 8670SOL    HW137469   1.890   2.427   2.796  1.3055  0.5386 -3.1451
 8670SOL    HW237470   1.934   2.322   2.874 -2.2491  2.7502  2.0056
 8671SOL     OW37471   0.826   2.177  10.016 -0.3140  0.1570  0.2875
 8671SOL    HW137472   0.904   2.130   9.988 -0.0170  1.0034 -0.3077
 8671SOL    HW237473   0.843   2.156  10.108 -2.8972 -1.5325  0.3734
 8672SOL     OW37474   3.162   1.534   0.952 -0.7428  0.1490 -0.3004
 8672SOL    HW137475   3.156   1.628   0.937  0.2277 -0.4940 -4.5276
 8672SOL    HW237476   3.196   1.511   0.866  1.8779 -0.6856  0.9663
 8673SOL     OW37477   2.356   3.387  15.389 -0.0463 -0.4335 -0.6714
 8673SOL    HW137478   2.401   3.352  15.312  3.3716 -0.4986  1.3656
 8673SOL    HW237479   2.425   3.434  15.435 -0.7070  1.3620 -1.5302
 8674SOL     OW37480   3.504   2.630   6.348 -0.4466  0.7923  0.4439
 8674SOL    HW137481   3.514   2.536   6.335 -1.7199  1.0323 -2.3261
 8674SOL    HW237482   3.586   2.647   6.395  1.2453  1.8232 -2.9065
 8675SOL     OW37483   3.045   3.581   5.661  0.3368  0.4089  0.0623
 8675SOL    HW137484   3.132   3.598   5.625  0.9078  1.2778  1.8632
 8675SOL    HW237485   3.009   3.561   5.575  0.2974 -2.3087  0.6974
 8676SOL     OW37486   3.081   1.298   6.718 -0.0717  0.2888 -0.5516
 8676SOL    HW137487   3.107   1.297   6.626  1.1084 -0.8725 -0.2096
 8676SOL    HW237488   3.145   1.236   6.754  0.6499  1.2138 -0.2513
 8677SOL     OW37489   2.987   1.438   6.944  0.3180 -0.3452  0.0697
 8677SOL    HW137490   3.014   1.394   6.864  3.3460  1.6123  0.0421
 8677SOL    HW237491   2.970   1.529   6.919 -1.5774 -1.0455 -1.1553
 8678SOL     OW37492   3.679   1.975   8.200  0.5403  0.7149 -0.8621
 8678SOL    HW137493   3.679   2.045   8.136  1.4146  3.4929  2.1550
 8678SOL    HW237494   3.588   1.951   8.218  1.3621 -0.8540  1.2970
 8679SOL     OW37495   2.291   1.548   1.346 -1.0558 -0.0772 -0.2480
 8679SOL    HW137496   2.349   1.542   1.422 -2.7273  2.1697  1.1967
 8679SOL    HW237497   2.349   1.491   1.295 -1.4478 -3.4710  3.0625
 8680SOL     OW37498   0.573   1.419   0.038 -0.0881  0.3791 -0.4587
 8680SOL    HW137499   0.660   1.390   0.011 -0.0501  0.1483 -0.0964
 8680SOL    HW237500   0.579   1.514   0.039 -0.6197  0.3944  0.9080
 8681SOL     OW37501   2.396   3.461   5.958 -0.5707  0.0057 -0.2067
 8681SOL    HW137502   2.435   3.386   5.914 -1.0331 -0.7917  0.7294
 8681SOL    HW237503   2.371   3.513   5.882 -1.0148  0.9572  0.5965
 8682SOL     OW37504   3.175   3.427   7.157 -0.7034 -0.3784  0.0520
 8682SOL    HW137505   3.109   3.359   7.163  1.1489 -1.9601  2.4113
 8682SOL    HW237506   3.202   3.420   7.065 -2.1598  1.2767 -0.5007
 8683SOL     OW37507   3.622   1.100   6.336  0.2020 -0.5421 -0.4549
 8683SOL    HW137508   3.635   1.105   6.431  0.9481  1.8000 -0.6866
 8683SOL    HW237509   3.617   1.191   6.309  1.3424 -0.4854 -0.4519
 8684SOL     OW37510   4.242   0.274  15.838  0.1739  0.0194 -0.2452
 8684SOL    HW137511   4.324   0.303  15.879  1.1891 -3.2360  0.0550
 8684SOL    HW237512   4.214   0.195  15.884 -0.8248  2.1309  2.7960
 8685SOL     OW37513   1.787   3.019   0.468  0.0691  0.2747  0.1139
 8685SOL    HW137514   1.757   3.068   0.391 -0.0921 -0.8470 -0.5446
 8685SOL    HW237515   1.737   2.937   0.458  0.4293 -0.0530  0.9952
 8686SOL     OW37516   1.998   1.698   7.605  1.3959 -0.1378 -0.1599
 8686SOL    HW137517   2.025   1.763   7.670 -2.5078  1.5160 -0.2146
 8686SOL    HW237518   2.042   1.628   7.653  1.0962 -2.5384 -3.4478
 8687SOL     OW37519   0.195   2.674   1.957 -0.1743  0.2684  0.5395
 8687SOL    HW137520   0.234   2.596   1.917 -1.6843  0.1657 -0.7493
 8687SOL    HW237521   0.103   2.674   1.932 -0.0074  0.0199 -0.0751
 8688SOL     OW37522   0.163   0.185   3.297  0.0641 -0.4283  0.5533
 8688SOL    HW137523   0.184   0.155   3.385 -1.2466 -0.0681  0.9873
 8688SOL    HW237524   0.106   0.116   3.264  1.3222 -0.6302 -1.1588
 8689SOL     OW37525   3.978   2.796   3.613  0.1967 -0.3664 -0.5285
 8689SOL    HW137526   4.056   2.762   3.657 -0.2668 -0.4651  0.2111
 8689SOL    HW237527   3.951   2.716   3.567 -0.7622 -0.2160 -0.2246
 8690SOL     OW37528   3.228   0.222   7.431  0.2954 -0.8558 -0.1830
 8690SOL    HW137529   3.267   0.207   7.518 -1.6532  1.6889  1.1335
 8690SOL    HW237530   3.253   0.137   7.395  1.6559 -0.3405 -0.4581
 8691SOL     OW37531   0.730   2.804   2.273  0.3659  0.1555 -0.0013
 8691SOL    HW137532   0.697   2.749   2.202  0.8525  0.2271 -0.2835
 8691SOL    HW237533   0.742   2.734   2.337 -0.0431 -1.4827 -1.7098
 8692SOL     OW37534   3.100   2.821   2.577 -0.5823 -0.2628 -0.0632
 8692SOL    HW137535   3.171   2.881   2.603 -0.8403  0.0657 -0.1127
 8692SOL    HW237536   3.077   2.783   2.662  0.4216  0.5239  0.5568
 8693SOL     OW37537   1.232   2.927   9.117 -0.2750  0.2714 -0.2415
 8693SOL    HW137538   1.163   2.928   9.183 -0.0568 -1.1419  0.0073
 8693SOL    HW237539   1.277   3.010   9.129 -1.6991  0.9306  0.6058
 8694SOL     OW37540   1.703   1.276  17.121  0.3164  0.6057 -0.3945
 8694SOL    HW137541   1.707   1.279  17.217  3.9422 -2.9240 -0.4407
 8694SOL    HW237542   1.623   1.327  17.105  1.4321  2.7084  0.7367
 8695SOL     OW37543   0.103   2.390   5.143  0.6145 -0.3768  0.2407
 8695SOL    HW137544   0.185   2.387   5.193  0.2696 -0.6687  0.7852
 8695SOL    HW237545   0.047   2.429   5.210 -1.0426 -1.6908 -0.3629
 8696SOL     OW37546   2.974   3.815   7.426 -0.5975  0.7514  0.5073
 8696SOL    HW137547   3.046   3.753   7.412 -1.4635  0.2266 -1.6539
 8696SOL    HW237548   3.005   3.874   7.494 -0.1455  1.8819 -0.6810
 8697SOL     OW37549   0.364   3.525   1.067  0.0392  0.0132 -0.2246
 8697SOL    HW137550   0.419   3.465   1.117 -0.1894  1.0538  1.2882
 8697SOL    HW237551   0.399   3.502   0.981  2.0196  0.1214  0.5463
 8698SOL     OW37552   0.752   0.328   3.415 -0.1511  0.9201 -0.0951
 8698SOL    HW137553   0.656   0.333   3.417 -0.2308 -0.0358 -1.4559
 8698SOL    HW237554   0.782   0.411   3.453  1.2732  0.7682 -0.8966
 8699SOL     OW37555   3.422   3.020  12.618  0.0280 -0.1275  0.1998
 8699SOL    HW137556   3.483   2.996  12.687  0.2928  0.4021  0.1469
 8699SOL    HW237557   3.396   3.102  12.658  1.2844  0.0872  0.5779
 8700SOL     OW37558   3.962   3.145  15.990 -0.1291  0.0580 -0.1321
 8700SOL    HW137559   4.019   3.169  16.063 -1.2163  1.4989  0.2519
 8700SOL    HW237560   3.965   3.229  15.944 -2.9012  1.6297  2.5794
 8701SOL     OW37561   1.969   0.320   0.150 -0.1933 -0.2401 -0.4834
 8701SOL    HW137562   1.890   0.270   0.131 -0.2438 -0.0732 -0.7038
 8701SOL    HW237563   1.984   0.358   0.063 -1.4952  2.2631  0.3704
 8702SOL     OW37564   2.329   0.188   7.087 -0.2962  0.0270  0.3449
 8702SOL    HW137565   2.254   0.129   7.077 -1.5593  1.8557 -1.0270
 8702SOL    HW237566   2.399   0.132   7.055 -0.0071 -0.3935  1.7137
 8703SOL     OW37567   2.880   1.149   3.921  0.2526 -0.0769  0.1858
 8703SOL    HW137568   2.925   1.229   3.948 -0.3408  0.7797 -1.4015
 8703SOL    HW237569   2.893   1.096   4.001 -0.9537  0.9028  1.0268
 8704SOL     OW37570   1.201   2.886   0.460  0.8349 -0.2611  0.1915
 8704SOL    HW137571   1.140   2.953   0.491 -1.4034 -0.8623 -2.8668
 8704SOL    HW237572   1.152   2.871   0.379  1.8245 -0.3611 -0.3909
 8705SOL     OW37573   1.755   2.836  16.510  0.4361  0.0816 -0.7065
 8705SOL    HW137574   1.695   2.833  16.584  0.8283  1.3169 -0.3432
 8705SOL    HW237575   1.814   2.906  16.536  1.2326 -0.5621 -0.7906
 8706SOL     OW37576   1.864   2.508  17.384  0.3123 -0.0093  0.3765
 8706SOL    HW137577   1.874   2.587  17.437  0.2628 -0.0288  0.4145
 8706SOL    HW237578   1.945   2.459  17.398  1.0165  1.2454  0.6517
 8707SOL     OW37579   0.388   1.055  11.322 -0.3259  0.2938  0.4723
 8707SOL    HW137580   0.384   1.140  11.279 -0.0147  0.2443  0.3461
 8707SOL    HW237581   0.324   1.063  11.392  0.8061  1.4909  1.3592
 8708SOL     OW37582   1.459   0.417   1.317 -0.0458 -0.6573  0.0646
 8708SOL    HW137583   1.502   0.444   1.399  1.0215 -0.3386 -0.6063
 8708SOL    HW237584   1.395   0.352   1.345  1.6833 -0.9544  3.3421
 8709SOL     OW37585   4.696   2.639  12.207  0.3664  0.2791 -0.1132
 8709SOL    HW137586   0.043   2.686  12.160  0.5447  1.0772  0.9439
 8709SOL    HW237587   4.633   2.707  12.230  1.1135  1.5073 -1.6995
 8710SOL     OW37588   1.854   4.302  11.984  0.4220  0.6322  0.6087
 8710SOL    HW137589   1.905   4.302  11.903 -1.6055 -0.5178 -0.6365
 8710SOL    HW237590   1.919   4.298  12.055  0.8800 -3.5623 -0.0564
 8711SOL     OW37591   0.324   1.182   7.734 -0.1494 -0.0193  0.4788
 8711SOL    HW137592   0.283   1.096   7.737 -0.1083 -0.1228 -1.4979
 8711SOL    HW237593   0.278   1.215   7.811  0.2051  0.5707  0.4429
 8712SOL     OW37594   1.347   3.855  12.996 -0.0431 -0.4822 -0.2227
 8712SOL    HW137595   1.362   3.863  13.090 -0.7284  0.0049 -0.1507
 8712SOL    HW237596   1.430   3.891  12.965 -1.6122  2.4572 -1.0656
 8713SOL     OW37597   1.121   0.142   4.639 -0.1658  0.2032 -0.5016
 8713SOL    HW137598   1.039   0.125   4.591  0.4001  2.0721 -2.1635
 8713SOL    HW237599   1.176   0.065   4.625 -2.5777 -1.9915  2.3417
 8714SOL     OW37600   0.194   3.875  17.591 -0.0284  0.2402 -1.1361
 8714SOL    HW137601   0.104   3.907  17.595 -0.2198 -0.5685  1.1488
 8714SOL    HW237602   0.176   3.783  17.573  1.2315 -0.3735  0.6539
 8715SOL     OW37603   1.207   2.596  15.547 -0.2678  0.5793  0.6607
 8715SOL    HW137604   1.276   2.660  15.529  0.6586  0.0015  2.1818
 8715SOL    HW237605   1.194   2.546  15.467  1.5980 -2.8733  2.5362
 8716SOL     OW37606   3.582   4.286  14.679 -0.0657  0.1909  0.6596
 8716SOL    HW137607   3.540   4.207  14.647  1.3762  0.5152 -2.0467
 8716SOL    HW237608   3.672   4.254  14.679  0.3345  1.3342 -0.6882
 8717SOL     OW37609   2.361   2.109   8.790 -0.0410 -0.2186  0.4341
 8717SOL    HW137610   2.368   2.116   8.695 -0.1445  0.5814  0.4897
 8717SOL    HW237611   2.312   2.186   8.817  1.7526  1.5723 -1.4357
 8718SOL     OW37612   1.923   0.597  15.337 -0.3886  0.2381 -0.6539
 8718SOL    HW137613   2.010   0.563  15.317 -0.7985 -1.5517  0.5825
 8718SOL    HW237614   1.901   0.542  15.413 -1.1010  2.1704  0.5502
 8719SOL     OW37615   3.240   3.466   1.685 -0.3899  0.0735 -0.1743
 8719SOL    HW137616   3.212   3.402   1.751 -0.3155 -0.5812 -0.7807
 8719SOL    HW237617   3.216   3.419   1.605 -0.3606 -0.1831 -0.0315
 8720SOL     OW37618   3.135   2.361   7.596 -0.2415  0.7304  0.4838
 8720SOL    HW137619   3.095   2.324   7.517  1.6743  0.3238 -0.3123
 8720SOL    HW237620   3.178   2.283   7.631 -2.9303 -0.6273  0.7363
 8721SOL     OW37621   1.542   0.340  16.119 -0.3607 -0.0695  0.1882
 8721SOL    HW137622   1.463   0.373  16.162 -0.0392  2.4427 -1.1450
 8721SOL    HW237623   1.609   0.375  16.179  0.8796 -1.1713 -0.5386
 8722SOL     OW37624   3.019   0.116   1.594  0.3234 -0.2526  0.0109
 8722SOL    HW137625   3.029   0.027   1.559  2.6811 -0.8585  2.2369
 8722SOL    HW237626   3.100   0.154   1.560  0.9536 -1.0446  0.6278
 8723SOL     OW37627   3.537   2.105   0.973 -0.0020  0.4159  0.8091
 8723SOL    HW137628   3.447   2.074   0.981  0.1752  0.1015  1.5713
 8723SOL    HW237629   3.563   2.113   1.065 -0.4044 -2.4599  1.1750
 8724SOL     OW37630   1.118   2.421   7.838 -0.9622  0.1353 -0.0307
 8724SOL    HW137631   1.174   2.452   7.909  1.1388  0.3258 -1.7667
 8724SOL    HW237632   1.171   2.461   7.769  1.7773  1.5180  2.8645
 8725SOL     OW37633   3.491   4.297   2.502  0.4601 -0.2360  0.0730
 8725SOL    HW137634   3.403   4.314   2.535 -0.2672  1.1419 -2.4917
 8725SOL    HW237635   3.506   4.379   2.454  0.3470  1.8400  3.5794
 8726SOL     OW37636   4.171   1.955  12.640  0.3127 -0.4609  0.2589
 8726SOL    HW137637   4.084   1.992  12.654 -0.0311 -0.9336 -0.6718
 8726SOL    HW237638   4.211   1.967  12.726 -0.9142 -0.3336  0.8196
 8727SOL     OW37639   0.713   2.972   7.623  0.1926 -0.0153  0.2326
 8727SOL    HW137640   0.643   2.969   7.689 -1.2274  0.2847 -1.2587
 8727SOL    HW237641   0.712   2.884   7.585 -1.2983 -0.5831  1.5958
 8728SOL     OW37642   2.327   3.458   2.618 -0.3742  0.2909 -0.6956
 8728SOL    HW137643   2.284   3.377   2.647 -0.6376 -0.0713 -2.1086
 8728SOL    HW237644   2.360   3.440   2.530  0.6003  1.5640 -0.5780
 8729SOL     OW37645   0.606   4.365   8.480 -0.5888 -0.0698 -0.2825
 8729SOL    HW137646   0.627   4.415   8.559 -0.8951 -0.3180 -0.0409
 8729SOL    HW237647   0.597   4.275   8.512 -0.5155 -0.5230 -1.5642
 8730SOL     OW37648   1.614   0.140   4.990 -0.1205 -0.0249 -0.7095
 8730SOL    HW137649   1.658   0.091   5.059 -1.8375 -0.4687  0.0645
 8730SOL    HW237650   1.594   0.226   5.028 -1.9084 -1.0208  0.6290
 8731SOL     OW37651   2.838   2.595   6.757 -0.1908 -0.2502 -0.7598
 8731SOL    HW137652   2.858   2.658   6.688 -1.1414  0.1251 -0.6844
 8731SOL    HW237653   2.875   2.523   6.706 -1.0846 -0.0184 -1.7185
 8732SOL     OW37654   4.092   1.941  16.428  0.1994 -0.0754  0.0496
 8732SOL    HW137655   4.006   1.904  16.448  0.8114 -1.6293 -0.1862
 8732SOL    HW237656   4.118   1.890  16.352  0.4384 -0.6110  0.4931
 8733SOL     OW37657   0.788   2.538   2.409 -0.7496 -0.2542  0.0587
 8733SOL    HW137658   0.795   2.476   2.336 -2.2302 -1.6673  1.1227
 8733SOL    HW237659   0.874   2.534   2.451 -0.7522  1.5416  0.2115
 8734SOL     OW37660   0.899   1.259   7.903  0.3555 -0.0322  0.3162
 8734SOL    HW137661   0.882   1.344   7.943  3.4550  0.5790  0.3688
 8734SOL    HW237662   0.867   1.201   7.972 -0.2828  1.5893  1.3778
 8735SOL     OW37663   0.644   4.438  10.372 -0.1168 -0.4800  0.2174
 8735SOL    HW137664   0.565   4.432  10.319 -1.0429  0.5615  1.4720
 8735SOL    HW237665   0.695   4.490  10.310  0.6310 -2.0881 -0.5110
 8736SOL     OW37666   3.872   2.891   1.612  0.6911  0.3436 -0.0809
 8736SOL    HW137667   3.910   2.809   1.581  0.3978  0.6635 -1.3068
 8736SOL    HW237668   3.854   2.930   1.526  0.2063  0.8499  0.2463
 8737SOL     OW37669   3.644   3.388   6.865  0.0836  0.4199  0.3185
 8737SOL    HW137670   3.549   3.395   6.870  0.0912  1.3813 -0.8118
 8737SOL    HW237671   3.661   3.344   6.782 -1.8969  0.1742  0.0493
 8738SOL     OW37672   4.032   3.200   7.169  0.0475 -0.2769  0.1353
 8738SOL    HW137673   3.975   3.160   7.235 -0.7635  1.5016  0.4920
 8738SOL    HW237674   3.970   3.244   7.112  0.5568  1.9301  1.2683
 8739SOL     OW37675   1.759   3.338   4.762  0.2341 -0.2477  0.4709
 8739SOL    HW137676   1.739   3.431   4.772  3.9580  0.6389 -0.3831
 8739SOL    HW237677   1.825   3.348   4.693 -0.2056  0.3530  0.1461
 8740SOL     OW37678   1.006   2.136  17.107 -0.0409  0.1504 -0.2223
 8740SOL    HW137679   0.971   2.202  17.167 -1.2369 -0.1053 -0.6385
 8740SOL    HW237680   1.063   2.087  17.166 -0.6623 -0.0828  0.1820
 8741SOL     OW37681   2.630   3.870  13.315  0.0300  0.3366  0.5243
 8741SOL    HW137682   2.703   3.811  13.331 -0.5449 -0.9685 -1.6908
 8741SOL    HW237683   2.646   3.904  13.227  3.1153  0.1251  1.0288
 8742SOL     OW37684   4.691   3.760   0.989 -0.3350  0.3021  0.5775
 8742SOL    HW137685   4.706   3.854   0.995  2.2777 -0.2179  2.2330
 8742SOL    HW237686   4.638   3.753   0.910  2.2489  2.7054 -1.3449
 8743SOL     OW37687   3.291   2.798   1.715 -0.2611  0.6087 -0.4959
 8743SOL    HW137688   3.216   2.844   1.751  1.1229 -0.1094  3.3061
 8743SOL    HW237689   3.272   2.805   1.621 -0.0855 -0.3862 -0.6001
 8744SOL     OW37690   0.610   3.599   3.264 -0.1737 -0.0930  0.0066
 8744SOL    HW137691   0.578   3.553   3.187 -2.9046  0.1714  0.9693
 8744SOL    HW237692   0.684   3.540   3.275  2.1958  2.4857 -2.1828
 8745SOL     OW37693   4.012   1.661   8.826  1.1016 -0.1003  0.3329
 8745SOL    HW137694   4.102   1.691   8.836  1.5445 -1.7394  1.2356
 8745SOL    HW237695   4.007   1.640   8.732  0.2208  1.1641  0.0900
 8746SOL     OW37696   0.385   3.176  13.352  0.5053  0.0665 -0.1033
 8746SOL    HW137697   0.419   3.261  13.379 -0.7192  0.2044  0.9844
 8746SOL    HW237698   0.440   3.123  13.410  0.8764 -0.4175 -0.8842
 8747SOL     OW37699   2.710   1.692   5.214 -0.0220  0.3636 -0.3734
 8747SOL    HW137700   2.752   1.776   5.233  1.2092  0.0357 -1.7280
 8747SOL    HW237701   2.648   1.697   5.288 -1.0730 -0.0761 -1.2286
 8748SOL     OW37702   3.385   0.208  13.969 -0.1604  0.2277 -0.0576
 8748SOL    HW137703   3.338   0.134  14.007  1.1198 -0.9427 -0.7715
 8748SOL    HW237704   3.437   0.161  13.904 -0.0959 -0.6390  0.6339
 8749SOL     OW37705   2.368   1.501   3.264 -0.2118 -0.1687  0.1330
 8749SOL    HW137706   2.293   1.441   3.258 -0.1389 -0.2984  0.5126
 8749SOL    HW237707   2.338   1.588   3.288  0.4123 -0.2811  1.2821
 8750SOL     OW37708   3.893   0.905  15.559  1.0925 -0.0902  0.6675
 8750SOL    HW137709   3.897   1.000  15.576  2.4215 -0.5117  2.7321
 8750SOL    HW237710   3.928   0.886  15.473  0.4666 -0.8543  0.5819
 8751SOL     OW37711   4.200   4.340  14.564 -0.0383 -0.8007  0.3680
 8751SOL    HW137712   4.131   4.397  14.597  0.2352  0.9496 -2.0933
 8751SOL    HW237713   4.266   4.409  14.565  0.3907 -1.1966 -0.1378
 8752SOL     OW37714   2.123   0.262   7.408  0.1604 -0.0519 -0.4769
 8752SOL    HW137715   2.171   0.345   7.415  0.6188 -0.2335 -1.4014
 8752SOL    HW237716   2.110   0.242   7.501  0.3069 -1.2072 -0.7047
 8753SOL     OW37717   0.642   4.624   4.612  0.2269  0.7429 -0.0158
 8753SOL    HW137718   0.584   4.638   4.687 -0.2265  1.1991 -0.4535
 8753SOL    HW237719   0.677   4.543   4.649  1.3850  0.5668 -1.4812
 8754SOL     OW37720   1.012   2.726   8.806 -0.0481  0.0750 -0.0655
 8754SOL    HW137721   1.015   2.632   8.825  3.5355  0.1996  0.0696
 8754SOL    HW237722   0.957   2.768   8.872  1.6116  0.2728  1.1767
 8755SOL     OW37723   4.649   3.619   2.585  0.7114 -0.3343 -0.5778
 8755SOL    HW137724   0.015   3.580   2.588  1.2393  0.8015 -1.3708
 8755SOL    HW237725   4.608   3.561   2.522 -2.7159 -0.1001  1.4369
 8756SOL     OW37726   0.655   4.302  14.152  0.0491  0.2963  0.0897
 8756SOL    HW137727   0.575   4.355  14.160 -0.4055 -0.3730 -0.0184
 8756SOL    HW237728   0.706   4.335  14.226  2.1611  0.3353 -1.3818
 8757SOL     OW37729   2.180   2.151   4.715 -0.0119  0.5719  0.1213
 8757SOL    HW137730   2.121   2.177   4.786  0.7024 -0.5989  1.1447
 8757SOL    HW237731   2.243   2.104   4.770 -1.0272 -1.1020 -0.1534
 8758SOL     OW37732   4.349   2.208   9.325  0.1298  0.1571 -0.2022
 8758SOL    HW137733   4.325   2.134   9.269  2.0712 -0.0376 -0.7797
 8758SOL    HW237734   4.425   2.235   9.274 -0.7026  3.0788  0.1062
 8759SOL     OW37735   0.215   4.241   1.569  0.4036  0.2610  0.3323
 8759SOL    HW137736   0.296   4.212   1.611  0.5635 -1.7126 -1.3106
 8759SOL    HW237737   0.153   4.240   1.642 -0.0123 -0.3423 -0.0318
 8760SOL     OW37738   1.026   2.798  10.800 -0.0259 -0.0504  0.9264
 8760SOL    HW137739   1.078   2.728  10.763 -1.8696  0.2328 -2.2233
 8760SOL    HW237740   0.942   2.760  10.774 -0.8144  0.6686  2.3646
 8761SOL     OW37741   1.319   3.257   5.750 -0.2255  0.3435 -0.1734
 8761SOL    HW137742   1.321   3.264   5.655  0.9211  1.4496 -0.0702
 8761SOL    HW237743   1.240   3.204   5.751  0.6220 -0.9836 -5.4110
 8762SOL     OW37744   0.936   3.777   2.558  0.1830  0.1962  0.2560
 8762SOL    HW137745   1.026   3.805   2.574  0.0428  2.3161 -2.6228
 8762SOL    HW237746   0.890   3.861   2.560 -0.7357 -0.3367  1.1460
 8763SOL     OW37747   3.846   2.990   4.156 -0.5424 -0.1642 -0.3251
 8763SOL    HW137748   3.885   2.983   4.069  1.6105 -1.3439  0.7444
 8763SOL    HW237749   3.917   2.953   4.209 -0.2714 -1.9780 -1.9341
 8764SOL     OW37750   3.124   2.514  13.560  0.0341  0.2190  0.3574
 8764SOL    HW137751   3.135   2.520  13.655  2.5564 -2.7454  0.2194
 8764SOL    HW237752   3.040   2.561  13.551  0.1056  0.1162 -0.7817
 8765SOL     OW37753   2.485   0.688  12.515 -0.3803 -0.2056 -0.4807
 8765SOL    HW137754   2.506   0.639  12.594 -1.1750 -0.2394 -0.2888
 8765SOL    HW237755   2.511   0.775  12.545 -1.5831  1.0002 -2.8588
 8766SOL     OW37756   0.338   1.071   3.402 -0.1140 -0.4545  0.3136
 8766SOL    HW137757   0.359   1.157   3.365  0.3902 -0.6072  0.2477
 8766SOL    HW237758   0.271   1.039   3.342 -2.0215  1.4774  1.4149
 8767SOL     OW37759   0.230   0.680   5.618  0.2175 -0.0097 -0.3105
 8767SOL    HW137760   0.199   0.668   5.707  0.1615 -1.3605 -0.5203
 8767SOL    HW237761   0.299   0.745   5.633  0.4633 -0.0233 -1.3897
 8768SOL     OW37762   2.767   0.654   7.406 -0.0289  0.0986 -0.5780
 8768SOL    HW137763   2.711   0.646   7.329  0.3820 -1.3277 -0.7352
 8768SOL    HW237764   2.825   0.581   7.383 -2.2345 -1.8952  0.1489
 8769SOL     OW37765   2.843   0.914   2.460 -0.0887  0.4557  0.0638
 8769SOL    HW137766   2.771   0.970   2.491  0.6676  2.4393 -1.7921
 8769SOL    HW237767   2.800   0.901   2.376  2.2200  1.7662 -1.3033
 8770SOL     OW37768   2.012   0.049   1.325  0.0457 -0.8081  0.1381
 8770SOL    HW137769   2.097   0.084   1.353 -0.4790  2.4768 -2.4083
 8770SOL    HW237770   2.044   4.718   1.253 -0.5644 -0.8360 -0.1143
 8771SOL     OW37771   1.935   3.109   1.765 -0.3972 -0.1177 -0.5496
 8771SOL    HW137772   1.979   3.180   1.720 -0.0207  0.6491  1.0108
 8771SOL    HW237773   1.942   3.030   1.712 -2.0614 -0.7457  0.1290
 8772SOL     OW37774   4.167   4.047   9.713 -0.3353 -0.3317  0.0739
 8772SOL    HW137775   4.108   4.009   9.778  1.4590 -0.3514  1.7118
 8772SOL    HW237776   4.249   4.014   9.752  0.3332 -0.6785 -1.6175
 8773SOL     OW37777   3.535   2.538  17.587  0.5266 -0.1295  0.2845
 8773SOL    HW137778   3.568   2.577  17.668  0.6019  2.5815 -1.0478
 8773SOL    HW237779   3.519   2.448  17.616  0.9008  0.3649  2.0553
 8774SOL     OW37780   3.245   2.759   1.430  0.1338 -0.2309  0.2083
 8774SOL    HW137781   3.173   2.807   1.389  0.6772  0.0016 -0.4770
 8774SOL    HW237782   3.195   2.680   1.448 -2.3823  0.5873 -3.0620
 8775SOL     OW37783   3.047   3.600   3.331 -0.0728 -1.0015 -0.2604
 8775SOL    HW137784   3.038   3.573   3.240 -1.0500  0.0114 -0.4629
 8775SOL    HW237785   3.117   3.543   3.363  1.1309 -0.0471 -1.1655
 8776SOL     OW37786   3.948   0.163   5.008 -0.0074  0.3333 -0.2135
 8776SOL    HW137787   4.033   0.187   5.044  0.5828  1.2560 -2.2397
 8776SOL    HW237788   3.885   0.207   5.064 -0.3067  1.0111 -1.0906
 8777SOL     OW37789   0.718   2.133  16.061 -0.5996 -0.2406 -0.2489
 8777SOL    HW137790   0.664   2.144  15.983 -0.0263  0.3088 -0.5702
 8777SOL    HW237791   0.774   2.058  16.043 -1.0568 -0.0716 -2.3864
 8778SOL     OW37792   1.405   3.966  14.464  0.2969 -0.3596 -0.3258
 8778SOL    HW137793   1.471   3.984  14.531  0.5021  0.8269 -0.8421
 8778SOL    HW237794   1.325   3.974  14.516 -0.0825 -2.4367 -0.5882
 8779SOL     OW37795   4.089   1.622   4.944 -0.3762  0.2203 -0.2689
 8779SOL    HW137796   4.100   1.716   4.957 -1.2823  0.3254 -0.2526
 8779SOL    HW237797   3.995   1.609   4.953 -0.2359 -0.9668 -0.4318
 8780SOL     OW37798   2.774   1.320   7.075 -0.0168 -0.1841 -0.2097
 8780SOL    HW137799   2.861   1.329   7.035  1.6239 -0.5162  3.3144
 8780SOL    HW237800   2.791   1.234   7.113 -0.1116  0.2173  0.7360
 8781SOL     OW37801   0.827   4.381   0.474 -0.4791 -0.6401 -0.0623
 8781SOL    HW137802   0.820   4.476   0.487 -1.7332 -0.8861  1.1039
 8781SOL    HW237803   0.858   4.343   0.556  0.8197  0.4964 -0.0378
 8782SOL     OW37804   0.264   1.104  12.247 -0.1399  0.0368  0.4831
 8782SOL    HW137805   0.188   1.125  12.192 -0.9749 -0.3556  1.4746
 8782SOL    HW237806   0.245   1.173  12.311  0.5322  2.2368 -1.6964
 8783SOL     OW37807   2.147   0.718   7.511 -0.2755 -0.4421 -0.2409
 8783SOL    HW137808   2.207   0.782   7.549 -0.2587  0.7327 -2.2299
 8783SOL    HW237809   2.203   0.640   7.500  0.5581 -0.3944  3.6814
 8784SOL     OW37810   2.463   2.330   9.128  0.0069 -0.1532  0.2504
 8784SOL    HW137811   2.433   2.281   9.205 -3.2359  2.2827  0.5904
 8784SOL    HW237812   2.488   2.262   9.066  0.6000  1.5844 -1.3965
 8785SOL     OW37813   2.576   0.067   4.269  1.1086  0.5424  0.1285
 8785SOL    HW137814   2.614   4.708   4.306  2.1474  1.2444  0.5988
 8785SOL    HW237815   2.635   0.093   4.197 -0.4750  1.7955 -0.7107
 8786SOL     OW37816   0.718   1.278   6.140 -0.2430  0.6589  0.5479
 8786SOL    HW137817   0.686   1.358   6.182  0.6821  1.9647 -1.2344
 8786SOL    HW237818   0.810   1.304   6.150 -0.4912  1.0977  1.7810
 8787SOL     OW37819   2.838   2.044   2.722  0.1031 -0.0251  0.2449
 8787SOL    HW137820   2.929   2.015   2.723 -0.4253 -1.7104 -1.0885
 8787SOL    HW237821   2.853   2.138   2.728  0.4821 -0.1579  1.3803
 8788SOL     OW37822   1.788   1.028   4.647  0.3566 -0.1517  0.1082
 8788SOL    HW137823   1.820   0.994   4.564  0.6780 -1.7606  0.9084
 8788SOL    HW237824   1.815   0.957   4.704  2.3532  0.1388 -0.4783
 8789SOL     OW37825   3.122   0.760   3.937 -0.4946 -0.2790  0.3404
 8789SOL    HW137826   3.200   0.709   3.958  1.0692  0.9977 -2.3863
 8789SOL    HW237827   3.052   0.727   3.994 -0.7494  0.4940  0.4818
 8790SOL     OW37828   3.546   1.965   2.224 -0.1318 -0.2535 -0.1099
 8790SOL    HW137829   3.594   1.995   2.147 -0.3493  0.1364 -0.0937
 8790SOL    HW237830   3.524   2.042   2.277 -0.4164 -1.4228  1.4887
 8791SOL     OW37831   2.605   0.349   0.097  0.4734  0.3502  0.2544
 8791SOL    HW137832   2.550   0.314   0.166  1.2344 -2.6681 -0.6314
 8791SOL    HW237833   2.688   0.303   0.114 -0.4564 -0.7949  1.5968
 8792SOL     OW37834   0.747   3.620   3.538 -0.0793  0.0111  0.4004
 8792SOL    HW137835   0.776   3.563   3.467  0.6410  1.9797 -0.8974
 8792SOL    HW237836   0.835   3.643   3.567  1.5471 -1.6886 -3.2406
 8793SOL     OW37837   1.123   4.493   6.480 -0.0491  0.1352  0.0708
 8793SOL    HW137838   1.127   4.419   6.419  1.1497 -0.6594  1.1061
 8793SOL    HW237839   1.037   4.529   6.461  0.2405  0.2066 -1.0786
 8794SOL     OW37840   1.482   1.364  11.960 -0.5145 -0.4527  0.0332
 8794SOL    HW137841   1.417   1.344  12.026  0.0780  0.5578  0.9281
 8794SOL    HW237842   1.472   1.293  11.896  1.2149 -0.9726  0.3317
 8795SOL     OW37843   3.269   0.094   6.939  0.6789  0.1974  0.0057
 8795SOL    HW137844   3.287   4.721   6.941 -1.5590 -0.2153  0.5286
 8795SOL    HW237845   3.225   0.104   7.024  0.8531  0.9831 -0.0066
 8796SOL     OW37846   1.784   3.168   3.680  0.4862 -0.0591  0.3309
 8796SOL    HW137847   1.795   3.245   3.624 -3.1129 -1.7075 -2.6688
 8796SOL    HW237848   1.788   3.210   3.766 -1.0999 -1.7342  1.2231
 8797SOL     OW37849   3.357   3.475  15.507 -0.2636 -0.0586  0.3413
 8797SOL    HW137850   3.392   3.449  15.592  0.1524  1.1590  0.5465
 8797SOL    HW237851   3.263   3.455  15.516 -0.0055 -0.8969  1.1758
 8798SOL     OW37852   0.977   1.632   1.080 -0.3255  0.5658 -0.4443
 8798SOL    HW137853   0.999   1.725   1.073  4.6971 -0.3690  2.6052
 8798SOL    HW237854   0.884   1.635   1.104  0.1777  0.7915  1.5050
 8799SOL     OW37855   3.506   1.279   3.770 -0.3786  0.1297  0.1103
 8799SOL    HW137856   3.552   1.347   3.720  1.3215 -1.4926 -0.5001
 8799SOL    HW237857   3.471   1.238   3.691 -0.5821 -0.7336  0.6544
 8800SOL     OW37858   1.569   1.337   3.114 -0.4261 -0.1482 -0.1657
 8800SOL    HW137859   1.589   1.430   3.126  0.2360 -0.7600  3.6214
 8800SOL    HW237860   1.571   1.339   3.018  1.8426  2.9650 -0.0641
 8801SOL     OW37861   3.235   2.253   2.421 -0.6823 -0.5211  0.1430
 8801SOL    HW137862   3.305   2.190   2.437  2.5204  2.4177 -2.2064
 8801SOL    HW237863   3.164   2.200   2.385  1.4901 -1.7808 -2.2494
 8802SOL     OW37864   2.122   1.641   4.289  0.6215  0.6800 -0.2348
 8802SOL    HW137865   2.171   1.630   4.208  3.7068 -0.6080  1.7856
 8802SOL    HW237866   2.048   1.581   4.281  1.3093 -0.1880 -0.1316
 8803SOL     OW37867   2.273   1.679  10.447  0.1521  0.8897  0.9139
 8803SOL    HW137868   2.305   1.764  10.477  1.8174  1.3289 -2.1167
 8803SOL    HW237869   2.213   1.708  10.378  2.3264  0.8014 -1.0315
 8804SOL     OW37870   0.068   2.367  14.197 -0.1458  0.7807  0.1546
 8804SOL    HW137871   0.059   2.460  14.179 -1.6023  0.5503 -0.3184
 8804SOL    HW237872   4.710   2.338  14.152  0.4561 -0.8809  0.1596
 8805SOL     OW37873   1.651   1.269  10.108 -0.6563 -0.3637  0.4103
 8805SOL    HW137874   1.577   1.292  10.163 -1.6900  0.4298 -1.2955
 8805SOL    HW237875   1.651   1.341  10.044  1.1326 -0.2220  0.5599
 8806SOL     OW37876   3.272   0.246   1.554 -0.5709 -0.1199  0.1896
 8806SOL    HW137877   3.288   0.241   1.460 -1.3189 -0.8061  0.0971
 8806SOL    HW237878   3.359   0.268   1.589  0.8955 -0.9760 -2.9375
 8807SOL     OW37879   2.416   0.884  10.888 -0.3540 -0.0134 -0.5649
 8807SOL    HW137880   2.450   0.827  10.957 -0.1060 -3.1542 -3.2897
 8807SOL    HW237881   2.427   0.824  10.814  0.2581 -2.2084  1.3127
 8808SOL     OW37882   1.298   1.689   4.152 -0.0143 -0.7707 -0.3040
 8808SOL    HW137883   1.388   1.721   4.152 -0.5950  0.8586  1.0087
 8808SOL    HW237884   1.308   1.615   4.092 -0.4630 -1.0227 -0.0739
 8809SOL     OW37885   0.329   0.773   4.572 -0.1205  0.0079  0.2156
 8809SOL    HW137886   0.289   0.853   4.607 -0.5202  1.3243 -3.2939
 8809SOL    HW237887   0.269   0.702   4.595  0.4999  0.5115  3.4203
 8810SOL     OW37888   3.867   4.508  15.515 -0.5622 -0.0702  0.1222
 8810SOL    HW137889   3.841   4.442  15.452  1.3814 -0.3200 -0.4105
 8810SOL    HW237890   3.934   4.462  15.565  0.2116  0.5367 -0.3644
 8811SOL     OW37891   3.638   1.469   3.618  0.1396  0.2061 -0.1514
 8811SOL    HW137892   3.720   1.518   3.612  0.0993  0.5227  2.1349
 8811SOL    HW237893   3.594   1.491   3.535  2.4076  0.6348 -1.2440
 8812SOL     OW37894   2.426   4.397  17.166  0.1132 -0.0897  0.3263
 8812SOL    HW137895   2.436   4.359  17.253  1.1263 -0.3451  0.0965
 8812SOL    HW237896   2.371   4.333  17.121  0.5137 -1.4943  1.8521
 8813SOL     OW37897   2.784   2.044   5.021  0.4004  0.5128  0.5422
 8813SOL    HW137898   2.775   2.101   4.945 -0.8056 -0.2629  0.1002
 8813SOL    HW237899   2.862   1.990   5.008 -0.7980 -1.3243  0.8730
 8814SOL     OW37900   1.428   3.159  17.340  0.3133 -0.4011  0.1435
 8814SOL    HW137901   1.448   3.070  17.311  0.6102 -0.7992  1.5495
 8814SOL    HW237902   1.427   3.198  17.253  4.0081  1.3751  0.9072
 8815SOL     OW37903   3.602   4.446   8.718  0.1131 -0.5180  0.5614
 8815SOL    HW137904   3.555   4.462   8.800 -0.5552  0.6083 -0.0388
 8815SOL    HW237905   3.657   4.525   8.714  1.3086 -1.3720  0.3909
 8816SOL     OW37906   0.250   3.254   4.564  0.1977 -0.4104  0.2043
 8816SOL    HW137907   0.207   3.175   4.530  0.9972 -0.9986  0.5765
 8816SOL    HW237908   0.256   3.314   4.490 -0.0988 -1.8089 -0.9592
 8817SOL     OW37909   4.074   1.744  13.499  0.0307  0.5825  0.4103
 8817SOL    HW137910   4.148   1.768  13.554  0.0281  1.1984  0.1488
 8817SOL    HW237911   4.075   1.648  13.502  1.7278  0.5422 -0.8445
 8818SOL     OW37912   2.545   2.071   1.414  1.0504 -0.1771  1.0258
 8818SOL    HW137913   2.619   2.106   1.464  0.4694 -0.3829  2.0407
 8818SOL    HW237914   2.502   2.150   1.382  0.5276 -0.6650  0.5206
 8819SOL     OW37915   1.245   0.817  14.762  0.0700 -0.3116 -0.1492
 8819SOL    HW137916   1.325   0.815  14.816  0.3678  1.1905 -0.5344
 8819SOL    HW237917   1.181   0.873  14.806  0.2275 -0.4566  0.2651
 8820SOL     OW37918   1.302   2.351   7.373  0.2475 -0.5054 -0.1746
 8820SOL    HW137919   1.394   2.365   7.396  0.5665  0.5815 -2.1212
 8820SOL    HW237920   1.294   2.263   7.411  3.0925 -0.2716  0.9452
 8821SOL     OW37921   1.656   4.528   0.697 -0.3275 -0.1324  0.3280
 8821SOL    HW137922   1.578   4.583   0.695 -0.6484 -0.6277 -0.5945
 8821SOL    HW237923   1.630   4.452   0.749 -1.5377 -1.5131 -2.3074
 8822SOL     OW37924   0.617   3.477   4.001  0.2904 -0.3654  0.1187
 8822SOL    HW137925   0.699   3.527   3.994 -0.0755  0.2343  0.1498
 8822SOL    HW237926   0.552   3.536   4.038  0.8083  1.1166 -1.3583
 8823SOL     OW37927   0.152   4.385   6.325 -0.2150 -0.5228 -0.2565
 8823SOL    HW137928   0.197   4.462   6.360 -0.5237 -1.7364  2.7999
 8823SOL    HW237929   0.069   4.398   6.371 -1.3886 -2.3796 -1.8598
 8824SOL     OW37930   3.447   3.923   0.680 -0.2781  0.6056  0.5886
 8824SOL    HW137931   3.359   3.927   0.645 -0.3033  3.3964  1.0040
 8824SOL    HW237932   3.497   3.932   0.599  1.6053  3.9150  2.0842
 8825SOL     OW37933   4.088   1.886   3.380  0.1442 -0.0521  0.0455
 8825SOL    HW137934   4.117   1.829   3.308 -0.1541  1.1948 -1.0640
 8825SOL    HW237935   4.162   1.943   3.401  1.7478 -1.7851 -0.9268
 8826SOL     OW37936   2.531   0.901   6.463  0.7580 -0.2432  0.0500
 8826SOL    HW137937   2.561   0.945   6.542  0.0095  0.8810 -0.3022
 8826SOL    HW237938   2.498   0.979   6.419  0.9870 -0.7681 -1.0501
 8827SOL     OW37939   3.214   1.235   6.181 -0.5099 -0.3632  0.7516
 8827SOL    HW137940   3.131   1.267   6.146  0.6395  0.5357 -1.1628
 8827SOL    HW237941   3.266   1.313   6.161 -1.8006  0.7846  1.8487
 8828SOL     OW37942   1.919   3.667  10.837 -0.2413  0.1108 -0.3584
 8828SOL    HW137943   1.829   3.643  10.815  0.0438 -0.4544 -0.9048
 8828SOL    HW237944   1.905   3.755  10.874 -1.5135 -0.4088  0.3847
 8829SOL     OW37945   4.092   3.805  17.564 -0.1418  0.2941  0.0446
 8829SOL    HW137946   4.151   3.730  17.573  0.4332  0.9115  1.2642
 8829SOL    HW237947   4.142   3.859  17.503 -3.1348 -1.1767 -3.7708
 8830SOL     OW37948   0.738   2.958   8.550 -0.0966 -0.3095 -0.3012
 8830SOL    HW137949   0.694   2.893   8.604  1.4333 -2.0417 -1.1579
 8830SOL    HW237950   0.805   2.903   8.510  1.0664  0.5040  0.5230
 8831SOL     OW37951   3.725   4.490   5.591  1.1375 -0.0508 -0.2944
 8831SOL    HW137952   3.785   4.464   5.522  0.1480  0.2753 -1.2742
 8831SOL    HW237953   3.702   4.577   5.559 -0.3784  0.4786  2.2006
 8832SOL     OW37954   1.619   0.807   6.083  0.7726  0.4060 -0.0501
 8832SOL    HW137955   1.599   0.852   6.164 -0.5281 -0.7878  0.2946
 8832SOL    HW237956   1.544   0.828   6.027  0.0032 -0.1624  0.7614
 8833SOL     OW37957   4.212   2.390   4.822 -0.2105 -0.0094  0.2761
 8833SOL    HW137958   4.192   2.421   4.734 -2.6988 -0.5426  0.6354
 8833SOL    HW237959   4.160   2.453   4.873  0.7181  0.5328  0.5500
 8834SOL     OW37960   3.391   2.157  14.705  0.0630  0.0045  0.4514
 8834SOL    HW137961   3.479   2.129  14.729 -0.4700 -0.3777  1.9700
 8834SOL    HW237962   3.345   2.074  14.691 -0.9237  1.0891 -2.8306
 8835SOL     OW37963   3.820   1.203   4.445  0.6694  0.5197 -0.5396
 8835SOL    HW137964   3.762   1.273   4.415  0.1074  0.0069 -0.6578
 8835SOL    HW237965   3.838   1.225   4.537  0.2139 -1.1231 -0.0515
 8836SOL     OW37966   1.763   0.442   5.809 -0.5792  0.9789  0.0245
 8836SOL    HW137967   1.763   0.465   5.902 -0.1405  0.1143  0.2388
 8836SOL    HW237968   1.668   0.428   5.805 -0.5274  0.4085  0.6604
 8837SOL     OW37969   0.194   2.215   7.654  0.3784 -0.1540 -0.5092
 8837SOL    HW137970   0.135   2.173   7.717  0.3393 -0.5119 -0.7809
 8837SOL    HW237971   0.184   2.169   7.570  1.0711  0.7092 -1.0576
 8838SOL     OW37972   0.022   2.473  13.377  0.4530  0.1421 -0.5593
 8838SOL    HW137973   4.678   2.509  13.316 -0.6166 -1.0538 -0.1275
 8838SOL    HW237974   4.682   2.453  13.448  1.1482 -0.1932 -0.0530
 8839SOL     OW37975   3.290   0.673   0.319  0.0303 -0.2549 -0.5078
 8839SOL    HW137976   3.305   0.579   0.303  0.1796 -0.4835  1.0071
 8839SOL    HW237977   3.312   0.680   0.412 -0.9813 -0.1629 -0.2796
 8840SOL     OW37978   1.509   4.581   9.535  0.0049  0.6046  0.3400
 8840SOL    HW137979   1.524   4.496   9.493 -1.3780  0.4892  0.0865
 8840SOL    HW237980   1.553   4.632   9.467 -3.2234 -1.0309 -2.9452
 8841SOL     OW37981   4.226   2.074  12.367  0.4905 -0.0500  0.2809
 8841SOL    HW137982   4.184   2.073  12.453 -1.3264 -0.1149 -0.6060
 8841SOL    HW237983   4.225   1.980  12.353  0.2375  0.0544 -0.3924
 8842SOL     OW37984   2.245   2.642  15.292 -0.2370 -0.5028  0.2539
 8842SOL    HW137985   2.207   2.682  15.370 -1.9670  0.2111 -0.9350
 8842SOL    HW237986   2.258   2.721  15.240  2.7380 -0.2113  1.4632
 8843SOL     OW37987   1.691   3.112   6.104 -1.0221 -0.1343  0.1590
 8843SOL    HW137988   1.731   3.187   6.149 -0.6917  0.3033 -0.8636
 8843SOL    HW237989   1.620   3.148   6.051 -2.0801 -1.1548  0.8736
 8844SOL     OW37990   2.153   0.624  17.516 -0.2918 -1.1092 -0.0201
 8844SOL    HW137991   2.202   0.696  17.557 -1.1334 -0.0995 -0.7847
 8844SOL    HW237992   2.172   0.632  17.423  1.9016  0.4629  0.5471
 8845SOL     OW37993   4.055   0.507  17.297  0.2253 -0.0259  0.2280
 8845SOL    HW137994   4.133   0.560  17.314 -1.3002  2.2033  0.2913
 8845SOL    HW237995   4.023   0.554  17.220  0.2991 -1.2053 -0.5163
 8846SOL     OW37996   0.867   3.336   6.631 -0.4505 -0.0638 -0.4286
 8846SOL    HW137997   0.916   3.297   6.703 -0.0918 -1.1334 -1.2631
 8846SOL    HW237998   0.778   3.306   6.649 -0.4313 -0.2032 -0.5649
 8847SOL     OW37999   0.228   4.382   5.060 -0.2197  0.3693 -0.1640
 8847SOL    HW138000   0.317   4.380   5.096 -0.1888 -0.8042 -0.2951
 8847SOL    HW238001   0.185   4.329   5.128 -3.9430 -0.2317 -2.9685
 8848SOL     OW38002   3.871   1.912  17.469  0.2482 -0.5794  0.4179
 8848SOL    HW138003   3.932   1.838  17.472 -1.9885 -2.4281  0.3992
 8848SOL    HW238004   3.936   1.982  17.468  1.5062 -1.7839 -1.4030
 8849SOL     OW38005   2.382   0.626  11.613 -0.1711 -0.1310 -0.5544
 8849SOL    HW138006   2.375   0.710  11.568  2.9936  0.2956 -0.2612
 8849SOL    HW238007   2.472   0.596  11.599 -0.2347 -1.1365  1.1281
 8850SOL     OW38008   2.779   3.454  16.189 -0.2557  0.2667  0.1195
 8850SOL    HW138009   2.815   3.365  16.198 -0.2920  0.1430 -0.9386
 8850SOL    HW238010   2.716   3.453  16.261 -0.7696  1.3536 -0.3333
 8851SOL     OW38011   3.215   0.076   5.640 -0.2067  0.1883 -0.5551
 8851SOL    HW138012   3.138   0.059   5.695 -2.3030  1.7332 -3.0238
 8851SOL    HW238013   3.181   0.053   5.553  2.1140 -0.5261 -1.2739
 8852SOL     OW38014   0.184   2.062   2.023  0.1555  0.4308  0.6536
 8852SOL    HW138015   0.248   2.019   1.967 -1.8959 -0.2149 -1.2117
 8852SOL    HW238016   0.244   2.132   2.047  2.1500 -1.1635  0.2913
 8853SOL     OW38017   0.818   3.213  10.685  0.3770  0.1964 -0.0015
 8853SOL    HW138018   0.814   3.294  10.634 -3.1938  0.2899  0.4772
 8853SOL    HW238019   0.801   3.248  10.772  0.4523  2.3888 -0.8496
 8854SOL     OW38020   2.630   4.329  15.953  0.1016  0.0296 -0.0150
 8854SOL    HW138021   2.548   4.347  15.908 -0.6806 -2.8991  0.2374
 8854SOL    HW238022   2.695   4.388  15.915 -0.1470  1.2403  1.4170
 8855SOL     OW38023   0.759   0.081  10.680  0.0004  0.2212  0.0067
 8855SOL    HW138024   0.791   0.073  10.590  3.3588  0.3726  1.1975
 8855SOL    HW238025   0.836   0.121  10.721 -0.3337  1.2042 -0.3180
 8856SOL     OW38026   3.562   3.944  14.716  0.5256 -0.2607 -0.1597
 8856SOL    HW138027   3.528   4.016  14.769 -0.8886 -0.5393 -0.6832
 8856SOL    HW238028   3.644   3.921  14.759 -0.3209 -0.8973  1.1016
 8857SOL     OW38029   2.387   0.846  11.439  0.3169  0.5849 -0.1979
 8857SOL    HW138030   2.326   0.909  11.400 -0.9310 -2.5742 -3.3373
 8857SOL    HW238031   2.461   0.903  11.461  0.1408  1.0559 -0.7993
 8858SOL     OW38032   1.336   2.453   6.279 -0.0046  0.1930  0.4240
 8858SOL    HW138033   1.372   2.365   6.267 -0.9342 -0.4179  2.1250
 8858SOL    HW238034   1.346   2.483   6.188 -2.3141  1.2300  0.5013
 8859SOL     OW38035   3.250   3.756  11.489  0.5647  0.8755  0.0537
 8859SOL    HW138036   3.307   3.776  11.563 -0.4371 -0.5292  1.2002
 8859SOL    HW238037   3.164   3.784  11.521  0.3159 -0.1469  0.2883
 8860SOL     OW38038   1.520   2.860  12.174 -0.3915 -0.0472 -0.2460
 8860SOL    HW138039   1.468   2.912  12.113 -0.6146 -1.2675 -1.1031
 8860SOL    HW238040   1.565   2.798  12.116 -0.9735 -0.7232  0.0194
 8861SOL     OW38041   3.188   2.624   6.324 -0.0495  0.1196  0.1682
 8861SOL    HW138042   3.159   2.711   6.353 -0.5935  0.1605 -0.5001
 8861SOL    HW238043   3.270   2.648   6.283 -0.0516 -1.1750 -0.5768
 8862SOL     OW38044   1.712   3.185   7.831  0.7030 -0.2474  0.2218
 8862SOL    HW138045   1.751   3.171   7.744 -2.5780 -1.6202 -1.0427
 8862SOL    HW238046   1.728   3.278   7.844 -0.2439 -0.5351  3.4671
 8863SOL     OW38047   2.222   3.197   5.140  0.0682  0.4652 -0.3070
 8863SOL    HW138048   2.172   3.185   5.060 -0.6654  3.0882 -0.2338
 8863SOL    HW238049   2.155   3.153   5.192 -0.1471 -0.5079 -1.4345
 8864SOL     OW38050   3.844   3.652   6.151 -0.2464 -0.0451  0.1757
 8864SOL    HW138051   3.900   3.697   6.088  2.3876  0.5315  2.9183
 8864SOL    HW238052   3.908   3.595   6.194  0.7412 -0.9102 -2.4363
 8865SOL     OW38053   4.285   3.557   7.263 -0.2385  0.6418 -0.6149
 8865SOL    HW138054   4.367   3.599   7.288 -0.1837  0.0306  0.2361
 8865SOL    HW238055   4.313   3.539   7.173 -1.3680 -1.5527 -0.5270
 8866SOL     OW38056   3.162   2.487   6.721 -0.0699 -0.4402 -0.1539
 8866SOL    HW138057   3.254   2.489   6.747  0.0665 -0.6200 -0.6201
 8866SOL    HW238058   3.148   2.575   6.684  1.1972  0.2777  1.1005
 8867SOL     OW38059   0.225   2.168   3.095 -0.1919 -0.2652 -0.0367
 8867SOL    HW138060   0.221   2.139   3.186  0.1404  2.2429  0.7628
 8867SOL    HW238061   0.246   2.261   3.101 -1.7278  0.0073  1.0232
 8868SOL     OW38062   4.040   4.291  15.591  0.2925 -0.2931 -0.1159
 8868SOL    HW138063   4.109   4.307  15.526 -2.3521  1.8660 -2.3984
 8868SOL    HW238064   4.003   4.208  15.561 -0.1484  0.1716 -0.8558
 8869SOL     OW38065   3.812   4.564  17.129 -0.2006  0.2780 -0.4797
 8869SOL    HW138066   3.800   4.659  17.120 -0.6977  0.3925  1.3830
 8869SOL    HW238067   3.814   4.529  17.040  0.4843 -1.5903  0.2800
 8870SOL     OW38068   1.558   1.744   4.164 -0.6581 -0.3207 -0.1631
 8870SOL    HW138069   1.590   1.804   4.097 -2.0194 -0.2265 -0.7456
 8870SOL    HW238070   1.573   1.803   4.238  1.3536  0.3442 -1.1187
 8871SOL     OW38071   3.452   0.286   2.487 -0.1990 -0.4370 -0.4971
 8871SOL    HW138072   3.474   0.350   2.419 -0.2105  2.4463  2.1745
 8871SOL    HW238073   3.363   0.265   2.458  0.1593 -2.4676 -0.0629
 8872SOL     OW38074   0.786   1.664   8.955  0.5018 -0.5480  0.1656
 8872SOL    HW138075   0.840   1.740   8.936 -0.3914 -0.2802 -1.3143
 8872SOL    HW238076   0.812   1.641   9.044 -0.4219 -0.6237  0.4185
 8873SOL     OW38077   1.383   0.035   7.471 -0.6832 -0.2880  0.3039
 8873SOL    HW138078   1.358   0.059   7.382  1.3091 -2.3307 -0.7941
 8873SOL    HW238079   1.476   0.053   7.462 -0.7737 -0.2710 -0.6254
 8874SOL     OW38080   0.961   0.009   7.196  0.6233 -0.0006  0.2080
 8874SOL    HW138081   0.910   0.008   7.277 -0.2514 -0.8589 -0.3649
 8874SOL    HW238082   1.024   0.081   7.202 -1.2702  1.5663  1.2936
 8875SOL     OW38083   0.993   4.589   3.217 -0.2032  0.7856 -0.1568
 8875SOL    HW138084   0.972   4.552   3.303 -1.1639  0.2739 -0.6197
 8875SOL    HW238085   0.905   4.591   3.180  0.3237  1.1578 -1.3759
 8876SOL     OW38086   1.952   2.411  14.228 -0.0928 -0.2873  0.6977
 8876SOL    HW138087   1.880   2.470  14.205 -0.5246 -0.8010  0.7438
 8876SOL    HW238088   2.022   2.477  14.230 -0.7384  0.4939 -1.7490
 8877SOL     OW38089   4.421   4.397   6.961  0.2467  0.1525 -0.2544
 8877SOL    HW138090   4.467   4.480   6.967  1.8058 -0.6294 -1.3972
 8877SOL    HW238091   4.454   4.375   6.874  1.8135  0.5740  0.2309
 8878SOL     OW38092   4.706   4.634   7.647 -0.4898  0.0146 -0.0372
 8878SOL    HW138093   4.632   4.682   7.610  0.3168  1.4033  0.1398
 8878SOL    HW238094   4.673   4.544   7.654 -1.5014  0.4483  0.7630
 8879SOL     OW38095   0.066   2.756   4.289 -0.3451  0.1232 -0.3443
 8879SOL    HW138096   0.159   2.760   4.268 -0.2662 -0.2666 -0.0674
 8879SOL    HW238097   0.027   2.817   4.227  0.2200  0.5102 -0.3100
 8880SOL     OW38098   3.027   0.443   2.566 -0.2787  0.1443  0.2463
 8880SOL    HW138099   2.981   0.526   2.579  0.7982  0.5262  1.5823
 8880SOL    HW238100   2.955   0.397   2.523  0.0532  1.8136 -2.0772
 8881SOL     OW38101   0.186   2.170   4.843  0.1985 -0.1365  0.0514
 8881SOL    HW138102   0.125   2.239   4.815  0.0905 -0.7258 -1.1593
 8881SOL    HW238103   0.145   2.093   4.805 -1.1411  0.9403 -0.7135
 8882SOL     OW38104   2.348   0.337  17.501 -0.4021  0.0737  0.2500
 8882SOL    HW138105   2.309   0.411  17.453  2.3934  1.2450 -0.2232
 8882SOL    HW238106   2.413   0.315  17.434 -1.4574  2.0289 -1.4627
 8883SOL     OW38107   1.096   3.982  13.494  0.0241 -0.0036 -0.2001
 8883SOL    HW138108   1.038   3.910  13.519 -1.6688  1.9374  1.5086
 8883SOL    HW238109   1.053   4.066  13.510  0.8370  0.9165 -2.7289
 8884SOL     OW38110   3.720   0.646   9.108  0.0568 -0.0828  0.2341
 8884SOL    HW138111   3.815   0.636   9.116  0.0277 -2.2336 -2.5697
 8884SOL    HW238112   3.686   0.601   9.186 -1.0905 -0.8605 -0.7293
 8885SOL     OW38113   4.038   0.869  17.131 -0.0873  0.1030  0.1011
 8885SOL    HW138114   4.117   0.837  17.177  0.6604  0.2974 -1.0507
 8885SOL    HW238115   3.990   0.788  17.113 -1.0444  0.6283  0.3121
 8886SOL     OW38116   0.068   3.984   5.418 -0.5045 -0.4968  0.2682
 8886SOL    HW138117   0.007   4.052   5.391  2.9052  2.1705 -0.7480
 8886SOL    HW238118   0.098   3.944   5.336 -0.3867 -0.4557  0.2908
 8887SOL     OW38119   0.791   0.018   3.488 -0.1226  0.6905 -0.1598
 8887SOL    HW138120   0.706   0.054   3.515  0.1881  2.0925 -1.0273
 8887SOL    HW238121   0.774   4.645   3.491 -0.9674  0.8265 -0.4385
 8888SOL     OW38122   2.102   0.404   0.633 -0.0952 -0.2713 -0.1407
 8888SOL    HW138123   2.091   0.311   0.651  2.0534 -0.3624  0.6600
 8888SOL    HW238124   2.108   0.447   0.718 -0.3488 -1.0339  0.2551
 8889SOL     OW38125   4.445   2.556  14.848 -0.1028 -0.0185 -0.0445
 8889SOL    HW138126   4.496   2.628  14.810  0.2241  0.1733  0.7705
 8889SOL    HW238127   4.368   2.576  14.794 -1.3868 -1.7776  1.1570
 8890SOL     OW38128   1.704   3.299  12.855  0.2879 -0.2776  1.2837
 8890SOL    HW138129   1.764   3.349  12.909 -0.7088  1.0286  1.1736
 8890SOL    HW238130   1.762   3.246  12.800 -2.5290 -1.6795 -0.3375
 8891SOL     OW38131   2.058   2.532  16.626 -0.1168 -0.2786  0.0692
 8891SOL    HW138132   2.022   2.571  16.706 -1.6757 -1.3887 -0.0833
 8891SOL    HW238133   1.981   2.554  16.574  0.1609 -0.8140 -0.5655
 8892SOL     OW38134   3.973   2.056  10.240 -0.4541 -0.1624 -0.1280
 8892SOL    HW138135   3.926   2.088  10.163  3.3658  1.8931 -1.6036
 8892SOL    HW238136   3.916   2.093  10.308 -0.6667 -0.3636 -0.1989
 8893SOL     OW38137   3.276   0.158   0.106  0.4537 -0.0559  0.9843
 8893SOL    HW138138   3.230   0.192   0.183  0.5788  0.0317  1.0207
 8893SOL    HW238139   3.220   0.095   0.061  0.2788  2.9920 -3.0788
 8894SOL     OW38140   2.131   1.844   6.881  0.2741 -0.2399  0.0045
 8894SOL    HW138141   2.214   1.806   6.912  1.6240  2.2587 -0.5153
 8894SOL    HW238142   2.082   1.777   6.928 -0.6418  0.3491 -0.1247
 8895SOL     OW38143   1.331   2.198   5.206  0.5156 -0.2700  0.5770
 8895SOL    HW138144   1.335   2.218   5.112 -1.5588  1.3525  0.8409
 8895SOL    HW238145   1.258   2.136   5.213 -1.0855  1.4907 -0.6562
 8896SOL     OW38146   3.078   3.237   4.622  0.1729  0.0085  0.3182
 8896SOL    HW138147   3.009   3.175   4.643  1.9109 -1.9703  0.2068
 8896SOL    HW238148   3.047   3.261   4.534  1.9668  1.5989  0.1084
 8897SOL     OW38149   3.004   0.266  17.645  0.5135 -0.7877  0.2120
 8897SOL    HW138150   3.030   0.350  17.684  0.2660  0.4172 -2.2036
 8897SOL    HW238151   2.927   0.240   0.008  1.7906 -1.3759  1.8583
 8898SOL     OW38152   2.276   0.483   8.951  0.0314 -0.1100  0.0728
 8898SOL    HW138153   2.344   0.524   8.896  2.8360 -1.7525  2.3232
 8898SOL    HW238154   2.214   0.553   8.971 -1.7023 -1.6710  0.1279
 8899SOL     OW38155   2.959   2.086   4.604 -0.5490 -0.2758 -0.0088
 8899SOL    HW138156   2.872   2.063   4.635 -1.2385 -0.3779 -2.0334
 8899SOL    HW238157   3.021   2.024   4.643 -0.5803 -0.5402 -0.3845
 8900SOL     OW38158   1.969   1.508   1.836 -0.4403  0.1806  0.4613
 8900SOL    HW138159   2.056   1.506   1.797 -0.2935 -0.1899  0.8130
 8900SOL    HW238160   1.979   1.549   1.921 -0.5144  0.7917  0.1790
 8901SOL     OW38161   2.707   1.131   7.808 -0.5670 -0.2163 -0.6729
 8901SOL    HW138162   2.782   1.150   7.751 -1.0150  1.2849 -0.7661
 8901SOL    HW238163   2.726   1.041   7.833 -1.9380  0.2361  1.9688
 8902SOL     OW38164   4.391   0.635  14.186 -0.3790  0.3234  0.0425
 8902SOL    HW138165   4.376   0.636  14.091  0.5128 -0.9669 -0.1250
 8902SOL    HW238166   4.483   0.661  14.193  0.3590 -2.0465 -0.7022
 8903SOL     OW38167   3.525   4.286   0.496  0.0894  0.5368 -0.3206
 8903SOL    HW138168   3.476   4.363   0.525  1.0975 -0.0003  2.7832
 8903SOL    HW238169   3.448   4.237   0.465 -1.3469  1.0330  2.4760
 8904SOL     OW38170   3.220   3.807  11.801 -0.0897 -0.6532 -0.3001
 8904SOL    HW138171   3.285   3.845  11.741 -1.5311  1.1411 -0.7116
 8904SOL    HW238172   3.263   3.732  11.841 -1.4748 -0.8817  0.7555
 8905SOL     OW38173   0.007   2.735   6.682 -0.5972  0.2345  0.2128
 8905SOL    HW138174   4.636   2.709   6.677  0.4161 -3.4309  0.7818
 8905SOL    HW238175   0.013   2.774   6.595  0.4359  1.4393  0.8331
 8906SOL     OW38176   2.835   4.104   1.614  0.9995  0.0651 -0.0506
 8906SOL    HW138177   2.826   4.199   1.614 -1.2678 -0.1495 -2.4847
 8906SOL    HW238178   2.909   4.087   1.556 -0.4132 -3.9221 -0.7191
 8907SOL     OW38179   2.411   3.577  13.344 -0.3320 -0.0159 -0.3220
 8907SOL    HW138180   2.363   3.598  13.264  0.1281  0.9960 -0.3389
 8907SOL    HW238181   2.474   3.512  13.314 -0.5268  1.1933 -3.3339
 8908SOL     OW38182   4.538   3.217   8.281  0.2102 -0.1428  0.3104
 8908SOL    HW138183   4.604   3.286   8.273  1.4285 -1.2693  0.6238
 8908SOL    HW238184   4.477   3.259   8.342 -2.4410  1.3135 -3.3588
 8909SOL     OW38185   3.384   2.746   6.876  0.2029  0.2251  0.2030
 8909SOL    HW138186   3.301   2.791   6.857  0.4330  0.4370 -0.2848
 8909SOL    HW238187   3.388   2.685   6.803 -0.5194 -1.8306  1.8765
 8910SOL     OW38188   2.909   4.133   6.673 -0.3752 -0.1554 -0.3003
 8910SOL    HW138189   2.862   4.075   6.614 -2.3945  0.2704  0.9219
 8910SOL    HW238190   2.977   4.168   6.614 -0.9323  1.7159  0.1479
 8911SOL     OW38191   2.789   1.119  16.214  0.7964 -0.2470 -0.1356
 8911SOL    HW138192   2.752   1.099  16.300 -3.0340  1.0367 -1.5176
 8911SOL    HW238193   2.775   1.037  16.168 -1.5484 -0.4596  0.9724
 8912SOL     OW38194   0.792   3.399   8.759  0.8292  0.1536  0.8030
 8912SOL    HW138195   0.776   3.305   8.770  0.9679  0.1886  1.2989
 8912SOL    HW238196   0.883   3.403   8.787  1.2674 -1.2781 -0.4086
 8913SOL     OW38197   3.131   2.090   1.347 -0.2426 -1.0524  0.4016
 8913SOL    HW138198   3.190   2.017   1.366  0.4309 -0.2740  1.3453
 8913SOL    HW238199   3.196   2.145   1.303  0.0249 -0.3634  1.6446
 8914SOL     OW38200   2.022   1.665   3.297  0.2231  0.4145  0.4709
 8914SOL    HW138201   1.977   1.616   3.228  3.2525  0.6730 -1.6884
 8914SOL    HW238202   2.075   1.723   3.243  1.9689  0.6021  2.3764
 8915SOL     OW38203   2.833   2.858   8.756  0.2278  0.2470 -0.2326
 8915SOL    HW138204   2.768   2.928   8.764  1.6475  1.3002  2.3404
 8915SOL    HW238205   2.784   2.777   8.771  0.9434  0.5382  3.9445
 8916SOL     OW38206   0.616   0.715   4.802 -0.1306 -0.3548  0.4417
 8916SOL    HW138207   0.663   0.704   4.885 -1.2578  2.6364  1.4776
 8916SOL    HW238208   0.587   0.803   4.828 -0.8666 -0.8591  1.2990
 8917SOL     OW38209   1.473   3.234  13.535  0.0280  0.1789  0.2382
 8917SOL    HW138210   1.518   3.282  13.605 -0.2872  2.8849 -1.4251
 8917SOL    HW238211   1.382   3.223  13.562  0.0139  1.3822  0.6790
 8918SOL     OW38212   1.636   2.343   8.902 -0.4313 -0.4421 -0.2557
 8918SOL    HW138213   1.698   2.322   8.833  1.5655 -0.4612  1.5676
 8918SOL    HW238214   1.619   2.435   8.880 -2.3673 -0.7241  0.0745
 8919SOL     OW38215   2.365   3.043   8.082 -0.2218 -0.4573  0.0933
 8919SOL    HW138216   2.307   3.008   8.015  2.3781  0.2882 -2.5635
 8919SOL    HW238217   2.413   3.109   8.031 -1.7998 -0.0819 -0.9035
 8920SOL     OW38218   0.560   0.961  12.979 -0.0872  0.1123 -0.2971
 8920SOL    HW138219   0.474   0.919  12.977  0.3821 -0.9920  2.0150
 8920SOL    HW238220   0.563   1.005  13.064  1.0038 -2.3275  0.9238
 8921SOL     OW38221   3.625   0.006   1.315 -0.0882  0.5115 -0.4438
 8921SOL    HW138222   3.665   4.708   1.231  1.3055 -1.0618  0.5871
 8921SOL    HW238223   3.691   4.687   1.371 -1.6750  2.4127  2.8105
 8922SOL     OW38224   3.881   3.494   2.992  0.0979 -0.0754 -0.0844
 8922SOL    HW138225   3.877   3.560   3.062 -0.6335 -0.1349 -0.0748
 8922SOL    HW238226   3.790   3.466   2.991 -0.7091  2.5434  0.5050
 8923SOL     OW38227   4.219   3.323   9.773 -0.1463  0.1729 -0.5024
 8923SOL    HW138228   4.294   3.381   9.788 -2.0954  2.2258  1.3269
 8923SOL    HW238229   4.179   3.320   9.860  0.6020  0.8927 -0.1250
 8924SOL     OW38230   2.032   0.590   5.388 -0.2999 -0.0362  0.2084
 8924SOL    HW138231   2.012   0.498   5.368  0.3644 -0.3287  0.9113
 8924SOL    HW238232   1.953   0.636   5.414 -0.2072 -0.4105  1.1569
 8925SOL     OW38233   3.120   3.399  10.698 -0.5798 -0.1430 -0.0508
 8925SOL    HW138234   3.035   3.361  10.722  0.1451 -0.7961  1.4725
 8925SOL    HW238235   3.081   3.462  10.637 -0.3470 -0.0346 -0.0879
 8926SOL     OW38236   0.765   2.663   2.675  0.3533 -0.1280  0.4084
 8926SOL    HW138237   0.723   2.747   2.695  1.4103  0.6054 -0.4616
 8926SOL    HW238238   0.841   2.664   2.733  1.1147 -0.1410 -0.6008
 8927SOL     OW38239   0.410   2.646   7.229 -0.0997 -0.2885 -0.6403
 8927SOL    HW138240   0.400   2.603   7.315 -0.6823  0.2789 -0.4267
 8927SOL    HW238241   0.494   2.691   7.240 -1.0679  1.3983 -0.2494
 8928SOL     OW38242   0.203   2.274   5.922  0.1683 -0.5534 -0.0676
 8928SOL    HW138243   0.223   2.367   5.917 -2.6381 -0.0882 -2.3195
 8928SOL    HW238244   0.134   2.281   5.988 -1.5825  0.1393 -1.9912
 8929SOL     OW38245   1.142   0.317  13.776 -0.3816  0.1989  0.4532
 8929SOL    HW138246   1.214   0.339  13.835 -0.3217 -1.5839  1.0499
 8929SOL    HW238247   1.093   0.399  13.771 -0.6173  0.0229 -0.1393
 8930SOL     OW38248   3.082   0.386  11.468 -0.3510  0.1984  0.0706
 8930SOL    HW138249   3.131   0.306  11.448  1.7384  1.2534  0.9472
 8930SOL    HW238250   3.111   0.440  11.395 -1.3739 -1.1852 -1.3698
 8931SOL     OW38251   2.069   4.067   8.316  0.0767  0.3809 -0.3756
 8931SOL    HW138252   2.068   3.973   8.335 -1.7258  0.1059 -1.8028
 8931SOL    HW238253   1.980   4.099   8.306  0.0269  0.6447  1.0250
 8932SOL     OW38254   1.391   0.401   8.040  0.5188  0.1503  0.0220
 8932SOL    HW138255   1.328   0.452   8.090  1.8087 -0.1296  1.9206
 8932SOL    HW238256   1.475   0.438   8.068 -0.4018 -0.0426  2.9847
 8933SOL     OW38257   3.822   1.446   9.529 -0.1787 -0.6616 -0.3181
 8933SOL    HW138258   3.828   1.406   9.442  2.2987  0.7236 -0.7590
 8933SOL    HW238259   3.896   1.506   9.523 -1.8449  1.4102  0.1315
 8934SOL     OW38260   3.743   4.668   2.209 -0.2290 -0.0132 -0.0432
 8934SOL    HW138261   3.735   0.007   2.282 -1.0215  0.8762 -0.8666
 8934SOL    HW238262   3.761   0.009   2.139  1.9240  0.1167  0.6493
 8935SOL     OW38263   2.664   1.524   7.212 -0.1942  0.3552 -0.7350
 8935SOL    HW138264   2.694   1.460   7.147 -0.3048  0.0510 -0.4843
 8935SOL    HW238265   2.753   1.536   7.244 -0.5709 -3.1241  1.5368
 8936SOL     OW38266   2.651   2.972   1.477  0.0463  0.1917  0.3282
 8936SOL    HW138267   2.600   2.904   1.522  0.1518 -0.7575 -0.9824
 8936SOL    HW238268   2.720   2.922   1.434  1.1157 -0.8714  3.2626
 8937SOL     OW38269   3.841   2.210   3.957  1.0428  0.1210  0.0735
 8937SOL    HW138270   3.904   2.201   4.029 -0.4239 -0.6219  1.2842
 8937SOL    HW238271   3.759   2.166   3.982  1.0811 -0.2302 -0.4220
 8938SOL     OW38272   3.549   4.437   4.206  0.3719  0.1965 -0.9475
 8938SOL    HW138273   3.628   4.444   4.153  0.4648  0.7508 -0.7321
 8938SOL    HW238274   3.519   4.528   4.208 -0.9046 -0.2695  0.6849
 8939SOL     OW38275   0.942   1.826   9.174  0.7218 -0.2852  0.0946
 8939SOL    HW138276   0.897   1.748   9.207 -0.8414 -0.0137 -1.4390
 8939SOL    HW238277   1.018   1.846   9.229 -0.3997 -1.7940  2.2493
 8940SOL     OW38278   3.912   0.797   4.041  0.0362 -0.4258 -0.3250
 8940SOL    HW138279   3.887   0.811   3.949  3.5931  0.4745 -1.1581
 8940SOL    HW238280   3.872   0.869   4.091  2.3086  1.7063 -1.5683
 8941SOL     OW38281   3.952   4.153  10.353 -0.1918  0.2981 -0.5516
 8941SOL    HW138282   4.005   4.227  10.323  0.7920 -0.3078 -0.2900
 8941SOL    HW238283   3.874   4.202  10.381 -0.0032 -1.0396  2.2343
 8942SOL     OW38284   2.382   1.256   2.533  0.1292 -0.1689  0.3705
 8942SOL    HW138285   2.387   1.280   2.626  4.3630  0.4266  0.0308
 8942SOL    HW238286   2.398   1.342   2.493  0.1222 -0.5267 -0.3917
 8943SOL     OW38287   4.389   2.363   9.701 -0.2034  0.6294 -0.3987
 8943SOL    HW138288   4.345   2.294   9.752 -0.4380  0.0591 -1.3478
 8943SOL    HW238289   4.417   2.414   9.776  2.4640 -1.2882 -0.0969
 8944SOL     OW38290   3.442   0.274  12.365  0.1243 -0.6556  0.1103
 8944SOL    HW138291   3.364   0.220  12.378 -1.1882  0.9308 -1.2192
 8944SOL    HW238292   3.409   0.356  12.402  0.6134  0.1060 -1.1486
 8945SOL     OW38293   1.448   4.161   5.469 -0.7364  0.5647 -0.3216
 8945SOL    HW138294   1.498   4.205   5.539 -2.9177  2.1245  0.2595
 8945SOL    HW238295   1.490   4.075   5.465 -0.5771  0.6593 -0.6706
 8946SOL     OW38296   3.755   4.358  11.267  0.4061 -0.2829 -0.3174
 8946SOL    HW138297   3.693   4.340  11.196  1.4864  0.6924 -1.4871
 8946SOL    HW238298   3.714   4.308  11.338 -0.1750  0.0849 -0.3933
 8947SOL     OW38299   3.782   1.691   7.973 -0.0921 -0.5500  0.7349
 8947SOL    HW138300   3.795   1.770   8.024  0.7118 -1.4354  1.8957
 8947SOL    HW238301   3.874   1.672   7.958 -0.5284 -1.9154 -0.2360
 8948SOL     OW38302   4.074   4.458   7.962 -0.4546  0.5658 -0.1393
 8948SOL    HW138303   4.148   4.480   8.018 -0.7690 -2.2715  1.3812
 8948SOL    HW238304   4.075   4.538   7.910 -0.7003 -1.1055 -2.7638
 8949SOL     OW38305   0.625   3.645   2.141 -0.6358  0.2458  0.0132
 8949SOL    HW138306   0.653   3.554   2.144 -1.5997  0.0024  2.0124
 8949SOL    HW238307   0.707   3.670   2.099  1.3147 -1.0618  3.0236
 8950SOL     OW38308   0.728   4.394   2.608 -0.2803  0.3169  0.0153
 8950SOL    HW138309   0.781   4.425   2.681 -0.5240 -0.5200  0.5512
 8950SOL    HW238310   0.801   4.367   2.553 -1.1426 -1.9642 -0.0155
 8951SOL     OW38311   0.863   3.915   4.530  0.1271  0.1476  0.4482
 8951SOL    HW138312   0.882   3.979   4.599 -0.2487  1.9755 -1.1424
 8951SOL    HW238313   0.834   3.833   4.570 -2.3154 -0.0693 -1.7220
 8952SOL     OW38314   2.827   4.268   2.149  0.0882 -0.5348  0.8370
 8952SOL    HW138315   2.799   4.349   2.191  0.2043  0.7756 -1.6593
 8952SOL    HW238316   2.763   4.256   2.079  1.3794 -0.1218 -0.3999
 8953SOL     OW38317   0.631   2.269   7.981 -0.4325  0.3949  0.8278
 8953SOL    HW138318   0.563   2.254   7.915  0.3409  1.2347 -0.1548
 8953SOL    HW238319   0.701   2.301   7.925  1.0576 -1.7236  1.4346
 8954SOL     OW38320   4.372   1.912   5.612 -0.1137 -0.1447  0.1340
 8954SOL    HW138321   4.433   1.943   5.545  0.8105  0.1166  1.0922
 8954SOL    HW238322   4.372   1.821   5.582  0.3885  0.2904 -1.1438
 8955SOL     OW38323   2.543   0.620   1.080 -0.1627 -0.3269 -0.2375
 8955SOL    HW138324   2.474   0.657   1.024 -0.2162  1.1458  0.7983
 8955SOL    HW238325   2.613   0.680   1.055  1.3256 -2.0243 -0.1763
 8956SOL     OW38326   1.649   2.539   7.037 -0.2316  0.0010  0.2905
 8956SOL    HW138327   1.737   2.532   7.072  0.3869 -0.3715 -1.3751
 8956SOL    HW238328   1.646   2.473   6.968 -0.9166  0.8685 -0.5227
 8957SOL     OW38329   0.159   3.372   7.943  0.3452  0.7867 -0.4479
 8957SOL    HW138330   0.197   3.460   7.932  0.3363  0.9680  0.9587
 8957SOL    HW238331   0.127   3.349   7.856 -2.2263  0.2340  0.6645
 8958SOL     OW38332   0.015   1.671   4.530 -0.1193 -0.1479 -0.1604
 8958SOL    HW138333   0.080   1.741   4.541  0.9063 -0.7165 -2.6985
 8958SOL    HW238334   0.017   1.667   4.435 -0.8281 -3.5571 -0.0106
 8959SOL     OW38335   1.251   3.382  12.446 -0.0528 -0.4736 -0.0555
 8959SOL    HW138336   1.276   3.447  12.382 -0.8825  2.0520  2.1707
 8959SOL    HW238337   1.158   3.368  12.426 -0.5585 -1.2231  2.8063
 8960SOL     OW38338   2.241   0.861  12.117  0.1212 -0.2396  0.4043
 8960SOL    HW138339   2.188   0.908  12.181 -2.2748  1.4565 -2.8150
 8960SOL    HW238340   2.307   0.809  12.163  1.8973  0.4595 -1.3396
 8961SOL     OW38341   1.630   1.290  12.903 -0.2976 -0.1865  0.5170
 8961SOL    HW138342   1.542   1.256  12.885 -0.1205 -0.2186 -0.2918
 8961SOL    HW238343   1.673   1.231  12.965  0.2512 -2.4050 -1.9920
 8962SOL     OW38344   2.253   1.122   9.554 -0.3314 -0.0250 -0.0470
 8962SOL    HW138345   2.196   1.195   9.580  0.2361  0.6546 -0.7221
 8962SOL    HW238346   2.216   1.064   9.620 -0.1939 -0.5760 -0.4603
 8963SOL     OW38347   1.036   3.033   6.637 -0.2590 -0.2670 -0.2052
 8963SOL    HW138348   1.102   3.058   6.572  0.4156 -0.2877  0.4654
 8963SOL    HW238349   0.956   3.055   6.588  0.8284  2.5998 -0.7108
 8964SOL     OW38350   2.450   4.549  10.452  0.3075 -0.1538  0.7391
 8964SOL    HW138351   2.406   4.467  10.475 -0.6843  0.0757 -0.3427
 8964SOL    HW238352   2.492   4.559  10.537 -0.0596 -0.8377  1.0019
 8965SOL     OW38353   2.894   4.204  10.447 -0.2715 -0.6494 -0.0891
 8965SOL    HW138354   2.985   4.185  10.470 -0.7573 -3.0177 -0.1298
 8965SOL    HW238355   2.886   4.139  10.378 -1.3452  0.3051 -0.8732
 8966SOL     OW38356   1.891   4.144   8.689  0.5106  0.1239  0.4254
 8966SOL    HW138357   1.926   4.074   8.744  0.5952 -0.0063  0.2096
 8966SOL    HW238358   1.968   4.177   8.643  0.0047 -0.7864 -1.0949
 8967SOL     OW38359   2.791   1.099   0.962 -0.6432 -0.2554 -0.1155
 8967SOL    HW138360   2.843   1.176   0.984  0.6287 -0.8478 -1.0178
 8967SOL    HW238361   2.820   1.084   0.872  0.2052  0.6170  0.0133
 8968SOL     OW38362   1.934   1.969   8.434  0.0590  0.2977 -0.0669
 8968SOL    HW138363   1.961   1.913   8.361  0.6562 -1.2035  1.3094
 8968SOL    HW238364   1.998   1.934   8.495  0.8079  1.4477 -0.1839
 8969SOL     OW38365   2.402   3.296   3.995  0.5549  0.5499 -0.0729
 8969SOL    HW138366   2.368   3.299   3.905  0.9235  3.0878 -0.1130
 8969SOL    HW238367   2.471   3.361   3.986  1.0152 -0.0135 -0.6781
 8970SOL     OW38368   1.178   2.204  12.012 -0.0892 -0.3206  0.0363
 8970SOL    HW138369   1.132   2.212  11.929 -0.8602 -0.2144  0.4814
 8970SOL    HW238370   1.232   2.131  11.980  0.1613 -0.6185  1.1505
 8971SOL     OW38371   2.192   3.178   8.777 -0.5514 -0.3728  0.2540
 8971SOL    HW138372   2.201   3.082   8.779 -0.0200 -0.3848 -2.1946
 8971SOL    HW238373   2.286   3.189   8.794 -0.3069  0.8258 -1.9269
 8972SOL     OW38374   2.197   3.725  16.924 -0.3741 -0.4926 -0.2682
 8972SOL    HW138375   2.275   3.778  16.941 -0.0903  0.0234 -3.0643
 8972SOL    HW238376   2.175   3.704  17.014 -1.1830 -1.3095 -0.6554
 8973SOL     OW38377   2.504   2.897   9.060 -0.3137  0.0373 -0.7805
 8973SOL    HW138378   2.453   2.846   9.123  0.7080  2.6571  2.1645
 8973SOL    HW238379   2.452   2.977   9.061  0.2616  0.3908  0.6180
 8974SOL     OW38380   2.009   0.530  16.740 -0.3946  0.0802 -0.1024
 8974SOL    HW138381   2.044   0.614  16.770  2.3077 -1.4106  0.9906
 8974SOL    HW238382   2.086   0.473  16.746  0.2296  0.8165 -1.1031
 8975SOL     OW38383   0.796   2.742   5.039 -0.2894 -0.2115  0.0468
 8975SOL    HW138384   0.809   2.837   5.040  0.6097 -0.3474  0.9796
 8975SOL    HW238385   0.866   2.712   5.097 -1.3461  1.0258  1.9868
 8976SOL     OW38386   1.972   0.352  10.916  0.1715 -0.1064  0.1208
 8976SOL    HW138387   1.967   0.335  11.010  1.5082  0.7310  0.3451
 8976SOL    HW238388   2.004   0.442  10.914  0.3467 -0.2307 -2.7517
 8977SOL     OW38389   4.097   4.098  11.304 -0.1145  0.5539 -0.6610
 8977SOL    HW138390   4.019   4.044  11.296  1.4557 -1.9361  0.7707
 8977SOL    HW238391   4.154   4.026  11.330  0.4372  0.9020 -0.8996
 8978SOL     OW38392   0.466   4.307   9.180  0.5060  0.1352  0.3313
 8978SOL    HW138393   0.462   4.371   9.252  0.3639  0.7625 -0.2367
 8978SOL    HW238394   0.376   4.278   9.166  0.8958 -1.1013  0.3781
 8979SOL     OW38395   1.311   2.603   1.868 -0.1086  0.8428  1.0821
 8979SOL    HW138396   1.247   2.620   1.937 -1.5444 -1.5830  0.3656
 8979SOL    HW238397   1.384   2.655   1.901 -0.4576  2.0295 -0.0105
 8980SOL     OW38398   2.615   0.784   9.804  0.5425 -0.0606 -0.4060
 8980SOL    HW138399   2.569   0.701   9.818 -1.8274  1.0541 -1.4866
 8980SOL    HW238400   2.547   0.841   9.843 -0.6125 -1.5528 -0.2342
 8981SOL     OW38401   0.484   3.435   0.849  0.2138 -0.4906  0.1891
 8981SOL    HW138402   0.575   3.425   0.821 -0.0877  1.2185 -1.4086
 8981SOL    HW238403   0.433   3.410   0.772 -1.3234  0.8938  0.7618
 8982SOL     OW38404   2.331   2.615   6.132  0.5276  0.4974  0.1157
 8982SOL    HW138405   2.313   2.702   6.097  1.6644 -0.0374 -1.7918
 8982SOL    HW238406   2.423   2.622   6.154  0.9104 -1.8636 -0.7755
 8983SOL     OW38407   2.504   4.143   7.839 -0.0657  0.4909 -0.5041
 8983SOL    HW138408   2.481   4.050   7.833  0.7550  0.2226  0.5325
 8983SOL    HW238409   2.590   4.156   7.800  0.5399 -3.6325 -0.5866
 8984SOL     OW38410   4.513   0.316   7.535  0.4307 -0.2751 -0.5187
 8984SOL    HW138411   4.524   0.253   7.606  0.7681 -0.3389 -0.6267
 8984SOL    HW238412   4.422   0.343   7.548 -0.0887 -0.9392 -2.8102
 8985SOL     OW38413   0.544   0.916   3.522 -0.1409 -0.3169  0.0056
 8985SOL    HW138414   0.464   0.945   3.479 -0.6191 -1.4526  0.1457
 8985SOL    HW238415   0.550   0.825   3.493  1.1761 -0.3932  0.5161
 8986SOL     OW38416   1.548   3.226   3.088  0.2933 -0.1370 -0.0770
 8986SOL    HW138417   1.474   3.244   3.147  1.3165  1.6436  0.6569
 8986SOL    HW238418   1.614   3.277   3.135 -0.1032  0.0903  0.2403
 8987SOL     OW38419   1.735   3.040  14.175  0.2035 -0.6055 -0.6315
 8987SOL    HW138420   1.773   3.058  14.261  2.2435 -0.5838 -1.5437
 8987SOL    HW238421   1.678   3.116  14.166 -0.2033 -0.8371 -0.0011
 8988SOL     OW38422   0.301   4.174   3.825 -0.0739 -0.2341  0.3272
 8988SOL    HW138423   0.238   4.209   3.762  0.4179 -0.3155 -0.2178
 8988SOL    HW238424   0.273   4.084   3.839 -1.2396  0.2013  0.7186
 8989SOL     OW38425   4.203   3.591   0.091  0.0168  0.4477  0.1453
 8989SOL    HW138426   4.294   3.568   0.075 -0.5223 -0.5751 -1.3948
 8989SOL    HW238427   4.190   3.544   0.173  0.9642  0.4991  0.3200
 8990SOL     OW38428   3.393   1.804   6.775 -0.1749  0.3895  0.4327
 8990SOL    HW138429   3.451   1.809   6.699 -2.9896  2.1472 -1.6234
 8990SOL    HW238430   3.438   1.724   6.803  0.5942  0.5415 -0.3748
 8991SOL     OW38431   3.249   0.224   3.083  0.1241 -0.1560 -0.0683
 8991SOL    HW138432   3.222   0.273   3.005  0.9650 -0.9905 -0.8862
 8991SOL    HW238433   3.341   0.219   3.055 -0.0408 -0.4765 -0.5644
 8992SOL     OW38434   4.584   4.574   2.856 -0.3227  0.3186  0.4614
 8992SOL    HW138435   4.622   4.487   2.852  1.5855  1.2892 -1.9899
 8992SOL    HW238436   4.491   4.554   2.853  0.0979 -1.6928  1.1527
 8993SOL     OW38437   1.280   0.612  11.344  0.3152  0.0533  0.0207
 8993SOL    HW138438   1.295   0.706  11.337 -0.1641  0.1846  0.6895
 8993SOL    HW238439   1.368   0.584  11.369  0.2833 -1.2684 -1.3788
 8994SOL     OW38440   0.593   2.562  14.816  0.5775 -0.1311 -0.5749
 8994SOL    HW138441   0.580   2.505  14.893 -2.0473  1.8797  0.4717
 8994SOL    HW238442   0.543   2.640  14.839  0.0612 -0.8395  0.7579
 8995SOL     OW38443   4.065   0.997   4.885  0.0303 -0.6105 -0.2262
 8995SOL    HW138444   4.096   0.990   4.795  2.0725 -0.2567  0.4648
 8995SOL    HW238445   4.061   0.903   4.905  2.3959 -0.3236  1.5645
 8996SOL     OW38446   3.377   4.471   5.766  0.4753 -0.2778  0.5925
 8996SOL    HW138447   3.356   4.554   5.808  0.4159  0.2098 -0.3861
 8996SOL    HW238448   3.398   4.501   5.678  0.0986 -0.2033  0.5255
 8997SOL     OW38449   2.166   1.938   0.738  0.4081 -0.4627 -0.0284
 8997SOL    HW138450   2.177   1.986   0.655  1.9683  0.4984  0.7342
 8997SOL    HW238451   2.116   2.004   0.787 -0.4425 -0.5606 -0.7594
 8998SOL     OW38452   2.086   4.677   5.974  0.1228 -0.2902  0.4418
 8998SOL    HW138453   2.008   0.011   5.973 -0.3327 -0.9314  0.6703
 8998SOL    HW238454   2.067   4.608   6.037  0.2997 -0.0232  0.7914
 8999SOL     OW38455   1.990   3.589   6.816 -0.5090 -0.1705 -0.7391
 8999SOL    HW138456   1.899   3.565   6.799 -1.1047  1.4407  0.2268
 8999SOL    HW238457   1.970   3.682   6.806 -1.9694 -0.4177 -0.0128
 9000SOL     OW38458   2.557   4.121   4.892  0.1923  0.0941 -0.0460
 9000SOL    HW138459   2.549   4.208   4.932  1.0894  0.1193  0.0754
 9000SOL    HW238460   2.480   4.124   4.834  0.4133 -3.3999 -0.4919
 9001SOL     OW38461   4.221   0.932   3.421 -0.3992  0.4139  0.3071
 9001SOL    HW138462   4.159   0.912   3.492  0.7408 -2.0615  0.5788
 9001SOL    HW238463   4.172   0.913   3.341  0.8590 -1.5993  0.0305
 9002SOL     OW38464   3.818   4.634   7.145 -0.6654  0.7105  0.6264
 9002SOL    HW138465   3.848   4.611   7.057  2.3638  0.2872  1.7678
 9002SOL    HW238466   3.791   4.545   7.170 -1.3146  0.8407  0.4049
 9003SOL     OW38467   3.210   1.202   8.391  0.1479  0.0417 -1.1371
 9003SOL    HW138468   3.286   1.151   8.360  1.2188 -0.3740  2.1710
 9003SOL    HW238469   3.141   1.145   8.358 -0.1097 -0.8490  0.9662
 9004SOL     OW38470   4.278   0.744   2.841 -0.3283  0.6275  0.0920
 9004SOL    HW138471   4.221   0.756   2.917 -2.5792 -1.3701 -1.2682
 9004SOL    HW238472   4.225   0.691   2.782 -1.1434  1.2974  0.2366
 9005SOL     OW38473   2.865   3.628  10.662  0.3227 -0.2073 -0.4909
 9005SOL    HW138474   2.806   3.650  10.590 -1.7355  1.0390  1.5706
 9005SOL    HW238475   2.939   3.684  10.637  0.2111  0.5917  0.9379
 9006SOL     OW38476   0.655   0.985   3.038 -0.6665  0.3100 -0.0728
 9006SOL    HW138477   0.672   0.899   3.077 -0.2334  0.4774  0.1051
 9006SOL    HW238478   0.661   1.054   3.104  1.4632 -0.7124  0.8090
 9007SOL     OW38479   2.024   2.291   6.062  0.1441  0.0632  0.4111
 9007SOL    HW138480   2.095   2.335   6.015  0.6337 -1.7483 -0.5200
 9007SOL    HW238481   2.061   2.204   6.075 -0.1012  0.0477  1.0047
 9008SOL     OW38482   2.202   0.909  15.138  0.1635  0.2881  0.0257
 9008SOL    HW138483   2.184   0.997  15.107  0.4717  0.4563  0.3220
 9008SOL    HW238484   2.298   0.916  15.138  0.3646 -2.2505 -0.2593
 9009SOL     OW38485   2.611   0.290   1.442  0.2515  0.7156 -0.1863
 9009SOL    HW138486   2.662   0.367   1.416  0.3046  0.3724 -1.1125
 9009SOL    HW238487   2.546   0.332   1.497  0.3629 -0.3260  0.7448
 9010SOL     OW38488   2.261   2.190   6.982 -0.3052  0.5540 -0.0645
 9010SOL    HW138489   2.226   2.171   6.895 -0.9152 -0.0725  0.3153
 9010SOL    HW238490   2.353   2.200   6.955 -0.9231  2.3557 -1.5395
 9011SOL     OW38491   1.412   3.110   2.020 -0.6827  0.2465  0.1598
 9011SOL    HW138492   1.474   3.084   1.951  0.0621 -2.6019  1.8952
 9011SOL    HW238493   1.326   3.077   1.995 -0.5410 -0.3220  0.4240
 9012SOL     OW38494   2.033   3.793   2.200  0.0589  0.0996  0.0041
 9012SOL    HW138495   2.039   3.838   2.284 -1.6162  0.4152 -0.0345
 9012SOL    HW238496   1.958   3.734   2.214 -0.3938  0.5196 -0.6644
 9013SOL     OW38497   2.644   1.794   0.236  0.5178 -0.1475 -0.5379
 9013SOL    HW138498   2.716   1.731   0.233 -0.3713 -1.1789 -0.2565
 9013SOL    HW238499   2.664   1.834   0.321  0.2154 -1.2703  0.0581
 9014SOL     OW38500   1.783   0.067   0.770 -0.2432  0.0355 -0.4559
 9014SOL    HW138501   1.751   4.701   0.791 -0.5979  0.6428  1.5340
 9014SOL    HW238502   1.752   0.076   0.681 -2.8592 -1.7986  0.2860
 9015SOL     OW38503   0.202   2.528   9.333 -0.4704 -0.4661  0.1342
 9015SOL    HW138504   0.128   2.469   9.315 -0.7668 -0.0354 -0.0784
 9015SOL    HW238505   0.233   2.534   9.243 -1.5415  1.9310 -0.0801
 9016SOL     OW38506   3.541   2.809   7.985  0.4304 -0.5788  0.0158
 9016SOL    HW138507   3.476   2.792   7.917 -0.3179 -0.7597  0.7818
 9016SOL    HW238508   3.509   2.881   8.039 -0.3339 -0.9750  0.0912
 9017SOL     OW38509   2.636   3.171   2.085  0.2556 -0.0158  0.3958
 9017SOL    HW138510   2.552   3.212   2.064  0.0913  0.0879  1.2352
 9017SOL    HW238511   2.672   3.154   1.998  0.5501 -1.9345  0.8795
 9018SOL     OW38512   0.030   3.815   4.433 -0.2574 -0.1302  0.6629
 9018SOL    HW138513   0.098   3.789   4.495 -1.2604 -2.3148  0.8167
 9018SOL    HW238514   4.692   3.854   4.498  0.2233 -0.0183  1.0373
 9019SOL     OW38515   1.140   1.422   6.866  0.6134  0.0743  0.5576
 9019SOL    HW138516   1.161   1.478   6.941 -3.9516  1.5947  0.7073
 9019SOL    HW238517   1.230   1.405   6.839  0.7761  0.0847  1.0860
 9020SOL     OW38518   2.621   4.207   8.776  0.4429  0.1956  0.0477
 9020SOL    HW138519   2.705   4.162   8.762  0.5689 -0.2161  2.0577
 9020SOL    HW238520   2.620   4.230   8.869  1.4296 -2.0879  0.6408
 9021SOL     OW38521   3.757   3.978   5.891 -0.2345  0.3265  0.0841
 9021SOL    HW138522   3.696   3.920   5.936 -0.6021  1.8038  1.4653
 9021SOL    HW238523   3.821   3.920   5.850 -0.1823  0.3755  0.0962
 9022SOL     OW38524   1.101   0.795   5.902  0.2224  0.6946 -0.0267
 9022SOL    HW138525   1.143   0.822   5.984  2.2292  2.7341 -1.7129
 9022SOL    HW238526   1.064   0.880   5.877  1.6087  0.7118 -2.0609
 9023SOL     OW38527   1.951   2.230   7.275  0.3029  0.1025  0.1335
 9023SOL    HW138528   2.014   2.296   7.247 -1.0520  2.3432  2.3166
 9023SOL    HW238529   2.001   2.149   7.274  0.9221  0.5516 -3.0904
 9024SOL     OW38530   4.332   3.282  16.343 -0.4082  0.4974  0.2990
 9024SOL    HW138531   4.321   3.377  16.346 -1.9189  0.2558  2.1852
 9024SOL    HW238532   4.383   3.270  16.422 -1.1686  0.0779  0.7304
 9025SOL     OW38533   3.683   2.072  15.462 -0.2207 -0.0368 -0.4382
 9025SOL    HW138534   3.725   2.059  15.547  0.9598  1.0403 -0.8441
 9025SOL    HW238535   3.740   2.146  15.440 -0.7538  0.9526  1.4774
 9026SOL     OW38536   1.086   3.196   4.580 -0.0061 -0.1995  0.3473
 9026SOL    HW138537   1.180   3.190   4.595  0.1298 -0.8851 -0.7689
 9026SOL    HW238538   1.071   3.286   4.550 -1.0719 -0.2821  0.6333
 9027SOL     OW38539   2.676   0.375   6.145 -0.1613  0.2558  0.4298
 9027SOL    HW138540   2.613   0.341   6.082  1.5785  0.3064 -1.3252
 9027SOL    HW238541   2.719   0.290   6.155 -0.1701  0.0491 -1.2305
 9028SOL     OW38542   0.423   1.687   2.445 -0.2115 -0.2120 -0.2380
 9028SOL    HW138543   0.404   1.771   2.405  0.6398 -0.5631 -1.3720
 9028SOL    HW238544   0.353   1.690   2.510  1.3414  2.1307  1.3207
 9029SOL     OW38545   2.353   0.703   0.580  0.0737 -0.2159 -0.4113
 9029SOL    HW138546   2.431   0.711   0.634  0.1370 -1.0894 -0.3708
 9029SOL    HW238547   2.307   0.648   0.643  1.5041 -1.5255 -0.5221
 9030SOL     OW38548   1.409   2.230   8.060  0.2451  0.3230  0.6180
 9030SOL    HW138549   1.335   2.289   8.073  2.4767  2.0708  5.3317
 9030SOL    HW238550   1.446   2.271   7.982 -0.3916  0.5450  0.4376
 9031SOL     OW38551   0.538   1.626   3.316 -0.2546 -0.2649 -0.2124
 9031SOL    HW138552   0.591   1.667   3.248  1.2227 -1.4266  0.2278
 9031SOL    HW238553   0.603   1.604   3.382 -0.7147  2.1455  1.0523
 9032SOL     OW38554   3.025   2.318  13.308  0.0534  0.1486 -0.1870
 9032SOL    HW138555   3.005   2.241  13.361 -0.4893 -0.3903 -1.1771
 9032SOL    HW238556   3.048   2.382  13.376  0.6078  0.0832 -0.3118
 9033SOL     OW38557   0.267   3.568  15.447 -0.0539 -0.3701 -0.3902
 9033SOL    HW138558   0.238   3.530  15.530  0.8910 -0.2098  0.0140
 9033SOL    HW238559   0.312   3.496  15.402 -1.3046 -2.0935  1.1172
 9034SOL     OW38560   1.303   2.434  13.987 -0.0743  0.0449 -0.3495
 9034SOL    HW138561   1.355   2.355  14.004 -0.0531  0.0873 -0.2172
 9034SOL    HW238562   1.372   2.498  14.004 -0.4051  0.5240 -0.8291
 9035SOL     OW38563   0.530   3.907  11.857 -0.4617  0.0340 -0.3016
 9035SOL    HW138564   0.615   3.933  11.822  0.3211 -1.4646  0.4723
 9035SOL    HW238565   0.484   3.893  11.774  0.3350 -0.5732 -0.6414
 9036SOL     OW38566   3.491   1.087   8.024 -0.0856  0.3124 -0.7295
 9036SOL    HW138567   3.450   1.166   7.990  2.0344  1.4831 -0.5930
 9036SOL    HW238568   3.583   1.114   8.014  0.4179 -0.9198  0.6215
 9037SOL     OW38569   1.613   2.166  16.568 -0.4703 -0.3621  0.3879
 9037SOL    HW138570   1.671   2.092  16.556  0.9216  0.7140  0.5217
 9037SOL    HW238571   1.670   2.238  16.597  1.2075 -2.0611  1.2898
 9038SOL     OW38572   0.462   1.937   3.398 -0.0653  0.5543 -0.0711
 9038SOL    HW138573   0.449   1.849   3.432  1.3553 -0.3537 -1.8911
 9038SOL    HW238574   0.551   1.948   3.430 -0.1374  1.1730 -0.0761
 9039SOL     OW38575   4.351   3.550   2.646 -0.3133  0.0252 -0.5552
 9039SOL    HW138576   4.432   3.525   2.689  0.4276 -0.4872 -2.2443
 9039SOL    HW238577   4.380   3.636   2.614 -2.4709 -0.0726 -2.7918
 9040SOL     OW38578   2.553   0.565  12.736  0.2868  0.1392  0.2023
 9040SOL    HW138579   2.643   0.533  12.738 -0.0617 -0.8231  0.3366
 9040SOL    HW238580   2.541   0.610  12.820  1.1865  0.8666 -0.0647
 9041SOL     OW38581   1.452   3.467  16.202 -0.4195 -0.8410 -0.0684
 9041SOL    HW138582   1.518   3.533  16.221  0.1446 -1.2170 -0.7291
 9041SOL    HW238583   1.496   3.384  16.218  1.4983 -0.0299 -1.0674
 9042SOL     OW38584   3.935   1.927   6.294  0.1805  0.0581  0.4286
 9042SOL    HW138585   3.915   1.944   6.386 -1.7273  3.2192 -0.5833
 9042SOL    HW238586   3.974   1.840   6.293 -0.7246 -0.3793  2.7737
 9043SOL     OW38587   1.336   2.013   1.235  0.5173  0.1240 -0.0495
 9043SOL    HW138588   1.287   1.931   1.224  0.3403  0.0811  1.1246
 9043SOL    HW238589   1.423   1.996   1.199 -0.7400 -1.6682 -2.2608
 9044SOL     OW38590   0.049   2.303   7.281 -0.4006 -0.4033  0.4874
 9044SOL    HW138591   0.115   2.368   7.258 -1.1416  0.6141  1.2524
 9044SOL    HW238592   0.099   2.242   7.334 -0.4019  0.0589  1.0187
 9045SOL     OW38593   1.429   2.557   5.655 -0.2227  0.0843 -0.5325
 9045SOL    HW138594   1.503   2.616   5.672  0.9949 -2.0509  1.6766
 9045SOL    HW238595   1.476   2.479   5.626 -1.2941 -0.4287 -0.8920
 9046SOL     OW38596   2.755   1.659   3.890 -0.3741  0.3649 -0.3085
 9046SOL    HW138597   2.714   1.740   3.921 -0.5468  0.5726 -1.0775
 9046SOL    HW238598   2.834   1.661   3.945 -0.1784 -1.1706 -0.5289
 9047SOL     OW38599   4.409   2.861  11.474 -0.2473 -0.0921  0.6279
 9047SOL    HW138600   4.429   2.913  11.552  1.6159  0.3528 -0.1585
 9047SOL    HW238601   4.444   2.920  11.407 -0.5889 -2.0789 -1.2981
 9048SOL     OW38602   0.197   4.285   7.189 -0.5292  0.1417  0.1318
 9048SOL    HW138603   0.277   4.293   7.137  0.1663 -1.8677  0.8980
 9048SOL    HW238604   0.231   4.219   7.250 -1.7990 -1.6542 -1.0954
 9049SOL     OW38605   3.656   0.164   4.670  0.3085 -0.5388  0.2804
 9049SOL    HW138606   3.588   0.126   4.615  0.8966 -1.3524  0.1000
 9049SOL    HW238607   3.730   0.106   4.651 -0.5029 -1.2916 -0.6139
 9050SOL     OW38608   3.481   3.898  11.185  0.6431  0.6666 -0.0002
 9050SOL    HW138609   3.500   3.947  11.105  0.1610  0.2296 -0.3876
 9050SOL    HW238610   3.536   3.819  11.184  0.5044  0.5650  0.4946
 9051SOL     OW38611   3.791   1.501  13.434  0.6111  0.0711  0.1786
 9051SOL    HW138612   3.867   1.444  13.448  0.6564 -0.4198 -2.1195
 9051SOL    HW238613   3.767   1.523  13.524  1.9367 -0.0988  0.5809
 9052SOL     OW38614   4.057   4.542   8.740  0.2248 -0.1908 -0.4505
 9052SOL    HW138615   4.122   4.608   8.717  1.0432 -0.2632  1.6544
 9052SOL    HW238616   4.003   4.591   8.802  2.0969  1.4641 -0.1378
 9053SOL     OW38617   1.746   2.387   7.658 -0.0726  0.0871 -0.0344
 9053SOL    HW138618   1.760   2.418   7.747  0.0579 -0.9656  0.3092
 9053SOL    HW238619   1.808   2.441   7.609 -0.7120  0.5228 -0.3739
 9054SOL     OW38620   3.682   3.162   5.387  0.3042 -0.3242 -0.4754
 9054SOL    HW138621   3.682   3.257   5.385 -2.6200 -0.2977  0.2566
 9054SOL    HW238622   3.633   3.133   5.310 -1.9218 -0.5892  1.0338
 9055SOL     OW38623   4.040   0.634   3.078  0.2195 -0.1504 -0.1911
 9055SOL    HW138624   3.964   0.590   3.041  1.1155 -1.4718 -0.4609
 9055SOL    HW238625   4.110   0.574   3.052 -0.6467 -0.4983 -1.7326
 9056SOL     OW38626   4.547   2.347   7.504  0.2904 -0.3036  0.0922
 9056SOL    HW138627   4.617   2.338   7.439 -1.2393 -0.4269 -1.5528
 9056SOL    HW238628   4.520   2.255   7.506 -0.3697 -0.0730  1.7906
 9057SOL     OW38629   0.059   2.278   3.937 -0.2924 -0.0328 -0.2583
 9057SOL    HW138630   0.111   2.314   4.009 -0.2021 -0.8986  0.1140
 9057SOL    HW238631   4.696   2.269   3.982  0.8259 -0.1325  1.8415
 9058SOL     OW38632   4.396   1.673   5.448  0.3307  0.1583 -0.1467
 9058SOL    HW138633   4.408   1.696   5.356 -0.3482  0.7156 -0.0957
 9058SOL    HW238634   4.308   1.636   5.446  1.4971 -2.5548 -2.8215
 9059SOL     OW38635   3.630   0.785  12.885  0.0465 -0.1563 -0.2440
 9059SOL    HW138636   3.658   0.697  12.856  1.4279  0.6037 -1.2556
 9059SOL    HW238637   3.700   0.829  12.837  1.6662 -0.3316  1.9853
 9060SOL     OW38638   2.126   0.988   3.194 -0.4997  0.2150 -0.4080
 9060SOL    HW138639   2.034   0.970   3.178 -1.1482  3.0790  0.3189
 9060SOL    HW238640   2.143   1.016   3.104 -0.4573  0.6994 -0.2472
 9061SOL     OW38641   4.526   3.180   6.478 -0.1051  0.1920 -0.4898
 9061SOL    HW138642   4.516   3.086   6.463  0.0875  0.0772  0.1149
 9061SOL    HW238643   4.612   3.207   6.448 -1.2660 -0.9795 -4.9482
 9062SOL     OW38644   0.091   4.383   5.655  0.1589 -0.7162 -0.6046
 9062SOL    HW138645   0.100   4.412   5.746 -1.2308 -0.2470 -0.6126
 9062SOL    HW238646   4.719   4.388   5.634  0.1588  1.3699 -0.1208
 9063SOL     OW38647   1.315   4.081   8.591 -0.2908  0.3014 -0.2003
 9063SOL    HW138648   1.405   4.055   8.569  0.0272  2.4107 -1.3625
 9063SOL    HW238649   1.312   4.126   8.675  0.2215 -2.0180  1.0681
 9064SOL     OW38650   0.769   1.753   2.561 -0.2360  0.3647  0.3585
 9064SOL    HW138651   0.771   1.825   2.624  0.6461 -0.2652  1.0522
 9064SOL    HW238652   0.717   1.697   2.619 -0.9042 -0.2389 -0.8131
 9065SOL     OW38653   2.906   3.140  17.655  0.5349  0.6535 -0.4552
 9065SOL    HW138654   2.931   3.232  17.666 -1.2782  1.1313 -0.3185
 9065SOL    HW238655   2.996   3.119  17.631  0.3542 -0.5612 -0.0315
 9066SOL     OW38656   3.882   0.183  17.605 -0.3881  0.1367  0.2676
 9066SOL    HW138657   3.901   0.148  17.518 -1.5729  1.0520 -0.3599
 9066SOL    HW238658   3.851   0.106  17.654 -1.5560 -0.3951 -1.3306
 9067SOL     OW38659   0.025   1.661   4.274  0.1973 -0.0486  0.2288
 9067SOL    HW138660   0.058   1.737   4.225 -0.5230 -0.4579 -0.9099
 9067SOL    HW238661   4.656   1.669   4.243  0.2092 -1.2542 -0.1149
 9068SOL     OW38662   2.314   0.148   9.456 -0.6335  0.3092 -0.7922
 9068SOL    HW138663   2.329   0.055   9.439 -0.8784  0.4887 -2.0454
 9068SOL    HW238664   2.275   0.149   9.543 -3.2559 -0.3899 -1.9573
 9069SOL     OW38665   3.305   2.374   5.755 -0.2971  0.1754 -0.0000
 9069SOL    HW138666   3.315   2.427   5.834  0.1259 -1.0552  0.7872
 9069SOL    HW238667   3.396   2.347   5.743 -0.7758 -1.3450 -0.2024
 9070SOL     OW38668   3.998   4.081   2.580 -0.2167 -0.1417 -0.4883
 9070SOL    HW138669   4.011   4.023   2.656  2.0614  1.9826  0.7290
 9070SOL    HW238670   3.961   4.012   2.525 -0.3382  0.4590 -1.1420
 9071SOL     OW38671   1.917   2.645   6.155 -0.3339  0.6750  0.3374
 9071SOL    HW138672   1.870   2.728   6.143  1.8736  1.8362 -0.2664
 9071SOL    HW238673   1.992   2.665   6.099 -1.4111 -2.4112 -2.1858
 9072SOL     OW38674   4.472   0.276   8.405 -0.6067 -0.3267  0.0644
 9072SOL    HW138675   4.425   0.300   8.484  0.6758 -0.1308  0.7658
 9072SOL    HW238676   4.407   0.319   8.349  1.0793 -0.0448 -1.6802
 9073SOL     OW38677   2.106   1.200   6.487  0.1513  0.3638 -0.2157
 9073SOL    HW138678   2.029   1.153   6.520  0.4585  0.0501  0.0556
 9073SOL    HW238679   2.152   1.127   6.447 -0.2351  0.2240 -0.4062
 9074SOL     OW38680   4.534   4.309  12.844  0.0851 -0.6516 -0.8009
 9074SOL    HW138681   4.606   4.321  12.782 -0.4081 -0.9399 -1.4244
 9074SOL    HW238682   4.484   4.391  12.837  0.0877 -0.7707 -2.2280
 9075SOL     OW38683   3.934   1.657   9.087  0.6301  0.2817  0.8906
 9075SOL    HW138684   3.884   1.576   9.091 -1.1924  1.2488 -2.5503
 9075SOL    HW238685   3.949   1.657   8.993 -0.9241 -0.9925  0.6545
 9076SOL     OW38686   0.725   2.687   7.566 -0.5023  0.4427  0.3659
 9076SOL    HW138687   0.820   2.677   7.563 -0.5334  0.5406 -0.8135
 9076SOL    HW238688   0.706   2.597   7.591  3.1414 -0.0028  1.5693
 9077SOL     OW38689   4.094   3.806   2.335  0.0359 -0.3978 -0.0199
 9077SOL    HW138690   4.128   3.894   2.324 -0.9715  0.3686  2.9270
 9077SOL    HW238691   4.078   3.786   2.428  1.1638 -1.2825 -0.0167
 9078SOL     OW38692   3.399   4.503   0.156  0.0580  0.1859 -0.2413
 9078SOL    HW138693   3.308   4.533   0.166  0.3042  1.2774 -1.2699
 9078SOL    HW238694   3.391   4.502   0.060  0.2986 -0.1618 -0.2561
 9079SOL     OW38695   0.897   2.513   2.023  0.0395  0.2696  0.2807
 9079SOL    HW138696   0.860   2.454   2.089  1.7376  1.1749  2.0358
 9079SOL    HW238697   0.817   2.565   2.014 -0.0684  0.7059  3.6640
 9080SOL     OW38698   0.002   4.024  17.492  0.4152 -0.1848 -0.5070
 9080SOL    HW138699   4.647   3.982  17.454 -0.4269  0.9615 -0.0880
 9080SOL    HW238700   4.677   4.095  17.536 -0.7374 -1.0806 -0.2705
 9081SOL     OW38701   2.993   0.405   3.533 -0.1728  0.1789 -0.1070
 9081SOL    HW138702   3.025   0.493   3.514  1.3952 -0.4786 -0.5268
 9081SOL    HW238703   3.069   0.356   3.501 -0.9900  0.0208 -1.8211
 9082SOL     OW38704   2.941   0.989   7.686  0.4185 -0.2323 -0.1280
 9082SOL    HW138705   2.933   0.952   7.598 -5.0847 -1.6586  0.9676
 9082SOL    HW238706   2.929   0.916   7.747  0.0218 -0.5636 -0.5992
 9083SOL     OW38707   3.538   1.756   7.807 -0.1746  0.5248  0.6525
 9083SOL    HW138708   3.632   1.742   7.804 -0.2092  0.5863 -0.8266
 9083SOL    HW238709   3.530   1.839   7.854 -1.4263  1.0101 -0.3967
 9084SOL     OW38710   1.743   0.979  11.943  0.3354 -0.5920  0.0493
 9084SOL    HW138711   1.798   0.938  11.877  0.6435 -0.3048  0.1278
 9084SOL    HW238712   1.760   1.073  11.938  0.4286 -0.5752  0.6282
 9085SOL     OW38713   0.042   1.760   5.395  0.2930  0.0265  0.2261
 9085SOL    HW138714   0.088   1.826   5.448 -0.7454  0.6752  0.3317
 9085SOL    HW238715   0.096   1.771   5.317  0.5420 -0.3051  0.3508
 9086SOL     OW38716   0.749   3.822   7.471  0.3017  0.0880 -0.0154
 9086SOL    HW138717   0.815   3.780   7.415  0.4398 -1.2058  1.1364
 9086SOL    HW238718   0.807   3.887   7.511 -1.9673  1.8037  0.4708
 9087SOL     OW38719   1.608   0.880  16.265  0.2239  0.9820 -0.0213
 9087SOL    HW138720   1.668   0.805  16.255 -0.9058  0.5834 -3.6839
 9087SOL    HW238721   1.600   0.884  16.361  0.0315  1.0682 -0.0421
 9088SOL     OW38722   4.518   2.830   5.703 -0.1688  0.1987 -0.2279
 9088SOL    HW138723   4.547   2.747   5.741  0.6612 -0.7194 -2.8909
 9088SOL    HW238724   4.423   2.822   5.705 -0.0456 -1.4744 -1.6694
 9089SOL     OW38725   1.592   1.008   0.676 -0.1083  0.4937 -0.3697
 9089SOL    HW138726   1.602   0.924   0.722 -0.0815  0.4693 -0.4205
 9089SOL    HW238727   1.583   0.968   0.590  1.0843  2.5950 -1.4699
 9090SOL     OW38728   1.612   4.358  16.247  0.4730  0.5120  0.4546
 9090SOL    HW138729   1.547   4.390  16.184 -0.2534 -1.8359  0.0091
 9090SOL    HW238730   1.680   4.425  16.234  0.1109 -0.1866 -5.1350
 9091SOL     OW38731   1.220   0.090   9.057  1.0721  0.1087 -0.3385
 9091SOL    HW138732   1.282   0.026   9.092 -0.7674 -0.6155  1.5275
 9091SOL    HW238733   1.240   0.082   8.964 -1.3663  2.0315 -1.0320
 9092SOL     OW38734   2.017   3.616  16.724  0.2159 -0.1245  0.5087
 9092SOL    HW138735   2.074   3.631  16.799  2.0035  1.9834 -1.2500
 9092SOL    HW238736   2.038   3.686  16.662  1.1622  0.8482  1.9211
 9093SOL     OW38737   4.708   2.764   2.858 -0.0621 -0.9240 -0.3554
 9093SOL    HW138738   4.667   2.831   2.913  0.4396 -1.2300  0.3998
 9093SOL    HW238739   0.068   2.809   2.834 -1.1109  1.4205  0.4406
 9094SOL     OW38740   4.150   2.902   5.214  0.0075  0.3782 -0.4065
 9094SOL    HW138741   4.139   2.827   5.272  2.1394  0.2810 -0.1478
 9094SOL    HW238742   4.147   2.970   5.281  2.4470 -0.9571  1.0450
 9095SOL     OW38743   3.332   3.480   6.032  0.4468 -0.1998 -0.0002
 9095SOL    HW138744   3.256   3.421   6.038 -0.1906  0.2684 -2.9874
 9095SOL    HW238745   3.400   3.439   6.084  0.0939  0.6534  1.1402
 9096SOL     OW38746   3.106   0.009   6.078  0.3372  0.2425 -0.2214
 9096SOL    HW138747   3.180   0.053   6.120 -1.3683  0.7853  2.1767
 9096SOL    HW238748   3.030   0.015   6.136  0.5691  0.7729  0.0275
 9097SOL     OW38749   3.005   4.626   6.609  0.4103  0.1703 -0.2912
 9097SOL    HW138750   2.980   4.540   6.641 -3.6435  0.6002 -2.3088
 9097SOL    HW238751   3.071   4.608   6.542 -0.8744 -0.2427 -1.4487
 9098SOL     OW38752   1.509   0.201   2.254  0.3072  0.0520 -0.2034
 9098SOL    HW138753   1.493   0.296   2.254 -1.0645 -0.1719 -1.0448
 9098SOL    HW238754   1.420   0.166   2.256  0.4869 -0.2864  2.2932
 9099SOL     OW38755   1.348   2.893   4.028 -0.5084  0.0133 -0.1926
 9099SOL    HW138756   1.308   2.936   3.951 -2.8009  0.0615  1.0265
 9099SOL    HW238757   1.273   2.837   4.047 -0.0725 -0.6457 -0.4184
 9100SOL     OW38758   0.085   3.478   1.407  0.8841  0.1376  0.3577
 9100SOL    HW138759   0.168   3.523   1.420  0.6055  1.2307 -1.5833
 9100SOL    HW238760   0.077   3.460   1.314 -0.0325 -0.5997  0.5760
 9101SOL     OW38761   4.030   4.649   6.085  0.1899  0.0109  0.3745
 9101SOL    HW138762   3.991   4.586   6.025 -2.1621 -1.1570  3.1113
 9101SOL    HW238763   4.122   4.649   6.061  0.0365 -0.5345 -0.1860
 9102SOL     OW38764   0.461   2.254   9.046 -0.5355 -0.0219  0.0532
 9102SOL    HW138765   0.377   2.301   9.049 -1.2772 -1.4284  1.2015
 9102SOL    HW238766   0.423   2.169   9.025  1.7401 -1.3907  1.5380
 9103SOL     OW38767   1.041   0.118   1.163 -0.2051 -0.1727  0.2324
 9103SOL    HW138768   1.026   0.082   1.251 -0.6024 -1.6319 -0.4348
 9103SOL    HW238769   1.084   0.202   1.182  0.5405 -0.6865  0.8363
 9104SOL     OW38770   1.634   3.982   4.492 -0.6359 -0.0823  0.1361
 9104SOL    HW138771   1.678   4.046   4.435  0.9685 -0.2889  1.1550
 9104SOL    HW238772   1.634   4.031   4.574  0.0321 -1.1192  0.7430
 9105SOL     OW38773   0.872   0.684  12.471  0.6470  0.6770 -0.1707
 9105SOL    HW138774   0.788   0.706  12.432  1.3414  1.6569 -1.0998
 9105SOL    HW238775   0.853   0.590  12.474 -0.8129  0.9856  0.2353
 9106SOL     OW38776   1.436   3.401   8.394  0.0462 -0.0953 -0.4490
 9106SOL    HW138777   1.478   3.354   8.465  1.3453  2.5951  0.5362
 9106SOL    HW238778   1.490   3.369   8.322 -0.7661 -1.1438 -0.5970
 9107SOL     OW38779   4.518   4.650  13.187  0.0186  0.2653  0.2920
 9107SOL    HW138780   4.590   4.589  13.171  0.5781  1.0735 -0.2532
 9107SOL    HW238781   4.507   4.679  13.096 -0.6707 -0.9382 -0.0173
 9108SOL     OW38782   2.367   0.493   4.215  0.6558 -0.3307  0.1256
 9108SOL    HW138783   2.425   0.549   4.164 -2.1260  2.3423 -0.0960
 9108SOL    HW238784   2.423   0.416   4.228  1.3589 -0.1298 -1.6601
 9109SOL     OW38785   4.024   1.732   2.783  0.1777  0.3574  0.4768
 9109SOL    HW138786   3.977   1.681   2.849 -1.6523  0.7581 -0.5399
 9109SOL    HW238787   4.000   1.693   2.699  1.7144  1.4546 -0.4749
 9110SOL     OW38788   0.902   0.914  10.915 -0.3988 -0.3332  0.4849
 9110SOL    HW138789   0.959   0.838  10.929 -0.8368 -0.7485 -0.0032
 9110SOL    HW238790   0.821   0.877  10.952 -0.7057  0.7267  0.8611
 9111SOL     OW38791   0.967   4.279   8.041 -0.0748 -0.1493  0.2603
 9111SOL    HW138792   0.926   4.359   8.009  0.0900  0.1416  0.7713
 9111SOL    HW238793   1.025   4.316   8.108  1.2902  0.8976 -1.5102
 9112SOL     OW38794   3.671   3.845   7.416 -0.2886  0.0378  0.5691
 9112SOL    HW138795   3.708   3.760   7.395  0.8015  0.9049 -0.9947
 9112SOL    HW238796   3.751   3.894   7.394 -0.3559 -0.3308 -0.4851
 9113SOL     OW38797   4.532   2.411   6.786 -0.3010  0.7157  0.2245
 9113SOL    HW138798   4.622   2.400   6.815 -1.3263 -0.9334  2.7061
 9113SOL    HW238799   4.514   2.344   6.720  2.7082 -0.3634  0.5260
 9114SOL     OW38800   0.464   3.996   5.920 -0.4162  0.1511 -0.5975
 9114SOL    HW138801   0.404   3.925   5.942  1.8189 -1.1197  1.4010
 9114SOL    HW238802   0.498   4.031   6.002  1.6277  1.1756 -1.8838
 9115SOL     OW38803   2.011   1.879   3.490 -0.1474  0.0998 -0.7723
 9115SOL    HW138804   1.992   1.790   3.459  0.1446 -0.5736  0.9873
 9115SOL    HW238805   1.924   1.919   3.481  0.4992  1.3818 -1.2364
 9116SOL     OW38806   2.052   1.183   0.861 -0.0921  0.3323  0.2750
 9116SOL    HW138807   2.114   1.213   0.794  0.4162  0.7559  0.9339
 9116SOL    HW238808   1.970   1.220   0.828 -0.5137 -0.7639  0.0736
 9117SOL     OW38809   1.819   1.799   4.428  0.0434 -0.2909  0.0949
 9117SOL    HW138810   1.767   1.719   4.442  0.1321 -0.3051  0.3525
 9117SOL    HW238811   1.873   1.811   4.506 -0.2203 -0.0978  0.2487
 9118SOL     OW38812   1.750   3.238   1.502  0.1552 -0.4007 -0.2373
 9118SOL    HW138813   1.683   3.191   1.552 -1.7360  0.3515 -2.0724
 9118SOL    HW238814   1.692   3.292   1.448  0.0246 -1.4296 -1.1125
 9119SOL     OW38815   3.013   3.137  12.269 -0.0853 -0.0919  0.5281
 9119SOL    HW138816   2.931   3.180  12.244 -0.6082 -2.0156 -1.0747
 9119SOL    HW238817   3.005   3.051  12.227 -1.1165  0.0913  0.3451
 9120SOL     OW38818   4.312   0.484   8.321  0.3640  0.7371  0.3768
 9120SOL    HW138819   4.222   0.487   8.290  0.4864  0.3488 -0.0078
 9120SOL    HW238820   4.360   0.560   8.287 -0.9183  2.2990  2.0507
 9121SOL     OW38821   0.353   1.647  12.395  0.4434 -0.0362  0.1182
 9121SOL    HW138822   0.334   1.573  12.338 -1.3293 -0.4204  1.2292
 9121SOL    HW238823   0.448   1.657  12.394  0.3856  0.5437  0.0530
 9122SOL     OW38824   3.790   0.279   9.032  0.3190 -0.2016 -0.1802
 9122SOL    HW138825   3.838   0.206   8.993 -0.5044 -0.3873 -0.8258
 9122SOL    HW238826   3.843   0.356   9.010 -0.0754 -0.1239 -0.8294
 9123SOL     OW38827   4.466   0.546   4.516  1.0474 -0.3863 -0.0598
 9123SOL    HW138828   4.509   0.558   4.600 -2.9466  1.2964  1.7623
 9123SOL    HW238829   4.389   0.603   4.523  2.1894  1.1152  0.2615
 9124SOL     OW38830   3.049   0.623  11.029 -0.6834 -0.2090 -0.2420
 9124SOL    HW138831   3.100   0.595  11.105 -0.6676 -1.0656 -0.5653
 9124SOL    HW238832   3.126   0.649  10.980 -1.0726 -0.0690 -0.7802
 9125SOL     OW38833   0.868   0.162   6.752 -0.2206 -0.2276  0.1934
 9125SOL    HW138834   0.884   0.098   6.822 -2.9289  0.6632  1.6303
 9125SOL    HW238835   0.950   0.211   6.763  0.4920 -1.3275 -0.2192
 9126SOL     OW38836   2.711   1.924  11.310  0.1517 -0.0089  0.6267
 9126SOL    HW138837   2.617   1.906  11.302 -0.2155  1.0522  2.4815
 9126SOL    HW238838   2.736   1.880  11.229 -0.7833 -1.3083  1.0366
 9127SOL     OW38839   0.269   3.778   8.198 -0.2641 -0.2029  0.0635
 9127SOL    HW138840   0.191   3.802   8.149 -0.8515  1.8192  2.0164
 9127SOL    HW238841   0.338   3.813   8.140 -0.6825 -0.2454 -0.4621
 9128SOL     OW38842   0.601   3.314   5.961  0.7446  0.1823  0.1434
 9128SOL    HW138843   0.655   3.243   5.925  1.3303  0.3066  0.7712
 9128SOL    HW238844   0.636   3.310   6.050 -0.3118  0.3771  0.5685
 9129SOL     OW38845   2.077   3.280   4.916  0.4513 -0.2674  0.4868
 9129SOL    HW138846   2.086   3.373   4.935  0.0343  0.0937 -1.0580
 9129SOL    HW238847   2.086   3.273   4.821 -1.3757  0.5849  0.2603
 9130SOL     OW38848   1.220   3.399   0.196  0.4456 -0.0280 -0.1283
 9130SOL    HW138849   1.211   3.490   0.222 -0.6722  0.2630 -1.5111
 9130SOL    HW238850   1.303   3.378   0.240  0.4429  1.1214  0.4076
 9131SOL     OW38851   2.956   4.382  12.181 -0.4237  0.3282 -0.0999
 9131SOL    HW138852   3.032   4.364  12.126  0.4785  2.2590  0.5324
 9131SOL    HW238853   2.888   4.381  12.113 -1.9152  2.0396  1.3649
 9132SOL     OW38854   4.629   3.552   5.961 -0.1429  0.0491 -0.0052
 9132SOL    HW138855   4.667   3.498   5.891 -0.1936 -1.3696  1.0527
 9132SOL    HW238856   4.679   3.518   6.036 -1.4300 -1.1116  0.3349
 9133SOL     OW38857   3.700   1.463   4.767 -0.1533 -0.0723 -0.0108
 9133SOL    HW138858   3.714   1.369   4.781 -1.4014  0.0259  1.8355
 9133SOL    HW238859   3.755   1.478   4.690  0.1424  0.7779  0.3637
 9134SOL     OW38860   2.524   2.583   9.051  0.4315  0.1412 -0.4583
 9134SOL    HW138861   2.501   2.628   9.132 -1.4333 -0.5555 -0.5999
 9134SOL    HW238862   2.516   2.490   9.071  0.9178  0.1609 -0.1708
 9135SOL     OW38863   3.890   0.591  17.515  0.2137 -0.4705 -0.1919
 9135SOL    HW138864   3.845   0.673  17.494 -1.7779 -1.2486  1.0692
 9135SOL    HW238865   3.943   0.589  17.435 -0.0671  0.2447 -0.3951
 9136SOL     OW38866   1.229   4.621   4.556 -0.3279  0.3837 -0.1864
 9136SOL    HW138867   1.180   4.547   4.520 -1.9700  0.0825  2.6296
 9136SOL    HW238868   1.268   4.586   4.637  0.4192 -0.6024 -0.9762
 9137SOL     OW38869   1.824   2.390  14.515 -0.0175 -0.0452 -0.5692
 9137SOL    HW138870   1.838   2.483  14.497  2.0243 -0.0298  1.0648
 9137SOL    HW238871   1.899   2.356  14.467 -0.2608 -1.1497 -0.1722
 9138SOL     OW38872   1.435   0.365  13.400 -0.1663  0.1114 -0.5323
 9138SOL    HW138873   1.505   0.312  13.362 -0.2478  1.1514 -2.1251
 9138SOL    HW238874   1.385   0.297  13.445 -1.3462  0.2953 -1.5633
 9139SOL     OW38875   0.750   3.168   6.354 -0.4224  0.4093 -0.0790
 9139SOL    HW138876   0.846   3.173   6.348 -0.4008 -0.0642 -0.1062
 9139SOL    HW238877   0.736   3.077   6.330 -0.1526 -0.4443  3.0182
 9140SOL     OW38878   3.362   1.895   3.460  0.5729  0.9013 -0.3434
 9140SOL    HW138879   3.339   1.900   3.367  0.7386 -0.7346 -0.4751
 9140SOL    HW238880   3.436   1.837   3.443 -1.7284 -1.8246 -1.0627
 9141SOL     OW38881   2.253   4.150   4.099  0.0753 -0.8264 -0.4585
 9141SOL    HW138882   2.223   4.139   4.189 -1.7718  0.2734 -0.9500
 9141SOL    HW238883   2.173   4.174   4.052  0.5375  2.2092  0.3064
 9142SOL     OW38884   3.523   1.202  14.869  0.0198 -0.8532  0.3461
 9142SOL    HW138885   3.454   1.244  14.818  0.1021  0.9269  1.7021
 9142SOL    HW238886   3.466   1.142  14.916 -1.6376 -0.9002 -1.7009
 9143SOL     OW38887   4.542   4.048   6.260 -0.6067 -0.2185  0.3620
 9143SOL    HW138888   4.567   3.956   6.260 -0.2472 -0.1257 -0.2747
 9143SOL    HW238889   4.619   4.096   6.230 -1.5179  1.0490  0.0251
 9144SOL     OW38890   1.715   0.401  16.308 -0.3188 -0.4408 -0.0462
 9144SOL    HW138891   1.733   0.494  16.319  0.9678 -0.6025 -0.8312
 9144SOL    HW238892   1.740   0.375  16.396 -1.5685 -1.2885  0.0548
 9145SOL     OW38893   4.350   3.704   5.149  0.0961 -0.1122  0.1203
 9145SOL    HW138894   4.400   3.704   5.068  0.7682  0.6202  0.5315
 9145SOL    HW238895   4.291   3.779   5.144 -0.2127 -0.4272 -0.9804
 9146SOL     OW38896   0.890   2.335   2.774  0.1652 -0.0043 -0.1457
 9146SOL    HW138897   0.918   2.325   2.865 -0.4828  1.1341  0.1809
 9146SOL    HW238898   0.972   2.329   2.727 -0.9078  1.3072 -2.1576
 9147SOL     OW38899   4.139   3.225   7.735 -0.2250  0.0994  0.3919
 9147SOL    HW138900   4.056   3.207   7.690 -0.9736 -0.9607  2.2018
 9147SOL    HW238901   4.194   3.269   7.669 -1.7367  1.2465 -0.0917
 9148SOL     OW38902   0.980   1.122   8.945 -0.2450  0.2774 -0.1198
 9148SOL    HW138903   0.957   1.193   8.886 -0.1596  0.2290 -0.2097
 9148SOL    HW238904   0.891   1.092   8.964  0.2041 -1.6392 -1.0376
 9149SOL     OW38905   2.392   3.718  12.024 -0.1395  0.3640  0.1823
 9149SOL    HW138906   2.408   3.746  12.114 -0.5811  1.6229 -0.1335
 9149SOL    HW238907   2.448   3.642  12.012 -1.6700 -0.6224 -0.8604
 9150SOL     OW38908   4.548   4.072  10.925  0.2755  0.3261 -1.1655
 9150SOL    HW138909   4.539   4.161  10.959 -1.0084 -0.5371  0.7062
 9150SOL    HW238910   4.621   4.036  10.976 -1.8460 -0.0286  1.6082
 9151SOL     OW38911   3.426   3.279   7.904 -0.4177  0.1129 -0.3275
 9151SOL    HW138912   3.394   3.370   7.901 -1.0507 -0.0643  0.9636
 9151SOL    HW238913   3.353   3.229   7.868 -0.0978 -0.6830  0.1395
 9152SOL     OW38914   3.941   3.219   1.383 -0.0085 -0.3818  0.7967
 9152SOL    HW138915   3.939   3.302   1.431  0.2921  0.1471 -0.1082
 9152SOL    HW238916   4.022   3.209   1.333 -0.6165 -2.3739  0.1931
 9153SOL     OW38917   2.620   2.624   4.673  0.2333  0.1990 -0.2272
 9153SOL    HW138918   2.681   2.690   4.706 -1.2309  0.3605  2.1586
 9153SOL    HW238919   2.541   2.677   4.665  1.1415  1.4454 -0.9684
 9154SOL     OW38920   0.180   2.858  16.782 -0.2093  0.2456  0.0659
 9154SOL    HW138921   0.269   2.827  16.800 -0.2846 -1.0541 -1.8675
 9154SOL    HW238922   0.150   2.794  16.718  1.6460 -0.7018  0.1561
 9155SOL     OW38923   3.486   1.769   0.409 -0.0069  0.0546  0.4628
 9155SOL    HW138924   3.415   1.771   0.473  1.5666 -1.0731  2.2442
 9155SOL    HW238925   3.483   1.679   0.375  3.3400 -0.7328  2.3079
 9156SOL     OW38926   0.207   3.006   7.318  0.1177 -0.4613  0.3666
 9156SOL    HW138927   0.153   3.042   7.388 -0.4350 -0.2369 -0.1832
 9156SOL    HW238928   0.293   2.990   7.358  0.5223 -0.1290 -0.3709
 9157SOL     OW38929   1.666   0.709   3.126 -0.0036  0.1778  0.0275
 9157SOL    HW138930   1.588   0.676   3.172 -0.4803  0.5790 -0.4994
 9157SOL    HW238931   1.643   0.801   3.115  0.4639  0.1575 -1.0769
 9158SOL     OW38932   2.032   0.942  16.069 -0.7096  0.5573  0.3549
 9158SOL    HW138933   2.042   0.854  16.105  0.4792  0.1541 -0.9952
 9158SOL    HW238934   2.007   0.932  15.978  1.4500 -1.2905 -0.0347
 9159SOL     OW38935   4.626   0.301   5.346 -0.3097  0.2734 -0.2608
 9159SOL    HW138936   4.690   0.333   5.409  0.0853  1.8839 -1.4928
 9159SOL    HW238937   4.657   0.341   5.264  0.0227  1.0854  0.2687
 9160SOL     OW38938   4.148   2.113   2.481  0.0607 -0.1554 -0.1455
 9160SOL    HW138939   4.184   2.079   2.563  1.6928  0.7630 -0.4795
 9160SOL    HW238940   4.210   2.072   2.420 -0.5843 -0.4912 -0.5725
 9161SOL     OW38941   2.077   4.499  10.643 -0.0582 -0.1412 -0.1322
 9161SOL    HW138942   2.157   4.469  10.601 -0.4320  0.6563 -1.4272
 9161SOL    HW238943   2.108   4.562  10.708  1.5298  1.9547 -2.8793
 9162SOL     OW38944   3.413   0.991   0.725 -0.2211  0.5515 -0.0045
 9162SOL    HW138945   3.337   1.042   0.753 -0.6286  0.5651 -1.1586
 9162SOL    HW238946   3.445   0.961   0.810  0.2145 -1.4521 -0.8743
 9163SOL     OW38947   2.938   3.643   2.913  0.5287 -0.0484  0.3858
 9163SOL    HW138948   2.862   3.652   2.856  2.3647 -0.1855 -2.0662
 9163SOL    HW238949   2.903   3.662   3.000  4.6104  1.3067  1.7402
 9164SOL     OW38950   0.136   0.583   4.578 -0.2228 -0.1714  0.0955
 9164SOL    HW138951   0.108   0.495   4.555 -0.0247  0.0768 -1.1337
 9164SOL    HW238952   0.084   0.641   4.522 -1.8421 -0.4623  1.3103
 9165SOL     OW38953   2.925   0.847   1.195  0.0036  0.3782 -0.0130
 9165SOL    HW138954   2.842   0.868   1.237 -0.6534  1.6948 -1.9772
 9165SOL    HW238955   2.887   0.826   1.110  1.4598  1.9854 -1.0731
 9166SOL     OW38956   2.423   1.205   3.800 -0.1558 -0.6387  0.2442
 9166SOL    HW138957   2.494   1.175   3.743  0.4876 -0.2269  0.8182
 9166SOL    HW238958   2.363   1.245   3.737  0.6600  0.7432  0.3309
 9167SOL     OW38959   0.767   0.709   8.163  0.1858 -0.5102 -0.0078
 9167SOL    HW138960   0.710   0.733   8.090  1.4324 -4.5886 -2.2851
 9167SOL    HW238961   0.708   0.651   8.209 -0.6770  1.4435  1.3763
 9168SOL     OW38962   3.646   4.484   6.965 -0.5301  0.4394  0.5514
 9168SOL    HW138963   3.723   4.465   6.912 -0.4841  1.1323  0.3631
 9168SOL    HW238964   3.575   4.470   6.902 -0.7611  1.5475  0.5640
 9169SOL     OW38965   3.308   2.879  17.075 -0.3640 -0.0546  0.3938
 9169SOL    HW138966   3.277   2.804  17.125 -0.6520  0.1662  0.5483
 9169SOL    HW238967   3.327   2.940  17.147 -0.0029  1.2404 -0.7994
 9170SOL     OW38968   1.437   0.149  10.756  0.7660  0.1127  0.3442
 9170SOL    HW138969   1.453   0.055  10.746 -0.1129  0.1282 -1.2399
 9170SOL    HW238970   1.511   0.181  10.704 -0.4440 -1.2523 -2.2312
 9171SOL     OW38971   1.882   1.930   6.284 -0.6416 -0.1133  0.1527
 9171SOL    HW138972   1.843   1.848   6.253  1.0847 -0.2345 -1.7480
 9171SOL    HW238973   1.829   1.947   6.361 -1.3359  0.1561 -0.3831
 9172SOL     OW38974   3.194   4.314   7.025  0.3696  0.2414  0.2950
 9172SOL    HW138975   3.244   4.233   7.016 -0.2429 -0.0299 -0.7046
 9172SOL    HW238976   3.107   4.281   7.004  0.4796  0.0269  0.1799
 9173SOL     OW38977   3.495   4.614   6.374  0.9867 -0.0241 -0.2685
 9173SOL    HW138978   3.518   4.695   6.418 -2.0227  0.0340  1.2425
 9173SOL    HW238979   3.578   4.586   6.336  1.6255 -1.0004  1.8427
 9174SOL     OW38980   2.371   1.723   6.803 -0.2123 -0.3233  0.0673
 9174SOL    HW138981   2.353   1.768   6.720 -1.2950 -1.2134 -0.1782
 9174SOL    HW238982   2.457   1.755   6.829 -0.7474  0.6811  0.5736
 9175SOL     OW38983   1.232   2.755  11.738 -0.1798 -0.0451 -0.7537
 9175SOL    HW138984   1.184   2.687  11.785 -1.3288  1.4262  0.2073
 9175SOL    HW238985   1.233   2.707  11.656  1.4738  1.1466 -1.4203
 9176SOL     OW38986   2.800   2.164  12.282 -0.0980 -0.1053  0.0896
 9176SOL    HW138987   2.876   2.195  12.233  0.1860  0.5336  0.9293
 9176SOL    HW238988   2.750   2.116  12.216 -0.9520  1.1188 -0.1684
 9177SOL     OW38989   2.235   0.989   5.524 -0.2708  0.0675  0.4898
 9177SOL    HW138990   2.293   0.915   5.508  0.3634  0.5160  0.6845
 9177SOL    HW238991   2.161   0.946   5.568 -0.2758  2.6070  3.0097
 9178SOL     OW38992   0.288   3.475  12.739  0.0036 -0.0091 -0.2204
 9178SOL    HW138993   0.367   3.455  12.788  0.4782 -0.5688 -1.2072
 9178SOL    HW238994   0.274   3.564  12.773  1.0408 -0.2565  0.8163
 9179SOL     OW38995   4.566   0.463   1.771  0.3814 -0.0414  0.2112
 9179SOL    HW138996   4.579   0.409   1.694  0.5357 -1.4666  1.2289
 9179SOL    HW238997   4.601   0.407   1.841  0.4076 -2.4558 -1.7196
 9180SOL     OW38998   0.239   3.633   2.321  0.0330  0.5070 -0.1745
 9180SOL    HW138999   0.237   3.685   2.402 -0.0487  1.2584 -0.6632
 9180SOL    HW239000   0.185   3.559   2.346  1.7525 -0.5295  0.5184
 9181SOL     OW39001   4.676   0.928   7.360  0.3173 -0.3052  0.1495
 9181SOL    HW139002   4.672   0.980   7.440  0.5592 -0.8033  0.4848
 9181SOL    HW239003   4.586   0.896   7.353  0.4919 -0.5716 -0.9399
 9182SOL     OW39004   0.980   1.213   1.928 -0.1302  0.0633 -0.2115
 9182SOL    HW139005   0.913   1.255   1.983  0.6876  0.0189  0.8139
 9182SOL    HW239006   0.935   1.135   1.897  0.4053 -0.0577 -0.6644
 9183SOL     OW39007   1.712   1.515   3.509 -0.2477  0.0117  0.4416
 9183SOL    HW139008   1.722   1.557   3.594 -0.5487  0.6408  0.1714
 9183SOL    HW239009   1.804   1.501   3.484 -0.7857 -1.8850 -0.4648
 9184SOL     OW39010   1.286   0.982   8.264  0.0105 -0.4223  0.1507
 9184SOL    HW139011   1.269   1.070   8.230  0.0698  0.0777  1.4339
 9184SOL    HW239012   1.243   0.984   8.349 -0.8783  0.0914 -0.3079
 9185SOL     OW39013   2.271   1.892   8.220 -0.4184 -0.0235 -0.3661
 9185SOL    HW139014   2.329   1.948   8.168  2.4400 -0.9507  1.8531
 9185SOL    HW239015   2.274   1.813   8.167  0.9479 -0.1346 -0.1325
 9186SOL     OW39016   2.737   1.458   8.646 -0.5281 -0.2294  0.0902
 9186SOL    HW139017   2.790   1.536   8.631 -1.5881  0.6985  1.1325
 9186SOL    HW239018   2.649   1.496   8.644 -0.6711 -0.4538  1.7697
 9187SOL     OW39019   0.769   2.638  14.538 -0.1907  0.5770 -0.3723
 9187SOL    HW139020   0.729   2.573  14.480 -0.8837 -0.2684  1.0594
 9187SOL    HW239021   0.816   2.589  14.606 -3.0639 -0.8162  0.5938
 9188SOL     OW39022   2.508   0.189  11.425  0.4720  0.0244  0.2814
 9188SOL    HW139023   2.512   0.271  11.375  0.4191 -1.0842 -1.5075
 9188SOL    HW239024   2.598   0.175  11.454  0.6050 -0.6686 -0.4582
 9189SOL     OW39025   4.433   1.781   7.851 -0.1177  0.0320  0.3413
 9189SOL    HW139026   4.438   1.874   7.829 -1.8559  0.1917  0.5940
 9189SOL    HW239027   4.459   1.784   7.943  0.6500  0.1597  0.1151
 9190SOL     OW39028   0.428   4.420   3.852  0.0545  0.2676  0.4828
 9190SOL    HW139029   0.443   4.443   3.944  0.9444  0.5291  0.2769
 9190SOL    HW239030   0.375   4.341   3.860  0.1342  0.4383  2.7547
 9191SOL     OW39031   0.961   4.066  14.661  0.3400 -0.4306 -0.2810
 9191SOL    HW139032   1.005   4.129  14.717 -0.0565 -0.9648  0.6298
 9191SOL    HW239033   0.926   4.123  14.592  1.0629  0.9301  0.4864
 9192SOL     OW39034   0.358   3.803   8.483  0.3628 -0.1537 -0.0905
 9192SOL    HW139035   0.450   3.784   8.497  0.3798 -0.6603 -0.9001
 9192SOL    HW239036   0.339   3.801   8.390 -0.5825  0.8017  0.0772
 9193SOL     OW39037   0.814   2.557  10.885 -0.0150 -0.9395  0.3467
 9193SOL    HW139038   0.797   2.632  10.942 -1.1195 -1.9818  1.3972
 9193SOL    HW239039   0.736   2.556  10.831 -0.8447  1.2658  1.4809
 9194SOL     OW39040   4.555   2.232  16.447 -0.0930  0.2376 -0.3675
 9194SOL    HW139041   4.476   2.194  16.485 -0.2881  1.3037  0.2683
 9194SOL    HW239042   4.559   2.194  16.359 -0.1111  2.4058 -1.3036
 9195SOL     OW39043   3.306   2.660   2.317 -0.5315  0.4859 -0.6476
 9195SOL    HW139044   3.263   2.576   2.300 -1.2150  0.5171  0.9342
 9195SOL    HW239045   3.245   2.720   2.272 -1.2289 -0.0515 -0.4168
 9196SOL     OW39046   1.771   1.281   4.198 -0.2681  0.6157 -0.2859
 9196SOL    HW139047   1.720   1.285   4.279 -2.2445  0.6485 -1.5249
 9196SOL    HW239048   1.859   1.253   4.224 -0.3330  0.2281 -0.4888
 9197SOL     OW39049   2.402   4.383   5.904  0.0370 -0.3235  0.0125
 9197SOL    HW139050   2.426   4.379   5.996 -0.9688 -0.2207  0.2782
 9197SOL    HW239051   2.479   4.348   5.859  1.1533  3.5624 -1.1642
 9198SOL     OW39052   2.772   3.459   8.000  0.2226  0.3650 -1.0167
 9198SOL    HW139053   2.804   3.449   8.090 -1.0057  0.1701 -0.6088
 9198SOL    HW239054   2.858   3.477   7.961  1.2630  2.1297  2.1083
 9199SOL     OW39055   1.504   4.515   7.884  0.0256  0.3053  0.3361
 9199SOL    HW139056   1.429   4.464   7.852 -0.4055  1.0981  0.0880
 9199SOL    HW239057   1.550   4.531   7.801 -0.2108  2.5873  0.6359
 9200SOL     OW39058   0.471   3.633   4.307 -0.2694  0.0368  0.2676
 9200SOL    HW139059   0.402   3.626   4.241 -0.2976  3.9237 -0.1261
 9200SOL    HW239060   0.430   3.599   4.386  1.4720 -2.4650  0.0940
 9201SOL     OW39061   3.139   2.968  11.674 -0.0875 -0.0897  0.9291
 9201SOL    HW139062   3.102   2.920  11.600  0.3303  0.0997  0.5982
 9201SOL    HW239063   3.172   3.047  11.631  2.5887 -1.1649  1.0182
 9202SOL     OW39064   4.140   4.326   5.883  0.2626 -0.7677 -0.2037
 9202SOL    HW139065   4.100   4.348   5.799  0.5523  1.5417  0.2460
 9202SOL    HW239066   4.232   4.308   5.865  0.7587  1.2986  0.2153
 9203SOL     OW39067   4.215   3.942   6.025  0.0209 -0.6918  0.4731
 9203SOL    HW139068   4.163   3.868   5.994 -1.0132  0.4032 -0.4075
 9203SOL    HW239069   4.148   4.009   6.038  0.3955  0.0753 -1.5933
 9204SOL     OW39070   4.499   2.905  15.016 -0.2628  0.6543 -0.1813
 9204SOL    HW139071   4.583   2.952  15.015  0.3488 -0.4959 -1.8556
 9204SOL    HW239072   4.480   2.905  15.110  3.2508 -1.5537  0.5121
 9205SOL     OW39073   1.137   3.932  15.434  0.3536  0.0257  0.5021
 9205SOL    HW139074   1.147   3.845  15.471  0.5090  0.1178  0.6785
 9205SOL    HW239075   1.045   3.953  15.452  0.4601  1.7375 -0.8762
 9206SOL     OW39076   2.228   1.776  12.396  0.3950 -0.3255  0.1955
 9206SOL    HW139077   2.165   1.798  12.465  1.3053  0.6126  0.7288
 9206SOL    HW239078   2.296   1.736  12.451  0.2281  1.5338  1.7307
 9207SOL     OW39079   2.683   2.549   4.402  0.1175  0.0604  0.2843
 9207SOL    HW139080   2.653   2.585   4.486 -0.6183  0.8307 -0.3104
 9207SOL    HW239081   2.698   2.457   4.421  4.6492  0.7494  0.1057
 9208SOL     OW39082   2.942   0.176   6.975 -0.1103  0.0647 -0.4839
 9208SOL    HW139083   2.915   0.085   6.975  0.7206 -0.1784 -1.7165
 9208SOL    HW239084   2.951   0.184   7.070 -2.0159  0.9682 -0.3610
 9209SOL     OW39085   4.416   4.110   6.914 -0.2617 -0.4459  0.3623
 9209SOL    HW139086   4.464   4.089   6.834 -0.4686 -0.3523  0.2140
 9209SOL    HW239087   4.475   4.179   6.945  0.5479 -0.2918 -1.4998
 9210SOL     OW39088   3.248   1.583   8.658  0.0450 -0.3759  0.0240
 9210SOL    HW139089   3.210   1.589   8.571 -0.6391 -1.7512  0.2192
 9210SOL    HW239090   3.171   1.594   8.714  0.7100  1.4113  0.5944
 9211SOL     OW39091   4.513   2.417   4.056 -0.2907  0.8011 -0.8772
 9211SOL    HW139092   4.561   2.478   4.110  3.1674 -2.1576 -0.6293
 9211SOL    HW239093   4.510   2.468   3.975 -0.6226 -1.7047 -2.4715
 9212SOL     OW39094   0.755   1.144   4.884 -0.1912 -0.3848  0.1183
 9212SOL    HW139095   0.815   1.155   4.957 -1.2608  1.5070  0.6920
 9212SOL    HW239096   0.774   1.056   4.849 -0.0210 -0.1218 -0.4636
 9213SOL     OW39097   0.698   4.155  12.160  0.4717 -0.1130 -0.1667
 9213SOL    HW139098   0.647   4.077  12.140  0.9580 -0.3176 -0.6126
 9213SOL    HW239099   0.665   4.212  12.091  1.1372  1.5448  0.8580
 9214SOL     OW39100   0.191   1.709   8.888  0.2746 -0.2915  0.6575
 9214SOL    HW139101   0.254   1.658   8.838 -0.8270  0.8759 -1.9323
 9214SOL    HW239102   0.142   1.743   8.813  0.1373  2.0731  1.8142
 9215SOL     OW39103   1.737   3.980   9.349 -0.0013  0.2958 -0.0699
 9215SOL    HW139104   1.830   3.980   9.326  0.0990 -0.2321  0.3258
 9215SOL    HW239105   1.698   3.961   9.264 -1.2856 -2.9931  1.2411
 9216SOL     OW39106   2.797   1.228   6.655 -0.3026 -0.2102 -0.1012
 9216SOL    HW139107   2.893   1.232   6.656 -0.2578 -1.1251 -0.2397
 9216SOL    HW239108   2.770   1.320   6.652 -1.7916 -0.6059  1.0723
 9217SOL     OW39109   3.649   0.241   8.021  0.4285  0.4527  0.3719
 9217SOL    HW139110   3.676   0.208   7.936  1.1424 -0.3215  0.9076
 9217SOL    HW239111   3.654   0.336   8.007 -0.6148  0.1402 -2.1539
 9218SOL     OW39112   3.557   3.798  17.625 -0.5022 -0.6289 -0.3372
 9218SOL    HW139113   3.653   3.802  17.635 -0.8884  2.9175  1.8374
 9218SOL    HW239114   3.533   3.707  17.644  1.5950 -1.3121 -0.9041
 9219SOL     OW39115   2.860   2.142   5.260  0.4069 -0.2205  0.4941
 9219SOL    HW139116   2.816   2.224   5.284  0.5528  0.4871 -1.6936
 9219SOL    HW239117   2.800   2.120   5.189  1.3853 -1.9005  0.2034
 9220SOL     OW39118   2.100   2.268   5.537 -0.4040 -0.3792  0.3769
 9220SOL    HW139119   2.062   2.201   5.595  0.1726  0.4934  1.7790
 9220SOL    HW239120   2.171   2.310   5.585 -0.0619  0.1406 -0.5918
 9221SOL     OW39121   3.616   3.042   1.575  0.4678 -0.2007 -0.0895
 9221SOL    HW139122   3.648   3.099   1.505 -1.3209  2.2924  1.1045
 9221SOL    HW239123   3.553   2.996   1.519 -1.7476  1.5917  0.9189
 9222SOL     OW39124   4.017   0.119  10.310  0.0182  0.8510 -0.4737
 9222SOL    HW139125   4.085   0.062  10.275 -0.2152  1.0382 -1.2361
 9222SOL    HW239126   4.056   0.205  10.291 -1.4864  1.4711 -0.7926
 9223SOL     OW39127   0.124   0.235   6.838  0.4904 -0.4826  0.2736
 9223SOL    HW139128   0.036   0.199   6.833  0.2086  0.3046 -0.4979
 9223SOL    HW239129   0.172   0.160   6.874  1.6519  0.7341  1.2767
 9224SOL     OW39130   3.786   2.221  10.369  0.1707 -0.4551 -0.2069
 9224SOL    HW139131   3.691   2.229  10.356  0.3956  0.1871 -1.4644
 9224SOL    HW239132   3.799   2.271  10.449  0.5048 -2.3673  0.9301
 9225SOL     OW39133   2.983   0.560   6.316 -0.1068  0.2508 -0.3486
 9225SOL    HW139134   2.900   0.518   6.340 -0.1788  1.2241  1.1045
 9225SOL    HW239135   3.047   0.498   6.350 -1.9548 -1.7125 -0.4482
 9226SOL     OW39136   1.510   0.113  15.013 -0.4901  0.0914 -0.4206
 9226SOL    HW139137   1.548   0.201  15.011  1.3317 -0.7113 -0.5732
 9226SOL    HW239138   1.498   0.110  14.918 -0.0026  0.2777 -0.4883
 9227SOL     OW39139   0.685   4.309   4.040  0.4938 -0.0281 -0.7140
 9227SOL    HW139140   0.647   4.331   3.955 -1.0041 -0.2164 -0.0894
 9227SOL    HW239141   0.608   4.346   4.082  1.2544  0.2787  0.4036
 9228SOL     OW39142   2.860   0.195  11.107  0.3978 -0.1504  0.1092
 9228SOL    HW139143   2.862   0.112  11.154 -2.0471 -0.7452 -0.8245
 9228SOL    HW239144   2.922   0.191  11.035  1.5095 -0.4320  1.0894
 9229SOL     OW39145   0.219   2.093   3.352  0.3532  0.7824 -0.0424
 9229SOL    HW139146   0.235   2.175   3.398  2.1391  0.0547  0.6537
 9229SOL    HW239147   0.298   2.044   3.375 -0.1998 -0.2794 -0.4055
 9230SOL     OW39148   2.591   3.260  13.475  0.5775 -0.0483 -0.1572
 9230SOL    HW139149   2.649   3.228  13.544 -0.9117 -1.9959  0.2031
 9230SOL    HW239150   2.516   3.278  13.531  0.8102 -3.4447  1.2296
 9231SOL     OW39151   4.653   0.181   4.123  0.0767 -0.1099 -0.3238
 9231SOL    HW139152   4.647   0.110   4.187  1.4342  0.3716  0.3328
 9231SOL    HW239153   4.605   0.149   4.046  1.4289  3.0009 -2.4472
 9232SOL     OW39154   2.770   0.305  14.485 -0.0904  0.4973  0.4641
 9232SOL    HW139155   2.836   0.372  14.469  1.0030 -0.9878 -1.3998
 9232SOL    HW239156   2.700   0.332  14.426  2.1600  0.5221 -2.2117
 9233SOL     OW39157   2.843   4.715  11.972  0.0414 -0.1492  0.8885
 9233SOL    HW139158   2.843   4.620  11.961 -1.6210  0.0450 -0.5852
 9233SOL    HW239159   2.938   0.004  11.979  0.2895 -0.6999 -1.9513
 9234SOL     OW39160   1.392   0.897   6.567 -0.1341  1.1109 -0.1017
 9234SOL    HW139161   1.451   0.861   6.634 -0.8696  0.7884  0.3744
 9234SOL    HW239162   1.367   0.980   6.608  3.0087  1.0750  1.9020
 9235SOL     OW39163   3.925   3.534   5.377  0.3068  0.0511 -0.0591
 9235SOL    HW139164   3.980   3.600   5.334  2.1051  1.1126  3.8759
 9235SOL    HW239165   3.985   3.492   5.438 -1.2384  0.6712  1.8776
 9236SOL     OW39166   1.987   2.627   3.127 -0.2523 -0.4576 -0.3713
 9236SOL    HW139167   1.985   2.683   3.049  2.2414 -0.3550 -0.3649
 9236SOL    HW239168   1.905   2.582   3.109  0.4642 -1.2566 -1.6447
 9237SOL     OW39169   3.098   4.602  12.354 -0.4326 -0.0516  0.4314
 9237SOL    HW139170   3.109   4.527  12.412  1.8244 -1.6528 -2.0337
 9237SOL    HW239171   3.006   4.597  12.330  0.0645  1.3054 -1.8361
 9238SOL     OW39172   3.225   1.334   8.147  0.5555  0.3617  0.3908
 9238SOL    HW139173   3.242   1.423   8.177  1.1166 -0.4222  2.3886
 9238SOL    HW239174   3.231   1.296   8.235  2.1332 -0.9097 -0.2748
 9239SOL     OW39175   3.014   2.444   6.341 -0.1870 -0.2564  0.0291
 9239SOL    HW139176   3.060   2.369   6.305  0.5210  1.0121 -1.6997
 9239SOL    HW239177   3.074   2.518   6.329 -1.9942  0.8752 -2.0712
 9240SOL     OW39178   2.748   3.819  15.648 -0.0029  0.1805  0.5959
 9240SOL    HW139179   2.743   3.911  15.673  0.9472  1.0317 -2.3552
 9240SOL    HW239180   2.762   3.791  15.739  1.1663 -0.4733  0.2155
 9241SOL     OW39181   0.771   3.849   2.810  0.7281  0.0953 -0.2137
 9241SOL    HW139182   0.807   3.775   2.760  1.1776  0.4796 -0.4667
 9241SOL    HW239183   0.680   3.836   2.837 -0.0715  0.5186 -2.7005
 9242SOL     OW39184   0.532   4.583   8.318  0.2661  0.2946 -0.2138
 9242SOL    HW139185   0.443   4.562   8.348  0.6281 -0.6669  0.1872
 9242SOL    HW239186   0.582   4.518   8.367 -1.8389 -0.6549  0.6966
 9243SOL     OW39187   2.584   4.358   2.972 -0.6703  0.3307  0.0621
 9243SOL    HW139188   2.531   4.423   3.018 -2.0205  1.9537 -3.7893
 9243SOL    HW239189   2.634   4.333   3.050  0.4845  2.2802 -0.0704
 9244SOL     OW39190   4.120   2.273   6.508 -0.0178  0.6332 -0.0222
 9244SOL    HW139191   4.107   2.235   6.421 -1.6246  0.7360  0.1864
 9244SOL    HW239192   4.028   2.260   6.531 -0.6381 -0.4950 -3.1015
 9245SOL     OW39193   3.633   4.598   3.781  0.1272 -0.0421  0.0870
 9245SOL    HW139194   3.647   4.652   3.859 -2.1499  0.4076  0.1988
 9245SOL    HW239195   3.606   4.519   3.829 -1.6537 -0.5958 -1.8307
 9246SOL     OW39196   2.372   1.164  11.577  0.5935  0.4111 -0.0108
 9246SOL    HW139197   2.350   1.253  11.604 -1.1394 -0.2874  0.8670
 9246SOL    HW239198   2.353   1.174  11.484 -0.2055  2.3675  0.3583
 9247SOL     OW39199   4.608   4.200   5.369 -0.5261  0.0627 -0.1177
 9247SOL    HW139200   4.598   4.225   5.460  1.3059 -0.0269  0.1235
 9247SOL    HW239201   4.521   4.164   5.351 -0.9123  0.5441  0.8281
 9248SOL     OW39202   0.106   0.577   8.689  0.0455  0.4758 -0.0690
 9248SOL    HW139203   0.187   0.602   8.645 -0.1486  1.5753  0.2133
 9248SOL    HW239204   0.128   0.588   8.782 -1.7711  0.5398  0.3576
 9249SOL     OW39205   3.533   3.118   6.075  0.2190 -0.4877 -0.1601
 9249SOL    HW139206   3.445   3.093   6.048 -0.2394 -1.0975  1.8461
 9249SOL    HW239207   3.581   3.103   5.994 -0.7821 -0.1931 -0.8164
 9250SOL     OW39208   0.859   1.818  15.344  0.4582  0.3967  0.2701
 9250SOL    HW139209   0.793   1.780  15.287  0.1234  2.0835 -0.4611
 9250SOL    HW239210   0.934   1.822  15.284  0.4143 -1.7820  0.0762
 9251SOL     OW39211   2.783   3.193  13.626  0.1644  0.2197  0.0960
 9251SOL    HW139212   2.789   3.185  13.721  0.2698  0.7736  0.1362
 9251SOL    HW239213   2.838   3.124  13.591 -2.4982 -2.1769  0.6864
 9252SOL     OW39214   3.038   3.517   7.946  0.1440  0.1092 -0.4881
 9252SOL    HW139215   3.082   3.495   7.863  1.7511 -1.7929  0.8513
 9252SOL    HW239216   3.071   3.605   7.961 -0.1057  0.0960  0.1353
 9253SOL     OW39217   2.123   0.908   4.383  0.2012  0.1193 -0.3689
 9253SOL    HW139218   2.186   0.923   4.453 -0.8705 -2.8036  1.2177
 9253SOL    HW239219   2.136   0.814   4.366 -1.2971  0.0704 -1.1892
 9254SOL     OW39220   3.412   0.178  16.755 -0.1146  0.0479 -0.1028
 9254SOL    HW139221   3.450   0.095  16.784 -1.0307 -0.0594  0.7508
 9254SOL    HW239222   3.396   0.163  16.662  1.0707 -2.4294  0.0808
 9255SOL     OW39223   3.205   1.791   0.829 -0.7452  0.1573 -0.2887
 9255SOL    HW139224   3.135   1.825   0.884  0.0524  0.4862  0.5257
 9255SOL    HW239225   3.242   1.873   0.795 -0.3376  0.0214 -0.1823
 9256SOL     OW39226   0.613   2.819   7.333 -0.1214 -0.1895  0.3510
 9256SOL    HW139227   0.683   2.854   7.278  0.9618 -1.1221  1.1357
 9256SOL    HW239228   0.666   2.779   7.402 -0.2970 -1.1439 -0.0659
 9257SOL     OW39229   1.772   0.157   9.278 -0.1897  0.2133  0.2718
 9257SOL    HW139230   1.710   0.085   9.269 -0.3381  0.2336  1.1281
 9257SOL    HW239231   1.799   0.150   9.369  2.5400 -0.8061 -0.6103
 9258SOL     OW39232   0.769   0.691  11.608  0.0057 -0.6095  0.1056
 9258SOL    HW139233   0.719   0.624  11.654  0.5127  0.4133  2.1143
 9258SOL    HW239234   0.700   0.753  11.585  2.2033  0.7885 -2.7756
 9259SOL     OW39235   0.691   0.512   5.469 -0.4813  0.0867 -0.1286
 9259SOL    HW139236   0.700   0.518   5.564  1.4791 -0.5500 -0.2796
 9259SOL    HW239237   0.781   0.504   5.437 -0.7944  3.6378 -1.8688
 9260SOL     OW39238   4.641   0.014   6.550 -0.1395 -0.1900  0.6751
 9260SOL    HW139239   4.600   0.088   6.594  0.5587 -0.1075  1.1910
 9260SOL    HW239240   0.010   0.035   6.576  0.5232 -0.0768 -1.6679
 9261SOL     OW39241   4.396   3.580   3.474  0.3451 -0.2549  0.4804
 9261SOL    HW139242   4.389   3.600   3.381 -0.1530  1.5062  0.8978
 9261SOL    HW239243   4.489   3.566   3.487  0.4069 -2.1694 -1.9599
 9262SOL     OW39244   0.848   2.612  14.817  0.3658 -0.2822 -0.4370
 9262SOL    HW139245   0.763   2.568  14.821 -0.2174  0.9480  0.5541
 9262SOL    HW239246   0.823   2.699  14.847  0.4854 -0.9173  1.4999
 9263SOL     OW39247   3.223   0.191   2.323  0.0124 -0.0560 -0.0440
 9263SOL    HW139248   3.268   0.108   2.307  1.8069  1.0486 -0.7066
 9263SOL    HW239249   3.234   0.235   2.239  0.8765 -2.6833 -1.2797
 9264SOL     OW39250   0.157   1.667  14.530 -0.0041 -0.8756 -0.3167
 9264SOL    HW139251   0.190   1.585  14.494 -1.9834 -1.8713  0.1353
 9264SOL    HW239252   0.188   1.744  14.482 -1.3622  0.5505  1.1248
 9265SOL     OW39253   3.513   0.085   5.203  0.8456  0.0327 -0.5269
 9265SOL    HW139254   3.584   0.026   5.177  0.5292  0.4384 -2.2953
 9265SOL    HW239255   3.549   0.173   5.210 -0.2858  0.4834 -0.5501
 9266SOL     OW39256   1.296   0.010   9.564 -0.0580 -0.0833 -0.3128
 9266SOL    HW139257   1.347   4.653   9.541  0.5465 -0.3834  2.0378
 9266SOL    HW239258   1.314   0.065   9.488 -0.3076 -0.4415 -0.6301
 9267SOL     OW39259   1.028   2.960   1.747 -0.0798 -0.5393 -0.2138
 9267SOL    HW139260   0.934   2.952   1.763 -0.2423  0.9538 -0.4206
 9267SOL    HW239261   1.050   2.876   1.706  0.2768  0.1426 -1.4454
 9268SOL     OW39262   3.367   0.421  12.018 -0.2958 -0.1903 -0.6231
 9268SOL    HW139263   3.307   0.493  12.040 -1.2631 -1.1361 -0.1553
 9268SOL    HW239264   3.304   0.349  12.023 -0.5092  0.0909  0.7728
 9269SOL     OW39265   3.117   3.388   6.890 -0.2920  0.2113  0.2170
 9269SOL    HW139266   3.078   3.314   6.936  1.0707 -0.6456  0.0262
 9269SOL    HW239267   3.043   3.447   6.879  0.8892  1.5083 -0.9308
 9270SOL     OW39268   0.860   2.202   8.926  0.3616 -0.1929 -0.0512
 9270SOL    HW139269   0.815   2.207   9.011  1.0941 -0.0565  0.3285
 9270SOL    HW239270   0.897   2.114   8.929 -0.4486 -0.5736 -1.0912
 9271SOL     OW39271   1.350   0.308   4.573  0.0791  0.5688  0.0109
 9271SOL    HW139272   1.267   0.261   4.583 -1.8306  3.6427 -1.6070
 9271SOL    HW239273   1.322   0.396   4.550 -1.3939  0.9812  3.4581
 9272SOL     OW39274   2.929   0.556   0.340  0.4590 -0.4655  0.5714
 9272SOL    HW139275   2.875   0.635   0.339  0.9663 -0.1085  0.8769
 9272SOL    HW239276   2.885   0.515   0.414  0.9131 -3.9559 -1.0872
 9273SOL     OW39277   4.546   1.510   8.277 -0.6162  0.1114 -0.2726
 9273SOL    HW139278   4.493   1.525   8.199  0.7723 -1.0492 -1.4491
 9273SOL    HW239279   4.499   1.434   8.311 -1.1994  1.3234  1.6134
 9274SOL     OW39280   1.592   0.665  10.281 -0.0408  0.6143  0.2073
 9274SOL    HW139281   1.531   0.716  10.334 -0.3887  2.2552 -1.7756
 9274SOL    HW239282   1.586   0.709  10.196 -0.8434 -3.3128 -1.7866
 9275SOL     OW39283   4.130   0.344  10.237 -0.2648 -0.6139  0.1087
 9275SOL    HW139284   4.181   0.402  10.180 -1.1957  0.7402  0.6498
 9275SOL    HW239285   4.066   0.408  10.268  0.0529 -0.5917  0.7259
 9276SOL     OW39286   3.805   3.836  14.821 -0.0370  0.7311 -0.6073
 9276SOL    HW139287   3.867   3.840  14.749  0.5675 -1.6983 -0.2453
 9276SOL    HW239288   3.855   3.823  14.902 -1.0258 -1.3210 -0.2961
 9277SOL     OW39289   0.556   4.715   6.391 -0.0194  0.2024 -0.0634
 9277SOL    HW139290   0.608   0.071   6.410  1.0472  0.1966 -2.9260
 9277SOL    HW239291   0.510   0.020   6.311 -0.7493 -1.0306 -0.0568
 9278SOL     OW39292   4.647   2.846   4.073  0.1748 -0.0257  0.1175
 9278SOL    HW139293   4.575   2.826   4.014  0.7929  0.4574 -0.8084
 9278SOL    HW239294   4.707   2.903   4.024  0.0914 -0.1865 -0.1723
 9279SOL     OW39295   2.316   1.015   0.745  0.4575 -0.0399  0.5013
 9279SOL    HW139296   2.276   1.101   0.754  0.7148  0.0718  0.5801
 9279SOL    HW239297   2.378   1.023   0.672  0.9475 -0.2402  0.8931
 9280SOL     OW39298   2.033   1.140  12.062 -0.2679 -0.6686  0.2242
 9280SOL    HW139299   2.039   1.201  12.135 -1.0193  1.0385 -1.1604
 9280SOL    HW239300   1.939   1.143  12.047 -0.4097 -1.0720  1.0058
 9281SOL     OW39301   3.430   4.282  17.179 -0.5064 -0.2337 -0.5610
 9281SOL    HW139302   3.359   4.239  17.226  0.4557  0.6991  1.7406
 9281SOL    HW239303   3.413   4.238  17.096  3.1514 -1.5072 -0.6335
 9282SOL     OW39304   4.219   2.441   4.551 -0.1191  0.7026  0.3734
 9282SOL    HW139305   4.253   2.502   4.486  1.8683 -0.4751  0.3070
 9282SOL    HW239306   4.235   2.352   4.519 -0.9839  0.8773 -0.5378
 9283SOL     OW39307   2.593   0.368   3.046 -0.0243  0.4326  0.0589
 9283SOL    HW139308   2.605   0.333   2.958 -0.4346  0.6741 -0.0968
 9283SOL    HW239309   2.502   0.396   3.035 -0.0829  0.0327 -0.4930
 9284SOL     OW39310   3.374   1.929   1.323 -0.2977  0.1020  0.1451
 9284SOL    HW139311   3.379   1.876   1.243  0.7062  0.6707 -0.1729
 9284SOL    HW239312   3.451   1.985   1.315  0.9346 -1.5630  0.2125
 9285SOL     OW39313   3.916   4.539  16.597 -0.5092 -0.0399  0.9180
 9285SOL    HW139314   3.844   4.586  16.556  0.1768  0.9987  0.8839
 9285SOL    HW239315   3.874   4.493  16.670  1.5740 -3.9528 -0.3572
 9286SOL     OW39316   2.956   3.622  15.067  0.7409 -0.0867 -0.5867
 9286SOL    HW139317   3.008   3.556  15.113 -1.4796 -0.6990  1.0577
 9286SOL    HW239318   3.031   3.676  15.043 -0.9482  1.8102 -1.6059
 9287SOL     OW39319   1.653   0.516  17.133 -0.0143 -0.3245 -0.3487
 9287SOL    HW139320   1.744   0.487  17.133 -0.0270 -0.3636 -0.3505
 9287SOL    HW239321   1.645   0.557  17.220  2.5361 -2.1860  0.7593
 9288SOL     OW39322   2.736   3.671  17.277 -0.1426 -0.1171  0.1057
 9288SOL    HW139323   2.782   3.622  17.344  1.0079 -0.9146 -1.2713
 9288SOL    HW239324   2.648   3.634  17.274 -0.2624  0.3309 -2.2210
 9289SOL     OW39325   2.595   0.453  10.119 -0.3046 -0.0304  0.4869
 9289SOL    HW139326   2.690   0.437  10.113 -0.2327  1.0111 -1.1266
 9289SOL    HW239327   2.579   0.374  10.170  1.2076  0.2977  1.4702
 9290SOL     OW39328   0.126   0.904  14.468  0.4243  0.3088 -0.6378
 9290SOL    HW139329   0.122   0.865  14.380 -0.3096 -0.8712 -0.0801
 9290SOL    HW239330   0.133   0.998  14.449 -0.8606  0.4685 -0.2894
 9291SOL     OW39331   2.181   3.028   3.228 -0.1440 -0.1137  0.3495
 9291SOL    HW139332   2.266   2.986   3.240 -1.1799 -2.2956  0.0790
 9291SOL    HW239333   2.169   3.033   3.133 -1.9681  0.3887  0.5975
 9292SOL     OW39334   2.667   2.136  17.170  0.5935  0.2145 -0.1834
 9292SOL    HW139335   2.638   2.214  17.216  0.5150  0.7842 -1.2011
 9292SOL    HW239336   2.617   2.145  17.089  0.6943  1.4129 -0.1038
 9293SOL     OW39337   1.403   0.766   4.730  0.2195 -0.6553 -0.0153
 9293SOL    HW139338   1.448   0.798   4.808 -1.4991 -0.0405  0.7167
 9293SOL    HW239339   1.470   0.714   4.686 -1.4232 -0.4919 -2.7250
 9294SOL     OW39340   3.847   2.254   6.487  0.2268  0.1058 -0.1479
 9294SOL    HW139341   3.820   2.250   6.395  2.2715  2.2658 -0.8452
 9294SOL    HW239342   3.760   2.257   6.527 -0.1610  0.3009 -1.0085
 9295SOL     OW39343   4.668   4.668   5.973  0.1539 -0.0855 -0.3142
 9295SOL    HW139344   4.593   4.700   5.924  1.1160  0.6317 -1.2932
 9295SOL    HW239345   4.645   4.683   6.065 -0.7771 -2.9900 -0.0654
 9296SOL     OW39346   0.891   1.391   8.793 -0.2915 -0.2242  0.1694
 9296SOL    HW139347   0.970   1.444   8.792 -0.9196  0.6990 -0.4930
 9296SOL    HW239348   0.835   1.427   8.862 -0.5831 -0.4381  0.0467
 9297SOL     OW39349   1.887   0.336   2.957  0.1770  0.2555 -0.2102
 9297SOL    HW139350   1.896   0.429   2.935  0.4543  0.4433  0.7178
 9297SOL    HW239351   1.835   0.341   3.037  1.1188  2.0745  0.2868
 9298SOL     OW39352   0.836   4.484  10.740  0.1692  0.2482  0.1597
 9298SOL    HW139353   0.770   4.502  10.807 -0.1444  1.1024 -0.3734
 9298SOL    HW239354   0.897   4.557  10.754 -0.6224  0.6091  1.7237
 9299SOL     OW39355   2.012   0.489   1.862  0.3880  0.2926 -0.1385
 9299SOL    HW139356   1.974   0.401   1.856 -2.6004  1.6425 -1.0972
 9299SOL    HW239357   2.085   0.484   1.801  0.0324  0.5391 -0.5801
 9300SOL     OW39358   4.396   1.805   7.239 -0.4355 -0.2790 -0.4762
 9300SOL    HW139359   4.364   1.821   7.328  0.1715  0.8027 -0.4535
 9300SOL    HW239360   4.491   1.820   7.239 -0.4410 -0.2183  0.4388
 9301SOL     OW39361   1.061   4.466  10.441 -0.2689  0.0667 -0.0061
 9301SOL    HW139362   1.024   4.409  10.509 -1.0611  1.5917  0.8466
 9301SOL    HW239363   1.073   4.547  10.491  1.4400 -0.3947  0.3084
 9302SOL     OW39364   3.920   3.553  14.986  0.5130 -0.1685 -0.1417
 9302SOL    HW139365   3.959   3.558  14.899  1.1401 -0.4986  0.1144
 9302SOL    HW239366   3.940   3.639  15.022 -2.2895  1.0938 -1.6705
 9303SOL     OW39367   0.379   1.582   8.747  0.4764  0.0840 -0.1228
 9303SOL    HW139368   0.423   1.568   8.831  1.8886  0.3837 -0.8119
 9303SOL    HW239369   0.458   1.618   8.707 -0.2834  1.9941  0.0898
 9304SOL     OW39370   0.260   2.902  13.749 -0.8848  0.1389  0.4636
 9304SOL    HW139371   0.317   2.829  13.726 -2.3368 -0.5903 -0.8206
 9304SOL    HW239372   0.324   2.972  13.763 -0.7302  0.1716 -0.4492
 9305SOL     OW39373   2.543   3.378   3.536  0.1696 -0.3529  0.3682
 9305SOL    HW139374   2.502   3.317   3.475  0.2929  0.3631 -0.4338
 9305SOL    HW239375   2.505   3.463   3.517 -0.8709 -1.1035 -0.8861
 9306SOL     OW39376   2.370   1.162   4.468  0.1243  0.6866 -0.7039
 9306SOL    HW139377   2.443   1.217   4.496  1.9486 -1.6140 -0.9441
 9306SOL    HW239378   2.321   1.218   4.409  1.5608  1.9418 -0.6991
 9307SOL     OW39379   1.834   3.698   5.679  0.5682  0.6242  0.1181
 9307SOL    HW139380   1.793   3.778   5.715  0.8744  1.3350 -1.1167
 9307SOL    HW239381   1.807   3.636   5.747  2.0606 -0.9251 -0.7207
 9308SOL     OW39382   1.855   3.431  15.643 -0.7101 -0.2586 -0.3427
 9308SOL    HW139383   1.943   3.458  15.615 -0.6644  0.3426  0.3503
 9308SOL    HW239384   1.869   3.339  15.664 -1.2120  0.1545  1.8275
 9309SOL     OW39385   3.647   0.626  10.010  0.4066 -0.6485  0.5562
 9309SOL    HW139386   3.682   0.648   9.923 -1.8263 -0.5327 -0.3144
 9309SOL    HW239387   3.613   0.713  10.031 -1.0627 -1.0135 -0.3191
 9310SOL     OW39388   3.244   3.964   7.835 -0.4949  0.3137  0.2852
 9310SOL    HW139389   3.214   3.978   7.925 -1.9921  1.1563 -0.3447
 9310SOL    HW239390   3.336   3.989   7.837 -0.5003  0.1634  2.8586
 9311SOL     OW39391   3.237   4.378   1.161 -0.3456  0.2912  0.6442
 9311SOL    HW139392   3.307   4.329   1.205  0.0987  1.2671  1.0181
 9311SOL    HW239393   3.279   4.393   1.076  2.0491  1.2217  2.0073
 9312SOL     OW39394   4.182   0.460   8.938 -0.5236 -0.1098  0.0265
 9312SOL    HW139395   4.223   0.517   8.873 -0.0129  0.4982  0.8854
 9312SOL    HW239396   4.241   0.463   9.013  0.5552  1.8099 -0.9202
 9313SOL     OW39397   2.236   0.819   6.738  0.1663  0.3838  0.5310
 9313SOL    HW139398   2.247   0.854   6.826  0.6614  1.3298  0.0972
 9313SOL    HW239399   2.141   0.821   6.743  0.0729  1.7583 -1.5711
 9314SOL     OW39400   1.621   0.664   5.174  0.2612 -0.5406 -0.0732
 9314SOL    HW139401   1.713   0.683   5.192 -0.2228  1.6857 -0.0262
 9314SOL    HW239402   1.591   0.688   5.262 -0.7762 -0.5595 -0.4211
 9315SOL     OW39403   0.069   0.798  11.211  0.1589 -0.7144  0.9389
 9315SOL    HW139404   0.010   0.745  11.264  1.3360 -2.3443  0.6348
 9315SOL    HW239405   0.110   0.732  11.155  1.3183  2.1885 -1.6195
 9316SOL     OW39406   4.700   4.450   4.355 -0.1074  0.4999  0.2824
 9316SOL    HW139407   4.635   4.412   4.414 -2.0143 -0.8561 -2.6971
 9316SOL    HW239408   0.058   4.464   4.407 -1.0497  1.6483  1.3866
 9317SOL     OW39409   1.662   3.933   4.822  0.1599  0.2032 -0.0346
 9317SOL    HW139410   1.668   3.993   4.897  1.3645 -0.7161  0.6030
 9317SOL    HW239411   1.608   3.868   4.867  0.0534  0.2593 -0.0812
 9318SOL     OW39412   3.191   4.546   4.254 -0.2582  0.2351  0.6816
 9318SOL    HW139413   3.151   4.614   4.199 -0.4110  0.5687  1.1972
 9318SOL    HW239414   3.275   4.543   4.208 -0.3945  0.5045  0.4092
 9319SOL     OW39415   3.882   0.296   1.202 -0.0629  0.9820 -0.7533
 9319SOL    HW139416   3.841   0.237   1.138  0.8868 -0.8179  0.2991
 9319SOL    HW239417   3.842   0.383   1.197  3.4727  2.5893 -0.9170
 9320SOL     OW39418   3.295   3.261   8.273 -0.8088  0.2725  0.1289
 9320SOL    HW139419   3.279   3.187   8.214 -1.6481  0.4925  0.0903
 9320SOL    HW239420   3.221   3.250   8.333 -2.6413  0.7380 -2.0407
 9321SOL     OW39421   3.581   4.237   8.063  0.0809 -0.6634 -0.1432
 9321SOL    HW139422   3.563   4.227   8.156  1.1131 -0.3325  0.0977
 9321SOL    HW239423   3.672   4.263   8.076  0.4423 -1.9643 -0.0240
 9322SOL     OW39424   3.312   1.207   4.150  0.2573  0.1617 -0.7011
 9322SOL    HW139425   3.340   1.147   4.219 -0.6229 -0.1404 -0.6064
 9322SOL    HW239426   3.264   1.265   4.209  1.4942  1.0815 -0.5889
 9323SOL     OW39427   4.087   2.655   8.293 -0.1268 -0.1432  0.3647
 9323SOL    HW139428   4.179   2.640   8.270 -0.1464  0.2816  0.0097
 9323SOL    HW239429   4.048   2.568   8.303 -0.5004  0.0149  0.2783
 9324SOL     OW39430   2.582   1.742   6.990 -0.2743  0.0005 -0.4470
 9324SOL    HW139431   2.501   1.770   7.033 -1.6550 -2.4641 -1.4491
 9324SOL    HW239432   2.600   1.656   7.028 -1.6748 -0.8830 -1.7915
 9325SOL     OW39433   2.258   1.894   1.970  0.2292  0.3620  0.3104
 9325SOL    HW139434   2.249   1.987   1.990  0.0383  1.4470 -4.6585
 9325SOL    HW239435   2.227   1.893   1.879  3.8666  0.7731 -0.9452
 9326SOL     OW39436   4.178   3.202   3.969 -0.5581  0.5662  0.0697
 9326SOL    HW139437   4.118   3.152   3.912  0.4554 -1.5831  0.8708
 9326SOL    HW239438   4.121   3.240   4.036  3.2492  2.5558  2.1675
 9327SOL     OW39439   0.378   4.500   2.039  0.4535  0.2741 -0.0429
 9327SOL    HW139440   0.363   4.447   1.961 -1.7125  0.4537  0.2598
 9327SOL    HW239441   0.292   4.538   2.055  1.1489  0.9759  2.1166
 9328SOL     OW39442   0.155   3.613  17.519 -0.0831  0.2910 -0.1659
 9328SOL    HW139443   0.184   3.582  17.433  0.3865 -1.0192  0.4549
 9328SOL    HW239444   0.085   3.551  17.541 -2.0714  2.4090 -0.5379
 9329SOL     OW39445   1.782   2.773   2.166  0.1713  0.1546 -0.3420
 9329SOL    HW139446   1.875   2.761   2.187  0.0573  0.8431  0.5812
 9329SOL    HW239447   1.764   2.682   2.141  0.1852 -0.5263  2.0566
 9330SOL     OW39448   1.766   4.697   2.302  0.0997 -0.3186 -0.9783
 9330SOL    HW139449   1.790   4.607   2.280  0.9174 -0.1341 -0.8688
 9330SOL    HW239450   1.826   0.025   2.246  0.0928 -1.5592 -2.0745
 9331SOL     OW39451   4.492   3.579   8.243  0.5133 -0.6132 -0.5238
 9331SOL    HW139452   4.432   3.506   8.258 -1.5039  1.3542  1.1171
 9331SOL    HW239453   4.534   3.588   8.328 -0.1994  0.2320 -0.2551
 9332SOL     OW39454   4.041   4.388   2.707 -0.3609 -0.0850  0.5483
 9332SOL    HW139455   3.946   4.377   2.700 -0.2710 -1.2609  1.3295
 9332SOL    HW239456   4.048   4.353   2.795  1.6666 -2.0227 -0.3603
 9333SOL     OW39457   3.584   2.906  10.393  0.4616 -0.6089  0.5917
 9333SOL    HW139458   3.525   2.981  10.382  0.9455  0.2873  4.0947
 9333SOL    HW239459   3.564   2.881  10.484 -0.5744 -0.6632  0.3441
 9334SOL     OW39460   0.814   0.583   6.804  0.0923  0.0672  0.5237
 9334SOL    HW139461   0.732   0.542   6.778 -0.2752  0.8847  0.3896
 9334SOL    HW239462   0.832   0.551   6.893 -0.9344 -0.2914  0.6091
 9335SOL     OW39463   3.325   3.185   0.407  0.8584  0.5753  0.8637
 9335SOL    HW139464   3.382   3.111   0.429  1.0212  0.1315 -1.0706
 9335SOL    HW239465   3.309   3.224   0.493 -0.0732  2.7982 -0.3124
 9336SOL     OW39466   3.316   3.121   4.675  0.0328 -0.6211  0.2190
 9336SOL    HW139467   3.248   3.187   4.689 -0.5373 -1.3927  1.0795
 9336SOL    HW239468   3.266   3.052   4.632 -0.0245 -0.2225 -0.3580
 9337SOL     OW39469   1.271   4.462   9.320 -0.0537  0.1634  0.0527
 9337SOL    HW139470   1.349   4.417   9.354  0.1648 -0.5880 -1.4274
 9337SOL    HW239471   1.202   4.431   9.379  0.0542  0.3632  0.2859
 9338SOL     OW39472   0.586   4.058  13.292  0.2637 -0.4476  0.0989
 9338SOL    HW139473   0.670   4.050  13.338  1.5291  0.0292 -2.1135
 9338SOL    HW239474   0.578   4.154  13.291 -0.4673 -0.5224 -0.5689
 9339SOL     OW39475   1.591   3.511   3.782 -0.1495  0.1225  0.2563
 9339SOL    HW139476   1.673   3.519   3.734  0.2597 -1.6354  0.6470
 9339SOL    HW239477   1.568   3.418   3.782  0.7915 -0.1124 -0.4043
 9340SOL     OW39478   2.883   1.605   9.078 -0.1692 -0.5907 -0.3833
 9340SOL    HW139479   2.867   1.543   9.007 -1.5183  0.8588 -1.3352
 9340SOL    HW239480   2.859   1.565   9.161  1.7110  0.0680  0.4763
 9341SOL     OW39481   0.462   3.986   2.884  0.3397 -0.2660 -0.4479
 9341SOL    HW139482   0.429   4.015   2.969  2.6973  2.6249 -0.5068
 9341SOL    HW239483   0.431   3.896   2.881  2.4982 -0.9797 -1.7056
 9342SOL     OW39484   1.516   2.814   4.776  0.3767 -0.0055  0.0755
 9342SOL    HW139485   1.581   2.795   4.708 -0.2486 -1.9204  0.0107
 9342SOL    HW239486   1.547   2.902   4.799  2.7745 -0.6272 -0.8637
 9343SOL     OW39487   2.846   1.043   4.596  0.0598 -0.8191  0.1555
 9343SOL    HW139488   2.840   1.138   4.607 -0.7797 -0.7591 -0.7688
 9343SOL    HW239489   2.839   1.032   4.501  0.7316  1.4773 -0.1643
 9344SOL     OW39490   2.516   1.019   4.919  0.2500 -0.4358  0.2128
 9344SOL    HW139491   2.516   0.975   5.004  1.7597  0.2046  0.5400
 9344SOL    HW239492   2.450   1.081   4.949  0.2558  0.6462 -2.0000
 9345SOL     OW39493   3.863   1.854   7.663  0.4774  0.0635 -0.0419
 9345SOL    HW139494   3.953   1.824   7.658  0.3623  0.0073 -1.8706
 9345SOL    HW239495   3.859   1.890   7.751  1.9896  0.0157  0.0444
 9346SOL     OW39496   3.636   1.868   2.992 -0.1791  0.1140 -0.0024
 9346SOL    HW139497   3.732   1.871   2.995 -0.3576 -0.3724  5.7413
 9346SOL    HW239498   3.604   1.864   3.082  0.5583  1.7655  0.3294
 9347SOL     OW39499   3.471   4.517   6.769 -0.2764  0.1151  0.4874
 9347SOL    HW139500   3.438   4.593   6.722  2.0992  1.2172  0.6531
 9347SOL    HW239501   3.505   4.463   6.697  0.3651 -1.1023  1.7100
 9348SOL     OW39502   2.792   4.009   5.236 -0.1928  0.6735  0.1036
 9348SOL    HW139503   2.775   4.098   5.267 -2.5098 -0.6673  2.6076
 9348SOL    HW239504   2.787   4.027   5.142  0.5584  1.6605  0.2490
 9349SOL     OW39505   3.281   2.031   0.701  0.0407  0.2862 -0.1531
 9349SOL    HW139506   3.261   2.114   0.657  2.6661  1.4409  0.8064
 9349SOL    HW239507   3.374   2.017   0.682  0.2921  0.1893  1.1679
 9350SOL     OW39508   3.016   0.142   4.442 -0.1180 -0.2662 -0.5586
 9350SOL    HW139509   3.055   0.198   4.510 -1.1811  0.4172 -0.5104
 9350SOL    HW239510   3.082   0.145   4.373  0.9859  0.3935  0.5338
 9351SOL     OW39511   1.648   1.984   4.994 -0.8005  0.3363 -0.0845
 9351SOL    HW139512   1.661   2.006   4.902 -0.7636  1.8817  0.2961
 9351SOL    HW239513   1.575   1.923   4.989 -0.3207 -0.2966  0.6704
 9352SOL     OW39514   2.627   4.265  11.157  0.1073 -0.3517  0.3348
 9352SOL    HW139515   2.596   4.176  11.138 -2.8174  0.8891 -0.8143
 9352SOL    HW239516   2.719   4.246  11.173 -0.3256 -0.6640  2.3777
 9353SOL     OW39517   3.164   2.336   7.304  0.3979 -0.1232 -0.3212
 9353SOL    HW139518   3.228   2.268   7.284  0.7970  0.4453 -0.9705
 9353SOL    HW239519   3.096   2.314   7.241  2.9830 -1.2861 -2.6861
 9354SOL     OW39520   2.869   0.447   2.885 -0.4783  0.0294  0.7463
 9354SOL    HW139521   2.794   0.410   2.838  1.7355  0.0077 -2.7629
 9354SOL    HW239522   2.842   0.482   2.970 -0.5965  0.9239  0.3309
 9355SOL     OW39523   3.778   4.351   6.736  0.1872  0.2801  0.3543
 9355SOL    HW139524   3.709   4.303   6.690 -0.2609  0.9798  0.2913
 9355SOL    HW239525   3.851   4.290   6.748  0.5708  0.1308 -2.8497
 9356SOL     OW39526   0.711   2.792   4.217  0.3128  0.4942 -0.6779
 9356SOL    HW139527   0.777   2.861   4.213 -0.3612  1.0376 -2.6795
 9356SOL    HW239528   0.760   2.713   4.241 -2.7471 -1.1844  0.0553
 9357SOL     OW39529   1.208   2.478   4.730 -0.0124  0.0436  0.2994
 9357SOL    HW139530   1.264   2.556   4.727  0.8102 -0.5130  1.0340
 9357SOL    HW239531   1.262   2.417   4.782  1.5919 -0.6684 -2.2380
 9358SOL     OW39532   3.146   3.523  17.472 -0.2569 -0.1096  0.7080
 9358SOL    HW139533   3.178   3.504  17.384  1.4333  1.8625  0.9077
 9358SOL    HW239534   3.229   3.547  17.513  0.0186 -1.2482  0.8230
 9359SOL     OW39535   1.139   0.910   4.802 -0.7560 -0.4781 -0.1967
 9359SOL    HW139536   1.172   0.929   4.714 -1.0034  0.5893 -0.0604
 9359SOL    HW239537   1.208   0.846   4.817 -0.7411 -0.6829 -1.1340
 9360SOL     OW39538   2.692   0.278   7.054 -0.1165  0.4283  0.2484
 9360SOL    HW139539   2.770   0.266   7.000 -0.8164  0.2293 -0.7193
 9360SOL    HW239540   2.622   0.276   6.989  0.4496 -0.1060 -0.3424
 9361SOL     OW39541   4.596   3.243  14.751 -0.6354 -0.4307 -0.1748
 9361SOL    HW139542   4.535   3.247  14.677 -1.7010 -1.0604  0.6775
 9361SOL    HW239543   4.607   3.338  14.757  0.6368 -0.6388  0.8158
 9362SOL     OW39544   2.158   2.303   6.724 -0.0362 -0.1702  0.0384
 9362SOL    HW139545   2.151   2.208   6.715 -0.6311  0.1957 -3.6581
 9362SOL    HW239546   2.085   2.333   6.669 -0.9398 -0.4886  1.0729
 9363SOL     OW39547   0.627   4.413   6.531  0.0915 -0.4704  0.7761
 9363SOL    HW139548   0.651   4.357   6.456 -0.2412  0.5091 -0.0605
 9363SOL    HW239549   0.705   4.420   6.586  1.6090  0.7216 -1.5287
 9364SOL     OW39550   3.507   3.269   7.478 -0.3722 -0.1976 -0.3034
 9364SOL    HW139551   3.585   3.319   7.500 -1.1972  0.2535  1.6086
 9364SOL    HW239552   3.433   3.320   7.509  0.5083  0.2367  1.0634
 9365SOL     OW39553   0.121   0.110  16.502  0.4727  0.1317 -0.9669
 9365SOL    HW139554   0.146   0.031  16.454 -0.7224 -0.3632 -0.7819
 9365SOL    HW239555   0.040   0.078  16.541 -0.1243  1.7117 -0.8872
 9366SOL     OW39556   2.539   0.155   5.447  0.8062  0.1586  0.3933
 9366SOL    HW139557   2.546   0.212   5.370  0.0858 -1.8537 -1.1494
 9366SOL    HW239558   2.604   0.205   5.496  1.0423 -1.1902  1.4292
 9367SOL     OW39559   1.929   3.295   6.346 -0.2397  0.6067 -0.5404
 9367SOL    HW139560   1.997   3.354   6.380 -0.2130 -1.8162  3.6561
 9367SOL    HW239561   1.986   3.221   6.326  1.7019  1.6306  1.1681
 9368SOL     OW39562   0.932   2.896  13.295 -0.3343 -0.1218 -0.0662
 9368SOL    HW139563   0.898   2.941  13.373  0.4789  0.0032  0.2192
 9368SOL    HW239564   1.014   2.941  13.278  0.7654 -1.7885  0.8484
 9369SOL     OW39565   1.028   1.771   4.103 -0.0896 -0.2087 -0.0576
 9369SOL    HW139566   0.988   1.704   4.159 -0.4591  0.1552  0.1187
 9369SOL    HW239567   1.120   1.746   4.109 -0.1625  0.3396  3.3780
 9370SOL     OW39568   2.162   4.319  17.114 -0.2897  0.1116  0.3475
 9370SOL    HW139569   2.113   4.344  17.035  1.4642  0.6441 -0.5681
 9370SOL    HW239570   2.185   4.408  17.140 -0.3571  0.4963 -0.8873
 9371SOL     OW39571   2.616   4.130   6.483 -0.1740  0.4583  0.6699
 9371SOL    HW139572   2.574   4.066   6.426  0.6101  2.5458 -2.2308
 9371SOL    HW239573   2.624   4.091   6.570 -0.2245 -0.7482  0.1352
 9372SOL     OW39574   2.614   2.656   6.863  0.5158 -0.1593  0.3741
 9372SOL    HW139575   2.666   2.700   6.930  0.8805 -0.0413  0.0174
 9372SOL    HW239576   2.686   2.631   6.805  1.1372  0.9285  0.6693
 9373SOL     OW39577   3.526   0.122  11.565  0.8351 -0.3033 -0.7573
 9373SOL    HW139578   3.448   0.079  11.531 -0.3204  0.9223  0.3926
 9373SOL    HW239579   3.488   0.177  11.633 -0.2720 -2.3577  0.2809
 9374SOL     OW39580   0.147   3.469   0.278 -0.0673 -0.4436  0.3083
 9374SOL    HW139581   0.189   3.553   0.296  1.6926 -1.2641  0.0532
 9374SOL    HW239582   0.078   3.460   0.344  1.3549  0.3844  1.8984
 9375SOL     OW39583   4.399   3.503   7.028 -0.0882  0.0710  0.0643
 9375SOL    HW139584   4.375   3.523   6.938  1.9056 -4.2609 -1.4280
 9375SOL    HW239585   4.493   3.488   7.019 -0.0108  1.8186 -1.8213
 9376SOL     OW39586   2.463   4.386   3.775  0.3812 -0.1927  0.3355
 9376SOL    HW139587   2.397   4.375   3.706  0.7975 -2.7329  0.3602
 9376SOL    HW239588   2.465   4.482   3.779  0.1260 -0.1560 -0.4109
 9377SOL     OW39589   2.672   1.428   1.371 -1.0097 -0.1345  0.1995
 9377SOL    HW139590   2.673   1.439   1.276 -0.2486  1.3512  0.3827
 9377SOL    HW239591   2.676   1.516   1.407 -3.0205  0.6222 -1.4388
 9378SOL     OW39592   3.341   0.970   3.983 -0.6013  0.1415 -0.5588
 9378SOL    HW139593   3.310   1.059   4.001 -0.2626 -0.1617  1.4752
 9378SOL    HW239594   3.258   0.927   3.963 -0.6030  0.0839 -0.4235
 9379SOL     OW39595   0.403   2.972   2.621  0.7790  0.6560 -0.1254
 9379SOL    HW139596   0.466   2.945   2.554  0.2478 -1.0486  0.0504
 9379SOL    HW239597   0.356   3.045   2.581  1.2201  1.5687  1.0197
 9380SOL     OW39598   4.615   2.855  13.329 -0.3259 -0.6584 -0.2475
 9380SOL    HW139599   4.605   2.802  13.409  2.0005  1.0070  1.1634
 9380SOL    HW239600   4.569   2.801  13.265 -0.0341 -0.8676 -0.2812
 9381SOL     OW39601   2.213   0.229   3.776  0.2120 -0.4628  0.4289
 9381SOL    HW139602   2.180   0.318   3.788  0.9869  0.1567 -2.1643
 9381SOL    HW239603   2.305   0.243   3.751  0.6130 -2.6004  0.7289
 9382SOL     OW39604   2.814   3.839  15.959 -0.1534  0.3506 -0.1861
 9382SOL    HW139605   2.818   3.918  16.012  0.9221 -0.0362  0.3066
 9382SOL    HW239606   2.902   3.801  15.958  0.1247  0.9357  1.8562
 9383SOL     OW39607   3.064   2.006   6.225  0.4887  0.6940 -0.0813
 9383SOL    HW139608   2.972   2.024   6.205  0.4972 -0.8496 -1.4570
 9383SOL    HW239609   3.112   2.056   6.159  3.2192  0.9876  2.1430
 9384SOL     OW39610   2.233   0.385  13.972  0.8695  0.4651 -0.2134
 9384SOL    HW139611   2.147   0.404  13.934  0.5826  1.1275  0.7656
 9384SOL    HW239612   2.216   0.320  14.040 -1.3972 -0.7468 -1.9526
 9385SOL     OW39613   1.944   1.349   7.522 -0.4253  1.1786  0.4164
 9385SOL    HW139614   1.879   1.295   7.476  0.8398  0.5045 -0.5639
 9385SOL    HW239615   1.907   1.359   7.610 -1.8203  2.5938 -0.3212
 9386SOL     OW39616   1.371   2.914   5.701 -0.1817 -0.6204 -0.0821
 9386SOL    HW139617   1.301   2.979   5.699  0.7234  0.3163 -1.6184
 9386SOL    HW239618   1.453   2.964   5.697  0.6773 -2.2254 -2.3227
 9387SOL     OW39619   4.675   1.364   4.755  0.4428  0.0508  0.4229
 9387SOL    HW139620   4.648   1.420   4.828  0.2322  0.1846  0.2411
 9387SOL    HW239621   4.607   1.297   4.754  0.8661 -0.3683 -0.1348
 9388SOL     OW39622   0.323   2.173   8.725 -0.5652 -0.5349 -0.0154
 9388SOL    HW139623   0.347   2.175   8.632  0.1776  0.2382  0.1980
 9388SOL    HW239624   0.381   2.240   8.761 -1.7627  0.5502 -0.0951
 9389SOL     OW39625   1.585   0.923   8.827  0.6299  0.5835 -0.1245
 9389SOL    HW139626   1.670   0.927   8.870 -0.7083 -0.0620  2.5587
 9389SOL    HW239627   1.587   0.850   8.765 -0.7862 -0.1948  0.7359
 9390SOL     OW39628   4.071   2.628  13.452 -0.0082 -0.0277  0.2343
 9390SOL    HW139629   4.029   2.585  13.526 -0.0461  1.4199  1.0587
 9390SOL    HW239630   4.158   2.589  13.454 -0.8925 -1.8954  1.9942
 9391SOL     OW39631   0.635   0.634  10.818  0.3358  0.3087 -0.3709
 9391SOL    HW139632   0.679   0.550  10.805 -0.0917 -0.1559  1.1803
 9391SOL    HW239633   0.612   0.630  10.911  1.3580 -1.9501 -0.2256
 9392SOL     OW39634   0.681   3.373   4.343  0.1606  0.4636 -0.1911
 9392SOL    HW139635   0.677   3.468   4.357  0.1725  0.4381 -0.0079
 9392SOL    HW239636   0.656   3.344   4.431 -0.0937 -1.4261 -0.9115
 9393SOL     OW39637   4.353   1.232   1.867 -0.3887  0.1550  1.0000
 9393SOL    HW139638   4.426   1.292   1.852 -1.6303  0.9115 -2.0713
 9393SOL    HW239639   4.279   1.286   1.840  0.9249  0.4573 -1.9563
 9394SOL     OW39640   1.535   1.509   9.567  0.0429 -0.1425  0.0154
 9394SOL    HW139641   1.523   1.435   9.625 -1.8466  1.8278  2.1410
 9394SOL    HW239642   1.597   1.470   9.505  0.2184 -1.0368  0.7548
 9395SOL     OW39643   3.073   2.071   7.816  0.5315 -0.1607  0.0625
 9395SOL    HW139644   3.065   1.976   7.814  2.4103 -0.3804  2.0755
 9395SOL    HW239645   2.984   2.102   7.802  0.2696 -0.7597  0.4212
 9396SOL     OW39646   1.443   4.370   6.644 -0.7152  0.0813  0.1467
 9396SOL    HW139647   1.382   4.301   6.619 -0.4271 -0.2415  0.3434
 9396SOL    HW239648   1.448   4.357   6.738  1.0559 -0.5779 -0.0430
 9397SOL     OW39649   3.830   2.162  15.147  0.3630  0.2906  0.4286
 9397SOL    HW139650   3.893   2.163  15.074 -0.6021  1.8161 -0.3812
 9397SOL    HW239651   3.810   2.068  15.140 -0.7916  0.7054 -1.7516
 9398SOL     OW39652   1.294   3.187   7.433 -0.0651  0.6079 -0.5105
 9398SOL    HW139653   1.297   3.259   7.370 -0.1108  0.2848 -0.8781
 9398SOL    HW239654   1.281   3.117   7.370  0.3947  1.0228 -1.0652
 9399SOL     OW39655   0.778   2.043   4.652  0.0117 -0.4568 -0.5186
 9399SOL    HW139656   0.719   2.090   4.593 -0.1183 -0.7625 -0.6324
 9399SOL    HW239657   0.827   2.116   4.690 -1.2586 -0.1375  0.4792
 9400SOL     OW39658   1.350   3.332   1.486 -0.3187 -0.9218  0.0199
 9400SOL    HW139659   1.272   3.322   1.431 -0.1817 -0.6069 -0.2350
 9400SOL    HW239660   1.367   3.242   1.511  0.3196 -1.1688 -1.2898
 9401SOL     OW39661   3.777   0.830  11.483  0.5594  0.0485 -0.3830
 9401SOL    HW139662   3.853   0.889  11.476 -0.3200  1.0451 -1.5755
 9401SOL    HW239663   3.761   0.836  11.577 -1.3972 -0.8102 -0.6698
 9402SOL     OW39664   0.443   1.743  17.161  0.0066  0.1347 -0.9457
 9402SOL    HW139665   0.500   1.735  17.237 -1.2415 -0.4776 -0.0677
 9402SOL    HW239666   0.364   1.708  17.202  0.0152  0.1401 -0.9246
 9403SOL     OW39667   0.501   1.960   5.926  0.0672 -0.0025  0.6886
 9403SOL    HW139668   0.473   2.009   6.004  1.1958 -1.3564  1.9464
 9403SOL    HW239669   0.420   1.978   5.878  0.0782 -1.2546  0.2080
 9404SOL     OW39670   0.175   1.776   5.172  0.3488  0.0421 -0.3426
 9404SOL    HW139671   0.270   1.774   5.171  0.3489 -0.2136  0.9046
 9404SOL    HW239672   0.159   1.848   5.110  0.7601 -2.7568 -3.6806
 9405SOL     OW39673   2.413   4.166  13.159 -0.2290  0.1127  0.2419
 9405SOL    HW139674   2.468   4.100  13.117 -0.2361 -0.9853  1.9807
 9405SOL    HW239675   2.349   4.111  13.203 -2.3435  2.3331 -0.0318
 9406SOL     OW39676   1.315   4.227  14.600 -0.3201 -0.3850  0.0620
 9406SOL    HW139677   1.366   4.166  14.653  0.0501  1.2921  1.6546
 9406SOL    HW239678   1.378   4.297  14.583 -1.6999  0.6601 -0.7231
 9407SOL     OW39679   2.409   4.670   4.748 -0.7911 -0.3845  0.5494
 9407SOL    HW139680   2.389   4.654   4.840  2.3685  2.2257  1.7027
 9407SOL    HW239681   2.461   0.027   4.767 -1.4789 -0.0810  1.1929
 9408SOL     OW39682   3.443   0.090  14.534 -0.0192  0.1731 -0.6927
 9408SOL    HW139683   3.532   0.111  14.562 -0.2352  0.6925 -0.4073
 9408SOL    HW239684   3.444   0.087  14.438 -1.9289  0.4158 -0.7180
 9409SOL     OW39685   4.653   4.570  15.356  0.0836 -0.1870 -0.4664
 9409SOL    HW139686   4.656   4.654  15.402 -1.5662  0.8938 -2.3155
 9409SOL    HW239687   4.602   4.591  15.278 -0.7497  0.8305  0.3525
 9410SOL     OW39688   0.220   3.855   5.856 -0.6469 -0.2859  0.1849
 9410SOL    HW139689   0.175   3.939   5.864 -1.8947 -1.0015  0.6274
 9410SOL    HW239690   0.256   3.863   5.767  0.6716  1.0418  0.8424
 9411SOL     OW39691   3.982   0.523   0.185 -0.0080  0.2957  0.4028
 9411SOL    HW139692   3.961   0.605   0.142  0.9023  1.4877  2.1959
 9411SOL    HW239693   3.973   0.537   0.280 -2.6568  1.3079 -0.0134
 9412SOL     OW39694   2.924   1.063   2.067  0.6433  0.1922  0.0276
 9412SOL    HW139695   2.926   1.001   2.140  1.4723  0.0264 -0.1256
 9412SOL    HW239696   3.009   1.038   2.029  1.0478  0.7716  0.5384
 9413SOL     OW39697   2.785   3.466  16.500 -0.3131  0.2508  0.1071
 9413SOL    HW139698   2.728   3.505  16.567 -0.1973 -3.8736  2.6104
 9413SOL    HW239699   2.726   3.409  16.451  2.5302 -1.9525 -0.6901
 9414SOL     OW39700   3.437   0.110   2.162  0.2331 -0.1136 -0.1541
 9414SOL    HW139701   3.520   0.105   2.115 -0.3835  0.0492 -1.2653
 9414SOL    HW239702   3.387   0.172   2.109 -1.5279  0.5662  2.3024
 9415SOL     OW39703   4.187   3.950   4.428  0.6164 -0.1390 -0.0104
 9415SOL    HW139704   4.250   3.894   4.382  1.0145 -1.0107  1.5743
 9415SOL    HW239705   4.197   4.025   4.371  0.9913 -0.4246 -0.3251
 9416SOL     OW39706   1.322   0.529   4.395  0.2010  0.3674  0.1817
 9416SOL    HW139707   1.253   0.595   4.389 -0.4972 -0.2249  1.6654
 9416SOL    HW239708   1.295   0.472   4.322 -2.0689  1.1660  0.3905
 9417SOL     OW39709   3.779   3.389   9.134  0.1913  0.2770  0.0220
 9417SOL    HW139710   3.708   3.330   9.159  0.0112  0.4805 -0.0101
 9417SOL    HW239711   3.847   3.346   9.082 -0.5936  0.1271 -0.8791
 9418SOL     OW39712   1.968   2.782   9.410  0.0333  0.5677  0.0202
 9418SOL    HW139713   1.912   2.846   9.366 -0.7271  1.4430  2.2416
 9418SOL    HW239714   1.903   2.728   9.455 -1.9514  0.4847 -2.9456
 9419SOL     OW39715   1.524   2.202   4.475 -0.1501 -0.3615  0.1557
 9419SOL    HW139716   1.546   2.286   4.517 -1.7183 -0.3608  0.9635
 9419SOL    HW239717   1.465   2.169   4.542  0.4221 -0.0822  0.8089
 9420SOL     OW39718   2.416   2.244   2.812 -0.4627 -0.3018  0.1453
 9420SOL    HW139719   2.434   2.253   2.906 -0.1959  0.1220  0.0575
 9420SOL    HW239720   2.341   2.304   2.807 -0.8281 -0.8729 -1.0887
 9421SOL     OW39721   1.890   2.247   5.771 -0.4659 -0.4150 -0.1097
 9421SOL    HW139722   1.943   2.325   5.785  0.2976 -1.1415  0.9684
 9421SOL    HW239723   1.826   2.289   5.713  0.3797  2.4505  1.0024
 9422SOL     OW39724   1.927   3.187  12.737  0.4223 -0.1088 -0.4813
 9422SOL    HW139725   1.901   3.107  12.692  1.8413 -1.1493  0.5319
 9422SOL    HW239726   2.017   3.202  12.707  0.4574  1.3537  0.3496
 9423SOL     OW39727   0.844   0.063  10.429  0.1062 -0.2215  0.4582
 9423SOL    HW139728   0.834   0.158  10.430 -0.0672 -0.2602  2.1390
 9423SOL    HW239729   0.858   0.052  10.335 -1.0267 -0.5607  0.3271
 9424SOL     OW39730   4.344   1.494   4.923  0.6607  0.5846 -0.0268
 9424SOL    HW139731   4.306   1.419   4.877 -1.3447  1.7804 -0.3322
 9424SOL    HW239732   4.261   1.532   4.950  0.7492  0.6372  0.1660
 9425SOL     OW39733   4.328   2.799  13.170  0.6120 -0.0171  0.3478
 9425SOL    HW139734   4.343   2.783  13.077 -0.6599 -0.8052  0.2757
 9425SOL    HW239735   4.234   2.802  13.187  0.4305 -1.7942 -0.3370
 9426SOL     OW39736   0.118   0.262  16.178 -0.4392  0.4506 -0.2133
 9426SOL    HW139737   0.194   0.229  16.225 -0.2659 -0.3228 -1.0372
 9426SOL    HW239738   0.053   0.197  16.206 -2.4959  1.9515 -1.5305
 9427SOL     OW39739   0.004   2.984   1.813  0.0294 -0.3734  0.0080
 9427SOL    HW139740   0.065   2.961   1.883  0.3464  0.7948  0.1057
 9427SOL    HW239741   0.036   2.929   1.741  1.6498 -2.9702  2.7067
 9428SOL     OW39742   3.824   0.045   2.848 -0.5187  0.9444  0.3775
 9428SOL    HW139743   3.869   4.696   2.895 -2.1689 -1.3451 -1.4087
 9428SOL    HW239744   3.733   0.020   2.869  0.0011 -0.7398  0.6419
 9429SOL     OW39745   2.854   2.075   3.411 -0.1324  0.5112  0.6526
 9429SOL    HW139746   2.849   1.979   3.407 -1.3257  0.7003 -2.2532
 9429SOL    HW239747   2.762   2.101   3.412  0.6538  3.2657  1.4740
 9430SOL     OW39748   4.374   2.877   8.620  0.0069 -0.0729 -0.2133
 9430SOL    HW139749   4.318   2.944   8.581 -0.2429  0.3577  0.9008
 9430SOL    HW239750   4.339   2.865   8.708 -1.3304  2.3812 -0.4052
 9431SOL     OW39751   0.723   2.849  14.972 -0.4507 -0.8120  0.2395
 9431SOL    HW139752   0.776   2.830  15.049 -0.7204  0.0959  0.6433
 9431SOL    HW239753   0.701   2.940  14.990 -1.0527 -1.2432  1.7349
 9432SOL     OW39754   0.077   1.816  16.424  0.0079  0.0642  0.3474
 9432SOL    HW139755   0.127   1.837  16.502  1.8774  1.1131 -1.1589
 9432SOL    HW239756   0.084   1.904  16.388 -1.8195  0.9039  2.0221
 9433SOL     OW39757   2.304   3.255   3.763  0.9345  0.5548  0.0794
 9433SOL    HW139758   2.214   3.280   3.742  0.8467  0.8263  0.7945
 9433SOL    HW239759   2.335   3.261   3.672  2.2279 -1.2018  0.3948
 9434SOL     OW39760   2.300   2.784   5.502 -0.3200 -0.4883 -0.1584
 9434SOL    HW139761   2.339   2.813   5.420 -1.8239  2.5711  0.2257
 9434SOL    HW239762   2.338   2.696   5.507  1.6022  0.4146  1.0180
 9435SOL     OW39763   1.668   4.241   3.445  0.0093  0.1686 -0.2138
 9435SOL    HW139764   1.670   4.294   3.365 -1.2483  3.1324  1.7360
 9435SOL    HW239765   1.578   4.210   3.440  0.7190 -1.9929  0.4789
 9436SOL     OW39766   4.529   1.766   6.152 -0.6555 -0.2275  0.4904
 9436SOL    HW139767   4.586   1.769   6.229 -0.0197 -0.8481  0.0398
 9436SOL    HW239768   4.505   1.674   6.137  1.2039 -0.9437  1.8435
 9437SOL     OW39769   1.038   1.634   7.285 -0.0977  0.0833  0.5071
 9437SOL    HW139770   0.946   1.643   7.313  0.2081 -0.0839  1.5973
 9437SOL    HW239771   1.074   1.615   7.372 -0.4259  0.7638  0.7933
 9438SOL     OW39772   0.803   1.305  17.191  0.3254  0.7129  0.2768
 9438SOL    HW139773   0.786   1.227  17.244 -2.6576  2.0380  1.2984
 9438SOL    HW239774   0.864   1.279  17.122  0.5681 -0.1920  0.8237
 9439SOL     OW39775   3.123   0.867   1.715 -0.0022  0.1419  0.2448
 9439SOL    HW139776   3.146   0.786   1.669  0.2166  0.3843 -0.0780
 9439SOL    HW239777   3.161   0.934   1.658  0.0890 -0.5713 -0.5283
 9440SOL     OW39778   0.291   1.562   3.212  0.5618  0.5456 -0.3022
 9440SOL    HW139779   0.382   1.578   3.239 -0.1612 -0.1594  2.5855
 9440SOL    HW239780   0.242   1.637   3.244  1.3166 -0.4837  3.2656
 9441SOL     OW39781   2.032   0.840   5.698 -0.4155 -0.3223  0.2172
 9441SOL    HW139782   1.993   0.877   5.778 -0.6371  0.1869 -0.1264
 9441SOL    HW239783   2.106   0.787   5.728  1.0755  2.4762  1.5290
 9442SOL     OW39784   3.867   3.743   9.086 -0.1854 -0.2355  0.2096
 9442SOL    HW139785   3.802   3.789   9.033 -3.9977 -2.7135  2.7351
 9442SOL    HW239786   3.826   3.657   9.073  0.4312 -0.3595 -0.9554
 9443SOL     OW39787   1.341   0.117   9.331  0.4421  0.1430  0.0049
 9443SOL    HW139788   1.276   0.174   9.290  0.4685  1.3698  1.6545
 9443SOL    HW239789   1.384   0.065   9.263 -1.3762  0.3649 -1.2940
 9444SOL     OW39790   4.315   0.996   2.658 -0.1461 -0.1497 -0.4682
 9444SOL    HW139791   4.256   1.030   2.725  1.5759  0.3673  0.8045
 9444SOL    HW239792   4.296   0.903   2.647 -0.4467  0.2342 -3.0753
 9445SOL     OW39793   3.500   0.003   2.616 -0.2684 -0.5441 -0.1120
 9445SOL    HW139794   3.513   4.690   2.704  1.0937 -0.1576 -0.1581
 9445SOL    HW239795   3.406   0.010   2.603 -0.2955 -0.0615  0.3858
 9446SOL     OW39796   1.914   3.447  12.990  0.0117  0.3512 -0.1322
 9446SOL    HW139797   1.884   3.512  13.053  2.5330  2.2952 -0.9623
 9446SOL    HW239798   2.002   3.431  13.026  0.4592  0.2967 -1.2399
 9447SOL     OW39799   0.834   2.016   7.778 -0.1884 -0.0097 -0.9888
 9447SOL    HW139800   0.885   1.940   7.807 -0.1807 -0.5572 -2.4498
 9447SOL    HW239801   0.861   2.075   7.848 -0.2509  1.2075 -2.0027
 9448SOL     OW39802   2.698   0.278   8.231  0.4892 -0.0267  0.4447
 9448SOL    HW139803   2.610   0.248   8.254  1.3272 -1.2119  2.0694
 9448SOL    HW239804   2.683   0.371   8.213  0.6566 -0.0392  0.2413
 9449SOL     OW39805   0.853   3.848  12.026 -0.1726 -0.8723  0.5243
 9449SOL    HW139806   0.839   3.876  11.936  0.4256  0.0268  0.7045
 9449SOL    HW239807   0.885   3.926  12.072 -2.5582 -0.7176  1.8893
 9450SOL     OW39808   3.192   1.163   0.859  0.5787 -0.7290 -0.3968
 9450SOL    HW139809   3.210   1.255   0.837 -3.6182  0.3649  0.9200
 9450SOL    HW239810   3.137   1.173   0.937 -0.3700  1.9215 -1.4065
 9451SOL     OW39811   2.314   3.297   7.046 -0.3576 -0.3868 -0.2353
 9451SOL    HW139812   2.236   3.353   7.047  0.8734  1.2888  1.6365
 9451SOL    HW239813   2.377   3.356   7.005  1.6484 -2.5486 -0.2643
 9452SOL     OW39814   1.876   1.223  10.661 -0.3234 -0.1660  0.5510
 9452SOL    HW139815   1.791   1.254  10.628  0.4774  1.0791 -0.3491
 9452SOL    HW239816   1.866   1.129  10.673  0.3691 -0.1599  1.1675
 9453SOL     OW39817   2.081   4.622   3.067 -0.2891  0.5669  0.1741
 9453SOL    HW139818   2.061   4.621   3.160  0.1998  1.6818  0.2900
 9453SOL    HW239819   2.081   4.716   3.046  0.6496  0.8227  1.3065
 9454SOL     OW39820   2.089   0.508   8.105 -0.2358 -0.0692 -0.2253
 9454SOL    HW139821   2.061   0.566   8.176  0.7606 -0.2039  0.2703
 9454SOL    HW239822   2.143   0.442   8.148  0.0231  0.8694  0.9032
 9455SOL     OW39823   2.073   0.931  12.367 -0.1085 -0.0472 -0.5057
 9455SOL    HW139824   1.981   0.939  12.394  0.3621 -0.8902  1.3626
 9455SOL    HW239825   2.114   1.006  12.411  0.1358  0.4947 -1.6695
 9456SOL     OW39826   2.310   3.887   5.497 -0.3345 -0.4852 -0.2088
 9456SOL    HW139827   2.286   3.796   5.482 -1.3033 -0.5044  1.4477
 9456SOL    HW239828   2.342   3.912   5.410  0.1278  0.2010  0.1537
 9457SOL     OW39829   2.938   0.387   5.350  0.6587 -0.2369  0.3751
 9457SOL    HW139830   3.016   0.370   5.403 -0.1411  0.4310  1.7822
 9457SOL    HW239831   2.986   0.440   5.286 -0.1164  0.9793  0.8072
 9458SOL     OW39832   4.712   0.468   4.151 -0.6924  0.0053 -0.0870
 9458SOL    HW139833   4.675   0.387   4.116 -1.0756 -0.4098  1.2650
 9458SOL    HW239834   0.018   0.517   4.074 -0.0251 -0.7220 -0.3098
 9459SOL     OW39835   1.942   4.048   4.673  0.5507  0.6028 -0.2213
 9459SOL    HW139836   1.990   4.099   4.607  1.1739  0.1547 -0.1143
 9459SOL    HW239837   1.977   4.077   4.757  0.4423 -0.6285  0.2369
 9460SOL     OW39838   2.021   0.272  13.371 -0.3445  0.0056 -0.4497
 9460SOL    HW139839   2.003   0.348  13.427 -0.4660 -0.2630 -0.1295
 9460SOL    HW239840   1.983   0.313  13.293 -1.0882 -0.4159 -0.3059
 9461SOL     OW39841   0.676   3.205   9.122  0.0850  0.8266  0.7467
 9461SOL    HW139842   0.613   3.218   9.192 -2.9656  0.4237 -1.9304
 9461SOL    HW239843   0.622   3.162   9.056 -1.5971  1.6672  1.5927
 9462SOL     OW39844   0.416   0.252   8.397  0.1441  0.2186 -0.6200
 9462SOL    HW139845   0.388   0.298   8.318 -2.9005 -0.8022 -0.1441
 9462SOL    HW239846   0.332   0.245   8.443  0.2287  1.4625 -0.2980
 9463SOL     OW39847   4.048   0.168   0.692 -0.9565  0.0029 -0.2579
 9463SOL    HW139848   4.131   0.195   0.732  0.6348 -1.9741 -2.1874
 9463SOL    HW239849   4.006   0.247   0.658  0.6132  0.6898 -0.5933
 9464SOL     OW39850   1.867   3.598  11.565 -0.5893 -0.1860 -0.0960
 9464SOL    HW139851   1.843   3.644  11.484 -4.8654 -2.7844 -0.2664
 9464SOL    HW239852   1.963   3.595  11.575 -0.5429 -0.4852 -0.6155
 9465SOL     OW39853   0.402   2.150   2.343 -0.1208  0.3916  0.2854
 9465SOL    HW139854   0.434   2.220   2.286  0.6513 -1.2233 -1.2686
 9465SOL    HW239855   0.330   2.203   2.378 -1.0230 -0.5518 -0.1750
 9466SOL     OW39856   1.030   3.555   9.599  0.3728 -0.0240 -0.4458
 9466SOL    HW139857   0.950   3.584   9.556 -0.5624  1.0146  2.0066
 9466SOL    HW239858   1.097   3.601   9.547  0.5068 -0.2520 -0.4769
 9467SOL     OW39859   4.539   1.320   5.874  0.2432 -0.1875  0.0712
 9467SOL    HW139860   4.585   1.259   5.817  1.0493  0.0757  0.4441
 9467SOL    HW239861   4.519   1.388   5.810  0.4797 -0.7218 -0.5629
 9468SOL     OW39862   3.613   1.597   4.471  0.0418  0.2849 -0.1038
 9468SOL    HW139863   3.704   1.582   4.493  0.2961  0.0460 -1.3142
 9468SOL    HW239864   3.602   1.541   4.394  0.5505 -1.0785  0.8175
 9469SOL     OW39865   3.016   3.745   5.104 -0.1642  0.2310  0.2463
 9469SOL    HW139866   3.031   3.740   5.198 -0.2203 -0.1930  0.2284
 9469SOL    HW239867   2.923   3.767   5.096 -0.2252  0.8707  2.7037
 9470SOL     OW39868   0.145   3.412   6.996 -0.2395  0.0478 -0.1369
 9470SOL    HW139869   0.173   3.491   7.043 -1.5525  1.0751 -1.0949
 9470SOL    HW239870   0.152   3.334   7.052 -1.1198 -0.3707 -0.6163
 9471SOL     OW39871   3.051   4.152   9.524 -0.3121  0.2488 -0.1453
 9471SOL    HW139872   3.077   4.244   9.526  1.1697 -0.1108 -1.9665
 9471SOL    HW239873   2.975   4.148   9.582 -0.5893 -0.8150 -0.5863
 9472SOL     OW39874   2.267   1.358  12.669  0.0431 -0.3068 -0.5580
 9472SOL    HW139875   2.341   1.417  12.685  1.3454 -2.5300  1.4785
 9472SOL    HW239876   2.230   1.352  12.756  0.3286  1.2091 -0.3305
 9473SOL     OW39877   1.698   1.595  16.982  0.1274  0.1833  0.3281
 9473SOL    HW139878   1.662   1.591  16.893  1.4562  0.6008 -0.2288
 9473SOL    HW239879   1.670   1.684  17.004 -0.1701  0.1075  0.2541
 9474SOL     OW39880   4.573   3.541   7.822 -0.1009  0.0881  0.3831
 9474SOL    HW139881   4.514   3.523   7.895  2.5059 -0.7077  2.3172
 9474SOL    HW239882   4.628   3.615   7.848  1.4485 -0.8373 -0.2048
 9475SOL     OW39883   4.142   1.954  16.690  0.2343  0.4118 -0.0770
 9475SOL    HW139884   4.141   1.963  16.594 -0.6535 -0.1458 -0.1156
 9475SOL    HW239885   4.075   2.017  16.717 -0.6963  0.1492 -1.7638
 9476SOL     OW39886   2.700   2.992   4.105  0.4731  0.1408  0.2627
 9476SOL    HW139887   2.624   2.956   4.150  0.1064 -0.9429 -1.2133
 9476SOL    HW239888   2.767   2.925   4.114 -1.7465 -2.0530  0.2434
 9477SOL     OW39889   2.053   0.476   6.539 -0.8338  0.1848  0.0957
 9477SOL    HW139890   2.112   0.431   6.477 -0.6331  0.6654 -0.0612
 9477SOL    HW239891   2.113   0.494   6.611  0.8036 -3.0174 -0.4522
 9478SOL     OW39892   1.567   0.438   2.459  0.2312 -0.6571  0.1787
 9478SOL    HW139893   1.583   0.348   2.487  0.8465 -0.7635 -0.5215
 9478SOL    HW239894   1.482   0.427   2.418  0.5536 -0.2412 -0.5973
 9479SOL     OW39895   0.670   1.610   2.760  0.5014 -0.0365  0.0400
 9479SOL    HW139896   0.682   1.533   2.816 -0.6815  2.2303  3.4088
 9479SOL    HW239897   0.620   1.675   2.809  0.0805 -1.1986  1.1481
 9480SOL     OW39898   2.764   0.334   3.725 -0.0514 -0.5101  0.4354
 9480SOL    HW139899   2.776   0.354   3.633  1.9433 -0.6012  0.6777
 9480SOL    HW239900   2.847   0.363   3.762 -0.4328 -0.6740  1.4506
 9481SOL     OW39901   1.010   0.417   6.397 -0.3248  0.1171 -0.7437
 9481SOL    HW139902   0.935   0.360   6.380  0.4518 -1.1332  0.0364
 9481SOL    HW239903   1.061   0.344   6.432  0.7680  0.9923 -0.5130
 9482SOL     OW39904   3.477   1.423   0.931 -1.2875 -0.0217  0.1678
 9482SOL    HW139905   3.519   1.477   0.999 -1.4227 -0.2650  0.4440
 9482SOL    HW239906   3.525   1.343   0.950 -0.4638  0.2177 -0.9200
 9483SOL     OW39907   2.376   0.837   0.200 -0.2077 -0.2059  0.2100
 9483SOL    HW139908   2.352   0.826   0.108  1.5821 -0.4261 -0.2264
 9483SOL    HW239909   2.408   0.748   0.217  1.7483  0.2777 -0.8815
 9484SOL     OW39910   3.403   0.293   8.629  0.4491 -0.1694  0.5798
 9484SOL    HW139911   3.342   0.359   8.662  1.5506  1.2689 -0.2658
 9484SOL    HW239912   3.442   0.268   8.713  0.6280 -0.0537  0.5306
 9485SOL     OW39913   0.231   4.604   3.118  0.4631  0.3405  0.2511
 9485SOL    HW139914   0.260   4.682   3.070 -1.7517 -0.1004 -1.7962
 9485SOL    HW239915   0.162   4.569   3.062 -0.7500  0.7127  1.5047
 9486SOL     OW39916   2.733   1.431   1.699 -1.3117 -0.1645  0.1368
 9486SOL    HW139917   2.761   1.372   1.769 -0.1346 -3.8683 -3.4131
 9486SOL    HW239918   2.730   1.375   1.621 -1.0130  0.5917 -0.4139
 9487SOL     OW39919   0.807   2.686  12.444 -0.1584  0.3581  0.0348
 9487SOL    HW139920   0.782   2.597  12.470  1.3524 -0.3880 -1.0990
 9487SOL    HW239921   0.810   2.730  12.529 -1.1893 -1.9911  1.2810
 9488SOL     OW39922   1.454   2.579   2.521  0.3012 -0.6909 -0.2035
 9488SOL    HW139923   1.526   2.561   2.461 -0.6293  0.4859 -1.6879
 9488SOL    HW239924   1.455   2.493   2.562  1.6209 -0.7589 -0.3927
 9489SOL     OW39925   2.145   0.284   9.076 -0.1231  0.0951 -0.1318
 9489SOL    HW139926   2.183   0.365   9.044  2.4940 -0.4310  1.6641
 9489SOL    HW239927   2.227   0.234   9.076  0.2535  0.7149 -0.0963
 9490SOL     OW39928   3.506   2.476   7.154  0.4242 -0.7745  0.0981
 9490SOL    HW139929   3.541   2.520   7.231  0.4516 -1.2671  0.3651
 9490SOL    HW239930   3.577   2.412   7.141 -0.0177 -1.0527 -0.9958
 9491SOL     OW39931   0.583   0.422   6.393 -0.2967 -0.6879  0.3560
 9491SOL    HW139932   0.633   0.374   6.460 -0.7370  1.9111  2.5076
 9491SOL    HW239933   0.622   0.374   6.319  0.5575  2.3512 -1.1456
 9492SOL     OW39934   2.658   3.242   8.306 -0.0184 -0.1397  0.1581
 9492SOL    HW139935   2.677   3.203   8.221 -0.6062 -0.2922  0.0963
 9492SOL    HW239936   2.681   3.179   8.374  0.6900  0.4029  0.4231
 9493SOL     OW39937   0.567   1.575   4.327 -0.0096  0.0845 -0.1035
 9493SOL    HW139938   0.499   1.513   4.353 -0.1936  1.0589  1.7516
 9493SOL    HW239939   0.531   1.594   4.240 -1.1376 -1.0717  0.1047
 9494SOL     OW39940   3.634   0.233   4.914 -0.1115 -0.5110  0.2529
 9494SOL    HW139941   3.592   0.309   4.873  0.5171 -1.6110 -2.4196
 9494SOL    HW239942   3.658   0.182   4.837 -0.6747 -0.2241 -0.1140
 9495SOL     OW39943   3.917   1.921   4.233  0.2590  0.2544 -0.3340
 9495SOL    HW139944   3.857   1.856   4.196  0.1343 -0.5411  1.2806
 9495SOL    HW239945   3.993   1.867   4.255 -0.6596 -2.0861 -2.9587
 9496SOL     OW39946   0.841   1.912   1.333  0.1765 -0.3616 -0.0773
 9496SOL    HW139947   0.805   1.864   1.259  1.2314 -1.0209 -0.1718
 9496SOL    HW239948   0.936   1.907   1.328  0.1550  1.6621 -1.8913
 9497SOL     OW39949   1.164   3.969   7.709 -0.0762  0.2802 -0.0272
 9497SOL    HW139950   1.131   3.884   7.736  1.7303 -0.5682 -0.4685
 9497SOL    HW239951   1.179   4.014   7.792 -0.3650 -0.4148  0.3913
 9498SOL     OW39952   2.447   1.610  11.411 -0.3114  0.2263  0.1059
 9498SOL    HW139953   2.450   1.558  11.331 -3.7455  1.6317 -0.9685
 9498SOL    HW239954   2.392   1.552  11.465  0.4952 -1.0452 -0.4387
 9499SOL     OW39955   0.958   3.235   3.467  0.0296 -0.0299 -0.1460
 9499SOL    HW139956   0.926   3.175   3.400 -2.9946  0.6739  0.6807
 9499SOL    HW239957   0.977   3.185   3.546  0.0208  0.1670 -0.0199
 9500SOL     OW39958   4.506   2.729   4.877  0.2616 -0.0008  0.1119
 9500SOL    HW139959   4.438   2.779   4.831 -0.8412 -0.9591  0.7309
 9500SOL    HW239960   4.497   2.641   4.841 -1.9963  1.1980 -2.2212
 9501SOL     OW39961   1.773   3.250   8.309  0.1823  0.4697 -0.5721
 9501SOL    HW139962   1.720   3.182   8.266 -0.7730  0.0056  1.3055
 9501SOL    HW239963   1.860   3.214   8.292 -0.7641 -2.1190 -0.0455
 9502SOL     OW39964   1.025   2.528   2.554  0.0711 -0.7312  0.1277
 9502SOL    HW139965   1.062   2.614   2.576 -0.3155 -0.4262 -0.4166
 9502SOL    HW239966   1.087   2.507   2.484 -0.1721  0.3649 -0.4105
 9503SOL     OW39967   2.346   0.866   2.697 -0.4662  0.4059  0.0061
 9503SOL    HW139968   2.387   0.870   2.611  0.2238 -1.4518  0.2401
 9503SOL    HW239969   2.328   0.772   2.702 -0.7489  0.5121  0.9855
 9504SOL     OW39970   1.776   1.824  12.330  0.0761 -0.6357 -0.4557
 9504SOL    HW139971   1.842   1.893  12.319  1.1202 -1.4765  0.4274
 9504SOL    HW239972   1.722   1.859  12.400 -0.2173 -2.7816  0.4045
 9505SOL     OW39973   1.623   1.250   6.612 -0.0196 -0.0119 -0.1553
 9505SOL    HW139974   1.644   1.336   6.577 -0.1590 -0.1737 -0.6422
 9505SOL    HW239975   1.697   1.203   6.574 -1.5403 -2.3738 -0.1728
 9506SOL     OW39976   2.576   0.375  13.773 -0.1780  0.3999  0.2988
 9506SOL    HW139977   2.671   0.376  13.784 -0.1342 -0.2826 -0.0363
 9506SOL    HW239978   2.558   0.287  13.741  1.4193  1.7564 -4.4303
 9507SOL     OW39979   3.905   1.464  11.470  0.4224 -0.6275 -0.4857
 9507SOL    HW139980   3.912   1.499  11.559 -2.3207  2.4799 -1.5220
 9507SOL    HW239981   3.893   1.538  11.411 -1.7572 -0.3840  0.2269
 9508SOL     OW39982   4.238   3.322   2.894 -0.4365 -0.5042 -0.3111
 9508SOL    HW139983   4.277   3.235   2.901  1.3346  0.4473  1.6832
 9508SOL    HW239984   4.159   3.311   2.842 -1.3267 -0.6778  1.0970
 9509SOL     OW39985   0.424   1.354   8.076  0.6428  0.3924  0.0936
 9509SOL    HW139986   0.351   1.293   8.061  0.7334  0.6578 -1.4136
 9509SOL    HW239987   0.376   1.437   8.079  2.8917  1.6314  1.1225
 9510SOL     OW39988   4.563   2.226   7.108  0.6940 -0.3779 -0.1693
 9510SOL    HW139989   4.621   2.258   7.177  0.7751 -1.3872  0.2290
 9510SOL    HW239990   4.614   2.265   7.036  1.0070 -0.5731 -0.0544
 9511SOL     OW39991   3.218   3.693   7.797  0.4952 -0.0513 -0.2022
 9511SOL    HW139992   3.280   3.634   7.840 -0.9507 -0.3903  1.4340
 9511SOL    HW239993   3.246   3.782   7.820  1.5792 -0.4162 -0.1051
 9512SOL     OW39994   4.058   4.074   7.568 -0.3261  0.0448  0.5034
 9512SOL    HW139995   4.116   4.124   7.625  0.5823 -1.0082  0.5237
 9512SOL    HW239996   4.109   3.993   7.559 -1.0350 -0.5605  2.0070
 9513SOL     OW39997   4.379   0.792   7.641  0.4090  0.1776 -0.0129
 9513SOL    HW139998   4.385   0.875   7.596 -2.6499 -0.2061 -1.0823
 9513SOL    HW239999   4.318   0.737   7.591  3.8004 -2.1911 -1.5619
 9514SOL     OW40000   2.843   2.488   1.938 -0.8073  0.1521  0.3706
 9514SOL    HW140001   2.886   2.475   1.853 -2.9648  1.2070 -0.9111
 9514SOL    HW240002   2.842   2.409   1.991  0.3873  0.1372  0.3493
 9515SOL     OW40003   0.856   4.530   1.346 -0.3993 -0.0267  0.2024
 9515SOL    HW140004   0.943   4.498   1.372 -1.1776  0.2823  3.1422
 9515SOL    HW240005   0.799   4.456   1.368  1.5657 -1.7880 -0.5848
 9516SOL     OW40006   2.304   1.189   8.212 -0.0158 -0.2696  0.0985
 9516SOL    HW140007   2.284   1.193   8.118 -0.1149  2.2070  0.2341
 9516SOL    HW240008   2.230   1.240   8.244  1.0289  0.6670  0.9933
 9517SOL     OW40009   0.773   3.577  10.813  0.0320 -0.8384 -0.3171
 9517SOL    HW140010   0.747   3.564  10.722  0.0251 -0.9588 -0.2982
 9517SOL    HW240011   0.818   3.495  10.835 -0.6059 -0.7967  1.1407
 9518SOL     OW40012   0.809   3.172   1.984 -0.2629  0.3339 -0.2485
 9518SOL    HW140013   0.786   3.097   1.929  2.6777 -0.6523 -0.1113
 9518SOL    HW240014   0.839   3.129   2.064 -0.7318  4.4546  2.1490
 9519SOL     OW40015   2.819   3.351   0.562  0.2722 -0.1566 -0.0324
 9519SOL    HW140016   2.837   3.305   0.644  0.6182  0.0658  0.0166
 9519SOL    HW240017   2.832   3.281   0.498 -1.0320  1.0394 -1.6090
 9520SOL     OW40018   1.590   3.920   3.322 -0.2052 -0.9131  0.3695
 9520SOL    HW140019   1.625   3.872   3.396 -0.5840 -0.7484  0.6569
 9520SOL    HW240020   1.615   3.861   3.250  0.5328 -1.5902  1.1898
 9521SOL     OW40021   1.402   0.561   8.439 -0.6029 -0.5078  0.0913
 9521SOL    HW140022   1.467   0.524   8.379  0.1969  0.9957  0.0374
 9521SOL    HW240023   1.439   0.646   8.463 -0.3819 -0.2842 -1.0513
 9522SOL     OW40024   4.589   2.567   4.253 -0.2539 -0.7917 -0.0757
 9522SOL    HW140025   4.626   2.650   4.285  1.0469 -1.4641  0.1454
 9522SOL    HW240026   4.627   2.504   4.313 -0.2528 -0.9576 -0.2506
 9523SOL     OW40027   1.550   1.063  10.439 -0.0511  0.0087  0.5018
 9523SOL    HW140028   1.501   0.981  10.431  1.6422 -0.7249 -2.5358
 9523SOL    HW240029   1.637   1.044  10.404 -0.4579 -0.9305 -0.0092
 9524SOL     OW40030   1.998   0.627  16.153  0.0718 -0.0476  0.4529
 9524SOL    HW140031   2.089   0.625  16.185 -0.2167  3.4767  1.4808
 9524SOL    HW240032   1.991   0.566  16.079  2.2498  1.0097 -0.6553
 9525SOL     OW40033   1.478   1.440   5.043  0.2423  0.0579  0.1516
 9525SOL    HW140034   1.389   1.464   5.071 -0.2906 -1.0675 -0.6001
 9525SOL    HW240035   1.507   1.516   4.992  2.8809 -0.0273  1.5645
 9526SOL     OW40036   1.091   3.662   1.896  0.5913  0.1609  0.4790
 9526SOL    HW140037   1.112   3.713   1.817 -1.6799 -1.5371 -1.2231
 9526SOL    HW240038   1.180   3.630   1.912 -0.0264 -1.9213 -0.2441
 9527SOL     OW40039   3.237   1.381   9.615 -0.0266  0.1712 -0.2065
 9527SOL    HW140040   3.166   1.408   9.674 -1.2977  0.1735 -1.7160
 9527SOL    HW240041   3.297   1.330   9.669 -1.3157 -0.1261  0.9600
 9528SOL     OW40042   2.464   3.142   5.892 -0.3688  0.3452 -0.6404
 9528SOL    HW140043   2.443   3.087   5.966 -0.2679 -0.6603 -1.3610
 9528SOL    HW240044   2.434   3.098   5.813  0.0232 -0.2508 -0.4494
 9529SOL     OW40045   0.565   0.833   7.053 -0.4852  0.0310 -0.2756
 9529SOL    HW140046   0.488   0.790   7.015 -0.4265 -1.7503  1.6255
 9529SOL    HW240047   0.626   0.810   6.982 -0.4984  1.7683 -0.8492
 9530SOL     OW40048   1.143   2.172   5.790 -0.1903 -0.0343  0.0879
 9530SOL    HW140049   1.164   2.139   5.877  0.6999 -2.6571 -1.1138
 9530SOL    HW240050   1.051   2.197   5.787 -0.2880 -0.4155 -0.0721
 9531SOL     OW40051   0.048   2.733   5.655  0.4689 -0.1924 -0.6730
 9531SOL    HW140052   4.699   2.797   5.652 -0.4156 -1.1296  0.0301
 9531SOL    HW240053   0.019   2.666   5.717 -1.6637  0.5506 -0.8622
 9532SOL     OW40054   0.179   4.550  14.872 -0.1396 -0.5515  0.6115
 9532SOL    HW140055   0.129   4.570  14.793  1.2266  0.2408 -0.0565
 9532SOL    HW240056   0.149   4.461  14.889 -0.4115 -0.5810 -0.0342
 9533SOL     OW40057   2.111   1.005  17.260 -0.2814  0.1903  0.1850
 9533SOL    HW140058   2.145   0.925  17.221  1.6623  1.0883  0.0086
 9533SOL    HW240059   2.114   1.073  17.192 -2.4248 -0.1520 -0.2688
 9534SOL     OW40060   0.460   2.399   4.341  0.5492 -0.4077  0.3500
 9534SOL    HW140061   0.418   2.314   4.339 -0.2868  0.0470 -1.2658
 9534SOL    HW240062   0.460   2.424   4.433 -1.3051 -0.2630  0.3044
 9535SOL     OW40063   3.271   0.554   3.732  0.0918 -0.1756  0.1720
 9535SOL    HW140064   3.329   0.627   3.753  1.0730 -1.1996  1.0586
 9535SOL    HW240065   3.227   0.580   3.651  1.4335 -0.7100 -0.7242
 9536SOL     OW40066   2.287   1.197  10.910 -0.3063 -0.0378 -0.4197
 9536SOL    HW140067   2.225   1.232  10.974  1.6410 -0.2908  1.5963
 9536SOL    HW240068   2.277   1.103  10.925 -0.2486  0.0223 -0.0121
 9537SOL     OW40069   0.002   4.442   7.274  0.2009  0.5071  0.1530
 9537SOL    HW140070   0.076   4.384   7.257  1.1143  1.6348  0.2565
 9537SOL    HW240071   0.049   4.523   7.253 -0.5471  0.8092 -0.3437
 9538SOL     OW40072   1.506   0.131   6.474  0.0880  0.0156 -1.1693
 9538SOL    HW140073   1.592   0.125   6.431  1.6656  2.2821  1.7075
 9538SOL    HW240074   1.522   0.046   6.515 -2.2999 -0.0444 -0.3920
 9539SOL     OW40075   3.080   0.019   8.408  0.2757 -0.3329  0.4624
 9539SOL    HW140076   3.147   0.034   8.475 -1.0306  1.4722  1.3813
 9539SOL    HW240077   3.050   0.107   8.388  1.0015 -0.3117 -0.5182
 9540SOL     OW40078   2.241   3.263   3.482  0.6378 -0.4483 -0.1205
 9540SOL    HW140079   2.282   3.239   3.399  0.9360 -0.1661 -0.0526
 9540SOL    HW240080   2.189   3.340   3.461  1.0336  0.7232  3.1368
 9541SOL     OW40081   3.017   1.015  11.997 -0.1640 -0.2559  0.2927
 9541SOL    HW140082   3.033   1.014  11.902  1.0954  0.8960  0.4953
 9541SOL    HW240083   3.058   1.097  12.026 -2.3703  0.7859  0.4747
 9542SOL     OW40084   4.668   1.777  10.785 -0.2065 -0.7230  0.0895
 9542SOL    HW140085   4.690   1.780  10.878  0.1285  1.5384 -0.0496
 9542SOL    HW240086   4.666   1.872  10.771 -1.7957 -0.9348 -1.0027
 9543SOL     OW40087   1.574   3.443   1.365 -0.1733 -0.1350 -0.7576
 9543SOL    HW140088   1.491   3.398   1.385 -1.5889  2.4983 -0.6596
 9543SOL    HW240089   1.563   3.466   1.273  1.6913  1.5347 -0.5432
 9544SOL     OW40090   0.328   3.444   3.274  0.0058 -0.1153 -0.3686
 9544SOL    HW140091   0.356   3.516   3.330  0.1541 -0.2163 -0.3142
 9544SOL    HW240092   0.395   3.376   3.282 -0.3336 -0.4131 -0.0363
 9545SOL     OW40093   3.568   2.722   5.410 -0.3310 -0.3369 -0.5347
 9545SOL    HW140094   3.500   2.762   5.465 -0.0286  1.1662 -1.2532
 9545SOL    HW240095   3.552   2.629   5.427 -1.8972  0.5179  2.6835
 9546SOL     OW40096   3.759   2.683   4.864 -0.2456  0.6596 -0.6063
 9546SOL    HW140097   3.808   2.690   4.946 -0.4622 -0.1956 -0.4134
 9546SOL    HW240098   3.677   2.728   4.885 -0.0114 -0.3913  2.6170
 9547SOL     OW40099   0.971   4.563   3.741  0.3388 -0.1707 -0.0855
 9547SOL    HW140100   0.899   4.502   3.750  0.3254 -0.2943 -1.0098
 9547SOL    HW240101   0.960   4.605   3.826 -2.1843 -1.7082  0.3414
 9548SOL     OW40102   2.881   1.638   5.016  0.1876 -0.2936 -0.6703
 9548SOL    HW140103   2.800   1.668   5.058  0.0688 -0.3630 -0.8478
 9548SOL    HW240104   2.865   1.546   5.034 -0.9130  0.5707  2.7914
 9549SOL     OW40105   3.740   2.054   1.411 -0.3137 -0.5566  0.1762
 9549SOL    HW140106   3.735   2.088   1.501  0.6394  1.4852 -0.5407
 9549SOL    HW240107   3.835   2.060   1.400 -0.2713  1.0271  1.2663
 9550SOL     OW40108   0.172   4.248   8.732  0.3317  0.2063  0.3585
 9550SOL    HW140109   0.155   4.171   8.679  1.3856 -0.3246  0.7822
 9550SOL    HW240110   0.137   4.309   8.668  0.8389  0.0489 -0.0671
 9551SOL     OW40111   4.350   1.355  12.709 -0.1560 -0.2467  0.5330
 9551SOL    HW140112   4.354   1.308  12.792 -0.4097 -0.4372  0.4378
 9551SOL    HW240113   4.255   1.363  12.706  0.2104  4.1772  1.0240
 9552SOL     OW40114   4.129   1.609  12.666 -0.1756  0.1714 -0.9502
 9552SOL    HW140115   4.187   1.685  12.678 -0.9891  0.6300  0.1084
 9552SOL    HW240116   4.204   1.551  12.679  0.7421  1.2790 -1.2683
 9553SOL     OW40117   0.831   4.516  13.268  0.3205  0.1028  0.2513
 9553SOL    HW140118   0.905   4.566  13.231  0.6973  0.0033  0.8783
 9553SOL    HW240119   0.885   4.451  13.313  1.3262  0.6880 -0.1012
 9554SOL     OW40120   1.803   1.038   3.409 -0.4216  0.3112 -0.3133
 9554SOL    HW140121   1.788   1.119   3.359 -0.7860 -0.2576 -1.1175
 9554SOL    HW240122   1.750   1.051   3.487  2.0918  0.7909  1.3326
 9555SOL     OW40123   0.203   2.424  15.015  0.1900 -0.1951  0.1089
 9555SOL    HW140124   0.229   2.447  15.105  1.7599  0.3997 -0.4887
 9555SOL    HW240125   0.236   2.494  14.959 -1.0690  1.7905  1.8523
 9556SOL     OW40126   1.448   2.054   7.790 -0.1443 -0.2103  0.0798
 9556SOL    HW140127   1.420   2.136   7.829  1.3673  0.4522 -0.2619
 9556SOL    HW240128   1.529   2.079   7.746  0.3937 -1.4353  0.3597
 9557SOL     OW40129   2.959   0.664  16.710  0.4987 -0.0722 -0.0686
 9557SOL    HW140130   2.879   0.694  16.666  0.9279  1.2677  0.0661
 9557SOL    HW240131   2.920   0.602  16.772 -1.3858  0.1071 -1.0679
 9558SOL     OW40132   2.554   1.910   5.765  0.3584  0.0158 -0.0191
 9558SOL    HW140133   2.475   1.879   5.809 -1.5773  2.2909 -1.8875
 9558SOL    HW240134   2.516   1.940   5.682 -1.7888 -2.1893  0.1922
 9559SOL     OW40135   1.362   2.570   5.069  0.2777  0.0188 -0.7724
 9559SOL    HW140136   1.323   2.657   5.058 -0.1654 -0.0267  0.4438
 9559SOL    HW240137   1.290   2.519   5.033  1.3077 -1.5160 -0.6408
 9560SOL     OW40138   0.867   1.417  13.449  0.4570  0.4121  0.3227
 9560SOL    HW140139   0.800   1.430  13.517 -2.2358  4.7426 -3.0915
 9560SOL    HW240140   0.940   1.409  13.510  0.8305  2.8523  0.2032
 9561SOL     OW40141   4.083   4.043   8.346 -0.0122  0.1596 -0.5586
 9561SOL    HW140142   4.058   3.996   8.267 -0.2833  0.3094 -0.5615
 9561SOL    HW240143   4.120   4.128   8.322  4.0098 -0.9729  1.6179
 9562SOL     OW40144   2.277   4.469   8.493 -0.1611 -0.1076 -0.6528
 9562SOL    HW140145   2.296   4.439   8.582 -1.1086 -1.8338 -1.0364
 9562SOL    HW240146   2.363   4.503   8.470 -0.5427  0.9756 -0.4646
 9563SOL     OW40147   3.499   0.021  13.837  0.2286  0.1812  1.1034
 9563SOL    HW140148   3.555   4.667  13.819  0.5816  0.2278  2.0098
 9563SOL    HW240149   3.411   4.717  13.806 -0.7742  0.8754  3.3788
 9564SOL     OW40150   0.264   0.558  13.792 -0.0872 -0.2393  0.6804
 9564SOL    HW140151   0.275   0.532  13.884 -0.0715 -2.6128 -0.0028
 9564SOL    HW240152   0.253   0.470  13.757 -0.9254  0.4874 -0.8943
 9565SOL     OW40153   4.110   3.893   0.613 -0.7677  0.3308 -0.1365
 9565SOL    HW140154   4.169   3.881   0.688 -0.5703 -1.4868 -0.5822
 9565SOL    HW240155   4.047   3.826   0.641 -2.4611  1.6091 -0.8525
   4.72136   4.72136  17.68777
